Gaussian '09 started on node020 at Sun Mar 27 05:21:07 EDT 2016.
 Entering Gaussian System, Link 0=/usr/local/gaussian/g09/g09
 Initial command:
 /usr/local/gaussian/g09/l1.exe /home/srmcgrat/thesis/gaussian/cellobiose/450K/9644ps/1/2dp/gaussian16766/Gau-16802.inp -scrdir=/home/srmcgrat/thesis/gaussian/cellobiose/450K/9644ps/1/2dp/gaussian16766/
 Entering Link 1 = /usr/local/gaussian/g09/l1.exe PID=     16804.
  
 Copyright (c) 1988,1990,1992,1993,1995,1998,2003,2009,2010,
            Gaussian, Inc.  All Rights Reserved.
  
 This is part of the Gaussian(R) 09 program.  It is based on
 the Gaussian(R) 03 system (copyright 2003, Gaussian, Inc.),
 the Gaussian(R) 98 system (copyright 1998, Gaussian, Inc.),
 the Gaussian(R) 94 system (copyright 1995, Gaussian, Inc.),
 the Gaussian 92(TM) system (copyright 1992, Gaussian, Inc.),
 the Gaussian 90(TM) system (copyright 1990, Gaussian, Inc.),
 the Gaussian 88(TM) system (copyright 1988, Gaussian, Inc.),
 the Gaussian 86(TM) system (copyright 1986, Carnegie Mellon
 University), and the Gaussian 82(TM) system (copyright 1983,
 Carnegie Mellon University). Gaussian is a federally registered
 trademark of Gaussian, Inc.
  
 This software contains proprietary and confidential information,
 including trade secrets, belonging to Gaussian, Inc.
  
 This software is provided under written license and may be
 used, copied, transmitted, or stored only in accord with that
 written license.
  
 The following legend is applicable only to US Government
 contracts under FAR:
  
                    RESTRICTED RIGHTS LEGEND
  
 Use, reproduction and disclosure by the US Government is
 subject to restrictions as set forth in subparagraphs (a)
 and (c) of the Commercial Computer Software - Restricted
 Rights clause in FAR 52.227-19.
  
 Gaussian, Inc.
 340 Quinnipiac St., Bldg. 40, Wallingford CT 06492
  
  
 ---------------------------------------------------------------
 Warning -- This program may not be used in any manner that
 competes with the business of Gaussian, Inc. or will provide
 assistance to any competitor of Gaussian, Inc.  The licensee
 of this program is prohibited from giving any competitor of
 Gaussian, Inc. access to this program.  By using this program,
 the user acknowledges that Gaussian, Inc. is engaged in the
 business of creating and licensing software in the field of
 computational chemistry and represents and warrants to the
 licensee that it is not a competitor of Gaussian, Inc. and that
 it will not use this program in any manner prohibited above.
 ---------------------------------------------------------------
  

 Cite this work as:
 Gaussian 09, Revision B.01,
 M. J. Frisch, G. W. Trucks, H. B. Schlegel, G. E. Scuseria, 
 M. A. Robb, J. R. Cheeseman, G. Scalmani, V. Barone, B. Mennucci, 
 G. A. Petersson, H. Nakatsuji, M. Caricato, X. Li, H. P. Hratchian, 
 A. F. Izmaylov, J. Bloino, G. Zheng, J. L. Sonnenberg, M. Hada, 
 M. Ehara, K. Toyota, R. Fukuda, J. Hasegawa, M. Ishida, T. Nakajima, 
 Y. Honda, O. Kitao, H. Nakai, T. Vreven, J. A. Montgomery, Jr., 
 J. E. Peralta, F. Ogliaro, M. Bearpark, J. J. Heyd, E. Brothers, 
 K. N. Kudin, V. N. Staroverov, T. Keith, R. Kobayashi, J. Normand, 
 K. Raghavachari, A. Rendell, J. C. Burant, S. S. Iyengar, J. Tomasi, 
 M. Cossi, N. Rega, J. M. Millam, M. Klene, J. E. Knox, J. B. Cross, 
 V. Bakken, C. Adamo, J. Jaramillo, R. Gomperts, R. E. Stratmann, 
 O. Yazyev, A. J. Austin, R. Cammi, C. Pomelli, J. W. Ochterski, 
 R. L. Martin, K. Morokuma, V. G. Zakrzewski, G. A. Voth, 
 P. Salvador, J. J. Dannenberg, S. Dapprich, A. D. Daniels, 
 O. Farkas, J. B. Foresman, J. V. Ortiz, J. Cioslowski, 
 and D. J. Fox, Gaussian, Inc., Wallingford CT, 2010.
 
 ******************************************
 Gaussian 09:  EM64L-G09RevB.01 12-Aug-2010
                27-Mar-2016 
 ******************************************
 -------------------------------------------------
 # freq=raman b3lyp/6-31+g(2d,p) geom=connectivity
 -------------------------------------------------
 1/10=4,30=1,38=1,57=2/1,3;
 2/12=2,17=6,18=5,40=1/2;
 3/5=1,6=6,7=112,11=2,16=1,25=1,30=1,71=2,74=-5/1,2,3;
 4//1;
 5/5=2,38=5,98=1/2;
 8/6=4,10=90,11=11/1;
 10/13=10,15=4/2;
 11/6=3,8=1,9=11,15=111,16=1/1,2,10;
 10/6=1/2;
 6/7=2,8=2,9=2,10=2,18=1,28=1/1;
 7/8=1,10=1,25=1/1,2,3,16;
 1/10=4,30=1/3;
 99//99;
 -----------------
 450 9644/9644.com
 -----------------
 Symbolic Z-matrix:
 Charge =  0 Multiplicity = 1
 O                     10.463    8.112     11.686 
 C                     11.366    7.959     12.79 
 C                     11.137    9.317     13.434 
 O                     11.45     10.464    12.631 
 H                     10.97     10.146    11.815 
 C                     11.871    9.345     14.764 
 O                     11.751    10.604    15.444 
 H                     12.288    11.342    15.035 
 C                     10.652    5.48      13.401 
 O                     10.043    4.584     14.343 
 H                     10.279    3.666     14.025 
 C                     10.964    6.909     13.813 
 O                     11.847    6.989     14.942 
 C                     11.437    8.177     15.634 
 O                     12.221    8.267     16.833 
 C                     11.467    8.379     18.049 
 C                     10.921    7.081     18.621 
 O                     10.13     6.341     17.679 
 H                     10.563    6.36      16.778 
 C                     10.132    7.473     19.859 
 O                     9.142     6.52      20.274 
 H                     8.519     6.405     19.501 
 C                     12.826    10.304    18.739 
 O                     13.571    10.731    19.888 
 H                     14.556    10.562    19.908 
 C                     12.327    8.935     19.172 
 O                     11.682    9.059     20.448 
 C                     11.127    7.834     20.949 
 O                     10.536    8.175     22.211 
 H                     10.96481   8.22435   10.87534 
 H                     11.57163   5.03254   13.08642 
 H                     10.00799   5.52919   12.54793 
 H                     10.02806   7.26825   14.18698 
 H                     12.37891   7.84144   12.46581 
 H                     10.09217   9.37766   13.65658 
 H                     12.90997   9.20536   14.54965 
 H                     10.38591   8.18877   15.83391 
 H                     13.46102   10.22416   17.88152 
 H                     12.00664   10.96542   18.54906 
 H                     13.17454   8.29263   19.29001 
 H                     10.64914   9.0482    17.88112 
 H                     11.74572   6.47005   18.92344 
 H                     9.60449   8.37128   19.6146 
 H                     11.22891   8.34832   22.85244 
 H                     11.88079   7.08235   21.05723 
 

 GradGradGradGradGradGradGradGradGradGradGradGradGradGradGradGradGradGrad
 Berny optimization.
 Initialization pass.
 Trust Radius=3.00D-01 FncErr=1.00D-07 GrdErr=1.00D-07
 Number of steps in this run=      2 maximum allowed number of steps=      2.
 GradGradGradGradGradGradGradGradGradGradGradGradGradGradGradGradGradGrad

                          Input orientation:                          
 ---------------------------------------------------------------------
 Center     Atomic      Atomic             Coordinates (Angstroms)
 Number     Number       Type             X           Y           Z
 ---------------------------------------------------------------------
      1          8           0       10.463000    8.112000   11.686000
      2          6           0       11.366000    7.959000   12.790000
      3          6           0       11.137000    9.317000   13.434000
      4          8           0       11.450000   10.464000   12.631000
      5          1           0       10.970000   10.146000   11.815000
      6          6           0       11.871000    9.345000   14.764000
      7          8           0       11.751000   10.604000   15.444000
      8          1           0       12.288000   11.342000   15.035000
      9          6           0       10.652000    5.480000   13.401000
     10          8           0       10.043000    4.584000   14.343000
     11          1           0       10.279000    3.666000   14.025000
     12          6           0       10.964000    6.909000   13.813000
     13          8           0       11.847000    6.989000   14.942000
     14          6           0       11.437000    8.177000   15.634000
     15          8           0       12.221000    8.267000   16.833000
     16          6           0       11.467000    8.379000   18.049000
     17          6           0       10.921000    7.081000   18.621000
     18          8           0       10.130000    6.341000   17.679000
     19          1           0       10.563000    6.360000   16.778000
     20          6           0       10.132000    7.473000   19.859000
     21          8           0        9.142000    6.520000   20.274000
     22          1           0        8.519000    6.405000   19.501000
     23          6           0       12.826000   10.304000   18.739000
     24          8           0       13.571000   10.731000   19.888000
     25          1           0       14.556000   10.562000   19.908000
     26          6           0       12.327000    8.935000   19.172000
     27          8           0       11.682000    9.059000   20.448000
     28          6           0       11.127000    7.834000   20.949000
     29          8           0       10.536000    8.175000   22.211000
     30          1           0       10.964808    8.224347   10.875342
     31          1           0       11.571631    5.032542   13.086419
     32          1           0       10.007990    5.529193   12.547929
     33          1           0       10.028064    7.268251   14.186983
     34          1           0       12.378906    7.841444   12.465806
     35          1           0       10.092166    9.377663   13.656582
     36          1           0       12.909969    9.205365   14.549651
     37          1           0       10.385907    8.188767   15.833912
     38          1           0       13.461024   10.224160   17.881521
     39          1           0       12.006641   10.965417   18.549057
     40          1           0       13.174543    8.292626   19.290012
     41          1           0       10.649144    9.048200   17.881120
     42          1           0       11.745723    6.470046   18.923436
     43          1           0        9.604488    8.371277   19.614605
     44          1           0       11.228907    8.348320   22.852436
     45          1           0       11.880792    7.082346   21.057234
 ---------------------------------------------------------------------
                    Distance matrix (angstroms):
                    1          2          3          4          5
     1  O    0.000000
     2  C    1.434446   0.000000
     3  C    2.227511   1.520310   0.000000
     4  O    2.720128   2.511446   1.434708   0.000000
     5  H    2.100201   2.427017   1.826552   0.998689   0.000000
     6  C    3.602338   2.464284   1.519355   2.445218   3.185907
     7  O    4.689517   3.766692   2.464440   2.832520   3.740236
     8  H    4.997932   4.163508   2.826416   2.693018   3.679122
     9  C    3.147121   2.651143   3.867672   5.105875   4.938428
    10  O    4.436534   3.943699   4.942105   6.283709   6.179479
    11  H    5.027096   4.597460   5.746238   7.037562   6.881278
    12  C    2.494462   1.520077   2.443775   3.777743   3.803973
    13  O    3.711889   2.409017   2.863171   4.192130   4.529228
    14  C    4.066891   2.853226   2.495917   3.774725   4.322015
    15  O    5.441158   4.143880   3.718973   4.803962   5.502360
    16  C    6.447253   5.276711   4.720908   5.805363   6.498619
    17  C    7.026162   5.913499   5.652550   6.899611   7.464467
    18  O    6.258065   5.296031   5.281160   6.650100   7.040605
    19  H    5.385905   4.371013   4.500629   5.901457   6.255463
    20  C    8.204621   7.192337   6.759511   7.932666   8.517811
    21  O    8.833643   7.938964   7.654334   8.904912   9.383184
    22  H    8.232084   7.453714   7.220953   8.500773   8.892529
    23  C    7.754576   6.559057   5.654194   6.263117   7.170180
    24  O    9.153777   7.932693   7.041155   7.565314   8.501809
    25  H    9.505600   8.222994   7.426457   7.912747   8.861665
    26  C    7.758352   6.527329   5.872535   6.774338   7.578484
    27  O    8.896933   7.743050   7.039871   7.945649   8.730246
    28  C    9.290928   8.163457   7.659936   8.729854   9.423372
    29  O   10.525442   9.459958   8.871364   9.891982  10.590090
    30  H    0.960000   1.974153   2.787521   2.886831   2.139097
    31  H    3.559957   2.948610   4.320451   5.451874   5.303387
    32  H    2.760588   2.794056   4.050589   5.141849   4.772583
    33  H    2.675069   2.053964   2.448284   3.828289   3.846425
    34  H    2.086143   1.070000   2.158007   2.787105   2.778407
    35  H    2.371205   2.094330   1.070000   2.018826   2.179990
    36  H    3.922193   2.652101   2.097751   2.719723   3.482325
    37  H    4.149339   3.206053   2.756198   4.070335   4.508168
    38  H    7.199573   5.953458   5.099458   5.627585   6.558505
    39  H    7.591203   6.528070   5.444021   5.965289   6.862477
    40  H    8.075028   6.755167   6.284409   7.213276   8.010668
    41  H    6.268224   5.255448   4.481867   5.496328   6.172999
    42  H    7.531392   6.322990   6.213662   7.458811   8.040164
    43  H    7.979163   7.060320   6.437613   7.520381   8.114684
    44  H   11.195167  10.070898   9.468565  10.440438  11.185870
    45  H    9.533643   8.329508   7.978760   9.089697   9.779285
                    6          7          8          9         10
     6  C    0.000000
     7  O    1.435925   0.000000
     8  H    2.057994   1.000147   0.000000
     9  C    4.275740   5.624680   6.301547   0.000000
    10  O    5.117221   6.353728   7.154680   1.435640   0.000000
    11  H    5.944041   7.232993   7.998572   1.954252   0.999772
    12  C    2.767878   4.114919   4.785159   1.519582   2.556319
    13  O    2.362836   3.650951   4.376270   2.465722   3.065492
    14  C    1.519697   2.454593   3.331700   3.588359   4.064427
    15  O    2.359098   2.758947   3.562712   4.691242   4.950583
    16  C    3.447839   3.437631   4.305532   5.538261   5.492198
    17  C    4.572160   4.815990   5.734475   5.466623   5.030624
    18  O    4.533467   5.078980   6.054560   4.394894   3.771407
    19  H    3.831094   4.604610   5.552837   3.490910   3.058398
    20  C    5.699783   5.649473   6.548929   6.778511   6.227399
    21  O    6.766695   6.842137   7.784351   7.113356   6.303702
    22  H    6.505280   6.673580   7.650130   6.528041   5.678343
    23  C    4.199087   3.478886   3.884135   7.516082   7.732290
    24  O    5.573722   4.803922   5.056780   8.841648   8.998856
    25  H    5.928832   5.272294   5.431239   9.132852   9.331285
    26  C    4.450449   4.124963   4.786433   6.931601   6.889637
    27  O    5.694328   5.237538   5.905920   7.970593   7.744867
    28  C    6.410217   6.194134   6.973477   7.920811   7.441558
    29  O    7.655647   7.291677   8.037062   9.213717   8.662780
    30  H    4.147133   5.210901   5.364080   3.742758   5.111409
    31  H    4.636938   6.052396   6.642244   1.070000   2.029014
    32  H    4.789798   6.097457   6.721063   1.070000   2.029014
    33  H    2.835886   3.959270   4.735174   2.050587   2.688823
    34  H    2.792910   4.110428   4.343146   3.071353   4.426201
    35  H    2.095636   2.729560   3.252744   3.945948   4.842808
    36  H    1.070000   2.024660   2.277634   4.505127   5.442355
    37  H    2.164968   2.801582   3.768169   3.650656   3.915961
    38  H    3.608329   3.001661   3.275398   7.104417   7.484345
    39  H    4.119564   3.136456   3.545360   7.643778   7.891089
    40  H    4.826126   4.707519   5.309404   6.996752   6.930612
    41  H    3.361169   3.094213   4.005966   5.727436   5.728419
    42  H    5.057861   5.403339   6.256990   5.716093   5.238017
    43  H    5.441836   5.194854   6.082697   6.932939   6.505811
    44  H    8.174867   7.761804   8.437778   9.893924   9.380138
    45  H    6.687638   6.627767   7.387677   7.918041   7.395955
                   11         12         13         14         15
    11  H    0.000000
    12  C    3.321328   0.000000
    13  O    3.787062   1.435524   0.000000
    14  C    4.927369   2.268831   1.434680   0.000000
    15  O    5.729348   3.541838   2.312799   1.435394   0.000000
    16  C    6.310015   4.511940   3.424901   2.423619   1.435171
    17  C    5.761736   4.811268   3.794862   3.223297   2.508693
    18  O    4.530954   3.995514   3.295324   3.043217   2.966053
    19  H    3.862292   3.041945   2.327057   2.318211   2.527576
    20  C    6.967813   6.128983   5.229949   4.477641   3.761786
    21  O    6.963339   6.724249   5.997267   5.435280   4.936875
    22  H    6.370738   6.211714   5.674603   5.158333   4.928496
    23  C    8.530653   6.265664   5.134674   4.011792   2.854510
    24  O    9.753269   7.636083   6.437209   5.401239   4.150521
    25  H   10.022836   7.962154   6.690752   5.803746   4.491645
    26  C    7.645147   5.889085   4.680835   3.726138   2.434827
    27  O    8.503399   7.011508   5.884570   4.900260   3.739787
    28  C    8.126076   7.197547   6.108721   5.335070   4.280862
    29  O    9.349210   8.503667   7.480888   6.638429   5.636539
    30  H    5.582939   3.218691   4.340743   4.782262   6.088803
    31  H    2.102205   2.101958   2.710486   4.049186   4.992020
    32  H    2.393047   2.101958   3.353293   4.310080   5.545704
    33  H    3.614612   1.070000   1.989110   2.214674   3.578809
    34  H    4.926969   2.164796   2.672288   3.322234   4.390719
    35  H    5.726581   2.622757   3.230704   2.675883   3.981851
    36  H    6.154821   3.098829   2.489200   2.098329   2.562985
    37  H    4.872270   2.460911   2.090393   1.070000   2.090900
    38  H    8.246666   5.811908   4.659626   3.652244   2.543134
    39  H    8.759756   6.322330   5.371055   4.073980   3.205036
    40  H    7.583547   6.066183   4.729378   4.049549   2.635680
    41  H    6.631345   4.607050   3.783330   2.535597   2.044397
    42  H    5.831691   5.188480   4.016391   3.718788   2.797293
    43  H    7.337457   6.135564   5.364027   4.386463   3.820253
    44  H   10.037433   9.157140   8.050142   7.223467   6.101186
    45  H    7.980569   7.304073   6.116040   5.550377   4.400375
                   16         17         18         19         20
    16  C    0.000000
    17  C    1.519903   0.000000
    18  O    2.465342   1.435495   0.000000
    19  H    2.551278   2.011133   0.999825   0.000000
    20  C    2.424698   1.519483   2.456385   3.304102   0.000000
    21  O    3.716468   2.492383   2.782483   3.777149   1.435456
    22  H    3.833495   2.645937   2.432920   3.405098   1.967373
    23  C    2.455322   3.745755   4.908909   4.951952   4.065292
    24  O    3.652484   4.685114   5.999355   6.150269   4.737312
    25  H    4.214652   5.194897   6.509590   6.587697   5.395933
    26  C    1.519824   2.391182   3.712774   3.933644   2.725333
    27  O    2.502764   2.798130   4.178946   4.691019   2.294519
    28  C    2.970290   2.455408   3.730410   4.459598   1.519357
    29  O    4.269733   3.772686   4.905855   5.728215   2.487554
    30  H    7.192877   7.829711   7.108703   6.203113   9.053408
    31  H    5.986396   5.937262   4.988202   4.050586   7.341405
    32  H    6.364896   6.334342   5.196327   4.346468   7.566078
    33  H    4.268428   4.526909   3.614467   2.797221   5.676663
    34  H    5.682657   6.371042   5.872504   4.907872   7.735868
    35  H    4.709653   5.532366   5.040099   4.367061   6.488399
    36  H    3.874336   5.004479   5.072045   4.309281   6.237579
    37  H    2.472158   3.046527   2.623753   2.065684   4.096111
    38  H    2.721910   4.108285   5.120124   4.954597   4.749916
    39  H    2.689018   4.033917   5.065966   5.141070   4.174590
    40  H    2.112646   2.644630   3.958970   4.106751   3.201968
    41  H    1.070000   2.119246   2.763927   2.907011   2.580834
    42  H    2.118119   1.070000   2.043486   2.452313   2.117853
    43  H    2.433131   2.094103   2.853902   3.606980   1.070000
    44  H    4.809431   4.427861   5.656975   6.426167   3.306062
    45  H    3.301819   2.618480   3.876510   4.535439   2.155609
                   21         22         23         24         25
    21  O    0.000000
    22  H    0.999441   0.000000
    23  C    5.499703   5.859445   0.000000
    24  O    6.123525   6.662338   1.434418   0.000000
    25  H    6.766322   7.341094   2.103812   0.999593   0.000000
    26  C    4.146185   4.583667   1.520083   2.299089   2.856093
    27  O    3.595608   4.236165   2.404047   2.584087   3.287930
    28  C    2.474358   3.307629   3.724460   3.935920   4.503744
    29  O    2.904175   3.813829   4.672422   4.597901   5.211715
    30  H    9.724310   9.148441   8.344226   9.711002   9.997509
    31  H    7.731556   7.235264   7.830286   9.095680   9.274445
    32  H    7.837335   7.164449   8.310796   9.676285  10.009205
    33  H    6.196512   5.591177   6.145330   7.552789   8.005062
    34  H    8.555213   8.152067   6.754039   8.053545   8.217507
    35  H    7.270439   6.743056   5.844906   7.263910   7.772303
    36  H    7.360499   7.185994   4.331824   5.591287   5.767303
    37  H    4.903720   4.484941   4.343708   5.748338   6.294450
    38  H    6.172416   6.452309   1.070000   2.072424   2.328030
    39  H    5.562672   5.819556   1.070000   2.072424   2.916968
    40  H    4.513517   5.028094   2.114408   2.541739   2.727708
    41  H    3.793304   3.761387   2.655503   3.923854   4.654391
    42  H    2.933581   3.278651   3.987507   4.734738   5.060742
    43  H    2.018892   2.248875   3.857491   4.623446   5.422436
    44  H    3.787647   4.727813   4.826567   4.466592   4.963832
    45  H    2.903562   3.765940   4.080034   4.187671   4.537121
                   26         27         28         29         30
    26  C    0.000000
    27  O    1.435123   0.000000
    28  C    2.410380   1.435148   0.000000
    29  O    3.608435   2.280996   1.434645   0.000000
    30  H    8.437721   9.635704  10.082523  11.343873   0.000000
    31  H    7.268704   8.391509   8.358591   9.705954   3.929976
    32  H    7.801003   8.813227   8.783070  10.032649   3.313141
    33  H    5.737033   6.718826   6.874053   8.091047   3.571915
    34  H    6.794969   8.104538   8.575075   9.923526   2.162374
    35  H    5.967434   6.982298   7.525499   8.649940   3.134794
    36  H    4.666804   6.026595   6.783162   8.086634   4.271603
    37  H    3.932879   4.871033   5.180656   6.378869   4.992376
    38  H    2.147855   3.333067   4.535412   5.612416   7.701746
    39  H    2.147855   2.710313   4.042185   4.833118   8.214912
    40  H    1.070000   2.038615   2.674885   3.938009   8.700245
    41  H    2.119997   2.766908   3.333844   4.418500   7.061112
    42  H    2.544732   3.005169   2.519147   3.895944   8.274008
    43  H    2.815271   2.341701   2.094593   2.765413   8.845721
    44  H    3.885307   2.547876   1.974330   0.960000  11.980647
    45  H    2.680585   2.077942   1.070000   2.081714  10.286599
                   31         32         33         34         35
    31  H    0.000000
    32  H    1.726733   0.000000
    33  H    2.931251   2.389817   0.000000
    34  H    2.987772   3.312777   2.969420   0.000000
    35  H    4.625362   4.005860   2.176017   3.001182   0.000000
    36  H    4.620027   5.093389   3.491320   2.546511   2.960958
    37  H    4.349300   4.244272   1.920359   3.928972   2.498104
    38  H    7.315443   7.900213   5.845701   6.014839   5.469541
    39  H    8.076425   8.340304   6.050743   6.848630   5.488396
    40  H    7.189022   7.944766   6.081987   6.885230   6.512594
    41  H    6.321838   6.421636   4.147361   5.811537   4.273815
    42  H    6.013941   6.674729   5.101124   6.631940   6.239249
    43  H    7.591707   7.627461   5.554742   7.686575   6.062069
    44  H   10.319250  10.752720   8.814684  10.462385   9.322846
    45  H    8.235968   8.850308   7.118112   8.639270   7.952190
                   36         37         38         39         40
    36  H    0.000000
    37  H    3.008935   0.000000
    38  H    3.527458   4.218041   0.000000
    39  H    4.461954   4.208155   1.763603   0.000000
    40  H    4.834678   4.442060   2.407642   3.009455   0.000000
    41  H    4.029232   2.235839   3.047877   2.442265   2.988897
    42  H    5.288424   3.787909   4.256901   4.518472   2.344717
    43  H    6.105380   3.864914   4.616234   3.692599   3.585643
    44  H    8.514501   7.070769   5.762909   5.096384   4.059491
    45  H    6.922070   5.544541   4.738489   4.624395   2.502328
                   41         42         43         44         45
    41  H    0.000000
    42  H    2.989278   0.000000
    43  H    2.134127   2.945723   0.000000
    44  H    5.053706   4.385437   3.622543   0.000000
    45  H    3.933095   2.224017   2.987320   2.291373   0.000000
 Stoichiometry    C12H22O11
 Framework group  C1[X(C12H22O11)]
 Deg. of freedom   129
 Full point group                 C1      NOp   1
 Largest Abelian subgroup         C1      NOp   1
 Largest concise Abelian subgroup C1      NOp   1
                         Standard orientation:                         
 ---------------------------------------------------------------------
 Center     Atomic      Atomic             Coordinates (Angstroms)
 Number     Number       Type             X           Y           Z
 ---------------------------------------------------------------------
      1          8           0       -5.066511   -0.042285   -0.712758
      2          6           0       -3.945293   -0.228966    0.162258
      3          6           0       -3.208677   -1.270283   -0.665024
      4          8           0       -3.910287   -2.495865   -0.918160
      5          1           0       -4.764977   -2.062836   -1.199890
      6          6           0       -1.854638   -1.520331   -0.022768
      7          8           0       -1.085718   -2.521163   -0.707588
      8          1           0       -1.417686   -3.454861   -0.572315
      9          6           0       -3.550791    2.342453    0.672877
     10          8           0       -2.702339    3.493803    0.548037
     11          1           0       -3.080417    4.170297    1.179667
     12          6           0       -3.020321    0.970260    0.292328
     13          8           0       -1.857208    0.588855    1.042280
     14          6           0       -1.092252   -0.214945    0.132854
     15          8           0        0.137779   -0.553814    0.790538
     16          6           0        1.330609   -0.204052    0.073223
     17          6           0        1.782108    1.242655    0.188520
     18          8           0        0.758506    2.181103   -0.175073
     19          1           0       -0.122135    1.889513    0.197885
     20          6           0        3.016870    1.362774   -0.688841
     21          8           0        3.322036    2.695216   -1.127024
     22          1           0        2.520433    3.018075   -1.629098
     23          6           0        2.213784   -2.472463    0.394030
     24          8           0        3.418192   -3.095596    0.861643
     25          1           0        3.461021   -3.397053    1.813734
     26          6           0        2.523086   -0.996274    0.583366
     27          8           0        3.780570   -0.702153   -0.042577
     28          6           0        4.166543    0.678166    0.030888
     29          8           0        5.428529    0.754426   -0.647184
     30          1           0       -5.847539   -0.440422   -0.321502
     31          1           0       -3.864890    2.289080    1.694343
     32          1           0       -4.420463    2.523046    0.076256
     33          1           0       -2.654327    1.114117   -0.702787
     34          1           0       -4.240511   -0.617703    1.114429
     35          1           0       -3.020192   -0.825124   -1.619596
     36          1           0       -2.041134   -1.892275    0.963020
     37          1           0       -0.930300    0.274415   -0.804801
     38          1           0        1.376329   -2.765817    0.991953
     39          1           0        2.045053   -2.696812   -0.638490
     40          1           0        2.622612   -0.807766    1.631917
     41          1           0        1.184507   -0.434116   -0.961487
     42          1           0        2.066962    1.429389    1.202861
     43          1           0        2.822473    0.790316   -1.571678
     44          1           0        6.106005    0.336806   -0.110322
     45          1           0        4.244619    1.005550    1.046576
 ---------------------------------------------------------------------
 Rotational constants (GHZ):      0.3958246      0.1462465      0.1142195
 Standard basis: 6-31+G(2d,p) (6D, 7F)
 There are   685 symmetry adapted basis functions of A   symmetry.
 Integral buffers will be    131072 words long.
 Raffenetti 2 integral format.
 Two-electron integral symmetry is turned on.
   685 basis functions,  1028 primitive gaussians,   685 cartesian basis functions
    91 alpha electrons       91 beta electrons
       nuclear repulsion energy      2286.2209844282 Hartrees.
 NAtoms=   45 NActive=   45 NUniq=   45 SFac= 1.00D+00 NAtFMM=   50 NAOKFM=F Big=F
 One-electron integrals computed using PRISM.
 NBasis=   685 RedAO= T  NBF=   685
 NBsUse=   685 1.00D-06 NBFU=   685
 Harris functional with IExCor=  402 diagonalized for initial guess.
 ExpMin= 4.38D-02 ExpMax= 5.48D+03 ExpMxC= 8.25D+02 IAcc=2 IRadAn=         0 AccDes= 0.00D+00
 HarFok:  IExCor=  402 AccDes= 0.00D+00 IRadAn=         0 IDoV= 1
 ScaDFX=  1.000000  1.000000  1.000000  1.000000
 FoFCou: FMM=F IPFlag=           0 FMFlag=      100000 FMFlg1=           0
         NFxFlg=           0 DoJE=T BraDBF=F KetDBF=T FulRan=T
         Omega=  0.000000  0.000000  1.000000  0.000000  0.000000 ICntrl=     500 IOpCl=  0
         NMat0=    1 NMatS0=    1 NMatT0=    0 NMatD0=    1 NMtDS0=    0 NMtDT0=    0
         I1Cent=           4 NGrid=           0.
 Petite list used in FoFCou.
 Initial guess orbital symmetries:
       Occupied  (A) (A) (A) (A) (A) (A) (A) (A) (A) (A) (A) (A)
                 (A) (A) (A) (A) (A) (A) (A) (A) (A) (A) (A) (A)
                 (A) (A) (A) (A) (A) (A) (A) (A) (A) (A) (A) (A)
                 (A) (A) (A) (A) (A) (A) (A) (A) (A) (A) (A) (A)
                 (A) (A) (A) (A) (A) (A) (A) (A) (A) (A) (A) (A)
                 (A) (A) (A) (A) (A) (A) (A) (A) (A) (A) (A) (A)
                 (A) (A) (A) (A) (A) (A) (A) (A) (A) (A) (A) (A)
                 (A) (A) (A) (A) (A) (A) (A)
       Virtual   (A) (A) (A) (A) (A) (A) (A) (A) (A) (A) (A) (A)
                 (A) (A) (A) (A) (A) (A) (A) (A) (A) (A) (A) (A)
                 (A) (A) (A) (A) (A) (A) (A) (A) (A) (A) (A) (A)
                 (A) (A) (A) (A) (A) (A) (A) (A) (A) (A) (A) (A)
                 (A) (A) (A) (A) (A) (A) (A) (A) (A) (A) (A) (A)
                 (A) (A) (A) (A) (A) (A) (A) (A) (A) (A) (A) (A)
                 (A) (A) (A) (A) (A) (A) (A) (A) (A) (A) (A) (A)
                 (A) (A) (A) (A) (A) (A) (A) (A) (A) (A) (A) (A)
                 (A) (A) (A) (A) (A) (A) (A) (A) (A) (A) (A) (A)
                 (A) (A) (A) (A) (A) (A) (A) (A) (A) (A) (A) (A)
                 (A) (A) (A) (A) (A) (A) (A) (A) (A) (A) (A) (A)
                 (A) (A) (A) (A) (A) (A) (A) (A) (A) (A) (A) (A)
                 (A) (A) (A) (A) (A) (A) (A) (A) (A) (A) (A) (A)
                 (A) (A) (A) (A) (A) (A) (A) (A) (A) (A) (A) (A)
                 (A) (A) (A) (A) (A) (A) (A) (A) (A) (A) (A) (A)
                 (A) (A) (A) (A) (A) (A) (A) (A) (A) (A) (A) (A)
                 (A) (A) (A) (A) (A) (A) (A) (A) (A) (A) (A) (A)
                 (A) (A) (A) (A) (A) (A) (A) (A) (A) (A) (A) (A)
                 (A) (A) (A) (A) (A) (A) (A) (A) (A) (A) (A) (A)
                 (A) (A) (A) (A) (A) (A) (A) (A) (A) (A) (A) (A)
                 (A) (A) (A) (A) (A) (A) (A) (A) (A) (A) (A) (A)
                 (A) (A) (A) (A) (A) (A) (A) (A) (A) (A) (A) (A)
                 (A) (A) (A) (A) (A) (A) (A) (A) (A) (A) (A) (A)
                 (A) (A) (A) (A) (A) (A) (A) (A) (A) (A) (A) (A)
                 (A) (A) (A) (A) (A) (A) (A) (A) (A) (A) (A) (A)
                 (A) (A) (A) (A) (A) (A) (A) (A) (A) (A) (A) (A)
                 (A) (A) (A) (A) (A) (A) (A) (A) (A) (A) (A) (A)
                 (A) (A) (A) (A) (A) (A) (A) (A) (A) (A) (A) (A)
                 (A) (A) (A) (A) (A) (A) (A) (A) (A) (A) (A) (A)
                 (A) (A) (A) (A) (A) (A) (A) (A) (A) (A) (A) (A)
                 (A) (A) (A) (A) (A) (A) (A) (A) (A) (A) (A) (A)
                 (A) (A) (A) (A) (A) (A) (A) (A) (A) (A) (A) (A)
                 (A) (A) (A) (A) (A) (A) (A) (A) (A) (A) (A) (A)
                 (A) (A) (A) (A) (A) (A) (A) (A) (A) (A) (A) (A)
                 (A) (A) (A) (A) (A) (A) (A) (A) (A) (A) (A) (A)
                 (A) (A) (A) (A) (A) (A) (A) (A) (A) (A) (A) (A)
                 (A) (A) (A) (A) (A) (A) (A) (A) (A) (A) (A) (A)
                 (A) (A) (A) (A) (A) (A) (A) (A) (A) (A) (A) (A)
                 (A) (A) (A) (A) (A) (A) (A) (A) (A) (A) (A) (A)
                 (A) (A) (A) (A) (A) (A) (A) (A) (A) (A) (A) (A)
                 (A) (A) (A) (A) (A) (A) (A) (A) (A) (A) (A) (A)
                 (A) (A) (A) (A) (A) (A) (A) (A) (A) (A) (A) (A)
                 (A) (A) (A) (A) (A) (A) (A) (A) (A) (A) (A) (A)
                 (A) (A) (A) (A) (A) (A) (A) (A) (A) (A) (A) (A)
                 (A) (A) (A) (A) (A) (A) (A) (A) (A) (A) (A) (A)
                 (A) (A) (A) (A) (A) (A) (A) (A) (A) (A) (A) (A)
                 (A) (A) (A) (A) (A) (A) (A) (A) (A) (A) (A) (A)
                 (A) (A) (A) (A) (A) (A) (A) (A) (A) (A) (A) (A)
                 (A) (A) (A) (A) (A) (A) (A) (A) (A) (A) (A) (A)
                 (A) (A) (A) (A) (A) (A)
 The electronic state of the initial guess is 1-A.
 Requested convergence on RMS density matrix=1.00D-08 within 128 cycles.
 Requested convergence on MAX density matrix=1.00D-06.
 Requested convergence on             energy=1.00D-06.
 No special actions if energy rises.
 SCF Done:  E(RB3LYP) =  -1297.95522836     A.U. after   14 cycles
             Convg  =    0.1520D-08             -V/T =  2.0063
 Range of M.O.s used for correlation:     1   685
 NBasis=   685 NAE=    91 NBE=    91 NFC=     0 NFV=     0
 NROrb=    685 NOA=    91 NOB=    91 NVA=   594 NVB=   594

 **** Warning!!: The largest alpha MO coefficient is  0.90204506D+02

          Differentiating once with respect to electric field.
                with respect to dipole field.
          Electric field/nuclear overlap derivatives assumed to be zero.
          There are     3 degrees of freedom in the 1st order CPHF.  IDoFFX=0.
      3 vectors produced by pass  0 Test12= 1.80D-12 3.33D-08 XBig12= 1.21D+02 9.83D-01.
 AX will form     3 AO Fock derivatives at one time.
      3 vectors produced by pass  1 Test12= 1.80D-12 3.33D-08 XBig12= 2.57D+01 4.88D-01.
      3 vectors produced by pass  2 Test12= 1.80D-12 3.33D-08 XBig12= 9.90D+00 2.08D-01.
      3 vectors produced by pass  3 Test12= 1.80D-12 3.33D-08 XBig12= 1.18D+00 7.38D-02.
      3 vectors produced by pass  4 Test12= 1.80D-12 3.33D-08 XBig12= 2.87D-01 4.18D-02.
      3 vectors produced by pass  5 Test12= 1.80D-12 3.33D-08 XBig12= 6.41D-02 2.13D-02.
      3 vectors produced by pass  6 Test12= 1.80D-12 3.33D-08 XBig12= 1.89D-02 1.60D-02.
      3 vectors produced by pass  7 Test12= 1.80D-12 3.33D-08 XBig12= 3.67D-03 6.59D-03.
      3 vectors produced by pass  8 Test12= 1.80D-12 3.33D-08 XBig12= 9.19D-04 2.44D-03.
      3 vectors produced by pass  9 Test12= 1.80D-12 3.33D-08 XBig12= 1.90D-04 1.34D-03.
      3 vectors produced by pass 10 Test12= 1.80D-12 3.33D-08 XBig12= 4.70D-05 6.87D-04.
      3 vectors produced by pass 11 Test12= 1.80D-12 3.33D-08 XBig12= 8.47D-06 3.75D-04.
      3 vectors produced by pass 12 Test12= 1.80D-12 3.33D-08 XBig12= 2.27D-06 1.31D-04.
      3 vectors produced by pass 13 Test12= 1.80D-12 3.33D-08 XBig12= 3.64D-07 4.54D-05.
      3 vectors produced by pass 14 Test12= 1.80D-12 3.33D-08 XBig12= 1.06D-07 2.38D-05.
      3 vectors produced by pass 15 Test12= 1.80D-12 3.33D-08 XBig12= 1.59D-08 1.58D-05.
      3 vectors produced by pass 16 Test12= 1.80D-12 3.33D-08 XBig12= 1.51D-09 4.44D-06.
      3 vectors produced by pass 17 Test12= 1.80D-12 3.33D-08 XBig12= 2.11D-10 9.31D-07.
      3 vectors produced by pass 18 Test12= 1.80D-12 3.33D-08 XBig12= 6.28D-11 5.41D-07.
      3 vectors produced by pass 19 Test12= 1.80D-12 3.33D-08 XBig12= 1.58D-11 2.98D-07.
      2 vectors produced by pass 20 Test12= 1.80D-12 3.33D-08 XBig12= 7.68D-12 2.21D-07.
      2 vectors produced by pass 21 Test12= 1.80D-12 3.33D-08 XBig12= 1.60D-12 8.23D-08.
      1 vectors produced by pass 22 Test12= 1.80D-12 3.33D-08 XBig12= 4.86D-13 4.40D-08.
 Inverted reduced A of dimension    65 with in-core refinement.
 End of Minotr Frequency-dependent properties file   721 does not exist.
 End of Minotr Frequency-dependent properties file   722 does not exist.
 Symmetrizing basis deriv contribution to polar:
 IMax=3 JMax=2 DiffMx= 0.00D+00
 G2DrvN: will do    16 centers at a time, making    3 passes doing MaxLOS=2.
 Calling FoFCou, ICntrl=  3107 FMM=F I1Cent=   0 AccDes= 0.00D+00.
 Calling FoFCou, ICntrl=  3107 FMM=F I1Cent=   0 AccDes= 0.00D+00.
 Calling FoFCou, ICntrl=  3107 FMM=F I1Cent=   0 AccDes= 0.00D+00.
 FoFDir/FoFCou used for L=0 through L=2.
 End of G2Drv Frequency-dependent properties file   721 does not exist.
 End of G2Drv Frequency-dependent properties file   722 does not exist.
          IDoAtm=111111111111111111111111111111111111111111111
          Differentiating once with respect to electric field.
                with respect to dipole field.
          Differentiating once with respect to nuclear coordinates.
          There are   138 degrees of freedom in the 1st order CPHF.  IDoFFX=5.
 Will reuse    3 saved solutions.
    135 vectors produced by pass  0 Test12= 5.41D-14 1.00D-09 XBig12= 2.01D-01 6.71D-02.
 AX will form    45 AO Fock derivatives at one time.
    135 vectors produced by pass  1 Test12= 5.41D-14 1.00D-09 XBig12= 1.70D-02 1.37D-02.
    132 vectors produced by pass  2 Test12= 5.41D-14 1.00D-09 XBig12= 1.80D-04 1.38D-03.
    132 vectors produced by pass  3 Test12= 5.41D-14 1.00D-09 XBig12= 7.70D-07 5.72D-05.
    132 vectors produced by pass  4 Test12= 5.41D-14 1.00D-09 XBig12= 1.60D-09 2.30D-06.
    132 vectors produced by pass  5 Test12= 5.41D-14 1.00D-09 XBig12= 4.45D-12 1.39D-07.
     85 vectors produced by pass  6 Test12= 5.41D-14 1.00D-09 XBig12= 2.19D-13 2.22D-08.
      1 vectors produced by pass  7 Test12= 5.41D-14 1.00D-09 XBig12= 5.20D-16 1.26D-09.
 Inverted reduced A of dimension   884 with in-core refinement.
 Isotropic polarizability for W=    0.000000      189.97 Bohr**3.
 End of Minotr Frequency-dependent properties file   721 does not exist.
 End of Minotr Frequency-dependent properties file   722 does not exist.

 **********************************************************************

            Population analysis using the SCF density.

 **********************************************************************

 Orbital symmetries:
       Occupied  (A) (A) (A) (A) (A) (A) (A) (A) (A) (A) (A) (A)
                 (A) (A) (A) (A) (A) (A) (A) (A) (A) (A) (A) (A)
                 (A) (A) (A) (A) (A) (A) (A) (A) (A) (A) (A) (A)
                 (A) (A) (A) (A) (A) (A) (A) (A) (A) (A) (A) (A)
                 (A) (A) (A) (A) (A) (A) (A) (A) (A) (A) (A) (A)
                 (A) (A) (A) (A) (A) (A) (A) (A) (A) (A) (A) (A)
                 (A) (A) (A) (A) (A) (A) (A) (A) (A) (A) (A) (A)
                 (A) (A) (A) (A) (A) (A) (A)
       Virtual   (A) (A) (A) (A) (A) (A) (A) (A) (A) (A) (A) (A)
                 (A) (A) (A) (A) (A) (A) (A) (A) (A) (A) (A) (A)
                 (A) (A) (A) (A) (A) (A) (A) (A) (A) (A) (A) (A)
                 (A) (A) (A) (A) (A) (A) (A) (A) (A) (A) (A) (A)
                 (A) (A) (A) (A) (A) (A) (A) (A) (A) (A) (A) (A)
                 (A) (A) (A) (A) (A) (A) (A) (A) (A) (A) (A) (A)
                 (A) (A) (A) (A) (A) (A) (A) (A) (A) (A) (A) (A)
                 (A) (A) (A) (A) (A) (A) (A) (A) (A) (A) (A) (A)
                 (A) (A) (A) (A) (A) (A) (A) (A) (A) (A) (A) (A)
                 (A) (A) (A) (A) (A) (A) (A) (A) (A) (A) (A) (A)
                 (A) (A) (A) (A) (A) (A) (A) (A) (A) (A) (A) (A)
                 (A) (A) (A) (A) (A) (A) (A) (A) (A) (A) (A) (A)
                 (A) (A) (A) (A) (A) (A) (A) (A) (A) (A) (A) (A)
                 (A) (A) (A) (A) (A) (A) (A) (A) (A) (A) (A) (A)
                 (A) (A) (A) (A) (A) (A) (A) (A) (A) (A) (A) (A)
                 (A) (A) (A) (A) (A) (A) (A) (A) (A) (A) (A) (A)
                 (A) (A) (A) (A) (A) (A) (A) (A) (A) (A) (A) (A)
                 (A) (A) (A) (A) (A) (A) (A) (A) (A) (A) (A) (A)
                 (A) (A) (A) (A) (A) (A) (A) (A) (A) (A) (A) (A)
                 (A) (A) (A) (A) (A) (A) (A) (A) (A) (A) (A) (A)
                 (A) (A) (A) (A) (A) (A) (A) (A) (A) (A) (A) (A)
                 (A) (A) (A) (A) (A) (A) (A) (A) (A) (A) (A) (A)
                 (A) (A) (A) (A) (A) (A) (A) (A) (A) (A) (A) (A)
                 (A) (A) (A) (A) (A) (A) (A) (A) (A) (A) (A) (A)
                 (A) (A) (A) (A) (A) (A) (A) (A) (A) (A) (A) (A)
                 (A) (A) (A) (A) (A) (A) (A) (A) (A) (A) (A) (A)
                 (A) (A) (A) (A) (A) (A) (A) (A) (A) (A) (A) (A)
                 (A) (A) (A) (A) (A) (A) (A) (A) (A) (A) (A) (A)
                 (A) (A) (A) (A) (A) (A) (A) (A) (A) (A) (A) (A)
                 (A) (A) (A) (A) (A) (A) (A) (A) (A) (A) (A) (A)
                 (A) (A) (A) (A) (A) (A) (A) (A) (A) (A) (A) (A)
                 (A) (A) (A) (A) (A) (A) (A) (A) (A) (A) (A) (A)
                 (A) (A) (A) (A) (A) (A) (A) (A) (A) (A) (A) (A)
                 (A) (A) (A) (A) (A) (A) (A) (A) (A) (A) (A) (A)
                 (A) (A) (A) (A) (A) (A) (A) (A) (A) (A) (A) (A)
                 (A) (A) (A) (A) (A) (A) (A) (A) (A) (A) (A) (A)
                 (A) (A) (A) (A) (A) (A) (A) (A) (A) (A) (A) (A)
                 (A) (A) (A) (A) (A) (A) (A) (A) (A) (A) (A) (A)
                 (A) (A) (A) (A) (A) (A) (A) (A) (A) (A) (A) (A)
                 (A) (A) (A) (A) (A) (A) (A) (A) (A) (A) (A) (A)
                 (A) (A) (A) (A) (A) (A) (A) (A) (A) (A) (A) (A)
                 (A) (A) (A) (A) (A) (A) (A) (A) (A) (A) (A) (A)
                 (A) (A) (A) (A) (A) (A) (A) (A) (A) (A) (A) (A)
                 (A) (A) (A) (A) (A) (A) (A) (A) (A) (A) (A) (A)
                 (A) (A) (A) (A) (A) (A) (A) (A) (A) (A) (A) (A)
                 (A) (A) (A) (A) (A) (A) (A) (A) (A) (A) (A) (A)
                 (A) (A) (A) (A) (A) (A) (A) (A) (A) (A) (A) (A)
                 (A) (A) (A) (A) (A) (A) (A) (A) (A) (A) (A) (A)
                 (A) (A) (A) (A) (A) (A) (A) (A) (A) (A) (A) (A)
                 (A) (A) (A) (A) (A) (A)
 The electronic state is 1-A.
 Alpha  occ. eigenvalues --  -19.19793 -19.19568 -19.17993 -19.17845 -19.17423
 Alpha  occ. eigenvalues --  -19.16425 -19.15620 -19.15471 -19.15463 -19.14349
 Alpha  occ. eigenvalues --  -19.13794 -10.31469 -10.28920 -10.27701 -10.27261
 Alpha  occ. eigenvalues --  -10.25555 -10.25345 -10.25317 -10.24569 -10.23826
 Alpha  occ. eigenvalues --  -10.23758 -10.23569 -10.22614  -1.10762  -1.08445
 Alpha  occ. eigenvalues --   -1.07084  -1.05157  -1.04526  -1.03766  -1.02709
 Alpha  occ. eigenvalues --   -1.02219  -1.01327  -1.00235  -0.99600  -0.82849
 Alpha  occ. eigenvalues --   -0.82086  -0.79052  -0.77696  -0.72390  -0.69280
 Alpha  occ. eigenvalues --   -0.67105  -0.64841  -0.63507  -0.62832  -0.61330
 Alpha  occ. eigenvalues --   -0.60716  -0.57611  -0.55921  -0.54744  -0.54246
 Alpha  occ. eigenvalues --   -0.53756  -0.53514  -0.52991  -0.52488  -0.51131
 Alpha  occ. eigenvalues --   -0.50391  -0.49687  -0.48724  -0.47365  -0.46632
 Alpha  occ. eigenvalues --   -0.46005  -0.45228  -0.44650  -0.43987  -0.43609
 Alpha  occ. eigenvalues --   -0.43466  -0.42994  -0.41244  -0.40317  -0.39563
 Alpha  occ. eigenvalues --   -0.39048  -0.38516  -0.37346  -0.36448  -0.36209
 Alpha  occ. eigenvalues --   -0.35543  -0.34617  -0.34319  -0.33757  -0.33175
 Alpha  occ. eigenvalues --   -0.31772  -0.31422  -0.31026  -0.30429  -0.30061
 Alpha  occ. eigenvalues --   -0.29519  -0.28763  -0.28380  -0.27438  -0.26040
 Alpha  occ. eigenvalues --   -0.25911
 Alpha virt. eigenvalues --   -0.03565  -0.01987  -0.00856  -0.00560   0.00195
 Alpha virt. eigenvalues --    0.00991   0.01460   0.02091   0.02834   0.03126
 Alpha virt. eigenvalues --    0.03558   0.04191   0.04743   0.05018   0.05762
 Alpha virt. eigenvalues --    0.05980   0.06586   0.07408   0.07634   0.07968
 Alpha virt. eigenvalues --    0.08312   0.08755   0.09331   0.09447   0.09864
 Alpha virt. eigenvalues --    0.10586   0.10780   0.11126   0.11329   0.11473
 Alpha virt. eigenvalues --    0.11832   0.12124   0.12889   0.13365   0.13800
 Alpha virt. eigenvalues --    0.13949   0.14209   0.14449   0.14725   0.15144
 Alpha virt. eigenvalues --    0.15486   0.15778   0.16315   0.16490   0.16549
 Alpha virt. eigenvalues --    0.17134   0.17495   0.18012   0.18531   0.18788
 Alpha virt. eigenvalues --    0.18873   0.19198   0.19304   0.19809   0.20344
 Alpha virt. eigenvalues --    0.20479   0.20566   0.20831   0.21106   0.21513
 Alpha virt. eigenvalues --    0.21652   0.21794   0.22324   0.22417   0.22792
 Alpha virt. eigenvalues --    0.22934   0.23600   0.23966   0.24437   0.24608
 Alpha virt. eigenvalues --    0.24740   0.24948   0.25355   0.25487   0.25838
 Alpha virt. eigenvalues --    0.26114   0.26344   0.26762   0.27094   0.27545
 Alpha virt. eigenvalues --    0.27950   0.28113   0.28466   0.28734   0.28942
 Alpha virt. eigenvalues --    0.29241   0.29666   0.29934   0.30249   0.30643
 Alpha virt. eigenvalues --    0.30939   0.31049   0.31584   0.31977   0.32272
 Alpha virt. eigenvalues --    0.32693   0.32835   0.32902   0.33264   0.33653
 Alpha virt. eigenvalues --    0.34098   0.34328   0.34804   0.34868   0.35150
 Alpha virt. eigenvalues --    0.35671   0.36165   0.36504   0.37029   0.37387
 Alpha virt. eigenvalues --    0.37675   0.38084   0.38567   0.38843   0.39192
 Alpha virt. eigenvalues --    0.39276   0.39525   0.40462   0.40698   0.41114
 Alpha virt. eigenvalues --    0.41734   0.41868   0.42650   0.43460   0.43943
 Alpha virt. eigenvalues --    0.44040   0.44626   0.45383   0.45632   0.45908
 Alpha virt. eigenvalues --    0.46384   0.47694   0.48428   0.49242   0.50284
 Alpha virt. eigenvalues --    0.51397   0.52067   0.54045   0.56794   0.57983
 Alpha virt. eigenvalues --    0.59382   0.59706   0.61560   0.62119   0.62375
 Alpha virt. eigenvalues --    0.63676   0.64018   0.64399   0.65444   0.66252
 Alpha virt. eigenvalues --    0.67320   0.68441   0.68559   0.69321   0.70207
 Alpha virt. eigenvalues --    0.71079   0.72299   0.73076   0.73871   0.74058
 Alpha virt. eigenvalues --    0.75173   0.75482   0.76092   0.76655   0.77062
 Alpha virt. eigenvalues --    0.77856   0.78748   0.79602   0.80031   0.81487
 Alpha virt. eigenvalues --    0.82373   0.83187   0.83903   0.84236   0.85607
 Alpha virt. eigenvalues --    0.86602   0.87217   0.87576   0.88010   0.88914
 Alpha virt. eigenvalues --    0.89467   0.90213   0.90680   0.91581   0.92349
 Alpha virt. eigenvalues --    0.92897   0.92951   0.93817   0.94128   0.94356
 Alpha virt. eigenvalues --    0.94681   0.95514   0.95717   0.96010   0.96956
 Alpha virt. eigenvalues --    0.97505   0.97746   0.98248   0.98763   0.99014
 Alpha virt. eigenvalues --    0.99829   1.00559   1.01393   1.01870   1.02087
 Alpha virt. eigenvalues --    1.02893   1.02941   1.03664   1.04567   1.05243
 Alpha virt. eigenvalues --    1.05754   1.06430   1.06948   1.07832   1.08677
 Alpha virt. eigenvalues --    1.09151   1.09335   1.10016   1.10872   1.11344
 Alpha virt. eigenvalues --    1.12240   1.12772   1.13575   1.13860   1.14047
 Alpha virt. eigenvalues --    1.14427   1.15293   1.15640   1.16599   1.17150
 Alpha virt. eigenvalues --    1.17466   1.17925   1.18583   1.19438   1.20575
 Alpha virt. eigenvalues --    1.21122   1.21346   1.22196   1.22930   1.23238
 Alpha virt. eigenvalues --    1.23825   1.24222   1.24496   1.24758   1.25186
 Alpha virt. eigenvalues --    1.25608   1.26409   1.26527   1.27022   1.27735
 Alpha virt. eigenvalues --    1.27900   1.28249   1.28683   1.29577   1.29934
 Alpha virt. eigenvalues --    1.31201   1.32215   1.32572   1.34006   1.34206
 Alpha virt. eigenvalues --    1.34567   1.34871   1.35323   1.36242   1.36925
 Alpha virt. eigenvalues --    1.37679   1.37939   1.38630   1.39619   1.39976
 Alpha virt. eigenvalues --    1.41084   1.41902   1.42458   1.43297   1.44668
 Alpha virt. eigenvalues --    1.45124   1.45642   1.46216   1.46692   1.47486
 Alpha virt. eigenvalues --    1.49402   1.49876   1.50835   1.51303   1.51816
 Alpha virt. eigenvalues --    1.52535   1.53466   1.54979   1.55904   1.56070
 Alpha virt. eigenvalues --    1.57773   1.58688   1.59563   1.59608   1.60442
 Alpha virt. eigenvalues --    1.61154   1.62449   1.63065   1.63495   1.65796
 Alpha virt. eigenvalues --    1.66008   1.67377   1.68332   1.69241   1.69897
 Alpha virt. eigenvalues --    1.72187   1.72435   1.73286   1.73634   1.74825
 Alpha virt. eigenvalues --    1.75012   1.76896   1.77221   1.77635   1.78249
 Alpha virt. eigenvalues --    1.79898   1.80838   1.81267   1.82070   1.83921
 Alpha virt. eigenvalues --    1.85464   1.86328   1.87030   1.89008   1.89422
 Alpha virt. eigenvalues --    1.89896   1.89995   1.90570   1.93360   1.94577
 Alpha virt. eigenvalues --    1.95220   1.95864   1.96057   1.97163   1.97289
 Alpha virt. eigenvalues --    2.00211   2.00418   2.00978   2.02489   2.04790
 Alpha virt. eigenvalues --    2.06450   2.07511   2.08733   2.10103   2.10991
 Alpha virt. eigenvalues --    2.12046   2.13260   2.14725   2.15680   2.20127
 Alpha virt. eigenvalues --    2.21543   2.23069   2.23986   2.24940   2.26450
 Alpha virt. eigenvalues --    2.27313   2.28391   2.28900   2.29466   2.31520
 Alpha virt. eigenvalues --    2.33275   2.35071   2.35136   2.36621   2.38236
 Alpha virt. eigenvalues --    2.40876   2.43094   2.43868   2.45242   2.48734
 Alpha virt. eigenvalues --    2.51159   2.51772   2.53389   2.55603   2.57742
 Alpha virt. eigenvalues --    2.58866   2.60014   2.61884   2.63408   2.65013
 Alpha virt. eigenvalues --    2.65502   2.66417   2.69086   2.71698   2.72155
 Alpha virt. eigenvalues --    2.73998   2.75570   2.76422   2.77576   2.79746
 Alpha virt. eigenvalues --    2.80142   2.82894   2.83568   2.85132   2.85669
 Alpha virt. eigenvalues --    2.86935   2.89700   2.90453   2.91762   2.92444
 Alpha virt. eigenvalues --    2.93625   2.95402   2.96299   2.96870   2.97458
 Alpha virt. eigenvalues --    2.97709   2.98982   3.00533   3.00700   3.02072
 Alpha virt. eigenvalues --    3.03087   3.03615   3.04135   3.04557   3.05377
 Alpha virt. eigenvalues --    3.05890   3.06929   3.07585   3.08310   3.08836
 Alpha virt. eigenvalues --    3.09463   3.11522   3.11923   3.12762   3.13372
 Alpha virt. eigenvalues --    3.15752   3.16385   3.17835   3.19170   3.21708
 Alpha virt. eigenvalues --    3.24886   3.26190   3.30173   3.71883   3.85213
 Alpha virt. eigenvalues --    3.98404   4.01100   4.09277   4.10719   4.11545
 Alpha virt. eigenvalues --    4.14296   4.14743   4.14861   4.16562   4.17501
 Alpha virt. eigenvalues --    4.18180   4.19577   4.20555   4.21259   4.22829
 Alpha virt. eigenvalues --    4.23516   4.24097   4.24876   4.26138   4.26325
 Alpha virt. eigenvalues --    4.27517   4.28135   4.29043   4.29262   4.29612
 Alpha virt. eigenvalues --    4.30204   4.30643   4.31325   4.31533   4.32239
 Alpha virt. eigenvalues --    4.33053   4.33594   4.34338   4.35000   4.35365
 Alpha virt. eigenvalues --    4.36119   4.37044   4.37288   4.37862   4.39096
 Alpha virt. eigenvalues --    4.39711   4.40147   4.40505   4.41432   4.42960
 Alpha virt. eigenvalues --    4.44864   4.46363   4.46815   4.48430   4.49946
 Alpha virt. eigenvalues --    4.51753   4.51981   4.52488   4.53822   4.54979
 Alpha virt. eigenvalues --    4.56009   4.57415   4.58399   4.59442   4.60185
 Alpha virt. eigenvalues --    4.60634   4.61305   4.62737   4.63023   4.63637
 Alpha virt. eigenvalues --    4.64948   4.65602   4.66350   4.67573   4.67991
 Alpha virt. eigenvalues --    4.68404   4.68842   4.69521   4.70822   4.71397
 Alpha virt. eigenvalues --    4.71983   4.72291   4.73321   4.73446   4.73806
 Alpha virt. eigenvalues --    4.74491   4.74954   4.75778   4.76626   4.77064
 Alpha virt. eigenvalues --    4.77981   4.78770   4.78963   4.79752   4.81287
 Alpha virt. eigenvalues --    4.82084   4.82268   4.84153   4.84374   4.86026
 Alpha virt. eigenvalues --    4.87131   4.87358   4.88893   4.89479   4.90037
 Alpha virt. eigenvalues --    4.92000   4.93685   4.94176   4.95233   4.96435
 Alpha virt. eigenvalues --    4.98593   4.99026   5.00615   5.03120   5.06436
 Alpha virt. eigenvalues --    5.07677   5.12930   5.16101   5.16853   5.19914
 Alpha virt. eigenvalues --    5.23101   5.25625   5.32628   5.37561   5.41131
 Alpha virt. eigenvalues --    5.55915   5.92679   6.16663   6.47973   6.66613
 Alpha virt. eigenvalues --    6.71254   6.76521   6.76829   6.82352   6.85419
 Alpha virt. eigenvalues --    6.88580   6.89930   6.91843   6.95982   7.02217
 Alpha virt. eigenvalues --    7.08383  11.76253  11.96663  12.00006  12.06408
 Alpha virt. eigenvalues --   12.37059  12.39897  12.67395  12.83345  12.90647
 Alpha virt. eigenvalues --   13.03199  13.06527  13.13381  13.20596  13.25565
 Alpha virt. eigenvalues --   13.26842  13.37717  13.38658  13.43521  13.48066
 Alpha virt. eigenvalues --   13.52082  13.63447  13.72708  13.93539
          Condensed to atoms (all electrons):
              1          2          3          4          5          6
     1  O    8.274152   0.196124  -0.052554  -0.037408   0.039398  -0.007978
     2  C    0.196124   7.122998  -0.066315   0.073478  -0.029947  -1.170622
     3  C   -0.052554  -0.066315   6.403674   0.116492  -0.012572  -0.046518
     4  O   -0.037408   0.073478   0.116492   8.268231   0.231361  -0.113501
     5  H    0.039398  -0.029947  -0.012572   0.231361   0.430467   0.009858
     6  C   -0.007978  -1.170622  -0.046518  -0.113501   0.009858   8.945392
     7  O   -0.000810   0.015603  -0.099529   0.004207   0.000153   0.231785
     8  H    0.000037   0.000909  -0.035012   0.005452  -0.000021   0.001980
     9  C    0.015981  -0.472136  -0.270963   0.005721  -0.006750   0.494708
    10  O   -0.001631   0.030759   0.000960   0.000021   0.000003  -0.002516
    11  H    0.000102  -0.004210  -0.000173   0.000000   0.000000   0.000728
    12  C   -0.119641  -1.028779  -0.188870   0.004617   0.002908   1.038736
    13  O    0.006192  -0.008167  -0.029334  -0.003763  -0.000098  -0.005090
    14  C   -0.000841   1.047575  -0.157008   0.046711   0.007584  -2.764766
    15  O   -0.000090  -0.001361   0.001757   0.000477   0.000002  -0.075185
    16  C    0.002127   0.174689  -0.009901  -0.001648   0.000627  -0.327602
    17  C   -0.000240  -0.005203   0.011966   0.000530  -0.000041  -0.286492
    18  O    0.000037  -0.000168  -0.005686   0.000010   0.000000   0.011169
    19  H   -0.000019  -0.000584   0.000236   0.000004   0.000000   0.015824
    20  C    0.000083   0.009803  -0.005637  -0.000048   0.000004  -0.100256
    21  O    0.000000  -0.000100   0.000172   0.000000   0.000000   0.000200
    22  H    0.000000   0.000027  -0.000071   0.000000   0.000000  -0.000266
    23  C    0.000035   0.012826  -0.043690   0.000487  -0.000012  -0.029626
    24  O    0.000000   0.000075  -0.000401   0.000001   0.000000   0.001645
    25  H    0.000000  -0.000006  -0.000114   0.000000   0.000000   0.000386
    26  C   -0.000104  -0.046114   0.110774  -0.001271   0.000024  -0.153520
    27  O    0.000000  -0.000054  -0.000288   0.000001   0.000000  -0.001411
    28  C   -0.000005  -0.001202  -0.000754   0.000010   0.000000   0.030489
    29  O    0.000000  -0.000006  -0.000004   0.000000   0.000000  -0.000039
    30  H    0.260128   0.055593  -0.059844   0.003288  -0.003549   0.003306
    31  H   -0.000092   0.017261   0.003565   0.000007   0.000000  -0.006600
    32  H    0.004637  -0.004061  -0.008034   0.000017  -0.000002   0.001735
    33  H    0.003271   0.043763  -0.025997   0.000602   0.000011  -0.097785
    34  H   -0.007846   0.411633  -0.048093  -0.000588   0.000556  -0.056814
    35  H   -0.001334  -0.034922   0.330985  -0.022521  -0.004526  -0.149218
    36  H    0.000305  -0.012041  -0.077786   0.001834  -0.000302   0.430960
    37  H    0.000011  -0.049252   0.000627  -0.000396  -0.000009   0.055234
    38  H    0.000000   0.000567   0.003856   0.000010   0.000000  -0.007103
    39  H    0.000000  -0.000203  -0.002578   0.000002   0.000000   0.002299
    40  H    0.000000  -0.000380  -0.000734   0.000000   0.000000   0.000604
    41  H    0.000000  -0.003910   0.003603  -0.000007   0.000000   0.012303
    42  H    0.000000  -0.000144  -0.000152   0.000000   0.000000   0.008172
    43  H    0.000000   0.000037   0.000134   0.000000   0.000000   0.004254
    44  H    0.000000   0.000000   0.000000   0.000000   0.000000   0.000008
    45  H    0.000000   0.000002   0.000000   0.000000   0.000000   0.000217
              7          8          9         10         11         12
     1  O   -0.000810   0.000037   0.015981  -0.001631   0.000102  -0.119641
     2  C    0.015603   0.000909  -0.472136   0.030759  -0.004210  -1.028779
     3  C   -0.099529  -0.035012  -0.270963   0.000960  -0.000173  -0.188870
     4  O    0.004207   0.005452   0.005721   0.000021   0.000000   0.004617
     5  H    0.000153  -0.000021  -0.006750   0.000003   0.000000   0.002908
     6  C    0.231785   0.001980   0.494708  -0.002516   0.000728   1.038736
     7  O    8.240357   0.243790   0.001411   0.000003   0.000000   0.007608
     8  H    0.243790   0.412997  -0.000086   0.000000   0.000000  -0.006216
     9  C    0.001411  -0.000086   9.897308   0.004155   0.009540  -2.496008
    10  O    0.000003   0.000000   0.004155   8.191148   0.242502   0.097671
    11  H    0.000000   0.000000   0.009540   0.242502   0.438515  -0.009733
    12  C    0.007608  -0.006216  -2.496008   0.097671  -0.009733  10.645114
    13  O    0.005457  -0.000790  -0.079323   0.004475   0.000088   0.054408
    14  C    0.066539   0.020909  -1.611122  -0.009022  -0.001191  -1.529622
    15  O   -0.028886   0.001295  -0.022011  -0.000457  -0.000001  -0.073592
    16  C   -0.078126   0.009697  -0.204933   0.011686  -0.000212  -0.585867
    17  C   -0.001803  -0.000390  -0.038423  -0.004263  -0.000024  -0.087005
    18  O    0.000419  -0.000004  -0.005604  -0.002887   0.000178   0.023289
    19  H   -0.000072   0.000000   0.004922   0.003955  -0.000085  -0.004759
    20  C   -0.003720  -0.000257  -0.012557   0.001070  -0.000034  -0.051001
    21  O    0.000012   0.000000  -0.000127  -0.000009   0.000000   0.000633
    22  H   -0.000003   0.000000   0.000066   0.000000   0.000000   0.000530
    23  C   -0.030002   0.000449  -0.001389  -0.000033   0.000000   0.001701
    24  O    0.000726  -0.000028  -0.000003   0.000000   0.000000  -0.000327
    25  H    0.000018   0.000000   0.000000   0.000000   0.000000  -0.000067
    26  C    0.005421   0.001640  -0.011548  -0.000070   0.000011  -0.082342
    27  O   -0.000333   0.000009   0.000030   0.000003   0.000000   0.000066
    28  C    0.001462   0.000082   0.003219   0.000145   0.000000   0.011430
    29  O    0.000003   0.000000   0.000000   0.000000   0.000000   0.000078
    30  H    0.000033   0.000000   0.019582   0.000033   0.000000  -0.014531
    31  H    0.000004   0.000000   0.484237  -0.029257  -0.011310  -0.172279
    32  H   -0.000002   0.000000   0.589162  -0.054192   0.000648  -0.194642
    33  H    0.000633   0.000000   0.030490  -0.003959  -0.000101   0.056186
    34  H    0.000718   0.000006  -0.096626  -0.000320   0.000002  -0.095817
    35  H    0.009775  -0.000308   0.006662   0.000062   0.000000   0.044867
    36  H   -0.026275  -0.007733   0.023093  -0.000011   0.000000   0.114584
    37  H    0.001794  -0.000243   0.044149  -0.000474   0.000000   0.097581
    38  H   -0.000803   0.000151  -0.000054   0.000000   0.000000   0.000178
    39  H    0.000070  -0.000007   0.000130   0.000000   0.000000   0.002785
    40  H    0.000148   0.000000   0.000444   0.000001   0.000000   0.003603
    41  H   -0.001424  -0.000011   0.000628   0.000007   0.000000   0.001019
    42  H   -0.000005   0.000000  -0.000324   0.000001   0.000000  -0.002338
    43  H    0.000063   0.000000  -0.000161   0.000001   0.000000  -0.000999
    44  H    0.000000   0.000000   0.000000   0.000000   0.000000   0.000001
    45  H    0.000003   0.000000   0.000006   0.000000   0.000000   0.000127
             13         14         15         16         17         18
     1  O    0.006192  -0.000841  -0.000090   0.002127  -0.000240   0.000037
     2  C   -0.008167   1.047575  -0.001361   0.174689  -0.005203  -0.000168
     3  C   -0.029334  -0.157008   0.001757  -0.009901   0.011966  -0.005686
     4  O   -0.003763   0.046711   0.000477  -0.001648   0.000530   0.000010
     5  H   -0.000098   0.007584   0.000002   0.000627  -0.000041   0.000000
     6  C   -0.005090  -2.764766  -0.075185  -0.327602  -0.286492   0.011169
     7  O    0.005457   0.066539  -0.028886  -0.078126  -0.001803   0.000419
     8  H   -0.000790   0.020909   0.001295   0.009697  -0.000390  -0.000004
     9  C   -0.079323  -1.611122  -0.022011  -0.204933  -0.038423  -0.005604
    10  O    0.004475  -0.009022  -0.000457   0.011686  -0.004263  -0.002887
    11  H    0.000088  -0.001191  -0.000001  -0.000212  -0.000024   0.000178
    12  C    0.054408  -1.529622  -0.073592  -0.585867  -0.087005   0.023289
    13  O    8.051378   0.228977   0.027234   0.021926   0.018446  -0.014953
    14  C    0.228977  11.674674   0.195965  -0.178450   0.070691   0.054358
    15  O    0.027234   0.195965   8.155119   0.139996   0.049038  -0.018176
    16  C    0.021926  -0.178450   0.139996  14.268280  -1.795098  -0.035137
    17  C    0.018446   0.070691   0.049038  -1.795098   7.001517   0.148255
    18  O   -0.014953   0.054358  -0.018176  -0.035137   0.148255   8.278955
    19  H    0.016553   0.031805   0.007249  -0.053220   0.032279   0.230275
    20  C   -0.001109  -0.446803   0.001041  -2.527293   0.837866  -0.058227
    21  O    0.000034  -0.003730  -0.000172   0.023086  -0.080082  -0.007201
    22  H   -0.000006   0.005381   0.000154  -0.032946  -0.028614   0.009913
    23  C    0.001346   0.121918  -0.081128   0.548845  -0.340060   0.021555
    24  O   -0.000108   0.005848  -0.002488   0.044254   0.012541   0.000172
    25  H   -0.000006  -0.002089  -0.000389   0.034683   0.002863   0.000001
    26  C    0.015693  -1.546355   0.061480  -5.658736   0.782780  -0.032568
    27  O    0.000221  -0.017061  -0.000871  -0.017612  -0.029102   0.000664
    28  C    0.000671   0.204500   0.007612   1.431147  -0.440622  -0.005709
    29  O    0.000005  -0.000244   0.000025  -0.021028  -0.005017  -0.000308
    30  H   -0.000683  -0.005323   0.000010  -0.000089   0.000018   0.000000
    31  H   -0.005212   0.024571   0.000125   0.001437   0.000071   0.000076
    32  H    0.002784  -0.012659  -0.000105   0.000138  -0.000359  -0.000098
    33  H   -0.033639   0.228142   0.001610   0.026892   0.001451   0.000571
    34  H    0.002665   0.162516  -0.000372   0.003001   0.000343   0.000006
    35  H    0.002484   0.065333  -0.000631  -0.009233   0.003354   0.000020
    36  H    0.004401  -0.153820  -0.009386  -0.039299   0.003254  -0.000119
    37  H   -0.034058   0.195225  -0.025949   0.002283  -0.033336   0.001410
    38  H    0.000265   0.005689  -0.006516  -0.033707  -0.014304  -0.000021
    39  H   -0.000010   0.058133  -0.003010   0.165110  -0.006844   0.000112
    40  H   -0.000093   0.077095  -0.003038   0.147847  -0.058047   0.000631
    41  H   -0.000691   0.001333  -0.032070   0.166884   0.007004   0.000920
    42  H   -0.001231  -0.001528  -0.004443  -0.096477   0.301078  -0.019716
    43  H   -0.000050  -0.023298   0.000341   0.208634  -0.219301   0.006680
    44  H    0.000000   0.000388   0.000005   0.011120   0.003409  -0.000001
    45  H    0.000009   0.002136   0.000063   0.115138  -0.046059   0.001156
             19         20         21         22         23         24
     1  O   -0.000019   0.000083   0.000000   0.000000   0.000035   0.000000
     2  C   -0.000584   0.009803  -0.000100   0.000027   0.012826   0.000075
     3  C    0.000236  -0.005637   0.000172  -0.000071  -0.043690  -0.000401
     4  O    0.000004  -0.000048   0.000000   0.000000   0.000487   0.000001
     5  H    0.000000   0.000004   0.000000   0.000000  -0.000012   0.000000
     6  C    0.015824  -0.100256   0.000200  -0.000266  -0.029626   0.001645
     7  O   -0.000072  -0.003720   0.000012  -0.000003  -0.030002   0.000726
     8  H    0.000000  -0.000257   0.000000   0.000000   0.000449  -0.000028
     9  C    0.004922  -0.012557  -0.000127   0.000066  -0.001389  -0.000003
    10  O    0.003955   0.001070  -0.000009   0.000000  -0.000033   0.000000
    11  H   -0.000085  -0.000034   0.000000   0.000000   0.000000   0.000000
    12  C   -0.004759  -0.051001   0.000633   0.000530   0.001701  -0.000327
    13  O    0.016553  -0.001109   0.000034  -0.000006   0.001346  -0.000108
    14  C    0.031805  -0.446803  -0.003730   0.005381   0.121918   0.005848
    15  O    0.007249   0.001041  -0.000172   0.000154  -0.081128  -0.002488
    16  C   -0.053220  -2.527293   0.023086  -0.032946   0.548845   0.044254
    17  C    0.032279   0.837866  -0.080082  -0.028614  -0.340060   0.012541
    18  O    0.230275  -0.058227  -0.007201   0.009913   0.021555   0.000172
    19  H    0.387143  -0.017248   0.000684  -0.000203  -0.003445   0.000003
    20  C   -0.017248   7.441759   0.194491   0.051624   0.001303  -0.040583
    21  O    0.000684   0.194491   8.234588   0.232813  -0.003153   0.000080
    22  H   -0.000203   0.051624   0.232813   0.421528   0.000308   0.000002
    23  C   -0.003445   0.001303  -0.003153   0.000308   6.192205   0.060404
    24  O    0.000003  -0.040583   0.000080   0.000002   0.060404   8.254466
    25  H    0.000000  -0.001079   0.000000   0.000000   0.031223   0.250917
    26  C   -0.014719   1.622263   0.025277  -0.002385  -1.263760   0.026544
    27  O   -0.000099  -0.026731  -0.000746   0.000117  -0.002485  -0.061926
    28  C    0.004594  -0.767793  -0.076917   0.006964  -0.014655   0.015633
    29  O    0.000002  -0.023561   0.001279  -0.000214   0.000368  -0.000973
    30  H    0.000000   0.000000   0.000000   0.000000   0.000000   0.000000
    31  H   -0.000016  -0.000054   0.000000   0.000000  -0.000003   0.000000
    32  H    0.000023   0.000044   0.000000   0.000000   0.000003   0.000000
    33  H   -0.001176   0.000369   0.000000   0.000000   0.000064   0.000000
    34  H   -0.000004   0.000028   0.000000   0.000000   0.000119   0.000000
    35  H    0.000010   0.000341   0.000000   0.000000   0.000388   0.000000
    36  H    0.000035   0.000442   0.000000   0.000000   0.003264   0.000007
    37  H   -0.002152   0.002903   0.000043   0.000001   0.002019   0.000006
    38  H    0.000001   0.000693  -0.000003   0.000000   0.421300  -0.014188
    39  H    0.000000  -0.021738   0.000033   0.000000   0.499202  -0.032417
    40  H    0.000005  -0.077078   0.000267  -0.000001   0.046300   0.001451
    41  H   -0.000256   0.023963  -0.000013   0.000044  -0.004815   0.000648
    42  H   -0.001843  -0.031392   0.002842   0.000066   0.016347   0.000026
    43  H   -0.000117   0.254793  -0.026690  -0.005637   0.016436  -0.000477
    44  H    0.000000  -0.000753  -0.000496   0.000016  -0.001524   0.000015
    45  H   -0.000007  -0.212768   0.009881  -0.000236   0.005610  -0.000707
             25         26         27         28         29         30
     1  O    0.000000  -0.000104   0.000000  -0.000005   0.000000   0.260128
     2  C   -0.000006  -0.046114  -0.000054  -0.001202  -0.000006   0.055593
     3  C   -0.000114   0.110774  -0.000288  -0.000754  -0.000004  -0.059844
     4  O    0.000000  -0.001271   0.000001   0.000010   0.000000   0.003288
     5  H    0.000000   0.000024   0.000000   0.000000   0.000000  -0.003549
     6  C    0.000386  -0.153520  -0.001411   0.030489  -0.000039   0.003306
     7  O    0.000018   0.005421  -0.000333   0.001462   0.000003   0.000033
     8  H    0.000000   0.001640   0.000009   0.000082   0.000000   0.000000
     9  C    0.000000  -0.011548   0.000030   0.003219   0.000000   0.019582
    10  O    0.000000  -0.000070   0.000003   0.000145   0.000000   0.000033
    11  H    0.000000   0.000011   0.000000   0.000000   0.000000   0.000000
    12  C   -0.000067  -0.082342   0.000066   0.011430   0.000078  -0.014531
    13  O   -0.000006   0.015693   0.000221   0.000671   0.000005  -0.000683
    14  C   -0.002089  -1.546355  -0.017061   0.204500  -0.000244  -0.005323
    15  O   -0.000389   0.061480  -0.000871   0.007612   0.000025   0.000010
    16  C    0.034683  -5.658736  -0.017612   1.431147  -0.021028  -0.000089
    17  C    0.002863   0.782780  -0.029102  -0.440622  -0.005017   0.000018
    18  O    0.000001  -0.032568   0.000664  -0.005709  -0.000308   0.000000
    19  H    0.000000  -0.014719  -0.000099   0.004594   0.000002   0.000000
    20  C   -0.001079   1.622263  -0.026731  -0.767793  -0.023561   0.000000
    21  O    0.000000   0.025277  -0.000746  -0.076917   0.001279   0.000000
    22  H    0.000000  -0.002385   0.000117   0.006964  -0.000214   0.000000
    23  C    0.031223  -1.263760  -0.002485  -0.014655   0.000368   0.000000
    24  O    0.250917   0.026544  -0.061926   0.015633  -0.000973   0.000000
    25  H    0.437158  -0.078470   0.001893   0.000886   0.000014   0.000000
    26  C   -0.078470  13.526060   0.234785  -1.269191   0.025482  -0.000010
    27  O    0.001893   0.234785   8.217865   0.091801  -0.032620   0.000000
    28  C    0.000886  -1.269191   0.091801   5.658496   0.224297   0.000000
    29  O    0.000014   0.025482  -0.032620   0.224297   8.113199   0.000000
    30  H    0.000000  -0.000010   0.000000   0.000000   0.000000   0.415482
    31  H    0.000000   0.000076   0.000000  -0.000002   0.000000  -0.000010
    32  H    0.000000  -0.000007   0.000000   0.000001   0.000000  -0.000077
    33  H    0.000000   0.002213   0.000001  -0.000081   0.000000  -0.000228
    34  H    0.000000  -0.000023   0.000000  -0.000001   0.000000  -0.011853
    35  H    0.000000  -0.002541   0.000000   0.000005   0.000000   0.000306
    36  H    0.000000  -0.009949   0.000005  -0.000109   0.000000   0.000031
    37  H    0.000000   0.008325   0.000137  -0.000052   0.000000   0.000002
    38  H   -0.010395  -0.012219  -0.000046   0.002638  -0.000016   0.000000
    39  H    0.004465  -0.350176  -0.001032   0.012037   0.000030   0.000000
    40  H    0.001219   0.073306  -0.040156   0.069875  -0.000384   0.000000
    41  H   -0.000006   0.077035  -0.000580  -0.002374  -0.000222   0.000000
    42  H    0.000000   0.080796   0.001395  -0.023050   0.001271   0.000000
    43  H    0.000000  -0.007646  -0.014799   0.033471   0.003580   0.000000
    44  H    0.000001  -0.019763   0.002012   0.009018   0.245392   0.000000
    45  H    0.000003  -0.015237  -0.056383   0.477908  -0.022783   0.000000
             31         32         33         34         35         36
     1  O   -0.000092   0.004637   0.003271  -0.007846  -0.001334   0.000305
     2  C    0.017261  -0.004061   0.043763   0.411633  -0.034922  -0.012041
     3  C    0.003565  -0.008034  -0.025997  -0.048093   0.330985  -0.077786
     4  O    0.000007   0.000017   0.000602  -0.000588  -0.022521   0.001834
     5  H    0.000000  -0.000002   0.000011   0.000556  -0.004526  -0.000302
     6  C   -0.006600   0.001735  -0.097785  -0.056814  -0.149218   0.430960
     7  O    0.000004  -0.000002   0.000633   0.000718   0.009775  -0.026275
     8  H    0.000000   0.000000   0.000000   0.000006  -0.000308  -0.007733
     9  C    0.484237   0.589162   0.030490  -0.096626   0.006662   0.023093
    10  O   -0.029257  -0.054192  -0.003959  -0.000320   0.000062  -0.000011
    11  H   -0.011310   0.000648  -0.000101   0.000002   0.000000   0.000000
    12  C   -0.172279  -0.194642   0.056186  -0.095817   0.044867   0.114584
    13  O   -0.005212   0.002784  -0.033639   0.002665   0.002484   0.004401
    14  C    0.024571  -0.012659   0.228142   0.162516   0.065333  -0.153820
    15  O    0.000125  -0.000105   0.001610  -0.000372  -0.000631  -0.009386
    16  C    0.001437   0.000138   0.026892   0.003001  -0.009233  -0.039299
    17  C    0.000071  -0.000359   0.001451   0.000343   0.003354   0.003254
    18  O    0.000076  -0.000098   0.000571   0.000006   0.000020  -0.000119
    19  H   -0.000016   0.000023  -0.001176  -0.000004   0.000010   0.000035
    20  C   -0.000054   0.000044   0.000369   0.000028   0.000341   0.000442
    21  O    0.000000   0.000000   0.000000   0.000000   0.000000   0.000000
    22  H    0.000000   0.000000   0.000000   0.000000   0.000000   0.000000
    23  C   -0.000003   0.000003   0.000064   0.000119   0.000388   0.003264
    24  O    0.000000   0.000000   0.000000   0.000000   0.000000   0.000007
    25  H    0.000000   0.000000   0.000000   0.000000   0.000000   0.000000
    26  C    0.000076  -0.000007   0.002213  -0.000023  -0.002541  -0.009949
    27  O    0.000000   0.000000   0.000001   0.000000   0.000000   0.000005
    28  C   -0.000002   0.000001  -0.000081  -0.000001   0.000005  -0.000109
    29  O    0.000000   0.000000   0.000000   0.000000   0.000000   0.000000
    30  H   -0.000010  -0.000077  -0.000228  -0.011853   0.000306   0.000031
    31  H    0.597667  -0.047261   0.007342   0.001483  -0.000012  -0.000006
    32  H   -0.047261   0.565628  -0.004722  -0.000059  -0.000021   0.000001
    33  H    0.007342  -0.004722   0.639325   0.006672   0.004026   0.000132
    34  H    0.001483  -0.000059   0.006672   0.592456   0.005281   0.001530
    35  H   -0.000012  -0.000021   0.004026   0.005281   0.616512   0.007180
    36  H   -0.000006   0.000001   0.000132   0.001530   0.007180   0.620649
    37  H   -0.000019   0.000000   0.002910  -0.000093   0.002925   0.005020
    38  H    0.000000   0.000000   0.000000   0.000000   0.000000   0.000017
    39  H    0.000000   0.000000   0.000000   0.000000   0.000000   0.000000
    40  H    0.000000   0.000000   0.000000   0.000000   0.000000   0.000000
    41  H    0.000000   0.000000  -0.000021   0.000000  -0.000010  -0.000046
    42  H    0.000000   0.000000  -0.000002   0.000000   0.000000   0.000000
    43  H    0.000000   0.000000   0.000000   0.000000   0.000000   0.000000
    44  H    0.000000   0.000000   0.000000   0.000000   0.000000   0.000000
    45  H    0.000000   0.000000   0.000000   0.000000   0.000000   0.000000
             37         38         39         40         41         42
     1  O    0.000011   0.000000   0.000000   0.000000   0.000000   0.000000
     2  C   -0.049252   0.000567  -0.000203  -0.000380  -0.003910  -0.000144
     3  C    0.000627   0.003856  -0.002578  -0.000734   0.003603  -0.000152
     4  O   -0.000396   0.000010   0.000002   0.000000  -0.000007   0.000000
     5  H   -0.000009   0.000000   0.000000   0.000000   0.000000   0.000000
     6  C    0.055234  -0.007103   0.002299   0.000604   0.012303   0.008172
     7  O    0.001794  -0.000803   0.000070   0.000148  -0.001424  -0.000005
     8  H   -0.000243   0.000151  -0.000007   0.000000  -0.000011   0.000000
     9  C    0.044149  -0.000054   0.000130   0.000444   0.000628  -0.000324
    10  O   -0.000474   0.000000   0.000000   0.000001   0.000007   0.000001
    11  H    0.000000   0.000000   0.000000   0.000000   0.000000   0.000000
    12  C    0.097581   0.000178   0.002785   0.003603   0.001019  -0.002338
    13  O   -0.034058   0.000265  -0.000010  -0.000093  -0.000691  -0.001231
    14  C    0.195225   0.005689   0.058133   0.077095   0.001333  -0.001528
    15  O   -0.025949  -0.006516  -0.003010  -0.003038  -0.032070  -0.004443
    16  C    0.002283  -0.033707   0.165110   0.147847   0.166884  -0.096477
    17  C   -0.033336  -0.014304  -0.006844  -0.058047   0.007004   0.301078
    18  O    0.001410  -0.000021   0.000112   0.000631   0.000920  -0.019716
    19  H   -0.002152   0.000001   0.000000   0.000005  -0.000256  -0.001843
    20  C    0.002903   0.000693  -0.021738  -0.077078   0.023963  -0.031392
    21  O    0.000043  -0.000003   0.000033   0.000267  -0.000013   0.002842
    22  H    0.000001   0.000000   0.000000  -0.000001   0.000044   0.000066
    23  C    0.002019   0.421300   0.499202   0.046300  -0.004815   0.016347
    24  O    0.000006  -0.014188  -0.032417   0.001451   0.000648   0.000026
    25  H    0.000000  -0.010395   0.004465   0.001219  -0.000006   0.000000
    26  C    0.008325  -0.012219  -0.350176   0.073306   0.077035   0.080796
    27  O    0.000137  -0.000046  -0.001032  -0.040156  -0.000580   0.001395
    28  C   -0.000052   0.002638   0.012037   0.069875  -0.002374  -0.023050
    29  O    0.000000  -0.000016   0.000030  -0.000384  -0.000222   0.001271
    30  H    0.000002   0.000000   0.000000   0.000000   0.000000   0.000000
    31  H   -0.000019   0.000000   0.000000   0.000000   0.000000   0.000000
    32  H    0.000000   0.000000   0.000000   0.000000   0.000000   0.000000
    33  H    0.002910   0.000000   0.000000   0.000000  -0.000021  -0.000002
    34  H   -0.000093   0.000000   0.000000   0.000000   0.000000   0.000000
    35  H    0.002925   0.000000   0.000000   0.000000  -0.000010   0.000000
    36  H    0.005020   0.000017   0.000000   0.000000  -0.000046   0.000000
    37  H    0.564935  -0.000009   0.000006   0.000005   0.001889   0.000084
    38  H   -0.000009   0.551664  -0.037581  -0.003890   0.000063  -0.000016
    39  H    0.000006  -0.037581   0.543776   0.005514   0.003531  -0.000010
    40  H    0.000005  -0.003890   0.005514   0.637370   0.006265   0.002369
    41  H    0.001889   0.000063   0.003531   0.006265   0.611769   0.006120
    42  H    0.000084  -0.000016  -0.000010   0.002369   0.006120   0.641768
    43  H   -0.000038   0.000003  -0.000126  -0.000175   0.002759   0.007179
    44  H    0.000000   0.000000   0.000000   0.000000   0.000001  -0.000008
    45  H    0.000000   0.000006  -0.000002   0.002845  -0.000076   0.004502
             43         44         45
     1  O    0.000000   0.000000   0.000000
     2  C    0.000037   0.000000   0.000002
     3  C    0.000134   0.000000   0.000000
     4  O    0.000000   0.000000   0.000000
     5  H    0.000000   0.000000   0.000000
     6  C    0.004254   0.000008   0.000217
     7  O    0.000063   0.000000   0.000003
     8  H    0.000000   0.000000   0.000000
     9  C   -0.000161   0.000000   0.000006
    10  O    0.000001   0.000000   0.000000
    11  H    0.000000   0.000000   0.000000
    12  C   -0.000999   0.000001   0.000127
    13  O   -0.000050   0.000000   0.000009
    14  C   -0.023298   0.000388   0.002136
    15  O    0.000341   0.000005   0.000063
    16  C    0.208634   0.011120   0.115138
    17  C   -0.219301   0.003409  -0.046059
    18  O    0.006680  -0.000001   0.001156
    19  H   -0.000117   0.000000  -0.000007
    20  C    0.254793  -0.000753  -0.212768
    21  O   -0.026690  -0.000496   0.009881
    22  H   -0.005637   0.000016  -0.000236
[...]
 119,-0.00004777,-0.00005423,0.00003046,0.00011487,0.00016900,0.0001475
 1,-0.00013008,-0.00021294,-0.00003598,-0.00008334,0.00083986,0.0008797
 8,-0.00118730,0.00769859,-0.00920320,0.00414434,-0.21900022,0.14221324
 ,-0.05631936,-0.01915999,-0.00076596,-0.01915316,-0.00118767,0.0000900
 4,0.00061633,-0.01414285,0.01759015,-0.00280418,0.00088214,-0.00157998
 ,0.00014803,0.00021868,0.00008592,-0.00036156,0.00068009,-0.00026861,0
 .00032189,0.00000861,0.00007941,-0.00000285,0.00001151,0.00005696,-0.0
 0002061,0.00039159,-0.00057101,0.00038177,0.00036846,0.00018500,0.0002
 6810,-0.00149729,-0.00015038,-0.00287135,0.00057726,-0.00086598,-0.000
 27268,-0.00000244,0.00000194,0.00001091,0.00002296,-0.00000558,-0.0000
 1935,-0.00000099,0.00000428,-0.00001273,0.00003622,-0.00004516,0.00002
 460,0.00000803,0.00001096,-0.00001615,0.00001430,-0.00000439,0.0000001
 4,0.00001041,0.00004444,-0.00002952,0.00005456,-0.00014816,0.00011413,
 -0.00001342,0.00000444,-0.00000718,-0.00025203,-0.00018906,-0.00004311
 ,0.00033087,-0.00060830,0.00023436,-0.00041532,-0.00250663,0.00103029,
 0.24329932,0.00000410,0.00002373,0.00000629,0.00000845,-0.00002808,0.0
 0000722,0.00001400,0.00001937,-0.00000637,-0.00000875,0.00001829,0.000
 00666,0.00000195,-0.00000492,-0.00000604,0.00002062,-0.00015046,-0.000
 17436,-0.00008189,0.00001390,0.00008310,-0.00000950,0.00001975,0.00004
 023,-0.00000642,-0.00001517,0.00003224,0.00001614,-0.00002286,-0.00001
 003,0.00000453,0.00000312,-0.00002181,-0.00003011,0.00004718,0.0000322
 4,0.00002926,0.00011755,0.00007023,0.00006714,0.00006233,-0.00027339,-
 0.00113647,0.00231703,-0.00036954,0.02264193,-0.02171195,0.00610399,0.
 13984668,-0.15122589,0.05101314,-0.02183412,0.01032699,-0.01269806,-0.
 00048266,0.00073439,0.00025056,0.00505443,-0.00513757,0.00089196,0.000
 69744,0.00105756,-0.00040341,-0.00002912,-0.00011631,-0.00026221,-0.00
 014557,0.00015758,0.00011082,-0.00019332,-0.00006265,-0.00011754,-0.00
 002856,-0.00004434,-0.00003051,0.00299395,-0.00008638,0.00168334,-0.00
 071254,0.00034633,-0.00032252,0.00235979,-0.00049071,0.00019227,-0.000
 64081,0.00043772,0.00013342,0.00000034,-0.00000263,-0.00000105,0.00000
 374,0.00000242,-0.00000285,-0.00000165,0.00000317,-0.00000085,0.000003
 13,-0.00002232,0.00000542,0.00000116,0.00000528,-0.00000038,-0.0000071
 7,-0.00000434,-0.00000517,-0.00001234,0.00001943,0.00001474,-0.0000971
 6,-0.00011484,-0.00008290,-0.00000433,0.00000095,0.00000158,-0.0000894
 1,0.00031042,-0.00007932,-0.00131841,-0.00008878,-0.00059804,-0.001821
 14,-0.00438810,0.00174600,-0.14491240,0.16756853,-0.00000085,0.0000032
 6,-0.00001870,0.00002079,-0.00001074,0.00002893,-0.00002923,-0.0000488
 3,0.00002435,0.00002116,0.00002630,-0.00001166,-0.00000375,-0.00000813
 ,0.00000921,0.00010241,-0.00001420,0.00009909,0.00005152,0.00004256,-0
 .00000533,-0.00000290,-0.00001134,-0.00002366,-0.00004625,-0.00000784,
 0.00006090,0.00007120,-0.00005407,-0.00002424,-0.00001612,0.00000726,-
 0.00004662,-0.00010608,0.00001273,0.00003406,0.00022383,0.00008053,-0.
 00008122,-0.00065569,-0.00013047,-0.00032634,-0.00007405,-0.00155374,0
 .00118818,-0.01140420,0.01331826,-0.00249438,-0.05682679,0.05314627,-0
 .06202897,-0.02788114,0.00153589,-0.01574376,-0.00148557,0.00071287,0.
 00010088,0.02079268,-0.01959151,0.00469104,-0.00105317,0.00138387,0.00
 036291,0.00007333,-0.00012532,-0.00022337,0.00030497,-0.00017749,-0.00
 003996,0.00007160,0.00005980,-0.00001690,0.00001499,0.00002167,0.00002
 131,-0.00104197,-0.00176298,0.00002310,-0.00031785,0.00042748,-0.00023
 940,0.00280356,-0.00218142,0.00025093,-0.00034677,0.00019736,0.0000678
 1,-0.00000099,0.00000073,0.00000670,0.00001906,-0.00000849,-0.00002395
 ,0.00000345,0.00000484,-0.00000552,0.00004536,-0.00004001,0.00003716,0
 .00000744,0.00000956,-0.00001544,0.00001702,-0.00000538,0.00000633,0.0
 0002771,0.00003720,-0.00004024,0.00019588,-0.00010884,0.00009595,0.000
 00074,0.00001760,-0.00001169,-0.00005657,-0.00020412,0.00002682,0.0004
 8717,-0.00055460,0.00048226,0.00106251,0.00232069,-0.00052259,0.072473
 53,-0.04509376,0.07902115,-0.00000741,-0.00001477,-0.00001679,0.000000
 90,0.00001342,0.00000608,0.00000531,-0.00000035,0.00001858,0.00000046,
 -0.00000354,-0.00002239,-0.00000024,0.00000423,0.00000361,-0.00001242,
 0.00004071,0.00003234,0.00001433,-0.00002207,-0.00004250,0.00000289,-0
 .00000723,-0.00000237,0.00000584,0.00002990,-0.00002593,0.00000588,-0.
 00001428,0.00002767,-0.00000856,0.00000041,-0.00000214,0.00001147,-0.0
 0000791,0.00000198,-0.00000174,-0.00011553,-0.00005641,0.00004117,0.00
 016347,0.00020374,0.00055674,-0.00062974,-0.00045386,-0.00123725,0.002
 57642,0.00051753,-0.01198984,0.01509117,-0.00128233,0.00114321,-0.0001
 0634,0.00080706,0.00008532,0.00020752,-0.00005821,-0.12243937,0.134945
 08,-0.03878995,0.00459863,-0.03511995,0.01211807,0.00177529,-0.0002381
 4,0.00051864,-0.00016262,-0.00003102,-0.00006113,0.00011363,0.00004097
 ,0.00010129,-0.00000259,0.00001285,-0.00001020,-0.00104944,0.00001404,
 0.00004114,0.00055730,0.00028580,-0.00031330,-0.01466269,0.01737922,-0
 .00617409,0.00117972,-0.00071323,0.00020132,-0.00000007,0.00000300,0.0
 0000317,-0.00000026,-0.00000441,-0.00000039,-0.00000064,-0.00000599,0.
 00000290,0.00000409,0.00000606,-0.00000039,0.00000030,-0.00000080,-0.0
 0000160,0.00000352,0.00000111,0.00000186,0.00000646,-0.00000397,-0.000
 00671,0.00001169,0.00002921,0.00001789,0.00002989,-0.00002004,0.000010
 51,-0.00002500,-0.00012041,0.00004675,0.00043497,0.00000518,0.00005387
 ,0.00031094,-0.00122864,0.00106379,-0.00150461,0.00065299,0.00272322,0
 .14427498,0.00000784,0.00001835,0.00002374,-0.00000558,-0.00001085,-0.
 00000845,0.00001539,0.00000334,-0.00003332,-0.00000914,0.00000111,0.00
 003006,0.00000269,-0.00000560,-0.00000696,-0.00000271,-0.00001260,-0.0
 0003387,-0.00001935,0.00000740,0.00002427,0.00000039,0.00000789,0.0000
 0304,-0.00001871,-0.00005851,0.00003804,0.00000627,0.00005603,-0.00004
 923,0.00000380,-0.00000961,0.00001745,0.00000107,-0.00000922,-0.000025
 69,-0.00002858,0.00012271,0.00006805,0.00008234,-0.00015124,-0.0002931
 1,-0.00092998,0.00029401,-0.00005782,-0.00139680,-0.00106064,0.0028018
 5,0.01170809,-0.00869417,0.00200990,-0.00095240,0.00077163,-0.00015560
 ,-0.00002801,-0.00007714,0.00001556,0.13944279,-0.24973102,0.05244043,
 -0.00770750,-0.03141689,0.01203191,0.00012372,-0.00010565,0.00100350,0
 .00002609,-0.00007545,0.00007353,-0.00001646,-0.00000820,0.00003812,0.
 00001174,0.00000943,-0.00000262,0.00018600,0.00038103,-0.00033369,-0.0
 0411038,0.00179326,-0.00281086,-0.00418962,0.00255166,-0.00241200,0.00
 027500,0.00037312,0.00045730,-0.00000023,-0.00000538,-0.00000531,0.000
 00134,0.00000927,-0.00000289,0.00000224,0.00000851,-0.00000716,-0.0000
 0804,-0.00000479,0.00000173,-0.00000199,0.00000046,0.00000331,-0.00000
 821,-0.00000090,-0.00000166,-0.00000789,-0.00000087,0.00000536,-0.0000
 0234,-0.00002489,-0.00004119,0.00000031,-0.00000716,-0.00000603,-0.000
 03037,0.00001977,0.00001034,-0.00007833,-0.00015443,0.00005555,-0.0007
 1099,0.00195381,0.00031212,0.00092547,-0.00017958,-0.00174108,-0.13150
 985,0.28371860,0.00000061,0.00000044,0.00000206,-0.00000196,-0.0000017
 9,-0.00000401,0.00000516,0.00000187,-0.00000709,-0.00000334,-0.0000056
 4,0.00000634,0.00000021,0.00000109,-0.00000111,0.00000349,0.00000108,-
 0.00000132,-0.00001154,-0.00001741,-0.00000194,-0.00000185,0.00000781,
 0.00000910,0.00000487,-0.00000013,-0.00000050,-0.00001251,-0.00000295,
 -0.00000008,0.00000490,0.00000175,0.00000064,0.00001303,0.00000490,0.0
 0000006,-0.00003098,0.00001809,0.00001926,0.00002295,-0.00003539,-0.00
 001928,-0.00045221,0.00035558,0.00035109,0.00261992,-0.00233858,-0.000
 51060,0.02010155,-0.02362752,0.00290520,-0.00074584,0.00130704,0.00107
 867,-0.00014130,0.00010802,-0.00001015,-0.03917785,0.05147128,-0.06056
 835,0.00240795,0.01556182,-0.00012076,0.00007382,-0.00071047,0.0001722
 6,-0.00002290,0.00005740,0.00009143,0.00002215,0.00000374,-0.00001896,
 0.00000432,0.00000762,-0.00001880,0.00008028,-0.00003764,0.00019401,0.
 00353526,0.00141463,0.00127063,-0.02042444,0.02223582,-0.00738671,0.00
 128844,-0.00044240,0.00112828,-0.00000007,0.00000096,-0.00000091,-0.00
 000187,0.00000131,0.00000302,-0.00000022,-0.00000012,0.00000007,-0.000
 00445,0.00000095,-0.00000258,-0.00000104,-0.00000011,0.00000205,-0.000
 00429,0.00000098,-0.00000140,-0.00000304,-0.00000155,0.00000419,-0.000
 00644,-0.00001752,-0.00003938,0.00000185,-0.00001624,-0.00000107,0.000
 00310,0.00001720,0.00002339,-0.00006854,0.00006685,-0.00025056,0.00013
 413,0.00050542,-0.00085506,0.00297895,-0.00099597,-0.00391837,0.030679
 21,-0.06309613,0.06883112,-0.00000105,-0.00000315,0.00000606,0.0000024
 4,0.00000323,-0.00000673,0.00000185,0.00000248,-0.00000618,-0.00000424
 ,-0.00000706,0.00000686,0.00000166,0.00000093,-0.00000070,0.00000229,0
 .00001861,0.00000641,-0.00001301,-0.00001677,-0.00000952,0.00000745,0.
 00000104,0.00000609,0.00000663,0.00000300,-0.00000756,-0.00000441,0.00
 000202,0.00000882,0.00000177,-0.00000157,0.00000164,-0.00000177,-0.000
 00255,-0.00001357,-0.00001556,-0.00001006,0.00002725,0.00001867,0.0000
 1066,-0.00003496,-0.00008505,-0.00004166,0.00004579,0.00008426,0.00005
 815,-0.00020848,0.00072661,0.00004946,0.00031561,-0.00011230,0.0000358
 4,0.00038499,0.00006406,0.00006617,0.00003326,-0.00232671,-0.00016222,
 0.00253622,0.00022551,0.00003098,-0.00040529,0.00004203,0.00001677,-0.
 00002787,0.00008554,0.00015037,0.00026950,-0.00019180,0.00004388,-0.00
 028929,-0.00002383,-0.00007548,0.00011104,-0.00028470,-0.00038504,0.00
 020280,-0.00064250,-0.00017656,0.00017468,0.01305678,0.00698381,0.0207
 7746,-0.31138476,-0.06852687,-0.26480835,0.00000141,-0.00000038,-0.000
 00111,-0.00000262,0.00000076,0.00000164,0.00000028,0.00000002,0.000001
 52,-0.00000222,0.00000287,-0.00000101,-0.00000103,-0.00000052,0.000001
 87,-0.00000266,-0.00000017,-0.00000010,-0.00000176,-0.00000213,0.00000
 281,-0.00000710,0.00000390,-0.00000604,-0.00003551,-0.00006304,-0.0000
 1891,-0.00001845,0.00000502,-0.00002599,-0.00003611,0.00004266,0.00008
 444,-0.00000549,-0.00000073,0.00001372,0.00005955,0.00002264,-0.000016
 54,0.00010190,-0.00006598,0.00027907,0.30025542,-0.00001020,-0.0000172
 6,-0.00002199,-0.00000080,0.00000871,0.00000576,0.00000986,0.00000202,
 0.00001127,-0.00000260,-0.00001193,-0.00001719,0.00000015,0.00000632,0
 .00000413,-0.00000516,0.00005136,0.00002352,-0.00001803,-0.00005866,-0
 .00005253,0.00000677,0.00000583,0.00002164,0.00000757,0.00003677,-0.00
 001811,-0.00000783,-0.00004057,0.00002156,-0.00000250,0.00000961,-0.00
 001170,0.00002416,0.00000616,0.00001880,-0.00001036,-0.00006436,-0.000
 06063,0.00004112,0.00005248,0.00008349,-0.00010187,-0.00009484,-0.0001
 8437,0.00029832,0.00002457,-0.00006395,-0.00093344,0.00032014,-0.00026
 235,0.00015984,-0.00016053,-0.00024019,-0.00003477,-0.00001562,-0.0000
 5353,0.00209744,-0.00012588,-0.00181544,0.00018377,0.00009027,0.000313
 26,0.00007456,-0.00004284,-0.00004019,0.00018784,0.00012416,0.00020978
 ,-0.00003267,-0.00006739,-0.00029511,-0.00000779,0.00001863,-0.0000018
 2,-0.00099106,-0.00017265,0.00038705,0.00037151,0.00036177,0.00112016,
 -0.00904314,-0.00409898,-0.00727843,-0.05330081,-0.01430526,-0.0669972
 2,0.,0.00000604,0.00000382,0.00000058,-0.00000410,0.00000131,-0.000001
 09,-0.00000545,0.00000216,0.00000151,0.00000174,-0.00000078,0.00000027
 ,0.00000044,-0.00000069,-0.00000059,0.00000092,0.00000019,0.00000359,-
 0.00000423,-0.00000108,-0.00000177,-0.00000022,-0.00000677,0.00001080,
 -0.00001060,-0.00004705,-0.00001925,-0.00003259,0.00002829,0.00017615,
 -0.00008425,-0.00007055,0.00002393,-0.00002016,0.00003934,0.00007037,-
 0.00012309,-0.00001177,-0.00007159,-0.00000981,-0.00014328,0.06174902,
 0.01855513,0.00003422,0.00000874,0.00008559,-0.00000639,-0.00000707,-0
 .00005204,-0.00002584,0.00002144,-0.00006007,0.00000611,-0.00003296,0.
 00007489,-0.00000250,0.00000337,-0.00001041,0.00001541,-0.00002195,-0.
 00001449,0.00003560,0.00001043,0.00009304,-0.00001519,0.00002088,-0.00
 002920,-0.00000415,-0.00003760,0.00001387,0.00002021,0.00003865,0.0000
 0623,-0.00000665,-0.00001378,-0.00000318,-0.00007287,-0.00000816,-0.00
 007697,0.00004761,0.00012219,0.00020436,-0.00015819,-0.00008321,-0.000
 34877,0.00024874,0.00016322,0.00054955,-0.00036550,-0.00027660,-0.0000
 6593,-0.00163429,-0.00026267,-0.00042471,0.00042332,0.00017667,-0.0003
 0159,-0.00008226,-0.00014897,-0.00007387,0.00516598,-0.00202781,-0.003
 05279,0.00038582,0.00048960,0.00051463,-0.00003841,-0.00001589,0.00005
 659,0.00003962,0.00023460,0.00022379,-0.00015083,-0.00024036,0.0000399
 2,0.00007786,0.00009466,0.00002984,0.00098357,-0.00022001,-0.00079092,
 -0.00064754,0.00026093,0.00318405,-0.02994282,-0.00586565,-0.02909226,
 -0.21426274,-0.06730635,-0.24544945,-0.00000029,-0.00000608,-0.0000158
 2,-0.00000535,0.00000626,-0.00000399,0.00000681,0.00001017,0.00000493,
 -0.00000064,-0.00000316,0.00000168,-0.00000004,-0.00000111,0.00000411,
 -0.00000226,-0.00000198,0.00000186,-0.00000271,0.00000291,-0.00000365,
 0.00000872,0.00000292,0.00001799,-0.00010041,-0.00011566,0.00002718,0.
 00001497,-0.00001885,-0.00003039,-0.00011058,0.00009956,0.00006283,0.0
 0001001,-0.00000797,0.00000200,0.00010307,-0.00010560,0.00000594,0.000
 22576,0.00020815,0.00038729,0.23946324,0.07493221,0.27209119,0.0000055
 6,-0.00000719,0.00000642,-0.00000167,0.00000325,-0.00000654,-0.0000111
 9,0.00000598,0.00000009,0.00000765,-0.00000799,0.00000041,-0.00000322,
 0.00000411,0.00000124,-0.00000987,0.00000561,0.00000040,0.00002156,-0.
 00001126,0.00000940,-0.00000779,0.00000400,-0.00000722,-0.00000011,0.0
 0001463,-0.00000570,0.00001089,-0.00001734,0.00001713,-0.00000799,0.00
 000288,-0.00001131,-0.00001631,0.00000511,-0.00000285,0.00003488,-0.00
 001792,0.00001115,-0.00006040,0.00005197,0.00000698,0.00022700,0.00004
 043,-0.00004423,-0.00013364,-0.00005713,0.00021025,-0.00126548,0.00119
 830,0.00202186,0.00070408,-0.00038611,0.00033321,0.00006724,-0.0000514
 7,-0.00003355,-0.01454524,0.01920171,-0.00523790,0.00054336,-0.0011610
 4,0.00050982,0.00012265,-0.00018340,0.00018785,0.00004581,-0.00013837,
 -0.00000812,-0.00000302,0.00003486,-0.00005744,-0.00000508,0.00001669,
 0.00002345,0.00255090,-0.00092189,-0.00229378,0.01262497,-0.01641808,0
 .00584776,-0.20864442,0.15373100,-0.03273373,-0.00851251,0.01100430,0.
 00856899,-0.00000078,0.00000194,-0.00000048,0.00000121,-0.00000248,-0.
 00000210,0.00000056,-0.00000070,0.00000355,0.00000476,-0.00000147,-0.0
 0000086,0.00000176,-0.00000025,-0.00000152,0.00000449,0.00000039,0.000
 00162,0.00000374,-0.00000129,-0.00000425,0.00000299,0.00000738,0.00001
 402,-0.00008644,0.00000560,-0.00001545,-0.00009672,0.00004254,0.000043
 62,-0.00014483,0.00076005,-0.00083160,-0.00008272,-0.00026711,0.000235
 80,0.00167346,-0.00084059,-0.00024866,-0.00217209,-0.00098317,-0.00314
 855,0.00045854,-0.00090184,0.00032177,0.21669346,0.00000744,0.00001637
 ,0.00001615,0.00000210,-0.00001227,-0.00000122,-0.00001155,-0.00000215
 ,-0.00000932,0.00000340,0.00001112,0.00001622,-0.00000009,-0.00000519,
 -0.00000302,0.00001663,-0.00006522,-0.00002088,0.00002679,0.00006201,0
 .00006480,-0.00000988,0.00000062,-0.00002421,-0.00000714,-0.00003061,0
 .00002409,0.00000278,0.00002226,-0.00002562,0.00000492,-0.00000298,0.0
 0000473,-0.00002071,0.00000558,0.00000288,0.00003040,0.00008584,0.0000
 5138,-0.00010933,-0.00006237,-0.00007185,0.00027755,0.00018057,0.00031
 950,-0.00107543,-0.00023478,0.00000560,-0.00061068,0.00057131,0.000144
 53,-0.00018467,-0.00009008,-0.00042674,-0.00003687,-0.00004507,0.00007
 100,-0.00577183,0.00778528,-0.00318787,0.00122288,0.00052714,0.0005340
 6,0.00032035,-0.00003178,-0.00002624,-0.00052251,0.00034165,0.00037068
 ,-0.00014779,0.00002687,-0.00009360,-0.00001764,-0.00006138,0.00012728
 ,0.00335394,-0.00072166,-0.00377643,0.01105060,-0.03425675,0.01384649,
 0.15272282,-0.18479957,0.02325975,0.00616370,0.00010978,-0.00452924,0.
 00000017,-0.00000394,-0.00000254,0.00000086,0.00000319,-0.00000130,0.0
 0000061,0.00000556,-0.00000300,-0.00000035,-0.00000480,0.00000229,0.00
 000020,0.00000065,-0.00000017,0.00000155,-0.00000126,0.00000026,-0.000
 00270,0.00000734,-0.00000275,0.00001282,-0.00000737,0.00001957,-0.0002
 4813,-0.00018764,0.00002210,0.00007747,0.00028077,-0.00016713,-0.00124
 563,0.00078989,0.00089786,0.00017550,0.00002263,-0.00021916,-0.0004126
 1,0.00040793,0.00007940,-0.00151295,-0.00028680,-0.00166283,0.00023766
 ,-0.00011181,-0.00007811,-0.16376465,0.20976115,-0.00000565,-0.0000025
 9,-0.00001772,0.00000121,0.00000161,0.00001102,0.00000159,-0.00000418,
 0.00001511,0.00000161,0.00000842,-0.00001812,-0.00000034,-0.00000040,0
 .00000248,-0.00000605,-0.00000162,0.00000061,0.00000370,0.00000258,-0.
 00001363,-0.00000004,-0.00000577,0.00000028,-0.00000192,0.00001155,-0.
 00000152,0.00000185,-0.00001183,0.00000200,-0.00000181,0.00000290,-0.0
 0000283,0.00001038,0.00000169,0.00001564,0.00000351,-0.00003094,-0.000
 04985,0.00001823,0.00003685,0.00009587,0.00013485,-0.00008886,-0.00025
 880,-0.00008095,0.00010223,-0.00026373,-0.00290209,0.00137858,0.000201
 71,0.00063131,-0.00025871,0.00015866,-0.00002300,0.00005025,-0.0000184
 3,-0.01615281,0.01397723,-0.00266114,-0.00046985,-0.00089563,-0.000091
 51,-0.00006778,-0.00020558,0.00014915,0.00015923,0.00001937,0.00005266
 ,-0.00000292,0.00002440,-0.00002337,0.00000541,-0.00000142,-0.00000542
 ,-0.00183538,0.00074365,0.00252010,-0.00370995,0.01315065,-0.00122746,
 -0.03203394,0.02453282,-0.04780943,0.02986345,-0.02532414,-0.01187538,
 -0.00000008,0.00000153,0.00000345,0.00000214,-0.00000243,-0.00000068,-
 0.00000132,-0.00000269,-0.00000045,0.00000260,-0.00000073,0.00000017,0
 .00000081,0.00000025,-0.00000208,0.00000290,0.00000032,0.00000094,0.00
 000244,0.00000003,-0.00000212,-0.00000017,0.00000322,0.00000901,0.0000
 4653,0.00000993,0.00000278,0.00001394,-0.00013295,0.00001078,0.0004127
 6,-0.00050067,0.00013332,0.00024437,-0.00019809,0.00009363,0.00039404,
 -0.00076375,-0.00078273,-0.00210729,-0.00054865,-0.00274114,0.00112541
 ,0.00046899,0.00221716,0.02631905,-0.02554740,0.06217106\\0.00439485,0
 .02200322,0.01685498,0.01484959,-0.02349960,0.01286935,-0.02049237,-0.
 01432132,-0.03978285,0.01045168,0.03787947,0.02147910,-0.01305189,-0.0
 2428050,-0.01259612,-0.00718187,-0.03732238,0.01109187,-0.00127935,-0.
 01307278,0.00104145,0.01734353,0.03180763,-0.00506778,-0.01658237,0.00
 976801,0.01142113,-0.00998528,0.01012008,0.00167626,0.00888458,-0.0303
 1207,-0.01334332,0.02318967,0.01882605,-0.01909368,0.01665363,-0.00576
 252,-0.00157622,-0.05791276,-0.01686544,-0.02064671,0.01457674,0.01229
 827,0.00244211,0.00509778,0.01731165,-0.01033196,0.00480219,0.00848102
 ,0.02924503,-0.00267964,-0.00680736,0.01529468,0.00858410,0.00643305,-
 0.03116959,0.03503525,0.02129015,-0.01097067,0.00436160,0.00417159,0.0
 2264265,-0.02101235,-0.00081386,-0.02235798,-0.02859804,0.02225123,-0.
 04313528,-0.03021598,-0.02590232,-0.01013334,0.03556763,-0.00137459,0.
 01483162,-0.00007390,-0.01994593,0.01649434,-0.00693696,0.00447214,0.0
 1265301,0.02064140,-0.03753880,-0.01450177,0.00296376,0.01492553,0.030
 71631,-0.00111824,0.00700635,0.00419941,-0.01808664,0.00812296,0.00844
 911,0.00940339,-0.00582479,0.01657987,0.02334067,-0.00453788,-0.003448
 91,-0.01579643,0.00401261,0.00676958,0.02101234,0.00108347,-0.00156711
 ,-0.01963689,0.00721782,0.00020946,0.01578332,0.00256789,-0.00639496,-
 0.00391512,0.00123191,0.01471796,0.00838006,-0.01429175,-0.00146155,-0
 .01746434,0.01210583,-0.00128262,0.01388562,-0.01185398,0.00443292,-0.
 01558062,0.01460673,-0.00219271,0.00956959,-0.01748852,-0.00098395,-0.
 00621238,-0.00061535,0.00107200,-0.01495954,0.01243707,-0.00514513\\\@


 ERROR IS A HARDY PLANT... IT FLOURISHETH IN EVERY SOIL.
            MARTIN FARQUHAR TUPPER
 Job cpu time:  1 days  7 hours  4 minutes 43.7 seconds.
 File lengths (MBytes):  RWF=   1769 Int=      0 D2E=      0 Chk=     28 Scr=      1
 Normal termination of Gaussian 09 at Mon Mar 28 12:26:40 2016.
Gaussian '09 finished on node020 at Mon Mar 28 12:26:40 EDT 2016.
