Gaussian '09 started on node010 at Mon Feb 29 14:22:27 EST 2016.
 Entering Gaussian System, Link 0=/usr/local/gaussian/g09/g09
 Initial command:
 /usr/local/gaussian/g09/l1.exe /home/srmcgrat/thesis/gaussian/cellobiose/310/6000/2/gdp/gaussian15935/Gau-15971.inp -scrdir=/home/srmcgrat/thesis/gaussian/cellobiose/310/6000/2/gdp/gaussian15935/
 Entering Link 1 = /usr/local/gaussian/g09/l1.exe PID=     15973.
  
 Copyright (c) 1988,1990,1992,1993,1995,1998,2003,2009,2010,
            Gaussian, Inc.  All Rights Reserved.
  
 This is part of the Gaussian(R) 09 program.  It is based on
 the Gaussian(R) 03 system (copyright 2003, Gaussian, Inc.),
 the Gaussian(R) 98 system (copyright 1998, Gaussian, Inc.),
 the Gaussian(R) 94 system (copyright 1995, Gaussian, Inc.),
 the Gaussian 92(TM) system (copyright 1992, Gaussian, Inc.),
 the Gaussian 90(TM) system (copyright 1990, Gaussian, Inc.),
 the Gaussian 88(TM) system (copyright 1988, Gaussian, Inc.),
 the Gaussian 86(TM) system (copyright 1986, Carnegie Mellon
 University), and the Gaussian 82(TM) system (copyright 1983,
 Carnegie Mellon University). Gaussian is a federally registered
 trademark of Gaussian, Inc.
  
 This software contains proprietary and confidential information,
 including trade secrets, belonging to Gaussian, Inc.
  
 This software is provided under written license and may be
 used, copied, transmitted, or stored only in accord with that
 written license.
  
 The following legend is applicable only to US Government
 contracts under FAR:
  
                    RESTRICTED RIGHTS LEGEND
  
 Use, reproduction and disclosure by the US Government is
 subject to restrictions as set forth in subparagraphs (a)
 and (c) of the Commercial Computer Software - Restricted
 Rights clause in FAR 52.227-19.
  
 Gaussian, Inc.
 340 Quinnipiac St., Bldg. 40, Wallingford CT 06492
  
  
 ---------------------------------------------------------------
 Warning -- This program may not be used in any manner that
 competes with the business of Gaussian, Inc. or will provide
 assistance to any competitor of Gaussian, Inc.  The licensee
 of this program is prohibited from giving any competitor of
 Gaussian, Inc. access to this program.  By using this program,
 the user acknowledges that Gaussian, Inc. is engaged in the
 business of creating and licensing software in the field of
 computational chemistry and represents and warrants to the
 licensee that it is not a competitor of Gaussian, Inc. and that
 it will not use this program in any manner prohibited above.
 ---------------------------------------------------------------
  

 Cite this work as:
 Gaussian 09, Revision B.01,
 M. J. Frisch, G. W. Trucks, H. B. Schlegel, G. E. Scuseria, 
 M. A. Robb, J. R. Cheeseman, G. Scalmani, V. Barone, B. Mennucci, 
 G. A. Petersson, H. Nakatsuji, M. Caricato, X. Li, H. P. Hratchian, 
 A. F. Izmaylov, J. Bloino, G. Zheng, J. L. Sonnenberg, M. Hada, 
 M. Ehara, K. Toyota, R. Fukuda, J. Hasegawa, M. Ishida, T. Nakajima, 
 Y. Honda, O. Kitao, H. Nakai, T. Vreven, J. A. Montgomery, Jr., 
 J. E. Peralta, F. Ogliaro, M. Bearpark, J. J. Heyd, E. Brothers, 
 K. N. Kudin, V. N. Staroverov, T. Keith, R. Kobayashi, J. Normand, 
 K. Raghavachari, A. Rendell, J. C. Burant, S. S. Iyengar, J. Tomasi, 
 M. Cossi, N. Rega, J. M. Millam, M. Klene, J. E. Knox, J. B. Cross, 
 V. Bakken, C. Adamo, J. Jaramillo, R. Gomperts, R. E. Stratmann, 
 O. Yazyev, A. J. Austin, R. Cammi, C. Pomelli, J. W. Ochterski, 
 R. L. Martin, K. Morokuma, V. G. Zakrzewski, G. A. Voth, 
 P. Salvador, J. J. Dannenberg, S. Dapprich, A. D. Daniels, 
 O. Farkas, J. B. Foresman, J. V. Ortiz, J. Cioslowski, 
 and D. J. Fox, Gaussian, Inc., Wallingford CT, 2010.
 
 ******************************************
 Gaussian 09:  EM64L-G09RevB.01 12-Aug-2010
                29-Feb-2016 
 ******************************************
 ------------------------------------------------
 # freq=raman b3lyp/6-31+g(d,p) geom=connectivity
 ------------------------------------------------
 1/10=4,30=1,38=1,57=2/1,3;
 2/12=2,17=6,18=5,40=1/2;
 3/5=1,6=6,7=111,11=2,16=1,25=1,30=1,71=2,74=-5/1,2,3;
 4//1;
 5/5=2,38=5,98=1/2;
 8/6=4,10=90,11=11/1;
 10/13=10,15=4/2;
 11/6=3,8=1,9=11,15=111,16=1/1,2,10;
 10/6=1/2;
 6/7=2,8=2,9=2,10=2,18=1,28=1/1;
 7/8=1,10=1,25=1/1,2,3,16;
 1/10=4,30=1/3;
 99//99;
 ------------
 310 6000.com
 ------------
 Symbolic Z-matrix:
 Charge =  0 Multiplicity = 1
 O                     7.633     7.712     22.836 
 C                     8.295     7.936     24.09 
 C                     7.974     9.298     24.683 
 O                     8.345     10.242    23.668 
 H                     8.253     9.688     22.841 
 C                     8.597     9.694     26.012 
 O                     8.212     10.917    26.656 
 H                     8.626     11.038    27.558 
 C                     8.494     5.571     24.834 
 O                     8.178     4.881     23.616 
 H                     8.359     3.916     23.805 
 C                     7.996     6.956     25.212 
 O                     8.717     7.25      26.417 
 C                     8.293     8.521     26.93 
 O                     9.047     8.735     28.131 
 C                     8.503     8.367     29.407 
 C                     8.89      6.998     29.944 
 O                     8.723     6.056     28.875 
 H                     9.074     6.543     28.075 
 C                     8.263     6.598     31.269 
 O                     8.924     5.442     31.803 
 H                     8.438     5.335     32.67 
 C                     8.373     10.783    30.412 
 O                     8.893     11.372    29.211 
 H                     8.712     12.355    29.243 
 C                     8.817     9.334     30.537 
 O                     8.085     9.034     31.733 
 C                     8.493     7.752     32.232 
 O                     7.667     7.504     33.379 
 H                     8.22295   7.3386    34.14396 
 H                     9.52184   7.78443   32.52414 
 H                     7.21622   6.41154   31.14906 
 H                     9.94276   7.04508   30.12939 
 H                     7.43925   8.36231   29.29164 
 H                     9.86573   9.30267   30.74696 
 H                     8.72856   11.33444   31.25722 
 H                     7.30398   10.82308   30.38963 
 H                     8.18668   4.92197   25.62723 
 H                     9.56204   5.62215   24.87376 
 H                     6.94458   6.92847   25.40859 
 H                     8.28856   7.58868   22.14561 
 H                     9.34842   7.90277   23.90531 
 H                     6.91201   9.35171   24.80211 
 H                     9.65697   9.72949   25.87021 
 H                     7.24736   8.49418   27.15543 
 

 GradGradGradGradGradGradGradGradGradGradGradGradGradGradGradGradGradGrad
 Berny optimization.
 Initialization pass.
 Trust Radius=3.00D-01 FncErr=1.00D-07 GrdErr=1.00D-07
 Number of steps in this run=      2 maximum allowed number of steps=      2.
 GradGradGradGradGradGradGradGradGradGradGradGradGradGradGradGradGradGrad

                          Input orientation:                          
 ---------------------------------------------------------------------
 Center     Atomic      Atomic             Coordinates (Angstroms)
 Number     Number       Type             X           Y           Z
 ---------------------------------------------------------------------
      1          8           0        7.633000    7.712000   22.836000
      2          6           0        8.295000    7.936000   24.090000
      3          6           0        7.974000    9.298000   24.683000
      4          8           0        8.345000   10.242000   23.668000
      5          1           0        8.253000    9.688000   22.841000
      6          6           0        8.597000    9.694000   26.012000
      7          8           0        8.212000   10.917000   26.656000
      8          1           0        8.626000   11.038000   27.558000
      9          6           0        8.494000    5.571000   24.834000
     10          8           0        8.178000    4.881000   23.616000
     11          1           0        8.359000    3.916000   23.805000
     12          6           0        7.996000    6.956000   25.212000
     13          8           0        8.717000    7.250000   26.417000
     14          6           0        8.293000    8.521000   26.930000
     15          8           0        9.047000    8.735000   28.131000
     16          6           0        8.503000    8.367000   29.407000
     17          6           0        8.890000    6.998000   29.944000
     18          8           0        8.723000    6.056000   28.875000
     19          1           0        9.074000    6.543000   28.075000
     20          6           0        8.263000    6.598000   31.269000
     21          8           0        8.924000    5.442000   31.803000
     22          1           0        8.438000    5.335000   32.670000
     23          6           0        8.373000   10.783000   30.412000
     24          8           0        8.893000   11.372000   29.211000
     25          1           0        8.712000   12.355000   29.243000
     26          6           0        8.817000    9.334000   30.537000
     27          8           0        8.085000    9.034000   31.733000
     28          6           0        8.493000    7.752000   32.232000
     29          8           0        7.667000    7.504000   33.379000
     30          1           0        8.222947    7.338603   34.143962
     31          1           0        9.521837    7.784430   32.524136
     32          1           0        7.216221    6.411540   31.149060
     33          1           0        9.942765    7.045079   30.129391
     34          1           0        7.439247    8.362308   29.291645
     35          1           0        9.865730    9.302673   30.746961
     36          1           0        8.728561   11.334440   31.257216
     37          1           0        7.303985   10.823080   30.389631
     38          1           0        8.186679    4.921973   25.627233
     39          1           0        9.562037    5.622148   24.873757
     40          1           0        6.944576    6.928467   25.408595
     41          1           0        8.288558    7.588677   22.145612
     42          1           0        9.348416    7.902775   23.905309
     43          1           0        6.912007    9.351713   24.802107
     44          1           0        9.656970    9.729486   25.870212
     45          1           0        7.247360    8.494181   27.155428
 ---------------------------------------------------------------------
                    Distance matrix (angstroms):
                    1          2          3          4          5
     1  O    0.000000
     2  C    1.435596   0.000000
     3  C    2.458269   1.519781   0.000000
     4  O    2.756822   2.344828   1.434922   0.000000
     5  H    2.070990   2.152038   1.903393   0.999654   0.000000
     6  C    3.865824   2.622185   1.520259   2.420360   3.189610
     7  O    5.019927   3.934159   2.563305   3.066180   4.008285
     8  H    5.860513   4.664653   3.423204   3.980537   4.920540
     9  C    3.052410   2.487240   3.766129   4.816638   4.580373
    10  O    2.986635   3.093766   4.548626   5.363853   4.869651
    11  H    3.984426   4.030598   5.466720   6.327499   5.852907
    12  C    2.519659   1.519436   2.401102   3.647401   3.626502
    13  O    3.769889   2.462440   2.784441   4.080129   4.352806
    14  C    4.225035   2.899626   2.398854   3.688521   4.252459
    15  O    5.575209   4.187313   3.654723   4.762586   5.433484
    16  C    6.660628   5.338494   4.843839   6.039595   6.702231
    17  C    7.253517   5.958455   5.814394   7.085812   7.621973
    18  O    6.356096   5.158857   5.352049   6.691661   7.058433
    19  H    5.557892   4.292728   4.506183   5.799629   6.161154
    20  C    8.529559   7.302692   7.123827   8.429749   8.976602
    21  O    9.339522   8.130562   8.152646   9.463269   9.939628
    22  H   10.149173   8.966719   8.928204  10.252966  10.751375
    23  C    8.208192   6.933915   5.931768   6.765723   7.650717
    24  O    7.458138   6.195833   5.064467   5.683490   6.619846
    25  H    7.985696   6.801092   5.539268   5.973281   6.950480
    26  C    7.958526   6.617454   5.914496   6.944812   7.724754
    27  O    9.006031   7.724322   7.055814   8.159111   8.917601
    28  C    9.435360   8.146485   7.723139   8.919871   9.591485
    29  O   10.545106   9.320222   8.884430  10.112361  10.777880
    30  H   11.329496  10.071953   9.664938  10.871541  11.544589
    31  H    9.870812   8.524245   8.134501   9.265837   9.949706
    32  H    8.424480   7.301923   7.121504   8.480143   8.990771
    33  H    7.679411   6.323220   6.214086   7.383951   7.934796
    34  H    6.491209   5.288777   4.732979   5.998251   6.635546
    35  H    8.372493   6.974964   6.352188   7.301140   8.077970
    36  H    9.232508   7.943951   6.923638   7.677027   8.588924
    37  H    8.175843   7.000192   5.944781   6.826543   7.692260
    38  H    3.985196   3.385140   4.481787   5.671538   5.521096
    39  H    3.498731   2.752011   4.008757   4.927277   4.730415
    40  H    2.775985   2.139500   2.683447   3.996293   3.989930
    41  H    0.960000   1.975175   3.075560   3.059570   2.211783
    42  H    2.030386   1.070000   2.107244   2.556391   2.349408
    43  H    2.659712   2.103333   1.070000   2.032800   2.399436
    44  H    4.168111   2.870664   2.104291   2.614129   3.339009
    45  H    4.406584   3.287243   2.699450   4.052387   4.588116
                    6          7          8          9         10
     6  C    0.000000
     7  O    1.434814   0.000000
     8  H    2.048730   0.999820   0.000000
     9  C    4.289222   5.654991   6.109475   0.000000
    10  O    5.392712   6.758406   7.324528   1.435089   0.000000
    11  H    6.189732   7.560675   8.054761   1.953482   0.999853
    12  C    2.915106   4.221530   4.750088   1.519577   2.624112
    13  O    2.480234   3.709317   3.957159   2.318331   3.707868
    14  C    1.520220   2.412976   2.615447   3.624378   4.923964
    15  O    2.369038   2.762965   2.410265   4.602925   5.999475
    16  C    3.646339   3.762337   3.250872   5.360040   6.767090
    17  C    4.776493   5.160348   4.699393   5.320267   6.710605
    18  O    4.631165   5.367905   5.154049   4.076438   5.416155
    19  H    3.796353   4.678513   4.546759   3.432967   4.842287
    20  C    6.110059   6.319504   5.798007   6.520530   7.843706
    21  O    7.191809   7.548124   7.030224   6.983445   8.240037
    22  H    7.959593   8.208410   7.661077   7.839753   9.069103
    23  C    4.538292   3.761836   2.876517   7.635029   9.003180
    24  O    3.624486   2.683060   1.707411   7.277976   8.599322
    25  H    4.187303   3.001735   2.140353   8.093792   9.370644
    26  C    4.544626   4.234864   3.437228   6.840227   8.254561
    27  O    5.781659   5.416433   4.662545   7.730191   9.118210
    28  C    6.516946   6.417785   5.715047   7.712792   9.087207
    29  O    7.741685   7.559386   6.876982   8.799855  10.122125
    30  H    8.474469   8.299074   7.564581   9.480152  10.811097
    31  H    6.849065   6.779652   6.004228   8.068080   9.465236
    32  H    6.250638   6.440367   6.023896   6.497631   7.746907
    33  H    5.077477   5.481949   4.928422   5.684452   7.086741
    34  H    3.724227   3.751030   3.401946   5.364187   6.699120
    35  H    4.917588   4.698600   3.836374   7.125317   8.558635
    36  H    5.497331   4.648901   3.712492   8.633074  10.016895
    37  H    4.702166   3.843607   3.132419   7.737281   9.052861
    38  H    4.805065   6.082709   6.428580   1.070000   2.011669
    39  H    4.336689   5.747560   6.116598   1.070000   2.011669
    40  H    3.277618   4.367011   4.933092   2.138595   2.987783
    41  H    4.413216   5.605996   6.426946   3.367589   3.083144
    42  H    2.865530   4.235953   4.867615   2.651352   3.253413
    43  H    2.102428   2.752639   3.657360   4.098476   4.795504
    44  H    1.070000   2.028692   2.371442   4.440636   5.547670
    45  H    2.137410   2.655186   2.921255   3.935496   5.142832
                   11         12         13         14         15
    11  H    0.000000
    12  C    3.369424   0.000000
    13  O    4.250443   1.434678   0.000000
    14  C    5.565609   2.342853   1.434708   0.000000
    15  O    6.512325   3.576311   2.291707   1.434124   0.000000
    16  C    7.156434   4.454884   3.198997   2.490652   1.435108
    17  C    6.889703   4.815893   3.540221   3.429305   2.515708
    18  O    5.515161   3.841367   2.732661   3.169251   2.799206
    19  H    5.064114   3.086976   1.837461   2.415258   2.192881
    20  C    7.931812   6.073442   4.916617   4.746130   3.876657
    21  O    8.161857   6.826028   5.685131   5.798666   4.933818
    22  H    8.978197   7.644918   6.545615   6.566523   5.703806
    23  C    9.529341   6.467461   5.344198   4.152995   3.138716
    24  O    9.225071   6.024754   4.982800   3.700157   2.853749
    25  H   10.045555   6.775752   5.835009   4.497231   3.801732
    26  C    8.653572   5.889359   4.618166   3.734434   2.490088
    27  O    9.440455   6.844666   5.642866   4.834795   3.740220
    28  C    9.259977   7.082445   5.840925   5.361209   4.253399
    29  O   10.247638   8.191974   7.045315   6.558641   5.564285
    30  H   10.891596   8.943033   7.743248   7.310555   6.227737
    31  H    9.609384   7.515438   6.183081   5.774680   4.519811
    32  H    7.840210   6.012751   5.034655   4.838362   4.225980
    33  H    7.231692   5.289476   3.914887   3.890523   2.766188
    34  H    7.121718   4.350997   3.336685   2.516236   2.017639
    35  H    8.915004   6.295916   4.927637   4.201629   2.799254
    36  H   10.521661   7.500135   6.333283   5.179764   4.078200
    37  H    9.600947   6.499312   5.526781   4.271624   3.535476
    38  H    2.088590   2.084716   2.514892   3.829034   4.642001
    39  H    2.345311   2.084716   2.396996   3.773848   4.534837
    40  H    3.694194   1.070000   2.064401   2.582457   3.885259
    41  H    4.030768   3.144615   4.306160   4.874383   6.141185
    42  H    4.108939   2.105434   2.670842   3.262647   4.317397
    43  H    5.712704   2.661295   3.206723   2.669298   4.002506
    44  H    6.304479   3.299135   2.707466   2.108081   2.544058
    45  H    5.781077   2.589088   2.062305   1.070000   2.061174
                   16         17         18         19         20
    16  C    0.000000
    17  C    1.520625   0.000000
    18  O    2.381627   1.434578   0.000000
    19  H    2.329644   1.932367   1.000185   0.000000
    20  C    2.579536   1.519458   2.497319   3.295813   0.000000
    21  O    3.804429   2.424494   2.998430   3.890075   1.434717
    22  H    4.454707   3.225050   3.873382   4.793515   1.894359
    23  C    2.619920   3.848706   4.982911   4.891888   4.273263
    24  O    3.036534   4.434994   5.329320   4.964121   5.236730
    25  H    3.996839   5.405602   6.309750   5.939243   6.119585
    26  C    1.520061   2.411198   3.676461   3.730573   2.885903
    27  O    2.455583   2.827338   4.176565   4.534773   2.486177
    28  C    2.891185   2.441530   3.768125   4.368053   1.520521
    29  O    4.149753   3.681167   4.847459   5.570959   2.372373
    30  H    4.855393   4.266222   5.445832   6.179772   2.969092
    31  H    3.330758   2.770341   4.116042   4.640745   2.137206
    32  H    2.917944   2.144211   2.751026   3.594228   1.070000
    33  H    2.083806   1.070000   2.009875   2.286341   2.078509
    34  H    1.070000   2.095612   2.672204   2.731762   2.775119
    35  H    2.127913   2.628367   3.918030   3.921990   3.186930
    36  H    3.504266   4.533796   5.791106   5.762267   4.759280
    37  H    2.904399   4.164765   5.199304   5.177795   4.420894
    38  H    5.123954   4.841387   3.481616   3.067023   5.885952
    39  H    5.404264   5.296411   4.111223   3.366616   6.598403
    40  H    4.526070   4.935525   3.992487   3.434057   6.015962
    41  H    7.306129   7.843818   6.915381   6.071902   9.177053
    42  H    5.585592   6.123280   5.338497   4.394385   7.556753
    43  H    4.970509   5.990950   5.543453   4.824408   7.157431
    44  H    3.961930   4.964374   4.836895   3.918500   6.395019
    45  H    2.581159   3.565523   3.328538   2.826541   4.642036
                   21         22         23         24         25
    21  O    0.000000
    22  H    0.999667   0.000000
    23  C    5.546599   5.897753   0.000000
    24  O    6.471810   6.972595   1.435173   0.000000
    25  H    7.374830   7.816636   1.988131   1.000037   0.000000
    26  C    4.094126   4.548113   1.520645   2.432590   3.288146
    27  O    3.689348   3.832125   2.210653   3.532647   4.197889
    28  C    2.388703   2.456981   3.537479   4.731896   5.492694
    29  O    2.883690   2.408668   4.478098   5.816934   6.459932
    30  H    3.093329   2.496645   5.080741   6.407135   7.030138
    31  H    2.522781   2.682477   3.843484   4.923715   5.684347
    32  H    2.069820   2.228215   4.581600   5.583353   6.418344
    33  H    2.531543   3.412240   4.063999   4.546174   5.522294
    34  H    4.127905   4.644931   2.826100   3.343374   4.190925
    35  H    4.111796   4.634536   2.128805   2.754541   3.593006
    36  H    5.920889   6.170386   1.070000   2.053157   2.258071
    37  H    5.794660   6.050215   1.070000   2.053157   2.375720
    38  H    6.241328   7.059343   7.568378   7.412498   8.282489
    39  H    6.960888   7.882089   7.662920   7.233262   8.071192
    40  H    6.856830   7.582708   6.475484   6.164384   6.875589
    41  H    9.913483  10.764020   8.862505   8.037324   8.559792
    42  H    8.283059   9.178352   7.182212   6.355571   6.979848
    43  H    8.267193   8.964730   5.971096   5.238724   5.655196
    44  H    7.356477   8.187461   4.835939   3.800311   4.377441
    45  H    5.807482   6.465953   4.136547   3.900686   4.626992
                   26         27         28         29         30
    26  C    0.000000
    27  O    1.433960   0.000000
    28  C    2.341095   1.434918   0.000000
    29  O    3.570485   2.285813   1.435057   0.000000
    30  H    4.164695   2.950617   1.974696   0.960000   0.000000
    31  H    2.616615   2.061995   1.070000   2.061517   2.123609
    32  H    3.387902   2.823660   2.144704   2.523748   3.292777
    33  H    2.583148   3.158902   2.650004   3.993704   4.377295
    34  H    2.096020   2.613117   3.182540   4.182707   5.020671
    35  H    1.070000   2.053158   2.548395   3.872630   4.253931
    36  H    2.127978   2.435686   3.720157   4.505679   4.955367
    37  H    2.127978   2.369691   3.773541   4.481562   5.203948
    38  H    6.630920   7.362031   7.192067   8.186991   8.853027
    39  H    6.812140   7.802025   7.734523   8.914690   9.522399
    40  H    5.965996   6.762540   7.045189   8.023746   8.837935
    41  H    8.587246   9.697855  10.089781  11.250889  12.001135
    42  H    6.805155   8.009285   8.371873   9.630006  10.315765
    43  H    6.043038   7.036628   7.762856   8.806086   9.645799
    44  H    4.758242   6.109589   6.762960   8.080512   8.730847
    45  H    3.821530   4.684785   5.279586   6.315806   7.150296
                   31         32         33         34         35
    31  H    0.000000
    32  H    3.015215   0.000000
    33  H    2.541382   2.979117   0.000000
    34  H    3.888460   2.702818   2.950341   0.000000
    35  H    2.362557   3.942110   2.341807   2.981619   0.000000
    36  H    3.851875   5.151098   4.598358   3.789376   2.383609
    37  H    4.325318   4.477289   4.615645   2.698012   3.000310
    38  H    7.585748   5.800963   5.278337   5.081582   6.944160
    39  H    7.950181   6.745771   5.458148   5.615376   6.937797
    40  H    7.616159   5.770091   5.593626   4.168774   6.532087
    41  H   10.453375   9.143174   8.171451   7.237791   8.911142
    42  H    8.621384   7.696881   6.310950   5.733125   7.002538
    43  H    8.300441   7.001498   6.548741   4.627403   6.638386
    44  H    6.933701   6.695690   5.042651   4.300428   4.899840
    45  H    5.873671   4.504160   4.267266   2.148868   4.517591
                   36         37         38         39         40
    36  H    0.000000
    37  H    1.744594   0.000000
    38  H    8.550443   7.634307   0.000000
    39  H    8.606597   7.910332   1.717434   0.000000
    40  H    7.536682   6.333081   2.369945   2.973823   0.000000
    41  H    9.861322   8.910364   4.386726   3.596075   3.590156
    42  H    8.137020   7.399616   3.633157   2.486922   2.997931
    43  H    6.992818   5.791286   4.682757   4.575745   2.498202
    44  H    5.697160   5.211299   5.033187   4.227548   3.926307
    45  H    5.204392   3.985856   3.997295   4.337318   2.365284
                   41         42         43         44         45
    41  H    0.000000
    42  H    2.078097   0.000000
    43  H    3.472773   2.973173   0.000000
    44  H    4.508687   2.700542   2.969576   0.000000
    45  H    5.196372   3.915032   2.527043   2.997329   0.000000
 Stoichiometry    C12H22O11
 Framework group  C1[X(C12H22O11)]
 Deg. of freedom   129
 Full point group                 C1      NOp   1
 Largest Abelian subgroup         C1      NOp   1
 Largest concise Abelian subgroup C1      NOp   1
                         Standard orientation:                         
 ---------------------------------------------------------------------
 Center     Atomic      Atomic             Coordinates (Angstroms)
 Number     Number       Type             X           Y           Z
 ---------------------------------------------------------------------
      1          8           0       -5.092941   -0.281388    0.624258
      2          6           0       -3.814054   -0.088385    0.001252
      3          6           0       -3.197215    1.258046    0.342378
      4          8           0       -4.176418    2.227517   -0.057983
      5          1           0       -5.019466    1.694367    0.007821
      6          6           0       -1.840271    1.621080   -0.239081
      7          8           0       -1.177913    2.827224    0.167355
      8          1           0       -0.260920    2.925889   -0.218689
      9          6           0       -3.123802   -2.471146   -0.178647
     10          8           0       -4.367805   -3.130624    0.098885
     11          1           0       -4.197593   -4.099915   -0.077776
     12          6           0       -2.726634   -1.096472    0.332861
     13          8           0       -1.493150   -0.832214   -0.350504
     14          6           0       -0.961680    0.425170    0.090985
     15          8           0        0.266812    0.609580   -0.625613
     16          6           0        1.515949    0.209238   -0.043446
     17          6           0        2.030070   -1.172491   -0.416012
     18          8           0        0.933196   -2.087507   -0.283253
     19          1           0        0.156762   -1.580302   -0.657773
     20          6           0        3.324828   -1.606119    0.250564
     21          8           0        3.849671   -2.774617   -0.395629
     22          1           0        4.698442   -2.903732    0.116476
     23          6           0        2.576718    2.599154    0.121027
     24          8           0        1.407325    3.218525   -0.434510
     25          1           0        1.458390    4.200266   -0.251064
     26          6           0        2.678901    1.147835   -0.321231
     27          8           0        3.844052    0.817326    0.446510
     28          6           0        4.323025   -0.476459    0.051930
     29          8           0        5.437641   -0.753831    0.912211
     30          1           0        6.214871   -0.937919    0.379647
     31          1           0        4.647224   -0.450535   -0.967444
     32          1           0        3.168282   -1.790361    1.292893
     33          1           0        2.248707   -1.129224   -1.462542
     34          1           0        1.368019    0.206578    1.016276
     35          1           0        2.920000    1.112101   -1.363102
     36          1           0        3.445968    3.129501   -0.207661
     37          1           0        2.522662    2.638915    1.188921
     38          1           0       -2.356853   -3.140121    0.151752
     39          1           0       -3.050116   -2.420145   -1.244887
     40          1           0       -2.563053   -1.129783    1.389758
     41          1           0       -5.765820   -0.386817   -0.052291
     42          1           0       -3.967202   -0.116111   -1.057368
     43          1           0       -3.109349    1.307891    1.407599
     44          1           0       -1.948628    1.660974   -1.302833
     45          1           0       -0.769093    0.391854    1.142983
 ---------------------------------------------------------------------
 Rotational constants (GHZ):      0.4150325      0.1432149      0.1095286
 Standard basis: 6-31+G(d,p) (6D, 7F)
 There are   547 symmetry adapted basis functions of A   symmetry.
 Integral buffers will be    131072 words long.
 Raffenetti 2 integral format.
 Two-electron integral symmetry is turned on.
   547 basis functions,   890 primitive gaussians,   547 cartesian basis functions
    91 alpha electrons       91 beta electrons
       nuclear repulsion energy      2287.2501054499 Hartrees.
 NAtoms=   45 NActive=   45 NUniq=   45 SFac= 1.00D+00 NAtFMM=   50 NAOKFM=F Big=F
 One-electron integrals computed using PRISM.
 NBasis=   547 RedAO= T  NBF=   547
 NBsUse=   547 1.00D-06 NBFU=   547
 Harris functional with IExCor=  402 diagonalized for initial guess.
 ExpMin= 4.38D-02 ExpMax= 5.48D+03 ExpMxC= 8.25D+02 IAcc=2 IRadAn=         0 AccDes= 0.00D+00
 HarFok:  IExCor=  402 AccDes= 0.00D+00 IRadAn=         0 IDoV= 1
 ScaDFX=  1.000000  1.000000  1.000000  1.000000
 FoFCou: FMM=F IPFlag=           0 FMFlag=      100000 FMFlg1=           0
         NFxFlg=           0 DoJE=T BraDBF=F KetDBF=T FulRan=T
         Omega=  0.000000  0.000000  1.000000  0.000000  0.000000 ICntrl=     500 IOpCl=  0
         NMat0=    1 NMatS0=    1 NMatT0=    0 NMatD0=    1 NMtDS0=    0 NMtDT0=    0
         I1Cent=           4 NGrid=           0.
 Petite list used in FoFCou.
 Initial guess orbital symmetries:
       Occupied  (A) (A) (A) (A) (A) (A) (A) (A) (A) (A) (A) (A)
                 (A) (A) (A) (A) (A) (A) (A) (A) (A) (A) (A) (A)
                 (A) (A) (A) (A) (A) (A) (A) (A) (A) (A) (A) (A)
                 (A) (A) (A) (A) (A) (A) (A) (A) (A) (A) (A) (A)
                 (A) (A) (A) (A) (A) (A) (A) (A) (A) (A) (A) (A)
                 (A) (A) (A) (A) (A) (A) (A) (A) (A) (A) (A) (A)
                 (A) (A) (A) (A) (A) (A) (A) (A) (A) (A) (A) (A)
                 (A) (A) (A) (A) (A) (A) (A)
       Virtual   (A) (A) (A) (A) (A) (A) (A) (A) (A) (A) (A) (A)
                 (A) (A) (A) (A) (A) (A) (A) (A) (A) (A) (A) (A)
                 (A) (A) (A) (A) (A) (A) (A) (A) (A) (A) (A) (A)
                 (A) (A) (A) (A) (A) (A) (A) (A) (A) (A) (A) (A)
                 (A) (A) (A) (A) (A) (A) (A) (A) (A) (A) (A) (A)
                 (A) (A) (A) (A) (A) (A) (A) (A) (A) (A) (A) (A)
                 (A) (A) (A) (A) (A) (A) (A) (A) (A) (A) (A) (A)
                 (A) (A) (A) (A) (A) (A) (A) (A) (A) (A) (A) (A)
                 (A) (A) (A) (A) (A) (A) (A) (A) (A) (A) (A) (A)
                 (A) (A) (A) (A) (A) (A) (A) (A) (A) (A) (A) (A)
                 (A) (A) (A) (A) (A) (A) (A) (A) (A) (A) (A) (A)
                 (A) (A) (A) (A) (A) (A) (A) (A) (A) (A) (A) (A)
                 (A) (A) (A) (A) (A) (A) (A) (A) (A) (A) (A) (A)
                 (A) (A) (A) (A) (A) (A) (A) (A) (A) (A) (A) (A)
                 (A) (A) (A) (A) (A) (A) (A) (A) (A) (A) (A) (A)
                 (A) (A) (A) (A) (A) (A) (A) (A) (A) (A) (A) (A)
                 (A) (A) (A) (A) (A) (A) (A) (A) (A) (A) (A) (A)
                 (A) (A) (A) (A) (A) (A) (A) (A) (A) (A) (A) (A)
                 (A) (A) (A) (A) (A) (A) (A) (A) (A) (A) (A) (A)
                 (A) (A) (A) (A) (A) (A) (A) (A) (A) (A) (A) (A)
                 (A) (A) (A) (A) (A) (A) (A) (A) (A) (A) (A) (A)
                 (A) (A) (A) (A) (A) (A) (A) (A) (A) (A) (A) (A)
                 (A) (A) (A) (A) (A) (A) (A) (A) (A) (A) (A) (A)
                 (A) (A) (A) (A) (A) (A) (A) (A) (A) (A) (A) (A)
                 (A) (A) (A) (A) (A) (A) (A) (A) (A) (A) (A) (A)
                 (A) (A) (A) (A) (A) (A) (A) (A) (A) (A) (A) (A)
                 (A) (A) (A) (A) (A) (A) (A) (A) (A) (A) (A) (A)
                 (A) (A) (A) (A) (A) (A) (A) (A) (A) (A) (A) (A)
                 (A) (A) (A) (A) (A) (A) (A) (A) (A) (A) (A) (A)
                 (A) (A) (A) (A) (A) (A) (A) (A) (A) (A) (A) (A)
                 (A) (A) (A) (A) (A) (A) (A) (A) (A) (A) (A) (A)
                 (A) (A) (A) (A) (A) (A) (A) (A) (A) (A) (A) (A)
                 (A) (A) (A) (A) (A) (A) (A) (A) (A) (A) (A) (A)
                 (A) (A) (A) (A) (A) (A) (A) (A) (A) (A) (A) (A)
                 (A) (A) (A) (A) (A) (A) (A) (A) (A) (A) (A) (A)
                 (A) (A) (A) (A) (A) (A) (A) (A) (A) (A) (A) (A)
                 (A) (A) (A) (A) (A) (A) (A) (A) (A) (A) (A) (A)
                 (A) (A) (A) (A) (A) (A) (A) (A) (A) (A) (A) (A)
 The electronic state of the initial guess is 1-A.
 Requested convergence on RMS density matrix=1.00D-08 within 128 cycles.
 Requested convergence on MAX density matrix=1.00D-06.
 Requested convergence on             energy=1.00D-06.
 No special actions if energy rises.
 SCF Done:  E(RB3LYP) =  -1297.92623230     A.U. after   14 cycles
             Convg  =    0.2547D-08             -V/T =  2.0086
 Range of M.O.s used for correlation:     1   547
 NBasis=   547 NAE=    91 NBE=    91 NFC=     0 NFV=     0
 NROrb=    547 NOA=    91 NOB=    91 NVA=   456 NVB=   456

 **** Warning!!: The largest alpha MO coefficient is  0.74203785D+02

          Differentiating once with respect to electric field.
                with respect to dipole field.
          Electric field/nuclear overlap derivatives assumed to be zero.
          There are     3 degrees of freedom in the 1st order CPHF.  IDoFFX=0.
      3 vectors produced by pass  0 Test12= 1.38D-12 3.33D-08 XBig12= 1.21D+02 1.25D+00.
 AX will form     3 AO Fock derivatives at one time.
      3 vectors produced by pass  1 Test12= 1.38D-12 3.33D-08 XBig12= 2.18D+01 3.97D-01.
      3 vectors produced by pass  2 Test12= 1.38D-12 3.33D-08 XBig12= 9.42D+00 1.95D-01.
      3 vectors produced by pass  3 Test12= 1.38D-12 3.33D-08 XBig12= 8.52D-01 9.13D-02.
      3 vectors produced by pass  4 Test12= 1.38D-12 3.33D-08 XBig12= 2.34D-01 3.77D-02.
      3 vectors produced by pass  5 Test12= 1.38D-12 3.33D-08 XBig12= 5.61D-02 2.45D-02.
      3 vectors produced by pass  6 Test12= 1.38D-12 3.33D-08 XBig12= 1.76D-02 1.58D-02.
      3 vectors produced by pass  7 Test12= 1.38D-12 3.33D-08 XBig12= 2.39D-03 8.56D-03.
      3 vectors produced by pass  8 Test12= 1.38D-12 3.33D-08 XBig12= 4.15D-04 3.00D-03.
      3 vectors produced by pass  9 Test12= 1.38D-12 3.33D-08 XBig12= 1.09D-04 1.93D-03.
      3 vectors produced by pass 10 Test12= 1.38D-12 3.33D-08 XBig12= 2.36D-05 7.50D-04.
      3 vectors produced by pass 11 Test12= 1.38D-12 3.33D-08 XBig12= 8.55D-06 4.33D-04.
      3 vectors produced by pass 12 Test12= 1.38D-12 3.33D-08 XBig12= 6.88D-07 1.32D-04.
      3 vectors produced by pass 13 Test12= 1.38D-12 3.33D-08 XBig12= 3.03D-07 6.73D-05.
      3 vectors produced by pass 14 Test12= 1.38D-12 3.33D-08 XBig12= 2.11D-08 1.70D-05.
      3 vectors produced by pass 15 Test12= 1.38D-12 3.33D-08 XBig12= 4.00D-09 6.63D-06.
      3 vectors produced by pass 16 Test12= 1.38D-12 3.33D-08 XBig12= 1.09D-09 2.82D-06.
      3 vectors produced by pass 17 Test12= 1.38D-12 3.33D-08 XBig12= 1.11D-10 7.24D-07.
      3 vectors produced by pass 18 Test12= 1.38D-12 3.33D-08 XBig12= 2.98D-11 3.96D-07.
      3 vectors produced by pass 19 Test12= 1.38D-12 3.33D-08 XBig12= 1.19D-11 2.46D-07.
      3 vectors produced by pass 20 Test12= 1.38D-12 3.33D-08 XBig12= 2.24D-12 1.45D-07.
      2 vectors produced by pass 21 Test12= 1.38D-12 3.33D-08 XBig12= 1.06D-12 8.75D-08.
 Inverted reduced A of dimension    65 with in-core refinement.
 End of Minotr Frequency-dependent properties file   721 does not exist.
 End of Minotr Frequency-dependent properties file   722 does not exist.
 Symmetrizing basis deriv contribution to polar:
 IMax=3 JMax=2 DiffMx= 0.00D+00
 G2DrvN: will do    23 centers at a time, making    2 passes doing MaxLOS=2.
 Calling FoFCou, ICntrl=  3107 FMM=F I1Cent=   0 AccDes= 0.00D+00.
 Calling FoFCou, ICntrl=  3107 FMM=F I1Cent=   0 AccDes= 0.00D+00.
 FoFDir/FoFCou used for L=0 through L=2.
 End of G2Drv Frequency-dependent properties file   721 does not exist.
 End of G2Drv Frequency-dependent properties file   722 does not exist.
          IDoAtm=111111111111111111111111111111111111111111111
          Differentiating once with respect to electric field.
                with respect to dipole field.
          Differentiating once with respect to nuclear coordinates.
          There are   138 degrees of freedom in the 1st order CPHF.  IDoFFX=5.
 Will reuse    3 saved solutions.
    135 vectors produced by pass  0 Test12= 4.15D-14 1.00D-09 XBig12= 2.31D-01 9.49D-02.
 AX will form    68 AO Fock derivatives at one time.
    135 vectors produced by pass  1 Test12= 4.15D-14 1.00D-09 XBig12= 3.87D-02 1.48D-02.
    132 vectors produced by pass  2 Test12= 4.15D-14 1.00D-09 XBig12= 1.81D-04 1.90D-03.
    132 vectors produced by pass  3 Test12= 4.15D-14 1.00D-09 XBig12= 8.51D-07 8.09D-05.
    132 vectors produced by pass  4 Test12= 4.15D-14 1.00D-09 XBig12= 1.19D-09 2.97D-06.
    132 vectors produced by pass  5 Test12= 4.15D-14 1.00D-09 XBig12= 4.14D-12 1.52D-07.
     78 vectors produced by pass  6 Test12= 4.15D-14 1.00D-09 XBig12= 1.57D-13 2.51D-08.
 Inverted reduced A of dimension   876 with in-core refinement.
 Isotropic polarizability for W=    0.000000      187.00 Bohr**3.
 End of Minotr Frequency-dependent properties file   721 does not exist.
 End of Minotr Frequency-dependent properties file   722 does not exist.

 **********************************************************************

            Population analysis using the SCF density.

 **********************************************************************

 Orbital symmetries:
       Occupied  (A) (A) (A) (A) (A) (A) (A) (A) (A) (A) (A) (A)
                 (A) (A) (A) (A) (A) (A) (A) (A) (A) (A) (A) (A)
                 (A) (A) (A) (A) (A) (A) (A) (A) (A) (A) (A) (A)
                 (A) (A) (A) (A) (A) (A) (A) (A) (A) (A) (A) (A)
                 (A) (A) (A) (A) (A) (A) (A) (A) (A) (A) (A) (A)
                 (A) (A) (A) (A) (A) (A) (A) (A) (A) (A) (A) (A)
                 (A) (A) (A) (A) (A) (A) (A) (A) (A) (A) (A) (A)
                 (A) (A) (A) (A) (A) (A) (A)
       Virtual   (A) (A) (A) (A) (A) (A) (A) (A) (A) (A) (A) (A)
                 (A) (A) (A) (A) (A) (A) (A) (A) (A) (A) (A) (A)
                 (A) (A) (A) (A) (A) (A) (A) (A) (A) (A) (A) (A)
                 (A) (A) (A) (A) (A) (A) (A) (A) (A) (A) (A) (A)
                 (A) (A) (A) (A) (A) (A) (A) (A) (A) (A) (A) (A)
                 (A) (A) (A) (A) (A) (A) (A) (A) (A) (A) (A) (A)
                 (A) (A) (A) (A) (A) (A) (A) (A) (A) (A) (A) (A)
                 (A) (A) (A) (A) (A) (A) (A) (A) (A) (A) (A) (A)
                 (A) (A) (A) (A) (A) (A) (A) (A) (A) (A) (A) (A)
                 (A) (A) (A) (A) (A) (A) (A) (A) (A) (A) (A) (A)
                 (A) (A) (A) (A) (A) (A) (A) (A) (A) (A) (A) (A)
                 (A) (A) (A) (A) (A) (A) (A) (A) (A) (A) (A) (A)
                 (A) (A) (A) (A) (A) (A) (A) (A) (A) (A) (A) (A)
                 (A) (A) (A) (A) (A) (A) (A) (A) (A) (A) (A) (A)
                 (A) (A) (A) (A) (A) (A) (A) (A) (A) (A) (A) (A)
                 (A) (A) (A) (A) (A) (A) (A) (A) (A) (A) (A) (A)
                 (A) (A) (A) (A) (A) (A) (A) (A) (A) (A) (A) (A)
                 (A) (A) (A) (A) (A) (A) (A) (A) (A) (A) (A) (A)
                 (A) (A) (A) (A) (A) (A) (A) (A) (A) (A) (A) (A)
                 (A) (A) (A) (A) (A) (A) (A) (A) (A) (A) (A) (A)
                 (A) (A) (A) (A) (A) (A) (A) (A) (A) (A) (A) (A)
                 (A) (A) (A) (A) (A) (A) (A) (A) (A) (A) (A) (A)
                 (A) (A) (A) (A) (A) (A) (A) (A) (A) (A) (A) (A)
                 (A) (A) (A) (A) (A) (A) (A) (A) (A) (A) (A) (A)
                 (A) (A) (A) (A) (A) (A) (A) (A) (A) (A) (A) (A)
                 (A) (A) (A) (A) (A) (A) (A) (A) (A) (A) (A) (A)
                 (A) (A) (A) (A) (A) (A) (A) (A) (A) (A) (A) (A)
                 (A) (A) (A) (A) (A) (A) (A) (A) (A) (A) (A) (A)
                 (A) (A) (A) (A) (A) (A) (A) (A) (A) (A) (A) (A)
                 (A) (A) (A) (A) (A) (A) (A) (A) (A) (A) (A) (A)
                 (A) (A) (A) (A) (A) (A) (A) (A) (A) (A) (A) (A)
                 (A) (A) (A) (A) (A) (A) (A) (A) (A) (A) (A) (A)
                 (A) (A) (A) (A) (A) (A) (A) (A) (A) (A) (A) (A)
                 (A) (A) (A) (A) (A) (A) (A) (A) (A) (A) (A) (A)
                 (A) (A) (A) (A) (A) (A) (A) (A) (A) (A) (A) (A)
                 (A) (A) (A) (A) (A) (A) (A) (A) (A) (A) (A) (A)
                 (A) (A) (A) (A) (A) (A) (A) (A) (A) (A) (A) (A)
                 (A) (A) (A) (A) (A) (A) (A) (A) (A) (A) (A) (A)
 The electronic state is 1-A.
 Alpha  occ. eigenvalues --  -19.20334 -19.19540 -19.19434 -19.19412 -19.19373
 Alpha  occ. eigenvalues --  -19.19271 -19.18003 -19.17148 -19.15149 -19.14708
 Alpha  occ. eigenvalues --  -19.14284 -10.31396 -10.31142 -10.26609 -10.26529
 Alpha  occ. eigenvalues --  -10.26381 -10.26333 -10.25811 -10.25569 -10.24895
 Alpha  occ. eigenvalues --  -10.24728 -10.24458 -10.24093  -1.10642  -1.09948
 Alpha  occ. eigenvalues --   -1.06552  -1.05703  -1.04762  -1.04606  -1.03560
 Alpha  occ. eigenvalues --   -1.02847  -1.01847  -1.01090  -0.99915  -0.82564
 Alpha  occ. eigenvalues --   -0.80990  -0.79845  -0.78852  -0.72166  -0.70238
 Alpha  occ. eigenvalues --   -0.67773  -0.65081  -0.63269  -0.62495  -0.61862
 Alpha  occ. eigenvalues --   -0.60788  -0.56881  -0.56520  -0.55641  -0.54905
 Alpha  occ. eigenvalues --   -0.54583  -0.53721  -0.52962  -0.52064  -0.51726
 Alpha  occ. eigenvalues --   -0.51302  -0.50063  -0.49578  -0.49224  -0.47123
 Alpha  occ. eigenvalues --   -0.45724  -0.45476  -0.44448  -0.44072  -0.43555
 Alpha  occ. eigenvalues --   -0.42717  -0.41885  -0.41842  -0.40515  -0.40048
 Alpha  occ. eigenvalues --   -0.39928  -0.39010  -0.37988  -0.36416  -0.36403
 Alpha  occ. eigenvalues --   -0.36016  -0.35217  -0.34656  -0.33844  -0.33515
 Alpha  occ. eigenvalues --   -0.33138  -0.31934  -0.31625  -0.30963  -0.30630
 Alpha  occ. eigenvalues --   -0.30127  -0.28947  -0.28604  -0.27337  -0.26564
 Alpha  occ. eigenvalues --   -0.26326
 Alpha virt. eigenvalues --   -0.02319  -0.02206  -0.01823  -0.00475   0.00111
 Alpha virt. eigenvalues --    0.00958   0.01907   0.02428   0.03044   0.03437
 Alpha virt. eigenvalues --    0.04006   0.04521   0.04692   0.05112   0.05777
 Alpha virt. eigenvalues --    0.06036   0.06638   0.06914   0.07598   0.07990
 Alpha virt. eigenvalues --    0.08663   0.08752   0.09039   0.09399   0.10078
 Alpha virt. eigenvalues --    0.10393   0.11172   0.11318   0.11800   0.12089
 Alpha virt. eigenvalues --    0.12615   0.12679   0.13202   0.13344   0.13713
 Alpha virt. eigenvalues --    0.14039   0.14072   0.14191   0.14768   0.15195
 Alpha virt. eigenvalues --    0.15661   0.16062   0.16653   0.16841   0.16879
 Alpha virt. eigenvalues --    0.17164   0.17354   0.17694   0.17900   0.18292
 Alpha virt. eigenvalues --    0.18673   0.19108   0.19229   0.19534   0.19651
 Alpha virt. eigenvalues --    0.20609   0.20760   0.20919   0.21082   0.21358
 Alpha virt. eigenvalues --    0.21797   0.22323   0.22442   0.22959   0.23396
 Alpha virt. eigenvalues --    0.23446   0.24075   0.24163   0.24493   0.24855
 Alpha virt. eigenvalues --    0.24940   0.25351   0.25716   0.25791   0.26084
 Alpha virt. eigenvalues --    0.26265   0.26349   0.26800   0.26909   0.27394
 Alpha virt. eigenvalues --    0.27802   0.27808   0.27998   0.28401   0.28917
 Alpha virt. eigenvalues --    0.29248   0.29345   0.29813   0.30113   0.30805
 Alpha virt. eigenvalues --    0.30880   0.31431   0.31962   0.32062   0.32594
 Alpha virt. eigenvalues --    0.32648   0.33108   0.33467   0.33653   0.34062
 Alpha virt. eigenvalues --    0.34322   0.34544   0.34779   0.35115   0.35233
 Alpha virt. eigenvalues --    0.35914   0.36263   0.36851   0.37233   0.37372
 Alpha virt. eigenvalues --    0.37782   0.38125   0.38315   0.38720   0.39758
 Alpha virt. eigenvalues --    0.40141   0.40647   0.40911   0.41231   0.41610
 Alpha virt. eigenvalues --    0.41962   0.42935   0.43152   0.43307   0.44112
 Alpha virt. eigenvalues --    0.44404   0.45463   0.45761   0.46536   0.47029
 Alpha virt. eigenvalues --    0.47802   0.48534   0.49096   0.49583   0.50786
 Alpha virt. eigenvalues --    0.51445   0.51644   0.55003   0.62205   0.63648
 Alpha virt. eigenvalues --    0.65315   0.66041   0.67027   0.68059   0.69277
 Alpha virt. eigenvalues --    0.70942   0.71644   0.71872   0.72441   0.73918
 Alpha virt. eigenvalues --    0.74537   0.75604   0.77026   0.77736   0.78513
 Alpha virt. eigenvalues --    0.78942   0.80400   0.80901   0.82109   0.84033
 Alpha virt. eigenvalues --    0.85273   0.86586   0.87078   0.87687   0.88811
 Alpha virt. eigenvalues --    0.90853   0.91452   0.92020   0.93615   0.94700
 Alpha virt. eigenvalues --    0.95771   0.96842   0.98090   0.99280   1.00634
 Alpha virt. eigenvalues --    1.00906   1.01786   1.02530   1.03696   1.04212
 Alpha virt. eigenvalues --    1.04942   1.05796   1.06025   1.06822   1.07759
 Alpha virt. eigenvalues --    1.08180   1.08621   1.09198   1.10407   1.11154
 Alpha virt. eigenvalues --    1.12352   1.12752   1.13653   1.14362   1.16203
 Alpha virt. eigenvalues --    1.16641   1.18136   1.19574   1.20501   1.21050
 Alpha virt. eigenvalues --    1.21488   1.22555   1.23514   1.24144   1.24869
 Alpha virt. eigenvalues --    1.25471   1.26115   1.26949   1.27683   1.28071
 Alpha virt. eigenvalues --    1.28868   1.29192   1.29923   1.30461   1.30976
 Alpha virt. eigenvalues --    1.31837   1.32842   1.33285   1.34116   1.34976
 Alpha virt. eigenvalues --    1.35595   1.35821   1.36441   1.38313   1.38566
 Alpha virt. eigenvalues --    1.39785   1.40256   1.40986   1.41836   1.42464
 Alpha virt. eigenvalues --    1.43969   1.44450   1.45799   1.46351   1.46924
 Alpha virt. eigenvalues --    1.48527   1.48908   1.49827   1.51848   1.52078
 Alpha virt. eigenvalues --    1.53065   1.54919   1.56161   1.56846   1.57763
 Alpha virt. eigenvalues --    1.58423   1.58552   1.59299   1.60114   1.60535
 Alpha virt. eigenvalues --    1.61958   1.63234   1.64377   1.65049   1.65262
 Alpha virt. eigenvalues --    1.65569   1.66363   1.67618   1.68752   1.69843
 Alpha virt. eigenvalues --    1.70127   1.71302   1.71896   1.72345   1.73410
 Alpha virt. eigenvalues --    1.73593   1.74827   1.75944   1.76425   1.77171
 Alpha virt. eigenvalues --    1.77801   1.78435   1.78832   1.80694   1.81827
 Alpha virt. eigenvalues --    1.82909   1.84264   1.85233   1.85846   1.86376
 Alpha virt. eigenvalues --    1.87795   1.89878   1.90595   1.90968   1.91580
 Alpha virt. eigenvalues --    1.92002   1.92145   1.92961   1.93579   1.94866
 Alpha virt. eigenvalues --    1.95246   1.95322   1.96128   1.97679   1.97721
 Alpha virt. eigenvalues --    1.98887   1.99499   1.99924   2.00534   2.02687
 Alpha virt. eigenvalues --    2.02886   2.03528   2.04462   2.05275   2.05822
 Alpha virt. eigenvalues --    2.07205   2.08993   2.10480   2.11091   2.11863
 Alpha virt. eigenvalues --    2.12401   2.12853   2.13961   2.14984   2.15523
 Alpha virt. eigenvalues --    2.16097   2.17961   2.18167   2.19459   2.19811
 Alpha virt. eigenvalues --    2.21548   2.23813   2.24829   2.25887   2.27620
 Alpha virt. eigenvalues --    2.30276   2.31120   2.32604   2.32716   2.32750
 Alpha virt. eigenvalues --    2.35263   2.36954   2.38013   2.38191   2.40170
 Alpha virt. eigenvalues --    2.40451   2.40830   2.42099   2.43805   2.44916
 Alpha virt. eigenvalues --    2.46381   2.46687   2.47711   2.48121   2.49647
 Alpha virt. eigenvalues --    2.50988   2.51210   2.52578   2.54341   2.55392
 Alpha virt. eigenvalues --    2.56531   2.57543   2.59101   2.59378   2.61115
 Alpha virt. eigenvalues --    2.61951   2.62131   2.62644   2.63707   2.64456
 Alpha virt. eigenvalues --    2.65478   2.67353   2.68921   2.69722   2.71433
 Alpha virt. eigenvalues --    2.72074   2.72746   2.73257   2.75295   2.75443
 Alpha virt. eigenvalues --    2.75701   2.76396   2.78195   2.79995   2.80972
 Alpha virt. eigenvalues --    2.81475   2.81551   2.83474   2.85339   2.86613
 Alpha virt. eigenvalues --    2.87721   2.87722   2.88937   2.89720   2.90599
 Alpha virt. eigenvalues --    2.90982   2.91676   2.92419   2.93840   2.94899
 Alpha virt. eigenvalues --    2.95383   2.95655   2.97039   2.98162   2.99807
 Alpha virt. eigenvalues --    3.01797   3.02506   3.03599   3.06010   3.06130
 Alpha virt. eigenvalues --    3.07218   3.08409   3.10507   3.11564   3.13276
 Alpha virt. eigenvalues --    3.18300   3.18358   3.23081   3.25485   3.29807
 Alpha virt. eigenvalues --    3.30283   3.35738   3.37631   3.38623   3.40883
 Alpha virt. eigenvalues --    3.42917   3.46226   3.46553   3.46883   3.49029
 Alpha virt. eigenvalues --    3.49889   3.50489   3.51760   3.52074   3.54884
 Alpha virt. eigenvalues --    3.56094   3.57002   3.60019   3.61646   3.65164
 Alpha virt. eigenvalues --    3.65636   3.68271   3.69892   4.30325   4.33016
 Alpha virt. eigenvalues --    4.36090   4.36432   4.40859   4.41266   4.44063
 Alpha virt. eigenvalues --    4.47359   4.48700   4.50134   4.53856   4.54863
 Alpha virt. eigenvalues --    4.57281   4.58425   4.61504   4.63961   4.68816
 Alpha virt. eigenvalues --    4.76499   4.79876   4.86964   4.87383   4.89695
 Alpha virt. eigenvalues --    4.91343
          Condensed to atoms (all electrons):
              1          2          3          4          5          6
     1  O    8.239663   0.096028   0.039775  -0.046848   0.049466   0.155947
     2  C    0.096028  11.991120  -3.089240   0.198108  -0.078723  -4.546727
     3  C    0.039775  -3.089240   9.905828   0.211536  -0.015438   0.776338
     4  O   -0.046848   0.198108   0.211536   8.266512   0.177668  -0.317238
     5  H    0.049466  -0.078723  -0.015438   0.177668   0.456519   0.031936
     6  C    0.155947  -4.546727   0.776338  -0.317238   0.031936  14.873006
     7  O   -0.001040   0.045832  -0.190163   0.012948  -0.000952   0.367725
     8  H    0.000020  -0.009615   0.030733  -0.000542   0.000006   0.031210
     9  C   -0.025222   0.406998  -0.369739   0.022682  -0.007026   0.186222
    10  O    0.003602   0.015005   0.036372   0.000194  -0.000063  -0.013229
    11  H    0.000767  -0.008889  -0.003893   0.000005   0.000000  -0.000164
    12  C   -0.146415  -1.876220   0.136025  -0.064816   0.052214   0.593468
    13  O    0.005203   0.018700  -0.018984   0.000216  -0.000305  -0.068515
    14  C   -0.041499   2.110762  -0.847374   0.053704   0.003851  -4.747582
    15  O    0.000683  -0.055337  -0.005456  -0.001281   0.000152   0.176760
    16  C    0.002302   0.027218  -0.255095  -0.001197   0.001336  -0.538074
    17  C    0.000497   0.000953  -0.057548   0.000998   0.000085  -0.014213
    18  O   -0.000014   0.011193  -0.002493  -0.000010  -0.000001   0.000279
    19  H   -0.000003  -0.009671   0.011513  -0.000009   0.000000   0.012105
    20  C    0.000055   0.004439  -0.005517  -0.000018   0.000003   0.019988
    21  O    0.000000   0.000011  -0.000035   0.000000   0.000000  -0.000239
    22  H    0.000000   0.000001  -0.000001   0.000000   0.000000  -0.000046
    23  C    0.000011   0.020324   0.008340   0.000602  -0.000023  -0.256257
    24  O   -0.000006   0.003729  -0.012109  -0.000050  -0.000004  -0.003050
    25  H    0.000000   0.000027   0.001942   0.000005   0.000000  -0.002622
    26  C   -0.000280   0.040669  -0.121158   0.000418   0.000051  -0.344874
    27  O    0.000000  -0.000382   0.000906   0.000001   0.000000   0.001923
    28  C    0.000010  -0.004294  -0.001459  -0.000009   0.000000   0.020381
    29  O    0.000000  -0.000003   0.000055   0.000000   0.000000  -0.000395
    30  H    0.000000   0.000000   0.000001   0.000000   0.000000  -0.000003
    31  H    0.000000  -0.000004   0.000017   0.000000   0.000000   0.000112
    32  H    0.000000   0.000005   0.000062   0.000000   0.000000   0.000165
    33  H    0.000000   0.000394   0.000205   0.000000   0.000000   0.001966
    34  H   -0.000002  -0.000094   0.002346   0.000004   0.000000   0.008428
    35  H    0.000000  -0.000043   0.000778   0.000000   0.000000   0.002730
    36  H    0.000000   0.000001  -0.000059   0.000000   0.000000  -0.000715
    37  H    0.000000   0.000008  -0.000003   0.000000   0.000000  -0.001057
    38  H    0.000425   0.001591  -0.003134   0.000026   0.000001   0.000177
    39  H    0.001223  -0.018735   0.001700  -0.000048  -0.000005   0.023524
    40  H    0.005717   0.057184  -0.073771   0.000362  -0.000058  -0.027443
    41  H    0.245510   0.070600  -0.036647   0.002933  -0.005936  -0.010737
    42  H   -0.050944   0.519567  -0.174763   0.005125  -0.003165  -0.019848
    43  H   -0.013108   0.332386   0.115902  -0.035285  -0.000864  -0.436372
    44  H   -0.001206   0.121448  -0.232121   0.009016   0.000013   0.232327
    45  H   -0.000124   0.023674  -0.045986   0.000145   0.000000  -0.144159
              7          8          9         10         11         12
     1  O   -0.001040   0.000020  -0.025222   0.003602   0.000767  -0.146415
     2  C    0.045832  -0.009615   0.406998   0.015005  -0.008889  -1.876220
     3  C   -0.190163   0.030733  -0.369739   0.036372  -0.003893   0.136025
     4  O    0.012948  -0.000542   0.022682   0.000194   0.000005  -0.064816
     5  H   -0.000952   0.000006  -0.007026  -0.000063   0.000000   0.052214
     6  C    0.367725   0.031210   0.186222  -0.013229  -0.000164   0.593468
     7  O    8.214930   0.217452  -0.000741   0.000011   0.000000   0.026156
     8  H    0.217452   0.327141  -0.000084   0.000000   0.000000  -0.002533
     9  C   -0.000741  -0.000084   7.276169   0.091265   0.008945  -2.060765
    10  O    0.000011   0.000000   0.091265   8.355817   0.191402  -0.042497
    11  H    0.000000   0.000000   0.008945   0.191402   0.442330   0.032091
    12  C    0.026156  -0.002533  -2.060765  -0.042497   0.032091  10.675572
    13  O    0.009777   0.000346   0.022419  -0.004349   0.000179  -0.169580
    14  C   -0.123273  -0.079273  -0.378124   0.015726  -0.004956  -0.946370
    15  O    0.004067   0.020664  -0.017243  -0.000085   0.000006   0.046648
    16  C    0.017217   0.027318  -0.180859  -0.001548  -0.000044  -0.012429
    17  C    0.011506   0.004240   0.021071   0.000450  -0.000043  -0.164246
    18  O   -0.000129  -0.000025   0.003488  -0.000003   0.000016  -0.015077
    19  H   -0.000077  -0.000005  -0.004714   0.000005  -0.000002   0.011088
    20  C    0.003802   0.001220  -0.003350   0.000090   0.000003  -0.018901
    21  O   -0.000005   0.000000   0.000049   0.000000   0.000000   0.000115
    22  H    0.000000   0.000000  -0.000001   0.000000   0.000000   0.000030
    23  C    0.013357   0.016887  -0.003005  -0.000003   0.000000  -0.009275
    24  O   -0.027163   0.002373   0.000245   0.000000   0.000000   0.002993
    25  H    0.002245  -0.002370  -0.000019   0.000000   0.000000  -0.000367
    26  C   -0.013406  -0.033934   0.009878   0.000008   0.000009   0.081424
    27  O    0.000384   0.000133  -0.000095   0.000000   0.000000  -0.000095
    28  C    0.000402  -0.000064  -0.002144  -0.000003  -0.000001  -0.000523
    29  O   -0.000005   0.000000  -0.000002   0.000000   0.000000   0.000103
    30  H    0.000000   0.000000   0.000000   0.000000   0.000000   0.000001
    31  H    0.000001   0.000000   0.000000   0.000000   0.000000   0.000016
    32  H    0.000002   0.000000  -0.000051   0.000000   0.000000   0.000367
    33  H    0.000012   0.000002   0.000128   0.000000   0.000000   0.000685
    34  H   -0.000248   0.000134  -0.000187   0.000001   0.000000   0.002186
    35  H    0.000047   0.000039   0.000009   0.000000   0.000000   0.000419
    36  H   -0.000521   0.000171   0.000000   0.000000   0.000000   0.000026
    37  H    0.001152   0.000411   0.000000   0.000000   0.000000   0.000187
    38  H   -0.000011   0.000000   0.424655  -0.043923  -0.013492  -0.057708
    39  H    0.000000   0.000000   0.641086  -0.067612  -0.001964  -0.295930
    40  H    0.000202   0.000003   0.049993   0.005558  -0.000097   0.141894
    41  H   -0.000003   0.000000  -0.005854  -0.001741  -0.000006  -0.011407
    42  H    0.000235   0.000002   0.039897  -0.000154   0.000004  -0.167625
    43  H    0.007863  -0.000137   0.029561   0.000189   0.000001  -0.053998
    44  H   -0.046351  -0.005311   0.014403   0.000037   0.000000  -0.002155
    45  H    0.005732  -0.000248   0.005261   0.000102   0.000000  -0.003789
             13         14         15         16         17         18
     1  O    0.005203  -0.041499   0.000683   0.002302   0.000497  -0.000014
     2  C    0.018700   2.110762  -0.055337   0.027218   0.000953   0.011193
     3  C   -0.018984  -0.847374  -0.005456  -0.255095  -0.057548  -0.002493
     4  O    0.000216   0.053704  -0.001281  -0.001197   0.000998  -0.000010
     5  H   -0.000305   0.003851   0.000152   0.001336   0.000085  -0.000001
     6  C   -0.068515  -4.747582   0.176760  -0.538074  -0.014213   0.000279
     7  O    0.009777  -0.123273   0.004067   0.017217   0.011506  -0.000129
     8  H    0.000346  -0.079273   0.020664   0.027318   0.004240  -0.000025
     9  C    0.022419  -0.378124  -0.017243  -0.180859   0.021071   0.003488
    10  O   -0.004349   0.015726  -0.000085  -0.001548   0.000450  -0.000003
    11  H    0.000179  -0.004956   0.000006  -0.000044  -0.000043   0.000016
    12  C   -0.169580  -0.946370   0.046648  -0.012429  -0.164246  -0.015077
    13  O    8.408846   0.207093  -0.013510   0.081843  -0.023454   0.027768
    14  C    0.207093  11.833454  -0.011182  -0.917809  -0.376710  -0.056619
    15  O   -0.013510  -0.011182   8.350214   0.051877   0.015872  -0.008841
    16  C    0.081843  -0.917809   0.051877  15.107855  -2.653578  -0.162835
    17  C   -0.023454  -0.376710   0.015872  -2.653578   9.176680   0.419196
    18  O    0.027768  -0.056619  -0.008841  -0.162835   0.419196   8.188354
    19  H   -0.005150   0.018976   0.034665  -0.137827   0.054001   0.186208
    20  C   -0.022558  -0.257711   0.046825  -1.204105  -0.543108  -0.112057
    21  O   -0.000157   0.000041  -0.000195   0.031529  -0.124740   0.011324
    22  H    0.000002  -0.001073   0.000034  -0.027647   0.013905  -0.000738
    23  C    0.016468  -0.146215  -0.033582   0.206995  -0.365364   0.008144
    24  O   -0.001653   0.097233  -0.032382  -0.021192  -0.000081   0.000359
    25  H    0.000034  -0.007266   0.002085  -0.006242  -0.002225  -0.000001
    26  C   -0.020898  -0.740411  -0.084269  -4.690405   0.116197   0.056601
    27  O    0.000153  -0.016829   0.009523  -0.127452   0.023617  -0.000005
    28  C    0.002926  -0.034064   0.017820   0.545305   0.454194  -0.008318
    29  O    0.000032  -0.000731   0.000235  -0.004548  -0.002597  -0.000406
    30  H    0.000000   0.000170   0.000003  -0.002662   0.011101  -0.000030
    31  H   -0.000001   0.006667   0.000041   0.124924  -0.017983  -0.000738
    32  H    0.000194   0.007012  -0.001201   0.103546  -0.165885   0.002742
    33  H    0.001514   0.052306  -0.012034   0.063074   0.288478  -0.051359
    34  H   -0.001114   0.032233  -0.066330   0.373535  -0.019404  -0.001767
    35  H   -0.000126   0.047405   0.005223   0.126035  -0.015849  -0.000163
    36  H   -0.000008   0.004997  -0.000458  -0.003620  -0.006860   0.000028
    37  H    0.000051  -0.001675   0.002575   0.025111   0.014301  -0.000019
    38  H    0.000208   0.006375  -0.000063   0.007227  -0.001591  -0.000909
    39  H    0.007395   0.000915  -0.000142  -0.007385   0.002836   0.000186
    40  H   -0.037265   0.109184  -0.000859   0.009474   0.007197   0.000420
    41  H   -0.000612   0.006011  -0.000007   0.000336  -0.000041   0.000000
    42  H    0.009838   0.073205  -0.000372   0.000252   0.001339   0.000078
    43  H    0.005529   0.239165  -0.001138   0.013211   0.001832   0.000065
    44  H    0.010641   0.095886  -0.008965   0.031753   0.008814   0.000111
    45  H   -0.063528   0.376235  -0.060792   0.062663   0.034821  -0.001057
             19         20         21         22         23         24
     1  O   -0.000003   0.000055   0.000000   0.000000   0.000011  -0.000006
     2  C   -0.009671   0.004439   0.000011   0.000001   0.020324   0.003729
     3  C    0.011513  -0.005517  -0.000035  -0.000001   0.008340  -0.012109
     4  O   -0.000009  -0.000018   0.000000   0.000000   0.000602  -0.000050
     5  H    0.000000   0.000003   0.000000   0.000000  -0.000023  -0.000004
     6  C    0.012105   0.019988  -0.000239  -0.000046  -0.256257  -0.003050
     7  O   -0.000077   0.003802  -0.000005   0.000000   0.013357  -0.027163
     8  H   -0.000005   0.001220   0.000000   0.000000   0.016887   0.002373
     9  C   -0.004714  -0.003350   0.000049  -0.000001  -0.003005   0.000245
    10  O    0.000005   0.000090   0.000000   0.000000  -0.000003   0.000000
    11  H   -0.000002   0.000003   0.000000   0.000000   0.000000   0.000000
    12  C    0.011088  -0.018901   0.000115   0.000030  -0.009275   0.002993
    13  O   -0.005150  -0.022558  -0.000157   0.000002   0.016468  -0.001653
    14  C    0.018976  -0.257711   0.000041  -0.001073  -0.146215   0.097233
    15  O    0.034665   0.046825  -0.000195   0.000034  -0.033582  -0.032382
    16  C   -0.137827  -1.204105   0.031529  -0.027647   0.206995  -0.021192
    17  C    0.054001  -0.543108  -0.124740   0.013905  -0.365364  -0.000081
    18  O    0.186208  -0.112057   0.011324  -0.000738   0.008144   0.000359
    19  H    0.393932   0.041811  -0.000439   0.000014  -0.006247   0.000078
    20  C    0.041811   8.329756   0.201842   0.005980   0.165347  -0.008117
    21  O   -0.000439   0.201842   8.231311   0.188491   0.001387   0.000053
    22  H    0.000014   0.005980   0.188491   0.446968  -0.000494   0.000000
    23  C   -0.006247   0.165347   0.001387  -0.000494   6.555983  -0.123769
    24  O    0.000078  -0.008117   0.000053   0.000000  -0.123769   8.537949
    25  H    0.000000   0.000911   0.000000   0.000000   0.013019   0.195797
    26  C    0.007562   0.582818   0.020967   0.003108  -0.920664   0.086374
    27  O    0.000128  -0.170817   0.004802   0.001228  -0.111428   0.003237
    28  C   -0.001988  -1.270831  -0.042436   0.016677  -0.177185   0.013773
    29  O    0.000029  -0.151451  -0.010631   0.024837  -0.003002   0.000047
    30  H    0.000000  -0.019677  -0.001147  -0.002908   0.000277  -0.000002
    31  H    0.000010  -0.119600   0.001267  -0.001163  -0.001792   0.000049
    32  H   -0.000005   0.384073  -0.036710  -0.008309   0.014400   0.000009
    33  H   -0.005932  -0.079405  -0.002213  -0.000119   0.032708   0.000027
    34  H   -0.000530   0.031015  -0.000595   0.000006   0.037138   0.000885
    35  H    0.000029  -0.028699  -0.000274   0.000009   0.003748   0.007753
    36  H    0.000000  -0.000638   0.000001   0.000000   0.410835  -0.044988
    37  H    0.000001  -0.001810  -0.000018   0.000000   0.532555  -0.062009
    38  H    0.000223  -0.001076  -0.000002   0.000000   0.000009   0.000000
    39  H   -0.000057   0.000191   0.000000   0.000000  -0.000006   0.000000
    40  H    0.000124   0.000884   0.000000   0.000000   0.000332   0.000004
    41  H    0.000000   0.000001   0.000000   0.000000   0.000003   0.000000
    42  H   -0.000007   0.000020   0.000000   0.000000   0.000065   0.000005
    43  H   -0.000006   0.000052   0.000000   0.000000   0.000939   0.000092
    44  H   -0.000022   0.000528   0.000000   0.000000   0.003734   0.000681
    45  H    0.000290   0.011548   0.000008   0.000000   0.010568   0.000417
             25         26         27         28         29         30
     1  O    0.000000  -0.000280   0.000000   0.000010   0.000000   0.000000
     2  C    0.000027   0.040669  -0.000382  -0.004294  -0.000003   0.000000
     3  C    0.001942  -0.121158   0.000906  -0.001459   0.000055   0.000001
     4  O    0.000005   0.000418   0.000001  -0.000009   0.000000   0.000000
     5  H    0.000000   0.000051   0.000000   0.000000   0.000000   0.000000
     6  C   -0.002622  -0.344874   0.001923   0.020381  -0.000395  -0.000003
     7  O    0.002245  -0.013406   0.000384   0.000402  -0.000005   0.000000
     8  H   -0.002370  -0.033934   0.000133  -0.000064   0.000000   0.000000
     9  C   -0.000019   0.009878  -0.000095  -0.002144  -0.000002   0.000000
    10  O    0.000000   0.000008   0.000000  -0.000003   0.000000   0.000000
    11  H    0.000000   0.000009   0.000000  -0.000001   0.000000   0.000000
    12  C   -0.000367   0.081424  -0.000095  -0.000523   0.000103   0.000001
    13  O    0.000034  -0.020898   0.000153   0.002926   0.000032   0.000000
    14  C   -0.007266  -0.740411  -0.016829  -0.034064  -0.000731   0.000170
    15  O    0.002085  -0.084269   0.009523   0.017820   0.000235   0.000003
    16  C   -0.006242  -4.690405  -0.127452   0.545305  -0.004548  -0.002662
    17  C   -0.002225   0.116197   0.023617   0.454194  -0.002597   0.011101
    18  O   -0.000001   0.056601  -0.000005  -0.008318  -0.000406  -0.000030
    19  H    0.000000   0.007562   0.000128  -0.001988   0.000029   0.000000
    20  C    0.000911   0.582818  -0.170817  -1.270831  -0.151451  -0.019677
    21  O    0.000000   0.020967   0.004802  -0.042436  -0.010631  -0.001147
    22  H    0.000000   0.003108   0.001228   0.016677   0.024837  -0.002908
    23  C    0.013019  -0.920664  -0.111428  -0.177185  -0.003002   0.000277
    24  O    0.195797   0.086374   0.003237   0.013773   0.000047  -0.000002
    25  H    0.415035   0.020074  -0.000175  -0.002357   0.000001   0.000000
    26  C    0.020074  13.298900   0.269932  -0.939070  -0.069212   0.010527
    27  O   -0.000175   0.269932   8.389636   0.159462  -0.053258  -0.001001
    28  C   -0.002357  -0.939070   0.159462   6.278430   0.419567   0.006255
    29  O    0.000001  -0.069212  -0.053258   0.419567   8.241592   0.237519
    30  H    0.000000   0.010527  -0.001001   0.006255   0.237519   0.403626
    31  H    0.000000  -0.098269  -0.063450   0.453211  -0.051416  -0.008322
    32  H    0.000000  -0.010583   0.003183  -0.040273  -0.004211   0.000210
    33  H    0.000000  -0.049945   0.001660  -0.034200  -0.000656   0.000022
    34  H   -0.000012  -0.183882   0.005697   0.000252  -0.000775   0.000002
    35  H   -0.000254   0.075742  -0.039642   0.050678  -0.001108   0.000012
    36  H   -0.007619  -0.012659  -0.006335   0.000082  -0.000087  -0.000002
    37  H   -0.003740  -0.221016   0.004104   0.012760  -0.000269  -0.000001
    38  H    0.000000  -0.000137   0.000000   0.000091   0.000000   0.000000
    39  H    0.000000  -0.000185   0.000000  -0.000018   0.000000   0.000000
    40  H    0.000000   0.000103   0.000000  -0.000082   0.000000   0.000000
    41  H    0.000000  -0.000006   0.000000   0.000000   0.000000   0.000000
    42  H    0.000000   0.000161   0.000000  -0.000005   0.000000   0.000000
    43  H    0.000000   0.001306   0.000000  -0.000040   0.000000   0.000000
    44  H   -0.000004   0.001899   0.000004  -0.000054   0.000000   0.000000
    45  H    0.000015   0.007336   0.000174  -0.001422  -0.000003   0.000000
             31         32         33         34         35         36
     1  O    0.000000   0.000000   0.000000  -0.000002   0.000000   0.000000
     2  C   -0.000004   0.000005   0.000394  -0.000094  -0.000043   0.000001
     3  C    0.000017   0.000062   0.000205   0.002346   0.000778  -0.000059
     4  O    0.000000   0.000000   0.000000   0.000004   0.000000   0.000000
     5  H    0.000000   0.000000   0.000000   0.000000   0.000000   0.000000
     6  C    0.000112   0.000165   0.001966   0.008428   0.002730  -0.000715
     7  O    0.000001   0.000002   0.000012  -0.000248   0.000047  -0.000521
     8  H    0.000000   0.000000   0.000002   0.000134   0.000039   0.000171
     9  C    0.000000  -0.000051   0.000128  -0.000187   0.000009   0.000000
    10  O    0.000000   0.000000   0.000000   0.000001   0.000000   0.000000
    11  H    0.000000   0.000000   0.000000   0.000000   0.000000   0.000000
    12  C    0.000016   0.000367   0.000685   0.002186   0.000419   0.000026
    13  O   -0.000001   0.000194   0.001514  -0.001114  -0.000126  -0.000008
    14  C    0.006667   0.007012   0.052306   0.032233   0.047405   0.004997
    15  O    0.000041  -0.001201  -0.012034  -0.066330   0.005223  -0.000458
    16  C    0.124924   0.103546   0.063074   0.373535   0.126035  -0.003620
    17  C   -0.017983  -0.165885   0.288478  -0.019404  -0.015849  -0.006860
    18  O   -0.000738   0.002742  -0.051359  -0.001767  -0.000163   0.000028
    19  H    0.000010  -0.000005  -0.005932  -0.000530   0.000029   0.000000
    20  C   -0.119600   0.384073  -0.079405   0.031015  -0.028699  -0.000638
    21  O    0.001267  -0.036710  -0.002213  -0.000595  -0.000274   0.000001
    22  H   -0.001163  -0.008309  -0.000119   0.000006   0.000009   0.000000
    23  C   -0.001792   0.014400   0.032708   0.037138   0.003748   0.410835
    24  O    0.000049   0.000009   0.000027   0.000885   0.007753  -0.044988
    25  H    0.000000   0.000000   0.000000  -0.000012  -0.000254  -0.007619
    26  C   -0.098269  -0.010583  -0.049945  -0.183882   0.075742  -0.012659
    27  O   -0.063450   0.003183   0.001660   0.005697  -0.039642  -0.006335
    28  C    0.453211  -0.040273  -0.034200   0.000252   0.050678   0.000082
    29  O   -0.051416  -0.004211  -0.000656  -0.000775  -0.001108  -0.000087
    30  H   -0.008322   0.000210   0.000022   0.000002   0.000012  -0.000002
    31  H    0.624175   0.004924   0.003040   0.000048   0.006959   0.000030
    32  H    0.004924   0.580252   0.006653   0.002659   0.000018   0.000002
    33  H    0.003040   0.006653   0.636325   0.007462   0.004305   0.000006
    34  H    0.000048   0.002659   0.007462   0.623864   0.006654  -0.000033
    35  H    0.006959   0.000018   0.004305   0.006654   0.610725  -0.008591
    36  H    0.000030   0.000002   0.000006  -0.000033  -0.008591   0.579521
    37  H   -0.000024  -0.000009  -0.000001   0.003300   0.005715  -0.046018
    38  H    0.000000   0.000000   0.000000   0.000000   0.000000   0.000000
    39  H    0.000000   0.000000   0.000000   0.000000   0.000000   0.000000
    40  H    0.000000   0.000000   0.000000  -0.000004   0.000000   0.000000
    41  H    0.000000   0.000000   0.000000   0.000000   0.000000   0.000000
    42  H    0.000000   0.000000   0.000000   0.000000   0.000000   0.000000
    43  H    0.000000   0.000000   0.000000  -0.000001   0.000000   0.000000
    44  H    0.000000   0.000000  -0.000003   0.000005  -0.000002   0.000000
    45  H    0.000000  -0.000015  -0.000017   0.012121   0.000000   0.000001
             37         38         39         40         41         42
     1  O    0.000000   0.000425   0.001223   0.005717   0.245510  -0.050944
     2  C    0.000008   0.001591  -0.018735   0.057184   0.070600   0.519567
     3  C   -0.000003  -0.003134   0.001700  -0.073771  -0.036647  -0.174763
     4  O    0.000000   0.000026  -0.000048   0.000362   0.002933   0.005125
     5  H    0.000000   0.000001  -0.000005  -0.000058  -0.005936  -0.003165
     6  C   -0.001057   0.000177   0.023524  -0.027443  -0.010737  -0.019848
     7  O    0.001152  -0.000011   0.000000   0.000202  -0.000003   0.000235
     8  H    0.000411   0.000000   0.000000   0.000003   0.000000   0.000002
     9  C    0.000000   0.424655   0.641086   0.049993  -0.005854   0.039897
    10  O    0.000000  -0.043923  -0.067612   0.005558  -0.001741  -0.000154
    11  H    0.000000  -0.013492  -0.001964  -0.000097  -0.000006   0.000004
    12  C    0.000187  -0.057708  -0.295930   0.141894  -0.011407  -0.167625
    13  O    0.000051   0.000208   0.007395  -0.037265  -0.000612   0.009838
    14  C   -0.001675   0.006375   0.000915   0.109184   0.006011   0.073205
    15  O    0.002575  -0.000063  -0.000142  -0.000859  -0.000007  -0.000372
    16  C    0.025111   0.007227  -0.007385   0.009474   0.000336   0.000252
    17  C    0.014301  -0.001591   0.002836   0.007197  -0.000041   0.001339
    18  O   -0.000019  -0.000909   0.000186   0.000420   0.000000   0.000078
    19  H    0.000001   0.000223  -0.000057   0.000124   0.000000  -0.000007
    20  C   -0.001810  -0.001076   0.000191   0.000884   0.000001   0.000020
    21  O   -0.000018  -0.000002   0.000000   0.000000   0.000000   0.000000
    22  H    0.000000   0.000000   0.000000   0.000000   0.000000   0.000000
    23  C    0.532555   0.000009  -0.000006   0.000332   0.000003   0.000065
    24  O   -0.062009   0.000000   0.000000   0.000004   0.000000   0.000005
    25  H   -0.003740   0.000000   0.000000   0.000000   0.000000   0.000000
    26  C   -0.221016  -0.000137  -0.000185   0.000103  -0.000006   0.000161
    27  O    0.004104   0.000000   0.000000   0.000000   0.000000   0.000000
    28  C    0.012760   0.000091  -0.000018  -0.000082   0.000000  -0.000005
    29  O   -0.000269   0.000000   0.000000   0.000000   0.000000   0.000000
    30  H   -0.000001   0.000000   0.000000   0.000000   0.000000   0.000000
    31  H   -0.000024   0.000000   0.000000   0.000000   0.000000   0.000000
    32  H   -0.000009   0.000000   0.000000   0.000000   0.000000   0.000000
    33  H   -0.000001   0.000000   0.000000   0.000000   0.000000   0.000000
    34  H    0.003300   0.000000   0.000000  -0.000004   0.000000   0.000000
    35  H    0.005715   0.000000   0.000000   0.000000   0.000000   0.000000
    36  H   -0.046018   0.000000   0.000000   0.000000   0.000000   0.000000
    37  H    0.581732   0.000000   0.000000   0.000000   0.000000   0.000000
    38  H    0.000000   0.601003  -0.050016  -0.009430  -0.000025   0.000054
    39  H    0.000000  -0.050016   0.612505   0.006755  -0.000005   0.004936
    40  H    0.000000  -0.009430   0.006755   0.597672  -0.000172   0.006117
    41  H    0.000000  -0.000025  -0.000005  -0.000172   0.376304  -0.012287
    42  H    0.000000   0.000054   0.004936   0.006117  -0.012287   0.611787
    43  H    0.000000   0.000005  -0.000002   0.002910   0.000223   0.006627
    44  H   -0.000001   0.000001  -0.000022  -0.000008   0.000024   0.002972
    45  H   -0.000001  -0.000008  -0.000018   0.006003   0.000003   0.000069
             43         44         45
     1  O   -0.013108  -0.001206  -0.000124
     2  C    0.332386   0.121448   0.023674
     3  C    0.115902  -0.232121  -0.045986
     4  O   -0.035285   0.009016   0.000145
     5  H   -0.000864   0.000013   0.000000
     6  C   -0.436372   0.232327  -0.144159
     7  O    0.007863  -0.046351   0.005732
     8  H   -0.000137  -0.005311  -0.000248
     9  C    0.029561   0.014403   0.005261
    10  O    0.000189   0.000037   0.000102
    11  H    0.000001   0.000000   0.000000
    12  C   -0.053998  -0.002155  -0.003789
    13  O    0.005529   0.010641  -0.063528
    14  C    0.239165   0.095886   0.376235
    15  O   -0.001138  -0.008965  -0.060792
    16  C    0.013211   0.031753   0.062663
    17  C    0.001832   0.008814   0.034821
    18  O    0.000065   0.000111  -0.001057
    19  H   -0.000006  -0.000022   0.000290
    20  C    0.000052   0.000528   0.011548
    21  O    0.000000   0.000000   0.000008
    22  H    0.000000   0.000000   0.000000
    23  C    0.000939   0.003734   0.010568
    24  O    0.000092   0.000681   0.000417
    25  H    0.000000  -0.000004   0.000015
    26  C    0.001306   0.001899   0.007336
    27  O    0.000000   0.000004   0.000174
    28  C   -0.000040  -0.000054  -0.001422
    29  O    0.000000   0.000000  -0.000003
    30  H    0.000000   0.000000   0.000000
    31  H    0.000000   0.000000   0.000000
    32  H    0.000000   0.000000  -0.000015
    33  H    0.000000  -0.000003  -0.000017
    34  H   -0.000001   0.000005   0.012121
    35  H    0.000000  -0.000002   0.000000
    36  H    0.000000   0.000000   0.000001
    37  H    0.000000  -0.000001  -0.000001
    38  H    0.000005   0.000001  -0.000008
    39  H   -0.000002  -0.000022  -0.000018
    40  H    0.002910  -0.000008   0.006003
    41  H    0.000223   0.000024   0.000003
    42  H    0.006627   0.002972   0.000069
    43  H    0.633764   0.007565   0.004020
    44  H    0.007565   0.606179   0.005899
    45  H    0.004020   0.005899   0.631815
 Mulliken atomic charges:
              1
     1  O   -0.520195
     2  C   -0.419996
     3  C    0.281811
     4  O   -0.495859
     5  H    0.339260
     6  C   -0.023158
     7  O   -0.558970
     8  H    0.453640
     9  C   -0.195202
    10  O   -0.540622
    11  H    0.357792
    12  C    0.319011
    13  O   -0.385608
    14  C    0.338136
    15  O   -0.370249
    16  C   -0.085385
    17  C   -0.128659
    18  O   -0.492948
    19  H    0.399899
    20  C    0.186243
    21  O   -0.473361
    22  H    0.341208
    23  C    0.084137
    24  O   -0.617588
    25  H    0.384079
    26  C   -0.136803
    27  O   -0.288926
    28  C    0.108564
    29  O   -0.569249
    30  H    0.366031
    31  H    0.137270
    32  H    0.156774
    33  H    0.134911
    34  H    0.125000
    35  H    0.139722
    36  H    0.143510
    37  H    0.153706
    38  H    0.139456
    39  H    0.138897
    40  H    0.141094
    41  H    0.383536
    42  H    0.146816
    43  H    0.137744
    44  H    0.142284
    45  H    0.122248
 Sum of Mulliken atomic charges =   0.00000
 Mulliken charges with hydrogens summed into heavy atoms:
              1
     1  O   -0.136659
     2  C   -0.273180
     3  C    0.419555
     4  O   -0.156600
     6  C    0.119126
     7  O   -0.105329
     9  C    0.083151
    10  O   -0.182831
    12  C    0.460105
    13  O   -0.385608
    14  C    0.460385
    15  O   -0.370249
    16  C    0.039614
    17  C    0.006252
    18  O   -0.093049
    20  C    0.343018
    21  O   -0.132153
    23  C    0.381353
    24  O   -0.233509
    26  C    0.002918
    27  O   -0.288926
    28  C    0.245834
    29  O   -0.203218
 Sum of Mulliken charges with hydrogens summed into heavy atoms =   0.00000
 APT atomic charges:
              1
     1  O   -0.637648
     2  C    0.431115
     3  C    0.367363
     4  O   -0.644395
     5  H    0.268624
     6  C    0.403062
     7  O   -0.774143
     8  H    0.502504
     9  C    0.468978
    10  O   -0.617838
    11  H    0.253156
    12  C    0.437420
    13  O   -0.838725
    14  C    0.929901
    15  O   -0.880800
    16  C    0.449765
    17  C    0.359115
    18  O   -0.696301
    19  H    0.383847
    20  C    0.372559
    21  O   -0.588499
    22  H    0.255085
    23  C    0.484557
    24  O   -0.681670
    25  H    0.253103
    26  C    0.423557
    27  O   -0.759071
    28  C    0.890267
    29  O   -0.678439
    30  H    0.265304
    31  H   -0.071712
    32  H   -0.031621
    33  H   -0.061640
    34  H   -0.041202
    35  H   -0.053194
    36  H   -0.046293
    37  H   -0.029491
    38  H   -0.050079
    39  H   -0.051224
    40  H   -0.046966
    41  H    0.277891
    42  H   -0.042923
    43  H   -0.058376
    44  H   -0.038234
    45  H   -0.056690
 Sum of APT charges=   0.00000
 APT Atomic charges with hydrogens summed into heavy atoms:
              1
     1  O   -0.359757
     2  C    0.388192
     3  C    0.308986
     4  O   -0.375771
[...]
 197077,0.00059621,0.00021383,-0.00017055,-0.00011153,0.00006356,0.0001
 0874,-0.00000515,0.00011114,-0.00001551,0.00001410,-0.00001633,-0.0000
 1794,0.00001661,0.00001367,0.00002973,-0.00003290,-0.00001412,-0.00003
 088,0.00003815,-0.00000299,-0.00000824,0.00000125,-0.00000272,0.000008
 67,-0.00000653,0.00000342,-0.00000200,0.00000020,-0.00000087,-0.000007
 10,0.00000393,0.00000108,0.00001950,0.00000136,0.00002679,-0.00001198,
 -0.00000358,-0.00000295,-0.00001251,-0.00000629,-0.00000369,0.00001077
 ,-0.00000487,0.00000672,-0.00000848,0.00000919,-0.00000400,0.00000426,
 -0.00000250,-0.00000085,-0.00000115,0.00000039,-0.00000005,0.00000265,
 -0.00000002,0.00000147,0.00000356,0.00000097,-0.00000190,0.00000520,-0
 .00000157,0.00000467,0.00000978,-0.00000087,-0.00000469,0.00000522,0.0
 0000013,0.00000518,0.00000027,-0.00000087,0.00000287,0.00000324,-0.000
 00063,-0.00000285,0.00040711,0.00012600,-0.00001188,0.00068553,-0.0007
 6750,0.00005054,0.00057135,-0.00057722,0.00074980,0.00104306,0.0000442
 8,-0.00039794,0.37341974,-0.00729515,0.00232095,-0.00312801,0.01247926
 ,-0.04443163,-0.00023233,0.03401801,-0.00496947,-0.00849455,-0.0013863
 4,0.00372275,-0.00122791,0.00097593,-0.00031733,0.00085317,0.00116739,
 0.00130820,0.00114321,-0.00048297,-0.00021594,0.00003399,-0.00008156,-
 0.00000322,0.00006156,-0.00207013,0.00119274,-0.00024185,0.00025711,-0
 .00008036,0.00009589,0.00000598,-0.00007135,-0.00005532,-0.02719404,-0
 .00092749,0.00801975,0.00123376,0.00097550,-0.00177882,0.00013069,-0.0
 0054262,-0.00000511,0.00003325,0.00010085,-0.00006791,-0.00004893,0.00
 001692,-0.00002247,0.00001270,0.00000130,-0.00001062,0.00002669,-0.000
 00639,-0.00002210,-0.00000765,0.00001693,0.00002348,-0.00000940,0.0000
 0185,-0.00000173,0.00000429,-0.00000046,0.00000086,-0.00000122,0.00000
 004,-0.00000107,-0.00000087,-0.00001030,0.00000605,-0.00000873,0.00000
 368,-0.00004051,0.00000870,0.00000368,0.00000441,0.00000698,-0.0000015
 7,0.00000391,-0.00000143,0.00000427,-0.00000429,0.00000164,-0.00000386
 ,0.00000238,0.00000086,0.00000040,-0.00000255,0.00000015,0.00000020,0.
 00000033,-0.00000005,0.00000101,0.00000033,0.00000167,-0.00000055,-0.0
 0000131,0.00000158,0.00000200,0.00000190,0.00000392,-0.00000705,0.0000
 0519,-0.00000087,0.00000182,-0.00000058,0.00000047,0.00000199,-0.00000
 464,-0.00000072,-0.00000061,0.00000183,0.00032534,0.00041289,-0.000035
 14,0.00082418,-0.00020920,0.00008511,-0.00079654,-0.00276447,0.0036393
 0,-0.00052245,0.00128087,0.00005069,-0.01171540,0.04883488,-0.04292382
 ,-0.00239138,-0.01430054,0.06575799,-0.00227388,-0.05467851,0.01495438
 ,-0.00024555,-0.00252408,-0.00174941,0.00113205,0.00088795,-0.00075684
 ,-0.00005190,0.00004676,0.00103315,0.00044374,0.00060103,-0.00037697,-
 0.00004450,-0.00003213,0.00001449,0.00002343,0.00003331,0.00045582,-0.
 00125503,0.00074090,-0.00009065,0.00013657,0.00004758,0.00004202,0.000
 00538,0.00008192,0.02437673,0.00126003,-0.00543671,-0.00093866,-0.0003
 6590,0.00206652,0.00047696,-0.00037587,-0.00025179,-0.00010454,0.00005
 912,-0.00019563,0.00000797,-0.00003844,0.00000627,0.00001357,-0.000004
 75,0.00001292,-0.00005422,0.00000815,-0.00000041,0.00005495,-0.0000008
 0,-0.00002978,0.00000940,-0.00000748,0.00001254,-0.00001184,0.00001292
 ,-0.00001476,0.00000294,-0.00000164,0.00000299,0.00000833,-0.00000054,
 0.00000284,-0.00002268,-0.00000707,-0.00002881,0.00001259,0.00000537,0
 .00000231,0.00001147,0.00001273,0.00001408,-0.00000941,0.00000449,-0.0
 0002396,0.00000503,-0.00000991,0.00002354,0.00000241,0.00000209,-0.000
 01519,0.00000071,-0.00000002,0.00000324,-0.00000250,-0.00000004,-0.000
 00291,-0.00000452,-0.00000022,0.00000353,-0.00000964,-0.00000311,-0.00
 001316,-0.00001066,0.00000123,0.00000924,-0.00000622,-0.00000160,-0.00
 000720,-0.00000143,-0.00000171,-0.00000390,-0.00000246,0.00000181,0.00
 000373,-0.00017930,-0.00025483,-0.00004308,-0.00068876,0.00039163,0.00
 008165,0.00023072,0.00269266,-0.00325851,-0.00338056,0.00040685,0.0031
 8509,-0.05551102,0.00351953,0.07380170,0.00156544,0.00041241,0.0002288
 7,-0.01056482,0.00178583,0.00081178,-0.34871851,0.02541591,0.02342269,
 -0.00457735,-0.00896408,0.01219778,-0.00078316,-0.00086441,-0.00038730
 ,-0.01914040,0.00220382,-0.00099232,0.00220979,-0.00040733,0.00021592,
 0.00015813,0.00002475,0.00015681,0.00050750,0.00033018,-0.00020621,0.0
 0003975,-0.00007421,-0.00004024,-0.00001089,0.00000024,-0.00000971,-0.
 00084452,-0.00079801,0.00059823,0.00066062,0.00031329,-0.00010153,-0.0
 0164613,-0.00130401,0.00123638,0.00072445,0.00012375,-0.00031394,-0.00
 012980,0.00008473,-0.00012424,0.00002304,-0.00001000,-0.00006550,0.000
 04953,0.00000325,0.00002345,-0.00003005,-0.00000915,0.00001010,-0.0000
 3002,0.00001566,0.00000042,0.00001878,0.00000283,0.00000262,-0.0000066
 7,0.00000032,-0.00000462,-0.00006086,-0.00003647,0.00005066,0.00004527
 ,0.00003112,-0.00006073,-0.00002784,-0.00000303,0.00001236,-0.00000209
 ,-0.00000204,-0.00000276,0.00002257,0.00001306,-0.00001893,-0.00000875
 ,-0.00001141,0.00000114,0.00000761,0.00000407,-0.00000129,-0.00000102,
 -0.00000049,-0.00000080,0.00000365,0.00000113,0.00000232,0.00000716,0.
 00000182,-0.00000367,0.00001357,-0.00000371,0.00001203,0.00002956,0.00
 000537,-0.00005410,0.00001073,-0.00000199,0.00001271,0.00000945,0.0000
 0414,-0.00000651,0.00001737,0.00000151,-0.00001768,-0.00003193,0.00013
 846,0.00000341,0.00013826,-0.00027599,0.00000468,0.00101050,0.00043747
 ,-0.00054732,0.00030472,-0.00032707,-0.00025102,0.00054547,0.00094165,
 0.00008942,0.37793232,-0.00226077,0.00236038,0.00157678,0.03546545,-0.
 00657892,-0.00410590,0.02464870,-0.04192690,-0.00801189,-0.02911865,-0
 .00559413,0.01644680,-0.00079454,-0.00086471,-0.00036438,-0.00995768,0
 .00321295,-0.00173890,0.00050872,0.00077266,0.00163039,0.00006177,0.00
 000525,-0.00010219,0.00006456,0.00002751,-0.00009067,-0.00004942,0.000
 02337,0.00000615,0.00000577,0.00001963,0.00002281,0.00141451,0.0019510
 1,-0.00101624,-0.00031385,-0.00020163,0.00036781,0.00053602,-0.0005661
 0,0.00050903,0.00006378,0.00003148,-0.00034698,-0.00002687,0.00002815,
 0.00000566,0.00001836,-0.00002363,-0.00004265,-0.00001602,0.00001246,0
 .00003380,0.00000536,-0.00001052,-0.00004757,-0.00000621,0.00000469,0.
 00001535,0.00000074,0.00000427,-0.00001373,-0.00000138,0.00000162,-0.0
 0000011,-0.00000004,0.00003828,-0.00002995,0.00004594,-0.00002041,0.00
 013089,-0.00003063,-0.00000890,-0.00001868,0.00000165,0.00004521,0.000
 01727,0.00000512,-0.00001966,-0.00001733,-0.00000065,0.00000281,0.0000
 0758,0.00000214,-0.00000134,-0.00000504,-0.00000001,-0.00000014,0.0000
 0059,-0.00000001,-0.00000026,-0.00000027,-0.00000026,0.00000030,-0.000
 00130,-0.00000111,0.00000089,0.00000149,0.00000583,0.00000778,-0.00000
 957,0.00000034,-0.00000586,-0.00000052,-0.00000078,-0.00000868,0.00001
 042,0.00000170,0.00000166,-0.00000366,-0.00013124,-0.00007925,-0.00002
 421,-0.00027517,0.00006377,0.00002535,-0.00056819,-0.00038060,0.000548
 99,0.00004260,0.00022992,0.00049216,0.00114727,-0.00543881,-0.00264403
 ,-0.01958467,0.05267597,-0.00039638,0.00092302,0.00158630,0.01297324,-
 0.00414456,-0.00019546,0.02372204,-0.00792220,-0.04301375,0.02962013,0
 .01193212,-0.01388116,0.00193425,0.00059397,-0.00008652,-0.03458969,0.
 00147193,0.00042608,0.00254567,0.00068582,0.00223079,0.00003651,0.0002
 3441,-0.00003616,-0.00013884,-0.00015400,0.00007412,-0.00002610,0.0000
 3199,0.00002787,-0.00000027,0.00001164,0.00000711,-0.00048716,0.000883
 23,-0.00040607,0.00015856,0.00027446,-0.00011542,-0.00167209,-0.000907
 09,0.00118013,0.00038882,-0.00001282,-0.00011180,0.00010442,0.00003994
 ,0.00002701,0.00002214,-0.00001571,-0.00002362,0.00001299,0.00002276,-
 0.00000133,-0.00002007,-0.00003299,0.00000455,-0.00001162,0.00000211,0
 .00001282,0.00000168,0.00001417,-0.00001348,-0.00000186,-0.00000016,0.
 00000015,-0.00000126,0.00002165,0.00000876,0.00003131,-0.00001721,0.00
 010423,-0.00000860,-0.00000021,-0.00001287,-0.00000895,0.00002070,0.00
 003058,0.00000739,-0.00000152,-0.00003519,-0.00000243,-0.00001278,0.00
 002410,0.00000770,0.00000193,-0.00001506,-0.00000050,0.00000119,0.0000
 0310,0.00000016,0.00000075,-0.00000077,0.00000086,0.00000083,0.,0.0000
 0140,-0.00000081,0.00000426,0.00003375,0.00001601,-0.00006292,0.000002
 69,-0.00000351,0.00000376,-0.00000055,-0.00000722,0.00000571,0.0000061
 6,0.00000089,-0.00000744,-0.00003386,-0.00010010,-0.00000767,-0.000071
 17,0.00010602,-0.00003121,-0.00025048,0.00009897,0.00029450,0.00002492
 ,0.00044404,0.00013764,0.00071134,-0.00179072,-0.00077665,-0.03270772,
 -0.00191585,0.05829292,0.00050470,0.00001370,-0.00021309,-0.00071919,0
 .00117145,0.00046679,-0.01780700,-0.00421756,0.00070790,0.00246498,0.0
 0054206,0.00094260,0.00013856,-0.00000877,0.00010312,-0.35188683,-0.02
 107141,0.03627707,-0.00705911,0.01180453,0.00880995,-0.00011401,0.0003
 3059,-0.00128890,-0.00008334,-0.00003327,0.00001496,0.00005563,0.00003
 978,0.00002994,-0.00001502,-0.00000891,0.00000183,-0.00015282,-0.00013
 717,-0.00004512,0.00172139,-0.00073465,-0.00060451,-0.00837700,-0.0004
 6135,0.00078951,0.00110406,0.00012762,-0.00086098,0.00031749,0.0000846
 3,0.00018296,0.00001532,0.00005341,0.00000252,0.00004899,-0.00001988,-
 0.00008505,-0.00005708,-0.00004941,0.00005516,-0.00002263,0.00001434,0
 .00002233,0.00001640,-0.00001803,-0.00001902,-0.00000383,0.00000720,0.
 00000013,0.00005887,0.00022303,-0.00020777,0.00017523,-0.00015241,0.00
 072163,-0.00008630,-0.00006431,-0.00012533,-0.00003865,0.00009987,0.00
 003586,0.00002713,-0.00011578,0.00000720,-0.00002345,0.00006927,-0.000
 00997,0.00000577,-0.00002241,-0.00000159,-0.00000147,0.00000247,0.0000
 0048,0.00000587,-0.00000505,0.00000357,0.00000617,0.00000265,-0.000003
 81,0.00000143,-0.00001421,0.00001316,0.00003667,0.00006131,-0.00028817
 ,0.00001270,-0.00001171,0.00001151,-0.00000701,-0.00003871,0.00006441,
 -0.00000232,-0.00001268,-0.00001497,0.00002064,-0.00001123,-0.00000983
 ,0.00006137,-0.00005204,-0.00000976,0.00009974,0.00015687,-0.00001236,
 -0.00005284,-0.00012995,-0.00009328,0.00059590,-0.00074697,-0.00048753
 ,-0.00034235,-0.00102125,-0.00236702,0.37892768,0.00009965,-0.00003522
 ,0.00005272,-0.00057573,0.00024526,0.00027401,-0.00616154,0.00143292,0
 .00089703,0.00084822,0.00014512,-0.00029232,-0.00001198,-0.00000816,-0
 .00000079,-0.02068278,-0.03938915,0.00625701,0.03804711,-0.01691028,-0
 .01665125,0.00141364,0.00102646,0.00133855,-0.00007378,0.00000952,0.00
 002411,0.00002412,-0.00001835,0.00000223,-0.00000436,0.00000120,-0.000
 00186,-0.00026850,-0.00024067,-0.00017299,0.00119708,0.00218737,-0.000
 61253,-0.02941686,-0.00307734,0.00459310,0.00091127,0.00090464,-0.0019
 3264,-0.00017722,0.00018564,-0.00003031,0.00007892,-0.00003102,-0.0001
 3817,0.00012398,-0.00003045,0.00006982,-0.00013087,0.00002554,0.000000
 98,-0.00002933,0.00002531,-0.00000181,0.00001082,0.00002066,0.00000090
 ,-0.00000423,-0.00000424,-0.00000448,-0.00011373,-0.00022107,0.0002468
 7,-0.00036762,0.00005242,-0.00077756,0.00017120,0.00008334,0.00011441,
 0.00010162,-0.00009310,-0.00000439,-0.00001183,0.00011032,-0.00004605,
 0.00001335,-0.00007866,0.00002396,0.00000515,0.00002435,-0.00000948,0.
 00000087,-0.00000162,0.00000121,-0.00000286,0.00000735,-0.00000130,0.0
 0000726,0.00000261,-0.00000750,0.00002172,-0.00001612,0.00003010,0.000
 21509,-0.00001102,-0.00008051,0.00000215,0.00002983,0.00002182,0.00001
 294,0.00003830,-0.00006990,0.00000942,-0.00000366,0.00003201,0.0000080
 6,-0.00001910,0.00000438,0.00003904,-0.00004832,-0.00002038,0.00018916
 ,0.00008759,0.00002806,0.00001871,0.00003833,-0.00000710,0.00018439,-0
 .00006001,-0.00018434,-0.00017988,0.00010874,-0.00119329,0.01474266,0.
 05697487,0.00053858,0.00017168,-0.00038972,-0.00097379,0.00120733,0.00
 124731,-0.03449407,-0.00411878,0.00085336,0.00180127,-0.00019372,0.003
 13632,-0.00003332,-0.00027175,0.00034429,0.03524034,0.00627346,-0.0466
 1891,0.01700949,-0.01210690,-0.00432206,0.00106733,-0.00009583,0.00098
 985,-0.00005127,-0.00000715,0.00007118,0.00001068,-0.00000044,-0.00000
 025,0.00000440,0.00000228,0.00000689,-0.00031817,-0.00007685,-0.000381
 41,-0.00160423,-0.00101581,0.00059676,0.02638703,0.00508689,-0.0045034
 1,-0.00015544,-0.00060408,0.00235515,0.00037233,-0.00018958,-0.0002507
 5,-0.00010494,0.00001100,0.00018702,-0.00011672,0.00002476,-0.00004081
 ,0.00013388,0.00002870,0.00004327,0.00003790,-0.00004767,-0.00002856,-
 0.00001690,-0.00001310,0.00002555,0.00000545,-0.00000403,0.00000347,0.
 00001342,-0.00004484,0.00002851,-0.00025745,0.00001205,-0.00033614,0.0
 0008036,0.00003077,0.00009885,-0.00002742,-0.00006074,-0.00004107,-0.0
 0004102,0.00002605,0.00007254,0.00001265,0.00001479,-0.00002092,-0.000
 01097,-0.00000095,0.00001046,0.00000159,-0.00000164,-0.00000192,-0.000
 00247,-0.00000047,-0.00000269,-0.00000927,-0.00000386,0.00000909,-0.00
 003287,0.00003346,-0.00003507,-0.00033784,-0.00004273,0.00005516,-0.00
 002748,-0.00000107,-0.00005332,-0.00000498,0.00001350,-0.00001950,-0.0
 0002274,-0.00000279,0.00004125,0.00000949,-0.00003167,0.00000817,0.000
 01287,-0.00001571,0.00000675,0.00008585,0.00000064,-0.00014533,0.00005
 659,-0.00014418,-0.00008757,0.00056479,-0.00039823,-0.00021127,-0.0025
 7075,-0.00144516,-0.00534979,-0.04281061,0.00514503,0.05521407,0.00007
 111,-0.00005261,0.00017941,0.00002319,0.00036673,0.00001465,-0.0005784
 9,-0.00018468,-0.00053828,0.00040256,-0.00001088,-0.00014433,0.0000173
 0,0.00004183,0.00006208,-0.00660328,0.00053596,0.00293263,0.00173729,-
 0.00024970,-0.00124838,-0.00035534,-0.00005833,-0.00002168,0.00065825,
 -0.00007117,0.00016260,0.00000067,0.00019274,0.00006984,-0.00000012,0.
 00000205,0.00002621,0.00000780,-0.00073834,-0.00107394,-0.00726788,0.0
 0918652,0.00569326,-0.34107456,-0.01656183,0.06759391,-0.02176031,-0.0
 0372854,-0.00855374,0.00033169,-0.00080417,0.00413380,0.00029958,0.000
 16327,-0.00026768,0.00056815,-0.00010827,-0.00023789,-0.00044111,-0.00
 035259,0.00058683,-0.00010071,0.00007445,0.00006319,0.00004689,0.00002
 801,-0.00004742,-0.00001704,0.00000615,-0.00001182,-0.00020800,0.00003
 006,0.00003764,0.00016334,-0.00005845,0.00005292,-0.00001185,-0.000036
 41,-0.00005017,0.00057521,0.00010020,0.00003490,0.00004649,-0.00007965
 ,-0.00026402,-0.00000944,-0.00004030,0.00005893,0.00002412,0.00000768,
 -0.00004093,0.00000040,0.00000273,0.00000355,0.00000639,0.00000621,0.0
 0000312,0.00003181,0.00001911,-0.00003810,0.00004954,-0.00019655,0.000
 17951,0.00139364,0.00050510,-0.00147843,0.00006760,0.00011118,0.000273
 60,0.00004342,-0.00000572,-0.00000414,0.00006556,-0.00002523,-0.000042
 72,-0.00002891,-0.00000954,-0.00001137,0.00011996,-0.00032471,-0.00013
 650,0.00070721,0.00044016,0.00097888,0.00000753,0.00000671,0.00000239,
 0.00002068,-0.00009080,-0.00023739,0.00090189,0.00011308,0.00044850,0.
 00042957,-0.00028449,0.00057843,0.36963820,0.00002822,0.00034354,-0.00
 021435,-0.00039513,-0.00063598,-0.00007071,-0.00106639,0.00026431,-0.0
 0122774,0.00049349,-0.00004998,0.00028321,0.00009177,-0.00007640,0.000
 00167,-0.02542181,-0.00001689,0.00777335,0.00167302,0.00328482,-0.0008
 1051,-0.00040243,-0.00020949,-0.00011759,0.00034367,0.00004074,0.00006
 603,-0.00028315,-0.00029795,-0.00026578,0.00000620,0.00003936,-0.00001
 662,0.00451525,0.00142489,0.00394970,0.03578338,-0.01529644,-0.0173795
 0,-0.01983383,-0.04332253,0.00729873,-0.00698665,0.00377849,-0.0019607
 6,0.00043398,-0.00048541,0.00095460,0.00017538,-0.00012826,-0.00000983
 ,-0.00034264,0.00020534,0.00032090,0.00014755,-0.00006461,-0.00110284,
 0.00002045,0.00003123,0.00010122,-0.00002072,0.00005932,-0.00007176,-0
 .00000262,-0.00000156,0.00000393,-0.00007643,0.00006205,-0.00008072,0.
 00007288,-0.00003467,0.00006665,-0.00003846,-0.00002187,-0.00002828,-0
 .00004425,0.00015588,0.00009488,0.00000552,-0.00002260,-0.00014115,0.0
 0000373,-0.00004812,0.00010293,0.00002194,0.00000781,-0.00005779,-0.00
 000073,0.00000132,0.00001103,-0.00000237,0.00000044,-0.00000540,-0.000
 01135,-0.00000550,0.00000052,-0.00001176,-0.00004089,0.00001158,0.0004
 3583,0.00014145,-0.00009319,-0.00000594,-0.00003135,-0.00000295,0.0000
 2085,-0.00002412,0.00000574,0.00002553,-0.00001078,-0.00002710,0.00001
 433,-0.00001116,0.00002125,-0.00036934,-0.00001180,-0.00007888,-0.0012
 7140,0.00002182,-0.00012155,-0.00001669,0.00000631,-0.00000180,-0.0000
 1476,-0.00014301,0.00004477,0.00056118,0.00009971,0.00039819,-0.000388
 33,-0.00347013,0.00285732,0.01213303,0.05449269,-0.00006094,-0.0000345
 2,-0.00023903,-0.00020747,0.00010512,-0.00013512,0.00186711,0.00001641
 ,0.00093670,-0.00063277,-0.00007276,0.00004900,-0.00002616,-0.00004206
 ,0.00001697,0.02375728,0.00193687,-0.00264145,-0.00214900,-0.00057861,
 0.00139090,-0.00023472,0.00015273,-0.00027332,0.00008533,-0.00006263,0
 .00004650,-0.00013350,-0.00013307,-0.00015367,0.00001970,0.00002324,-0
 .00000529,0.00323344,-0.00007510,0.00229486,0.01208757,-0.00822707,-0.
 00289392,0.07395854,0.00939007,-0.06110192,-0.03643358,-0.00345446,-0.
 01094351,-0.00623221,-0.00156772,0.00512479,0.00031982,0.00015841,-0.0
 0042426,0.00006869,0.00010290,0.00023395,-0.00012502,-0.00024850,-0.00
 048310,0.00000211,0.00009503,0.00007730,0.00001582,0.00004648,-0.00004
 263,-0.00000815,0.00000411,-0.00000678,-0.00006752,0.00007357,0.000067
 79,0.00007069,-0.00013613,0.00013518,0.00001807,-0.00003219,-0.0000748
 9,-0.00004392,-0.00010675,-0.00004237,0.00012882,0.00004334,-0.0001147
 7,-0.00001631,-0.00007352,0.00006323,0.00001682,0.00001831,-0.00003433
 ,0.00000022,0.00000150,0.00000671,-0.00000238,0.00000061,0.00000303,0.
 00001855,0.00001737,-0.00004525,0.00020945,-0.00013214,0.00007096,0.00
 149916,0.00014635,-0.00001730,0.00015890,0.00007495,0.00010064,0.00001
 214,-0.00000920,-0.00000010,0.00001896,-0.00003572,-0.00002765,0.00000
 261,0.00001750,0.00000241,-0.00022406,0.00000947,-0.00005049,-0.000762
 24,-0.00017887,-0.00016155,-0.00002732,0.00000316,-0.00000347,-0.00014
 986,0.00001490,0.00017733,-0.00060490,0.00014744,-0.00030216,0.0002940
 9,0.00308262,-0.00256482,-0.06972183,-0.00048144,0.07198490\\0.0106711
 0,-0.00993865,-0.01972160,-0.00999834,-0.00470640,-0.02967271,0.005376
 39,-0.04643886,0.03413451,-0.00043729,0.01059654,0.02065422,0.00168513
 ,-0.02591968,-0.01668854,-0.01361454,0.01122912,-0.01998727,0.01342456
 ,0.00678246,0.01863168,0.00470804,0.01557261,0.01568975,-0.00914571,0.
 03006296,-0.01250585,0.00800255,0.01092042,0.00241384,0.00656584,-0.03
 104620,0.00700037,-0.00197938,0.03593185,0.03705423,0.00673440,-0.0202
 4269,0.01950452,-0.02902163,-0.00223848,-0.03364774,-0.00832949,0.0082
 4089,-0.00530570,0.02722176,-0.00446942,-0.01154985,-0.01687519,0.0200
 4356,0.03731619,-0.00111854,-0.00878672,0.00230524,0.01030344,0.022502
 39,-0.01576524,-0.01833586,-0.00747183,0.01782236,0.02214576,-0.006989
 03,-0.02216832,-0.01599757,0.00630661,0.02166961,-0.01108203,-0.000689
 34,0.02939497,-0.00101829,-0.03784123,-0.00171879,-0.00602809,0.028726
 01,0.00055637,0.01273156,-0.03721451,-0.00219558,-0.00841556,0.0385757
 5,0.00125035,0.03955796,-0.00718317,-0.02102498,-0.00624672,0.00105176
 ,0.00989820,-0.00271557,-0.00437968,-0.00541656,-0.01977233,-0.0011741
 7,-0.00368388,0.01890049,0.00167702,0.00049805,-0.02414307,-0.00028421
 ,-0.00716932,0.02200041,-0.00113401,0.00172990,-0.02122984,-0.00014337
 ,-0.00295877,-0.00549651,-0.00610376,-0.01479970,0.01853005,0.00114415
 ,-0.00116746,0.00314945,0.00871482,-0.01850536,-0.02090644,-0.00497462
 ,-0.00439137,0.01986090,-0.00136536,-0.00471190,-0.00341790,0.00724654
 ,0.00066187,-0.02011835,0.00100340,0.00036435,0.02437934,-0.00070845,-
 0.00196160,-0.02072049,0.00239089,0.00365527,0.02021558,0.00272409,-0.
 00548774\\\@


 ... IT CAN BE VERY DIFFICULT, IN THESE COMPLEX TIMES,
 TO UNDERSTAND JUST HOW SCIENTISTS DO WHAT THEY DO.

                     DON MOSER IN THE FEBRUARY 1979 SMITHSONIAN
 Job cpu time:  0 days 12 hours 52 minutes 51.9 seconds.
 File lengths (MBytes):  RWF=   1324 Int=      0 D2E=      0 Chk=     19 Scr=      1
 Normal termination of Gaussian 09 at Tue Mar  1 03:16:30 2016.
Gaussian '09 finished on node010 at Tue Mar  1 03:16:30 EST 2016.
