Gaussian '09 started on node013 at Wed Apr  1 15:04:04 EDT 2015.
 Entering Gaussian System, Link 0=/usr/local/gaussian/g09/g09
 Initial command:
 /usr/local/gaussian/g09/l1.exe /home/srmcgrat/gaussian/glucose/beta/opt/gaussian5314/Gau-5350.inp -scrdir=/home/srmcgrat/gaussian/glucose/beta/opt/gaussian5314/
 Entering Link 1 = /usr/local/gaussian/g09/l1.exe PID=      5352.
  
 Copyright (c) 1988,1990,1992,1993,1995,1998,2003,2009,2010,
            Gaussian, Inc.  All Rights Reserved.
  
 This is part of the Gaussian(R) 09 program.  It is based on
 the Gaussian(R) 03 system (copyright 2003, Gaussian, Inc.),
 the Gaussian(R) 98 system (copyright 1998, Gaussian, Inc.),
 the Gaussian(R) 94 system (copyright 1995, Gaussian, Inc.),
 the Gaussian 92(TM) system (copyright 1992, Gaussian, Inc.),
 the Gaussian 90(TM) system (copyright 1990, Gaussian, Inc.),
 the Gaussian 88(TM) system (copyright 1988, Gaussian, Inc.),
 the Gaussian 86(TM) system (copyright 1986, Carnegie Mellon
 University), and the Gaussian 82(TM) system (copyright 1983,
 Carnegie Mellon University). Gaussian is a federally registered
 trademark of Gaussian, Inc.
  
 This software contains proprietary and confidential information,
 including trade secrets, belonging to Gaussian, Inc.
  
 This software is provided under written license and may be
 used, copied, transmitted, or stored only in accord with that
 written license.
  
 The following legend is applicable only to US Government
 contracts under FAR:
  
                    RESTRICTED RIGHTS LEGEND
  
 Use, reproduction and disclosure by the US Government is
 subject to restrictions as set forth in subparagraphs (a)
 and (c) of the Commercial Computer Software - Restricted
 Rights clause in FAR 52.227-19.
  
 Gaussian, Inc.
 340 Quinnipiac St., Bldg. 40, Wallingford CT 06492
  
  
 ---------------------------------------------------------------
 Warning -- This program may not be used in any manner that
 competes with the business of Gaussian, Inc. or will provide
 assistance to any competitor of Gaussian, Inc.  The licensee
 of this program is prohibited from giving any competitor of
 Gaussian, Inc. access to this program.  By using this program,
 the user acknowledges that Gaussian, Inc. is engaged in the
 business of creating and licensing software in the field of
 computational chemistry and represents and warrants to the
 licensee that it is not a competitor of Gaussian, Inc. and that
 it will not use this program in any manner prohibited above.
 ---------------------------------------------------------------
  

 Cite this work as:
 Gaussian 09, Revision B.01,
 M. J. Frisch, G. W. Trucks, H. B. Schlegel, G. E. Scuseria, 
 M. A. Robb, J. R. Cheeseman, G. Scalmani, V. Barone, B. Mennucci, 
 G. A. Petersson, H. Nakatsuji, M. Caricato, X. Li, H. P. Hratchian, 
 A. F. Izmaylov, J. Bloino, G. Zheng, J. L. Sonnenberg, M. Hada, 
 M. Ehara, K. Toyota, R. Fukuda, J. Hasegawa, M. Ishida, T. Nakajima, 
 Y. Honda, O. Kitao, H. Nakai, T. Vreven, J. A. Montgomery, Jr., 
 J. E. Peralta, F. Ogliaro, M. Bearpark, J. J. Heyd, E. Brothers, 
 K. N. Kudin, V. N. Staroverov, T. Keith, R. Kobayashi, J. Normand, 
 K. Raghavachari, A. Rendell, J. C. Burant, S. S. Iyengar, J. Tomasi, 
 M. Cossi, N. Rega, J. M. Millam, M. Klene, J. E. Knox, J. B. Cross, 
 V. Bakken, C. Adamo, J. Jaramillo, R. Gomperts, R. E. Stratmann, 
 O. Yazyev, A. J. Austin, R. Cammi, C. Pomelli, J. W. Ochterski, 
 R. L. Martin, K. Morokuma, V. G. Zakrzewski, G. A. Voth, 
 P. Salvador, J. J. Dannenberg, S. Dapprich, A. D. Daniels, 
 O. Farkas, J. B. Foresman, J. V. Ortiz, J. Cioslowski, 
 and D. J. Fox, Gaussian, Inc., Wallingford CT, 2010.
 
 ******************************************
 Gaussian 09:  EM64L-G09RevB.01 12-Aug-2010
                 1-Apr-2015 
 ******************************************
 %chk=beta-d-glucose-opt.chk
 ----------------------------------------------------------------------
 # opt freq=raman b3lyp/6-31+g(2df,p) scrf=(smd,solvent=water) geom=con
 nectivity
 ----------------------------------------------------------------------
 1/14=-1,18=20,19=15,26=3,38=1,57=2/1,3;
 2/9=110,12=2,17=6,18=5,40=1/2;
 3/5=1,6=6,7=114,11=2,16=1,25=1,30=1,70=32201,71=1,72=1,74=-5/1,2,3;
 4//1;
 5/5=2,38=5,53=1/2;
 6/7=2,8=2,9=2,10=2,28=1/1;
 7//1,2,3,16;
 1/14=-1,18=20,19=15/3(2);
 2/9=110/2;
 99//99;
 2/9=110/2;
 3/5=1,6=6,7=114,11=2,16=1,25=1,30=1,70=32205,71=1,72=1,74=-5/1,2,3;
 4/5=5,16=3/1;
 5/5=2,38=5,53=1/2;
 7//1,2,3,16;
 1/14=-1,18=20,19=15/3(-5);
 2/9=110/2;
 6/7=2,8=2,9=2,10=2,19=2,28=1/1;
 99/9=1/99;
 ------------------------------
 beta-d-glucose raman optimized
 ------------------------------
 Symbolic Z-matrix:
 Charge =  0 Multiplicity = 1
 O                    -0.6679    1.1587    0.257 
 O                    -0.887    -2.4483   -0.3388 
 O                     1.8623   -2.0693    0.4696 
 O                     2.8609    0.5414   -0.4619 
 O                     1.1222    2.6552    0.2574 
 O                    -3.3742    0.9717   -0.1865 
 C                    -0.3727   -1.247     0.23 
 C                     1.0856   -1.0709   -0.194 
 C                    -1.2211   -0.0621   -0.2375 
 C                     1.6082    0.3151    0.1839 
 C                     0.6388    1.4132   -0.2534 
 C                    -2.655    -0.1577    0.274 
 H                    -0.4248   -1.3522    1.3206 
 H                     1.2066   -1.2487   -1.2697 
 H                    -1.2548   -0.0098   -1.3343 
 H                     1.7952    0.3598    1.2636 
 H                     0.5967    1.5141   -1.344 
 H                    -2.6916   -0.1535    1.3685 
 H                    -3.1564   -1.0581   -0.0922 
 H                    -0.8514   -2.3615   -1.3066 
 H                     1.4973   -2.9356    0.22 
 H                     2.7165    0.4989   -1.4227 
 H                     1.4876    2.5033    1.1448 
 H                    -2.9192    1.7652    0.144 
 

 GradGradGradGradGradGradGradGradGradGradGradGradGradGradGradGradGradGrad
 Berny optimization.
 Initialization pass.
                           ----------------------------
                           !    Initial Parameters    !
                           ! (Angstroms and Degrees)  !
 --------------------------                            --------------------------
 ! Name  Definition              Value          Derivative Info.                !
 --------------------------------------------------------------------------------
 ! R1    R(1,9)                  1.4286         estimate D2E/DX2                !
 ! R2    R(1,11)                 1.4257         estimate D2E/DX2                !
 ! R3    R(2,7)                  1.4252         estimate D2E/DX2                !
 ! R4    R(2,20)                 0.9723         estimate D2E/DX2                !
 ! R5    R(3,8)                  1.4284         estimate D2E/DX2                !
 ! R6    R(3,21)                 0.9726         estimate D2E/DX2                !
 ! R7    R(4,10)                 1.4274         estimate D2E/DX2                !
 ! R8    R(4,22)                 0.9725         estimate D2E/DX2                !
 ! R9    R(5,11)                 1.4273         estimate D2E/DX2                !
 ! R10   R(5,23)                 0.9716         estimate D2E/DX2                !
 ! R11   R(6,12)                 1.4159         estimate D2E/DX2                !
 ! R12   R(6,24)                 0.9726         estimate D2E/DX2                !
 ! R13   R(7,8)                  1.5289         estimate D2E/DX2                !
 ! R14   R(7,9)                  1.5305         estimate D2E/DX2                !
 ! R15   R(7,13)                 1.0969         estimate D2E/DX2                !
 ! R16   R(8,10)                 1.5287         estimate D2E/DX2                !
 ! R17   R(8,14)                 1.097          estimate D2E/DX2                !
 ! R18   R(9,12)                 1.5254         estimate D2E/DX2                !
 ! R19   R(9,15)                 1.0986         estimate D2E/DX2                !
 ! R20   R(10,11)                1.5287         estimate D2E/DX2                !
 ! R21   R(10,16)                1.0967         estimate D2E/DX2                !
 ! R22   R(11,17)                1.0961         estimate D2E/DX2                !
 ! R23   R(12,18)                1.0951         estimate D2E/DX2                !
 ! R24   R(12,19)                1.0937         estimate D2E/DX2                !
 ! A1    A(9,1,11)             112.552          estimate D2E/DX2                !
 ! A2    A(7,2,20)             107.986          estimate D2E/DX2                !
 ! A3    A(8,3,21)             107.4137         estimate D2E/DX2                !
 ! A4    A(10,4,22)            108.0435         estimate D2E/DX2                !
 ! A5    A(11,5,23)            108.5532         estimate D2E/DX2                !
 ! A6    A(12,6,24)            107.6155         estimate D2E/DX2                !
 ! A7    A(2,7,8)              109.3061         estimate D2E/DX2                !
 ! A8    A(2,7,9)              109.3071         estimate D2E/DX2                !
 ! A9    A(2,7,13)             107.3875         estimate D2E/DX2                !
 ! A10   A(8,7,9)              110.7852         estimate D2E/DX2                !
 ! A11   A(8,7,13)             109.3956         estimate D2E/DX2                !
 ! A12   A(9,7,13)             110.587          estimate D2E/DX2                !
 ! A13   A(3,8,7)              108.0171         estimate D2E/DX2                !
 ! A14   A(3,8,10)             109.4496         estimate D2E/DX2                !
 ! A15   A(3,8,14)             106.3968         estimate D2E/DX2                !
 ! A16   A(7,8,10)             111.2204         estimate D2E/DX2                !
 ! A17   A(7,8,14)             111.0075         estimate D2E/DX2                !
 ! A18   A(10,8,14)            110.5882         estimate D2E/DX2                !
 ! A19   A(1,9,7)              109.95           estimate D2E/DX2                !
 ! A20   A(1,9,12)             107.5471         estimate D2E/DX2                !
 ! A21   A(1,9,15)             108.4685         estimate D2E/DX2                !
 ! A22   A(7,9,12)             111.7243         estimate D2E/DX2                !
 ! A23   A(7,9,15)             111.0287         estimate D2E/DX2                !
 ! A24   A(12,9,15)            107.9948         estimate D2E/DX2                !
 ! A25   A(4,10,8)             109.3849         estimate D2E/DX2                !
 ! A26   A(4,10,11)            108.2535         estimate D2E/DX2                !
 ! A27   A(4,10,16)            106.8168         estimate D2E/DX2                !
 ! A28   A(8,10,11)            111.3326         estimate D2E/DX2                !
 ! A29   A(8,10,16)            109.7929         estimate D2E/DX2                !
 ! A30   A(11,10,16)           111.1303         estimate D2E/DX2                !
 ! A31   A(1,11,5)             109.7318         estimate D2E/DX2                !
 ! A32   A(1,11,10)            110.522          estimate D2E/DX2                !
 ! A33   A(1,11,17)            109.7205         estimate D2E/DX2                !
 ! A34   A(5,11,10)            107.9347         estimate D2E/DX2                !
 ! A35   A(5,11,17)            106.7981         estimate D2E/DX2                !
 ! A36   A(10,11,17)           112.0322         estimate D2E/DX2                !
 ! A37   A(6,12,9)             108.5675         estimate D2E/DX2                !
 ! A38   A(6,12,18)            107.7587         estimate D2E/DX2                !
 ! A39   A(6,12,19)            108.355          estimate D2E/DX2                !
 ! A40   A(9,12,18)            111.4881         estimate D2E/DX2                !
 ! A41   A(9,12,19)            111.7316         estimate D2E/DX2                !
 ! A42   A(18,12,19)           108.8122         estimate D2E/DX2                !
 ! D1    D(11,1,9,7)            63.2036         estimate D2E/DX2                !
 ! D2    D(11,1,9,12)         -174.942          estimate D2E/DX2                !
 ! D3    D(11,1,9,15)          -58.3773         estimate D2E/DX2                !
 ! D4    D(9,1,11,5)           178.9059         estimate D2E/DX2                !
 ! D5    D(9,1,11,10)          -62.1752         estimate D2E/DX2                !
 ! D6    D(9,1,11,17)           61.8586         estimate D2E/DX2                !
 ! D7    D(20,2,7,8)           -61.8618         estimate D2E/DX2                !
 ! D8    D(20,2,7,9)            59.5473         estimate D2E/DX2                !
 ! D9    D(20,2,7,13)          179.5558         estimate D2E/DX2                !
 ! D10   D(21,3,8,7)            57.9181         estimate D2E/DX2                !
 ! D11   D(21,3,8,10)          179.1504         estimate D2E/DX2                !
 ! D12   D(21,3,8,14)          -61.3347         estimate D2E/DX2                !
 ! D13   D(22,4,10,8)           60.8116         estimate D2E/DX2                !
 ! D14   D(22,4,10,11)         -60.6634         estimate D2E/DX2                !
 ! D15   D(22,4,10,16)         179.5855         estimate D2E/DX2                !
 ! D16   D(23,5,11,1)           82.4261         estimate D2E/DX2                !
 ! D17   D(23,5,11,10)         -38.0744         estimate D2E/DX2                !
 ! D18   D(23,5,11,17)        -158.7095         estimate D2E/DX2                !
 ! D19   D(24,6,12,9)          -58.4078         estimate D2E/DX2                !
 ! D20   D(24,6,12,18)          62.4786         estimate D2E/DX2                !
 ! D21   D(24,6,12,19)        -179.9397         estimate D2E/DX2                !
 ! D22   D(2,7,8,3)            -69.8083         estimate D2E/DX2                !
 ! D23   D(2,7,8,10)           170.0656         estimate D2E/DX2                !
 ! D24   D(2,7,8,14)            46.4794         estimate D2E/DX2                !
 ! D25   D(9,7,8,3)            169.6817         estimate D2E/DX2                !
 ! D26   D(9,7,8,10)            49.5556         estimate D2E/DX2                !
 ! D27   D(9,7,8,14)           -74.0306         estimate D2E/DX2                !
 ! D28   D(13,7,8,3)            47.5158         estimate D2E/DX2                !
 ! D29   D(13,7,8,10)          -72.6102         estimate D2E/DX2                !
 ! D30   D(13,7,8,14)          163.8035         estimate D2E/DX2                !
 ! D31   D(2,7,9,1)           -176.3956         estimate D2E/DX2                !
 ! D32   D(2,7,9,12)            64.2714         estimate D2E/DX2                !
 ! D33   D(2,7,9,15)           -56.3561         estimate D2E/DX2                !
 ! D34   D(8,7,9,1)            -55.8862         estimate D2E/DX2                !
 ! D35   D(8,7,9,12)          -175.2193         estimate D2E/DX2                !
 ! D36   D(8,7,9,15)            64.1533         estimate D2E/DX2                !
 ! D37   D(13,7,9,1)            65.581          estimate D2E/DX2                !
 ! D38   D(13,7,9,12)          -53.7521         estimate D2E/DX2                !
 ! D39   D(13,7,9,15)         -174.3795         estimate D2E/DX2                !
 ! D40   D(3,8,10,4)            72.551          estimate D2E/DX2                !
 ! D41   D(3,8,10,11)         -167.8528         estimate D2E/DX2                !
 ! D42   D(3,8,10,16)          -44.3586         estimate D2E/DX2                !
 ! D43   D(7,8,10,4)          -168.1746         estimate D2E/DX2                !
 ! D44   D(7,8,10,11)          -48.5785         estimate D2E/DX2                !
 ! D45   D(7,8,10,16)           74.9157         estimate D2E/DX2                !
 ! D46   D(14,8,10,4)          -44.3496         estimate D2E/DX2                !
 ! D47   D(14,8,10,11)          75.2465         estimate D2E/DX2                !
 ! D48   D(14,8,10,16)        -161.2593         estimate D2E/DX2                !
 ! D49   D(1,9,12,6)            58.7897         estimate D2E/DX2                !
 ! D50   D(1,9,12,18)          -59.767          estimate D2E/DX2                !
 ! D51   D(1,9,12,19)          178.2289         estimate D2E/DX2                !
 ! D52   D(7,9,12,6)           179.5335         estimate D2E/DX2                !
 ! D53   D(7,9,12,18)           60.9768         estimate D2E/DX2                !
 ! D54   D(7,9,12,19)          -61.0274         estimate D2E/DX2                !
 ! D55   D(15,9,12,6)          -58.0848         estimate D2E/DX2                !
 ! D56   D(15,9,12,18)        -176.6415         estimate D2E/DX2                !
 ! D57   D(15,9,12,19)          61.3543         estimate D2E/DX2                !
 ! D58   D(4,10,11,1)          174.1502         estimate D2E/DX2                !
 ! D59   D(4,10,11,5)          -65.8457         estimate D2E/DX2                !
 ! D60   D(4,10,11,17)          51.4555         estimate D2E/DX2                !
 ! D61   D(8,10,11,1)           53.8843         estimate D2E/DX2                !
 ! D62   D(8,10,11,5)          173.8884         estimate D2E/DX2                !
 ! D63   D(8,10,11,17)         -68.8104         estimate D2E/DX2                !
 ! D64   D(16,10,11,1)         -68.8447         estimate D2E/DX2                !
 ! D65   D(16,10,11,5)          51.1593         estimate D2E/DX2                !
 ! D66   D(16,10,11,17)        168.4605         estimate D2E/DX2                !
 --------------------------------------------------------------------------------
 Trust Radius=3.00D-01 FncErr=1.00D-07 GrdErr=1.00D-06
 Number of steps in this run=    142 maximum allowed number of steps=    144.
 GradGradGradGradGradGradGradGradGradGradGradGradGradGradGradGradGradGrad

                          Input orientation:                          
 ---------------------------------------------------------------------
 Center     Atomic      Atomic             Coordinates (Angstroms)
 Number     Number       Type             X           Y           Z
 ---------------------------------------------------------------------
      1          8           0       -0.667900    1.158700    0.257000
      2          8           0       -0.887000   -2.448300   -0.338800
      3          8           0        1.862300   -2.069300    0.469600
      4          8           0        2.860900    0.541400   -0.461900
      5          8           0        1.122200    2.655200    0.257400
      6          8           0       -3.374200    0.971700   -0.186500
      7          6           0       -0.372700   -1.247000    0.230000
      8          6           0        1.085600   -1.070900   -0.194000
      9          6           0       -1.221100   -0.062100   -0.237500
     10          6           0        1.608200    0.315100    0.183900
     11          6           0        0.638800    1.413200   -0.253400
     12          6           0       -2.655000   -0.157700    0.274000
     13          1           0       -0.424800   -1.352200    1.320600
     14          1           0        1.206600   -1.248700   -1.269700
     15          1           0       -1.254800   -0.009800   -1.334300
     16          1           0        1.795200    0.359800    1.263600
     17          1           0        0.596700    1.514100   -1.344000
     18          1           0       -2.691600   -0.153500    1.368500
     19          1           0       -3.156400   -1.058100   -0.092200
     20          1           0       -0.851400   -2.361500   -1.306600
     21          1           0        1.497300   -2.935600    0.220000
     22          1           0        2.716500    0.498900   -1.422700
     23          1           0        1.487600    2.503300    1.144800
     24          1           0       -2.919200    1.765200    0.144000
 ---------------------------------------------------------------------
                    Distance matrix (angstroms):
                    1          2          3          4          5
     1  O    0.000000
     2  O    3.662435   0.000000
     3  O    4.106957   2.890640   0.000000
     4  O    3.653807   4.795854   2.946294   0.000000
     5  O    2.333232   5.517069   4.786823   2.829951   0.000000
     6  O    2.748767   4.231520   6.090901   6.255995   4.821704
     7  C    2.423894   1.425188   2.393493   3.759424   4.178833
     8  C    2.872156   2.410259   1.428436   2.413083   3.753521
     9  C    1.428605   2.411604   3.746491   4.132468   3.622113
    10  C    2.428505   3.759736   2.414861   1.427420   2.391164
    11  C    1.425743   4.152896   3.761315   2.396088   1.427290
    12  C    2.383645   2.957735   4.909020   5.608515   4.709556
    13  H    2.737693   2.041733   2.543474   4.190328   4.425252
    14  H    3.411765   2.586267   2.031869   2.567822   4.192803
    15  H    2.059631   2.659432   4.148724   4.243099   3.909714
    16  H    2.778191   4.200870   2.556456   2.036184   2.595039
    17  H    2.070923   4.348840   4.210896   2.617412   2.035373
    18  H    2.655685   3.381946   5.021585   5.887572   4.865019
    19  H    3.350936   2.672760   5.150291   6.237225   5.676023
    20  H    3.856206   0.972337   3.256445   4.787642   5.613241
    21  H    4.631712   2.496919   0.972626   3.796567   5.603494
    22  H    3.835478   4.779753   3.302440   0.972520   3.164515
    23  H    2.691156   5.688421   4.637345   2.883832   0.971632
    24  H    2.334301   4.702820   6.137764   5.939222   4.139791
                    6          7          8          9         10
     6  O    0.000000
     7  C    3.755676   0.000000
     8  C    4.905312   1.528864   0.000000
     9  C    2.388971   1.530466   2.518022   0.000000
    10  C    5.039110   2.523142   1.528697   2.885272   0.000000
    11  C    4.037768   2.886775   2.524661   2.374024   1.528657
    12  C    1.415928   2.529309   3.878794   1.525399   4.290283
    13  H    4.046087   1.096900   2.157418   2.173966   2.864448
    14  H    5.204539   2.177910   1.096989   2.892608   2.172488
    15  H    2.602430   2.180779   2.811350   1.098563   3.256879
    16  H    5.403694   2.889624   2.162182   3.395492   1.096686
    17  H    4.171577   3.322783   2.871193   2.648234   2.189797
    18  H    2.037165   2.805213   4.189304   2.179440   4.484545
    19  H    2.043628   2.808644   4.243241   2.181402   4.966218
    20  H    4.327744   1.957653   2.579825   2.562595   3.928792
    21  H    6.258095   2.519597   1.953970   3.981960   3.252791
    22  H    6.232845   3.914427   2.575618   4.150194   1.960427
    23  H    5.268326   4.285128   3.837824   3.978578   2.392925
    24  H    0.972573   3.945302   4.918956   2.523512   4.754128
                   11         12         13         14         15
    11  C    0.000000
    12  C    3.687139   0.000000
    13  H    3.355020   2.737881   0.000000
    14  H    2.905335   4.299447   3.062978   0.000000
    15  H    2.603650   2.137537   3.088597   2.756363   0.000000
    16  H    2.179037   4.588180   2.804032   3.057995   4.023455
    17  H    1.096066   3.998299   4.044655   2.830294   2.398003
    18  H    4.022023   1.095120   2.564675   4.832755   3.064339
    19  H    4.531760   1.093721   3.089359   4.523119   2.501565
    20  H    4.192647   3.256993   2.846551   2.339882   2.386209
    21  H    4.457936   4.996122   2.722672   2.269217   4.306995
    22  H    2.553438   5.671237   4.562897   2.314587   4.004724
    23  H    1.965641   5.000035   4.307326   4.470601   4.470164
    24  H    3.597387   1.945314   4.162283   5.301355   2.847143
                   16         17         18         19         20
    16  H    0.000000
    17  H    3.093281   0.000000
    18  H    4.517284   4.577277   0.000000
    19  H    5.326066   4.719002   1.779883   0.000000
    20  H    4.584309   4.137471   3.926546   2.913184   0.000000
    21  H    3.469511   4.801771   5.158102   5.027862   2.859456
    22  H    2.843299   2.351675   6.120782   6.219762   4.574416
    23  H    2.168715   2.822471   4.957251   5.981678   5.928454
    24  H    5.045218   3.826062   2.287490   2.843075   4.838356
                   21         22         23         24
    21  H    0.000000
    22  H    3.997587   0.000000
    23  H    5.516972   3.481360   0.000000
    24  H    6.450486   5.984913   4.578895   0.000000
 Stoichiometry    C6H12O6
 Framework group  C1[X(C6H12O6)]
 Deg. of freedom    66
 Full point group                 C1      NOp   1
 Largest Abelian subgroup         C1      NOp   1
 Largest concise Abelian subgroup C1      NOp   1
                         Standard orientation:                         
 ---------------------------------------------------------------------
 Center     Atomic      Atomic             Coordinates (Angstroms)
 Number     Number       Type             X           Y           Z
 ---------------------------------------------------------------------
      1          8           0       -0.673835   -1.169313   -0.243184
      2          8           0       -0.871023    2.449505    0.284739
      3          8           0        1.870199    2.041413   -0.536825
      4          8           0        2.863258   -0.555843    0.437210
      5          8           0        1.108980   -2.674410   -0.228225
      6          8           0       -3.375755   -0.960404    0.216928
      7          6           0       -0.366852    1.234967   -0.264687
      8          6           0        1.093761    1.059806    0.151669
      9          6           0       -1.217375    0.063487    0.231874
     10          6           0        1.606792   -0.335771   -0.203407
     11          6           0        0.635464   -1.420447    0.262199
     12          6           0       -2.654642    0.156363   -0.270597
     13          1           0       -0.426728    1.319464   -1.356687
     14          1           0        1.223785    1.257626    1.222811
     15          1           0       -1.242993    0.032425    1.329700
     16          1           0        1.785367   -0.402122   -1.283420
     17          1           0        0.601164   -1.500177    1.354824
     18          1           0       -2.699575    0.131329   -1.364509
     19          1           0       -3.148902    1.066105    0.081964
     20          1           0       -0.828491    2.381129    1.253736
     21          1           0        1.511283    2.914147   -0.301206
     22          1           0        2.726367   -0.494186    1.398071
     23          1           0        1.468356   -2.541393   -1.121099
     24          1           0       -2.927107   -1.762352   -0.101649
 ---------------------------------------------------------------------
 Rotational constants (GHZ):      1.1532378      0.7910001      0.4977188
 Standard basis: 6-31+G(2df,p) (6D, 7F)
 There are   444 symmetry adapted basis functions of A   symmetry.
 Integral buffers will be    131072 words long.
 Raffenetti 2 integral format.
 Two-electron integral symmetry is turned on.
   444 basis functions,   660 primitive gaussians,   480 cartesian basis functions
    48 alpha electrons       48 beta electrons
       nuclear repulsion energy       823.9820461854 Hartrees.
 NAtoms=   24 NActive=   24 NUniq=   24 SFac= 1.00D+00 NAtFMM=   50 NAOKFM=F Big=F
 ------------------------------------------------------------------------------
 Polarizable Continuum Model (PCM)
 =================================
 Model                : PCM.
 Atomic radii         : SMD-Coulomb.
 Polarization charges : Total charges.
 Charge compensation  : None.
 Solution method      : Matrix inversion.
 Cavity type          : VdW (van der Waals Surface) (Alpha=1.000).
 Cavity algorithm     : GePol (No added spheres)
                        Default sphere list used, NSphG=   24.
                        Lebedev-Laikov grids with approx.  5.0 points / Ang**2.
                        Smoothing algorithm: Karplus/York (Gamma=1.0000).
                        Polarization charges: spherical gaussians, with
                                              point-specific exponents (IZeta= 3).
                        Self-potential: point-specific (ISelfS= 7).
                        Self-field    : sphere-specific E.n sum rule (ISelfD= 2).
 1st derivatives      : Analytical E(r).r(x)/FMM algorithm (CHGder, D1EAlg=3).
                        Cavity 1st derivative terms included.
 Solvent              : Water, Eps=  78.355300 Eps(inf)=   1.777849
 ------------------------------------------------------------------------------
 ------------------------------------------------------------------------------
 Atomic radii for non-electrostatic terms: SMD-CDS.
 ------------------------------------------------------------------------------
 Nuclear repulsion after PCM non-electrostatic terms =      823.9881458908 Hartrees.
 One-electron integrals computed using PRISM.
 NBasis=   444 RedAO= T  NBF=   444
 NBsUse=   444 1.00D-06 NBFU=   444
 Harris functional with IExCor=  402 diagonalized for initial guess.
 ExpMin= 4.38D-02 ExpMax= 5.48D+03 ExpMxC= 8.25D+02 IAcc=2 IRadAn=         0 AccDes= 0.00D+00
 HarFok:  IExCor=  402 AccDes= 0.00D+00 IRadAn=         0 IDoV= 1
 ScaDFX=  1.000000  1.000000  1.000000  1.000000
 FoFCou: FMM=F IPFlag=           0 FMFlag=      100000 FMFlg1=           0
         NFxFlg=           0 DoJE=T BraDBF=F KetDBF=T FulRan=T
         Omega=  0.000000  0.000000  1.000000  0.000000  0.000000 ICntrl=     500 IOpCl=  0
         NMat0=    1 NMatS0=    1 NMatT0=    0 NMatD0=    1 NMtDS0=    0 NMtDT0=    0
         I1Cent=           4 NGrid=           0.
 Petite list used in FoFCou.
 Initial guess orbital symmetries:
       Occupied  (A) (A) (A) (A) (A) (A) (A) (A) (A) (A) (A) (A)
                 (A) (A) (A) (A) (A) (A) (A) (A) (A) (A) (A) (A)
                 (A) (A) (A) (A) (A) (A) (A) (A) (A) (A) (A) (A)
                 (A) (A) (A) (A) (A) (A) (A) (A) (A) (A) (A) (A)
       Virtual   (A) (A) (A) (A) (A) (A) (A) (A) (A) (A) (A) (A)
                 (A) (A) (A) (A) (A) (A) (A) (A) (A) (A) (A) (A)
                 (A) (A) (A) (A) (A) (A) (A) (A) (A) (A) (A) (A)
                 (A) (A) (A) (A) (A) (A) (A) (A) (A) (A) (A) (A)
                 (A) (A) (A) (A) (A) (A) (A) (A) (A) (A) (A) (A)
                 (A) (A) (A) (A) (A) (A) (A) (A) (A) (A) (A) (A)
                 (A) (A) (A) (A) (A) (A) (A) (A) (A) (A) (A) (A)
                 (A) (A) (A) (A) (A) (A) (A) (A) (A) (A) (A) (A)
                 (A) (A) (A) (A) (A) (A) (A) (A) (A) (A) (A) (A)
                 (A) (A) (A) (A) (A) (A) (A) (A) (A) (A) (A) (A)
                 (A) (A) (A) (A) (A) (A) (A) (A) (A) (A) (A) (A)
                 (A) (A) (A) (A) (A) (A) (A) (A) (A) (A) (A) (A)
                 (A) (A) (A) (A) (A) (A) (A) (A) (A) (A) (A) (A)
                 (A) (A) (A) (A) (A) (A) (A) (A) (A) (A) (A) (A)
                 (A) (A) (A) (A) (A) (A) (A) (A) (A) (A) (A) (A)
                 (A) (A) (A) (A) (A) (A) (A) (A) (A) (A) (A) (A)
                 (A) (A) (A) (A) (A) (A) (A) (A) (A) (A) (A) (A)
                 (A) (A) (A) (A) (A) (A) (A) (A) (A) (A) (A) (A)
                 (A) (A) (A) (A) (A) (A) (A) (A) (A) (A) (A) (A)
                 (A) (A) (A) (A) (A) (A) (A) (A) (A) (A) (A) (A)
                 (A) (A) (A) (A) (A) (A) (A) (A) (A) (A) (A) (A)
                 (A) (A) (A) (A) (A) (A) (A) (A) (A) (A) (A) (A)
                 (A) (A) (A) (A) (A) (A) (A) (A) (A) (A) (A) (A)
                 (A) (A) (A) (A) (A) (A) (A) (A) (A) (A) (A) (A)
                 (A) (A) (A) (A) (A) (A) (A) (A) (A) (A) (A) (A)
                 (A) (A) (A) (A) (A) (A) (A) (A) (A) (A) (A) (A)
                 (A) (A) (A) (A) (A) (A) (A) (A) (A) (A) (A) (A)
                 (A) (A) (A) (A) (A) (A) (A) (A) (A) (A) (A) (A)
                 (A) (A) (A) (A) (A) (A) (A) (A) (A) (A) (A) (A)
                 (A) (A) (A) (A) (A) (A) (A) (A) (A) (A) (A) (A)
                 (A) (A) (A) (A) (A) (A) (A) (A) (A) (A) (A) (A)
                 (A) (A) (A) (A) (A) (A) (A) (A) (A) (A) (A) (A)
                 (A) (A) (A) (A) (A) (A) (A) (A) (A) (A) (A) (A)
 The electronic state of the initial guess is 1-A.
 Requested convergence on RMS density matrix=1.00D-08 within 128 cycles.
 Requested convergence on MAX density matrix=1.00D-06.
 Requested convergence on             energy=1.00D-06.
 No special actions if energy rises.
 Error on total polarization charges =  0.06708
 SCF Done:  E(RB3LYP) =  -687.297854371     A.U. after   12 cycles
             Convg  =    0.3670D-08             -V/T =  2.0069
 SMD-CDS (non-electrostatic) energy       (kcal/mol) =       3.83
 (included in total energy above)

 **********************************************************************

            Population analysis using the SCF density.

 **********************************************************************

 Orbital symmetries:
       Occupied  (A) (A) (A) (A) (A) (A) (A) (A) (A) (A) (A) (A)
                 (A) (A) (A) (A) (A) (A) (A) (A) (A) (A) (A) (A)
                 (A) (A) (A) (A) (A) (A) (A) (A) (A) (A) (A) (A)
                 (A) (A) (A) (A) (A) (A) (A) (A) (A) (A) (A) (A)
       Virtual   (A) (A) (A) (A) (A) (A) (A) (A) (A) (A) (A) (A)
                 (A) (A) (A) (A) (A) (A) (A) (A) (A) (A) (A) (A)
                 (A) (A) (A) (A) (A) (A) (A) (A) (A) (A) (A) (A)
                 (A) (A) (A) (A) (A) (A) (A) (A) (A) (A) (A) (A)
                 (A) (A) (A) (A) (A) (A) (A) (A) (A) (A) (A) (A)
                 (A) (A) (A) (A) (A) (A) (A) (A) (A) (A) (A) (A)
                 (A) (A) (A) (A) (A) (A) (A) (A) (A) (A) (A) (A)
                 (A) (A) (A) (A) (A) (A) (A) (A) (A) (A) (A) (A)
                 (A) (A) (A) (A) (A) (A) (A) (A) (A) (A) (A) (A)
                 (A) (A) (A) (A) (A) (A) (A) (A) (A) (A) (A) (A)
                 (A) (A) (A) (A) (A) (A) (A) (A) (A) (A) (A) (A)
                 (A) (A) (A) (A) (A) (A) (A) (A) (A) (A) (A) (A)
                 (A) (A) (A) (A) (A) (A) (A) (A) (A) (A) (A) (A)
                 (A) (A) (A) (A) (A) (A) (A) (A) (A) (A) (A) (A)
                 (A) (A) (A) (A) (A) (A) (A) (A) (A) (A) (A) (A)
                 (A) (A) (A) (A) (A) (A) (A) (A) (A) (A) (A) (A)
                 (A) (A) (A) (A) (A) (A) (A) (A) (A) (A) (A) (A)
                 (A) (A) (A) (A) (A) (A) (A) (A) (A) (A) (A) (A)
                 (A) (A) (A) (A) (A) (A) (A) (A) (A) (A) (A) (A)
                 (A) (A) (A) (A) (A) (A) (A) (A) (A) (A) (A) (A)
                 (A) (A) (A) (A) (A) (A) (A) (A) (A) (A) (A) (A)
                 (A) (A) (A) (A) (A) (A) (A) (A) (A) (A) (A) (A)
                 (A) (A) (A) (A) (A) (A) (A) (A) (A) (A) (A) (A)
                 (A) (A) (A) (A) (A) (A) (A) (A) (A) (A) (A) (A)
                 (A) (A) (A) (A) (A) (A) (A) (A) (A) (A) (A) (A)
                 (A) (A) (A) (A) (A) (A) (A) (A) (A) (A) (A) (A)
                 (A) (A) (A) (A) (A) (A) (A) (A) (A) (A) (A) (A)
                 (A) (A) (A) (A) (A) (A) (A) (A) (A) (A) (A) (A)
                 (A) (A) (A) (A) (A) (A) (A) (A) (A) (A) (A) (A)
                 (A) (A) (A) (A) (A) (A) (A) (A) (A) (A) (A) (A)
                 (A) (A) (A) (A) (A) (A) (A) (A) (A) (A) (A) (A)
                 (A) (A) (A) (A) (A) (A) (A) (A) (A) (A) (A) (A)
                 (A) (A) (A) (A) (A) (A) (A) (A) (A) (A) (A) (A)
 The electronic state is 1-A.
 Alpha  occ. eigenvalues --  -19.17013 -19.16930 -19.16164 -19.16026 -19.15637
 Alpha  occ. eigenvalues --  -19.15371 -10.29402 -10.24604 -10.24055 -10.24019
 Alpha  occ. eigenvalues --  -10.23983 -10.23018  -1.08388  -1.04839  -1.04199
 Alpha  occ. eigenvalues --   -1.03079  -1.02059  -1.01542  -0.78535  -0.77050
 Alpha  occ. eigenvalues --   -0.68998  -0.65629  -0.62674  -0.60867  -0.55431
 Alpha  occ. eigenvalues --   -0.53175  -0.52216  -0.51166  -0.50584  -0.48604
 Alpha  occ. eigenvalues --   -0.47319  -0.46368  -0.44067  -0.43086  -0.42197
 Alpha  occ. eigenvalues --   -0.40525  -0.38666  -0.38385  -0.36567  -0.35814
 Alpha  occ. eigenvalues --   -0.34848  -0.33767  -0.32311  -0.31836  -0.30132
 Alpha  occ. eigenvalues --   -0.28941  -0.27675  -0.26347
 Alpha virt. eigenvalues --    0.00841   0.01340   0.01780   0.02020   0.03988
 Alpha virt. eigenvalues --    0.04417   0.04932   0.05034   0.06162   0.06936
 Alpha virt. eigenvalues --    0.08642   0.08938   0.09606   0.10614   0.11101
 Alpha virt. eigenvalues --    0.11393   0.11688   0.13156   0.13479   0.13959
 Alpha virt. eigenvalues --    0.14509   0.15010   0.15802   0.16597   0.16974
 Alpha virt. eigenvalues --    0.17902   0.19386   0.19675   0.19919   0.19997
 Alpha virt. eigenvalues --    0.20657   0.21104   0.21573   0.22528   0.22699
 Alpha virt. eigenvalues --    0.23154   0.23665   0.24117   0.24812   0.25498
 Alpha virt. eigenvalues --    0.26035   0.26617   0.26988   0.27160   0.27781
 Alpha virt. eigenvalues --    0.28157   0.28973   0.29570   0.29797   0.30490
 Alpha virt. eigenvalues --    0.31489   0.31866   0.32260   0.32754   0.33333
 Alpha virt. eigenvalues --    0.33583   0.33872   0.34396   0.34887   0.35134
 Alpha virt. eigenvalues --    0.36654   0.37152   0.37494   0.39100   0.39881
 Alpha virt. eigenvalues --    0.40406   0.41154   0.41573   0.42254   0.44818
 Alpha virt. eigenvalues --    0.45394   0.49927   0.54514   0.57541   0.58455
 Alpha virt. eigenvalues --    0.59541   0.62522   0.64275   0.65532   0.66736
 Alpha virt. eigenvalues --    0.67475   0.69823   0.70364   0.71979   0.73020
 Alpha virt. eigenvalues --    0.74349   0.75683   0.76722   0.79199   0.81742
 Alpha virt. eigenvalues --    0.82271   0.84504   0.87487   0.88181   0.89551
 Alpha virt. eigenvalues --    0.90545   0.90938   0.91377   0.91623   0.92108
 Alpha virt. eigenvalues --    0.92363   0.94571   0.94794   0.96404   0.96890
 Alpha virt. eigenvalues --    0.97594   0.97720   0.98978   1.00108   1.01857
 Alpha virt. eigenvalues --    1.02756   1.04717   1.06182   1.07340   1.08868
 Alpha virt. eigenvalues --    1.09690   1.11149   1.11932   1.12681   1.13548
 Alpha virt. eigenvalues --    1.14464   1.14784   1.15561   1.17834   1.19456
 Alpha virt. eigenvalues --    1.19683   1.20036   1.20897   1.21949   1.22055
 Alpha virt. eigenvalues --    1.22801   1.24473   1.25007   1.26587   1.27213
 Alpha virt. eigenvalues --    1.29006   1.29552   1.30555   1.31123   1.32029
 Alpha virt. eigenvalues --    1.34558   1.35698   1.36995   1.38359   1.41322
 Alpha virt. eigenvalues --    1.42389   1.43110   1.44552   1.47167   1.47915
 Alpha virt. eigenvalues --    1.49481   1.53472   1.53536   1.55185   1.56476
 Alpha virt. eigenvalues --    1.57860   1.59426   1.60282   1.61392   1.63624
 Alpha virt. eigenvalues --    1.65586   1.69316   1.70057   1.72313   1.73160
 Alpha virt. eigenvalues --    1.73435   1.77297   1.77721   1.80086   1.81176
 Alpha virt. eigenvalues --    1.83509   1.85680   1.85881   1.88977   1.89854
 Alpha virt. eigenvalues --    1.92760   1.94851   1.95759   1.97713   2.01386
 Alpha virt. eigenvalues --    2.02785   2.04168   2.07583   2.10975   2.16181
 Alpha virt. eigenvalues --    2.18460   2.22044   2.24464   2.24620   2.26516
 Alpha virt. eigenvalues --    2.28481   2.30514   2.39157   2.40672   2.41277
 Alpha virt. eigenvalues --    2.43500   2.48657   2.51639   2.54723   2.55281
 Alpha virt. eigenvalues --    2.56520   2.57672   2.58172   2.60824   2.62435
 Alpha virt. eigenvalues --    2.66184   2.70095   2.71936   2.73330   2.73814
 Alpha virt. eigenvalues --    2.76807   2.79872   2.82862   2.85062   2.85399
 Alpha virt. eigenvalues --    2.89408   2.90594   2.92980   2.95559   2.96841
 Alpha virt. eigenvalues --    2.98654   2.99739   3.01008   3.02641   3.03993
 Alpha virt. eigenvalues --    3.06480   3.07166   3.07794   3.08264   3.11560
 Alpha virt. eigenvalues --    3.11753   3.13770   3.19739   3.20253   3.23215
 Alpha virt. eigenvalues --    3.25856   3.28455   3.29524   3.33375   3.33726
 Alpha virt. eigenvalues --    3.34957   3.35855   3.39341   3.42045   3.45815
 Alpha virt. eigenvalues --    3.48419   3.50779   3.53398   3.55650   3.59137
 Alpha virt. eigenvalues --    3.61858   3.64481   3.65000   3.69104   3.70489
 Alpha virt. eigenvalues --    3.71217   3.73941   3.76116   3.78898   3.80783
 Alpha virt. eigenvalues --    3.87011   3.91260   3.92462   3.99373   4.01941
 Alpha virt. eigenvalues --    4.10283   4.12105   4.13924   4.15563   4.20826
 Alpha virt. eigenvalues --    4.22209   4.22801   4.24221   4.27428   4.27821
 Alpha virt. eigenvalues --    4.29339   4.29667   4.31832   4.33255   4.36251
 Alpha virt. eigenvalues --    4.37465   4.39770   4.41096   4.42087   4.43984
 Alpha virt. eigenvalues --    4.45568   4.47052   4.48891   4.50437   4.52881
 Alpha virt. eigenvalues --    4.54314   4.55641   4.57190   4.57641   4.57849
 Alpha virt. eigenvalues --    4.59796   4.61352   4.63930   4.64553   4.64969
 Alpha virt. eigenvalues --    4.67834   4.68499   4.69887   4.70692   4.72040
 Alpha virt. eigenvalues --    4.72939   4.73032   4.75893   4.76160   4.78794
 Alpha virt. eigenvalues --    4.79103   4.81070   4.83144   4.84404   4.86734
 Alpha virt. eigenvalues --    4.87840   4.90087   4.91362   4.92715   4.95122
 Alpha virt. eigenvalues --    4.95908   4.98706   5.01077   5.07132   5.07554
 Alpha virt. eigenvalues --    5.10016   5.12397   5.15624   5.19209   5.22676
 Alpha virt. eigenvalues --    5.25671   5.26719   5.29268   5.30727   5.32436
 Alpha virt. eigenvalues --    5.36701   5.39127   5.40179   5.40533   5.42536
 Alpha virt. eigenvalues --    5.44383   5.44621   5.45950   5.48224   5.49132
 Alpha virt. eigenvalues --    5.50236   5.52808   5.55580   5.56661   5.60497
 Alpha virt. eigenvalues --    5.62331   5.64311   5.67885   5.71172   5.75534
 Alpha virt. eigenvalues --    5.77675   5.79826   5.85490   5.88873   5.90473
 Alpha virt. eigenvalues --    5.94958   5.96039   5.97680   5.99274   6.01285
 Alpha virt. eigenvalues --    6.04155   6.05893   6.07393   6.09516   6.10407
 Alpha virt. eigenvalues --    6.13055   6.15034   6.19142   6.20738   6.27305
 Alpha virt. eigenvalues --    6.42327   6.85753   7.08384   7.10382   7.16888
 Alpha virt. eigenvalues --    7.20249   7.31491   7.34692   7.59497  11.90161
 Alpha virt. eigenvalues --   12.08433  12.32265  12.71696  12.83483  13.15409
 Alpha virt. eigenvalues --   13.30231  13.38625  13.46321  13.53588  13.64222
 Alpha virt. eigenvalues --   13.87847
          Condensed to atoms (all electrons):
              1          2          3          4          5          6
     1  O    7.981180   0.003444  -0.002052   0.003319  -0.015278  -0.008982
     2  O    0.003444   8.174651  -0.011135   0.000136   0.000054  -0.001933
     3  O   -0.002052  -0.011135   8.177415   0.004429   0.000127   0.000030
     4  O    0.003319   0.000136   0.004429   8.154387  -0.008687   0.000013
     5  O   -0.015278   0.000054   0.000127  -0.008687   8.086743  -0.000044
     6  O   -0.008982  -0.001933   0.000030   0.000013  -0.000044   8.148101
     7  C   -0.012131   0.147509  -0.018961  -0.013351   0.000775   0.017145
     8  C   -0.030125   0.004273   0.221059  -0.043595   0.004482   0.002096
     9  C    0.207345   0.011191   0.006607  -0.000838  -0.011206   0.023620
    10  C   -0.044237  -0.010312  -0.082335   0.211594   0.017263   0.000510
    11  C    0.190538  -0.001332   0.010506  -0.024838   0.210928   0.000719
    12  C   -0.048767  -0.031925   0.000404  -0.002590   0.004278   0.102889
    13  H    0.002808  -0.045242   0.003315   0.000412  -0.000414   0.000538
    14  H    0.001024  -0.002954  -0.034354  -0.001640  -0.000075   0.000028
    15  H   -0.030456  -0.009017   0.000240   0.000183  -0.000560   0.003501
    16  H    0.000285   0.000486   0.002664  -0.042345  -0.009883  -0.000034
    17  H   -0.031355   0.000067   0.000090  -0.003304  -0.045102  -0.000203
    18  H    0.003939  -0.002001  -0.000003   0.000001   0.000117  -0.036993
    19  H    0.000524   0.001709  -0.000018  -0.000005  -0.000008  -0.039354
    20  H    0.000358   0.271737  -0.000300   0.000063  -0.000007  -0.000023
    21  H    0.000007   0.007980   0.278591  -0.000553   0.000008   0.000000
    22  H    0.000535   0.000061  -0.000589   0.279146  -0.003260  -0.000001
    23  H   -0.001218   0.000010   0.000076  -0.003008   0.281915  -0.000004
    24  H    0.009961   0.000013   0.000000  -0.000006   0.000018   0.284538
              7          8          9         10         11         12
     1  O   -0.012131  -0.030125   0.207345  -0.044237   0.190538  -0.048767
     2  O    0.147509   0.004273   0.011191  -0.010312  -0.001332  -0.031925
     3  O   -0.018961   0.221059   0.006607  -0.082335   0.010506   0.000404
     4  O   -0.013351  -0.043595  -0.000838   0.211594  -0.024838  -0.002590
     5  O    0.000775   0.004482  -0.011206   0.017263   0.210928   0.004278
     6  O    0.017145   0.002096   0.023620   0.000510   0.000719   0.102889
     7  C    6.043142  -0.183139  -0.419453  -0.083665   0.082675   0.082681
     8  C   -0.183139   5.417110   0.286304   0.250654  -0.012380  -0.122297
     9  C   -0.419453   0.286304   6.441682   0.017099  -0.233850  -0.320557
    10  C   -0.083665   0.250654   0.017099   5.477493  -0.080773   0.036650
    11  C    0.082675  -0.012380  -0.233850  -0.080773   5.550893  -0.086542
    12  C    0.082681  -0.122297  -0.320557   0.036650  -0.086542   5.774550
    13  H    0.402852  -0.043147  -0.049752  -0.010628   0.029818  -0.013040
    14  H   -0.046823   0.398094   0.011168  -0.046649  -0.007536   0.002631
    15  H    0.065496  -0.051221   0.226819  -0.013676   0.041307   0.032382
    16  H    0.006841  -0.064453   0.014546   0.400829  -0.033285   0.004145
    17  H    0.012184  -0.011620   0.002318  -0.090031   0.442607   0.004005
    18  H    0.038244  -0.011541  -0.149884   0.001277  -0.000360   0.475004
    19  H   -0.009508  -0.003457  -0.064511   0.000988   0.000529   0.449941
    20  H    0.043636  -0.033833  -0.020316   0.000103   0.002534  -0.007459
    21  H   -0.052482   0.004659   0.011239   0.017291  -0.001626  -0.001176
    22  H    0.007500  -0.030274  -0.004443   0.016986  -0.006741   0.000027
    23  H   -0.005431   0.002622   0.003753  -0.005209  -0.011543   0.000914
    24  H    0.004255  -0.001212  -0.056514   0.002259  -0.001825   0.021555
             13         14         15         16         17         18
     1  O    0.002808   0.001024  -0.030456   0.000285  -0.031355   0.003939
     2  O   -0.045242  -0.002954  -0.009017   0.000486   0.000067  -0.002001
     3  O    0.003315  -0.034354   0.000240   0.002664   0.000090  -0.000003
     4  O    0.000412  -0.001640   0.000183  -0.042345  -0.003304   0.000001
     5  O   -0.000414  -0.000075  -0.000560  -0.009883  -0.045102   0.000117
     6  O    0.000538   0.000028   0.003501  -0.000034  -0.000203  -0.036993
     7  C    0.402852  -0.046823   0.065496   0.006841   0.012184   0.038244
     8  C   -0.043147   0.398094  -0.051221  -0.064453  -0.011620  -0.011541
     9  C   -0.049752   0.011168   0.226819   0.014546   0.002318  -0.149884
    10  C   -0.010628  -0.046649  -0.013676   0.400829  -0.090031   0.001277
    11  C    0.029818  -0.007536   0.041307  -0.033285   0.442607  -0.000360
    12  C   -0.013040   0.002631   0.032382   0.004145   0.004005   0.475004
    13  H    0.532526   0.004025   0.004197   0.000662  -0.000036   0.002311
    14  H    0.004025   0.549794   0.001276   0.004067   0.001012  -0.000001
    15  H    0.004197   0.001276   0.560689  -0.000045   0.003203   0.004161
    16  H    0.000662   0.004067  -0.000045   0.517237   0.003525  -0.000006
    17  H   -0.000036   0.001012   0.003203   0.003525   0.523678  -0.000004
    18  H    0.002311  -0.000001   0.004161  -0.000006  -0.000004   0.544727
    19  H    0.000123  -0.000007  -0.001779   0.000000   0.000004  -0.035068
    20  H    0.005075   0.002751   0.003539  -0.000007   0.000003   0.000080
    21  H   -0.000355  -0.004265   0.000004  -0.000103   0.000006   0.000000
    22  H   -0.000007   0.002758   0.000000   0.004888   0.002956   0.000000
    23  H    0.000000   0.000010  -0.000002   0.005122   0.004816  -0.000002
    24  H    0.000007   0.000000  -0.000021  -0.000001   0.000015  -0.004802
             19         20         21         22         23         24
     1  O    0.000524   0.000358   0.000007   0.000535  -0.001218   0.009961
     2  O    0.001709   0.271737   0.007980   0.000061   0.000010   0.000013
     3  O   -0.000018  -0.000300   0.278591  -0.000589   0.000076   0.000000
     4  O   -0.000005   0.000063  -0.000553   0.279146  -0.003008  -0.000006
     5  O   -0.000008  -0.000007   0.000008  -0.003260   0.281915   0.000018
     6  O   -0.039354  -0.000023   0.000000  -0.000001  -0.000004   0.284538
     7  C   -0.009508   0.043636  -0.052482   0.007500  -0.005431   0.004255
     8  C   -0.003457  -0.033833   0.004659  -0.030274   0.002622  -0.001212
     9  C   -0.064511  -0.020316   0.011239  -0.004443   0.003753  -0.056514
    10  C    0.000988   0.000103   0.017291   0.016986  -0.005209   0.002259
    11  C    0.000529   0.002534  -0.001626  -0.006741  -0.011543  -0.001825
    12  C    0.449941  -0.007459  -0.001176   0.000027   0.000914   0.021555
    13  H    0.000123   0.005075  -0.000355  -0.000007   0.000000   0.000007
    14  H   -0.000007   0.002751  -0.004265   0.002758   0.000010   0.000000
    15  H   -0.001779   0.003539   0.000004   0.000000  -0.000002  -0.000021
    16  H    0.000000  -0.000007  -0.000103   0.004888   0.005122  -0.000001
    17  H    0.000004   0.000003   0.000006   0.002956   0.004816   0.000015
    18  H   -0.035068   0.000080   0.000000   0.000000  -0.000002  -0.004802
    19  H    0.505748  -0.000314   0.000000   0.000000   0.000000   0.005033
    20  H   -0.000314   0.347333  -0.000170  -0.000004   0.000000  -0.000001
    21  H    0.000000  -0.000170   0.350062  -0.000021   0.000000   0.000000
    22  H    0.000000  -0.000004  -0.000021   0.345939   0.000273   0.000000
    23  H    0.000000   0.000000   0.000000   0.000273   0.342260   0.000001
    24  H    0.005033  -0.000001   0.000000   0.000000   0.000001   0.353211
 Mulliken atomic charges:
              1
     1  O   -0.180664
     2  O   -0.507470
     3  O   -0.555808
     4  O   -0.508921
     5  O   -0.512183
     6  O   -0.496157
     7  C   -0.109990
     8  C    0.050945
     9  C    0.067632
    10  C    0.016520
    11  C   -0.060423
    12  C   -0.357703
    13  H    0.173949
    14  H    0.165665
    15  H    0.159780
    16  H    0.184868
    17  H    0.181164
    18  H    0.170805
    19  H    0.189432
    20  H    0.385222
    21  H    0.390906
    22  H    0.384270
    23  H    0.384647
    24  H    0.383514
 Sum of Mulliken atomic charges =   0.00000
 Mulliken charges with hydrogens summed into heavy atoms:
              1
     1  O   -0.180664
     2  O   -0.122248
     3  O   -0.164902
     4  O   -0.124651
     5  O   -0.127537
     6  O   -0.112642
     7  C    0.063959
     8  C    0.216610
     9  C    0.227413
    10  C    0.201388
    11  C    0.120742
    12  C    0.002534
 Sum of Mulliken charges with hydrogens summed into heavy atoms =   0.00000
 Electronic spatial extent (au):  <R**2>=           2207.4403
 Charge=              0.0000 electrons
 Dipole moment (field-independent basis, Debye):
    X=             -0.0739    Y=              2.3643    Z=              2.4138  Tot=              3.3796
 Quadrupole moment (field-independent basis, Debye-Ang):
   XX=            -97.2530   YY=            -79.8829   ZZ=            -60.9693
   XY=             -2.2678   XZ=              5.3119   YZ=              8.4720
 Traceless Quadrupole moment (field-independent basis, Debye-Ang):
   XX=            -17.8846   YY=             -0.5145   ZZ=             18.3991
   XY=             -2.2678   XZ=              5.3119   YZ=              8.4720
 Octapole moment (field-independent basis, Debye-Ang**2):
  XXX=              8.2762  YYY=             23.4106  ZZZ=              9.2799  XYY=             -2.1007
  XXY=              5.8021  XXZ=             -2.8717  XZZ=             12.6284  YZZ=             -2.6947
  YYZ=              3.8492  XYZ=              4.5034
 Hexadecapole moment (field-independent basis, Debye-Ang**3):
 XXXX=          -1941.6121 YYYY=          -1067.1752 ZZZZ=           -138.3669 XXXY=            -67.0469
 XXXZ=             64.0801 YYYX=             87.5784 YYYZ=             51.0168 ZZZX=             13.3395
 ZZZY=             22.1188 XXYY=           -440.2157 XXZZ=           -250.8175 YYZZ=           -162.4800
 XXYZ=             38.8766 YYXZ=            -13.8753 ZZXY=            -28.8434
 N-N= 8.239881458908D+02 E-N=-3.259054250734D+03  KE= 6.825989317173D+02
 D1PCM: PCM CHGder 1st derivatives, ID1Alg=3 FixD1E=F DoIter=F DoCFld=F I1PDM=0.
 Calling FoFJK, ICntrl=      2127 FMM=F ISym2X=0 I1Cent= 0 IOpClX= 0 NMat=1 NMatS=1 NMatT=0.
 ***** Axes restored to original set *****
 -------------------------------------------------------------------
 Center     Atomic                   Forces (Hartrees/Bohr)
 Number     Number              X              Y              Z
 -------------------------------------------------------------------
      1        8           0.004288594    0.007032892    0.003663518
      2        8          -0.001332037   -0.006681507   -0.000547469
      3        8           0.006845110   -0.004828820    0.002087877
      4        8           0.006159015    0.000930686   -0.000352785
      5        8          -0.012880415   -0.009729752   -0.005524095
      6        8          -0.010779974    0.011331864   -0.004397515
      7        6          -0.001479657    0.003448863   -0.015561306
      8        6          -0.003324506   -0.007284581    0.013856443
      9        6          -0.003952978   -0.006071818    0.006270138
     10        6           0.006629167   -0.012150923   -0.018431892
     11        6           0.007462156    0.012679995    0.018990272
     12        6           0.004425343    0.007835238    0.003035085
     13        1          -0.000716955   -0.000078874   -0.002512801
     14        1          -0.005810189    0.006808519   -0.002978686
     15        1           0.001919262   -0.002778357   -0.001793234
     16        1          -0.002084055    0.001751092   -0.001515081
     17        1           0.000156528   -0.000250240   -0.000275553
     18        1           0.004626556   -0.004777509    0.002611259
     19        1           0.002164755    0.002482091   -0.001522386
     20        1          -0.000256073   -0.001111909    0.004427849
     21        1           0.002233971    0.005410975    0.001122450
     22        1           0.001550038   -0.000040150    0.004475464
     23        1          -0.002786279    0.001221926   -0.002881915
     24        1          -0.003057377   -0.005149699   -0.002245639
 -------------------------------------------------------------------
 Cartesian Forces:  Max     0.018990272 RMS     0.006369556

 GradGradGradGradGradGradGradGradGradGradGradGradGradGradGradGradGradGrad
 Berny optimization.
 Internal  Forces:  Max     0.015717855 RMS     0.004138693
 Search for a local minimum.
 Step number   1 out of a maximum of  142
 All quantities printed in internal units (Hartrees-Bohrs-Radians)
 Mixed Optimization -- RFO/linear search
 Second derivative matrix not updated -- first step.
 ITU=  0
     Eigenvalues ---    0.00430   0.00597   0.00654   0.01316   0.01329
     Eigenvalues ---    0.01331   0.01359   0.01441   0.01481   0.02923
     Eigenvalues ---    0.03286   0.04409   0.04553   0.04685   0.04902
     Eigenvalues ---    0.05141   0.05286   0.05481   0.05608   0.05655
     Eigenvalues ---    0.06201   0.06894   0.07253   0.07420   0.07899
     Eigenvalues ---    0.09277   0.11291   0.11475   0.11819   0.13699
     Eigenvalues ---    0.14116   0.16000   0.16000   0.16000   0.16000
     Eigenvalues ---    0.16000   0.16440   0.17357   0.18513   0.19255
     Eigenvalues ---    0.19894   0.21996   0.27449   0.28615   0.28860
     Eigenvalues ---    0.29470   0.29852   0.33842   0.34017   0.34027
     Eigenvalues ---    0.34051   0.34121   0.34228   0.34386   0.39523
     Eigenvalues ---    0.40047   0.41215   0.41362   0.41381   0.41689
     Eigenvalues ---    0.43079   0.52844   0.52855   0.52865   0.52902
     Eigenvalues ---    0.53045
 RFO step:  Lambda=-1.35444839D-02 EMin= 4.29972950D-03
 Linear search not attempted -- first point.
 Iteration  1 RMS(Cart)=  0.05362236 RMS(Int)=  0.00130444
 Iteration  2 RMS(Cart)=  0.00193252 RMS(Int)=  0.00059625
 Iteration  3 RMS(Cart)=  0.00000168 RMS(Int)=  0.00059625
 Iteration  4 RMS(Cart)=  0.00000000 RMS(Int)=  0.00059625
 Variable       Old X    -DE/DX   Delta X   Delta X   Delta X     New X
                                 (Linear)    (Quad)   (Total)
    R1        2.69967   0.00428   0.00000   0.00781   0.00754   2.70721
    R2        2.69426  -0.00377   0.00000  -0.00952  -0.00964   2.68462
    R3        2.69321   0.00559   0.00000   0.01299   0.01299   2.70620
    R4        1.83745  -0.00452   0.00000  -0.00834  -0.00834   1.82911
    R5        2.69935   0.00603   0.00000   0.01418   0.01418   2.71353
    R6        1.83800  -0.00596   0.00000  -0.01099  -0.01099   1.82701
    R7        2.69743   0.00504   0.00000   0.01179   0.01179   2.70923
    R8        1.83780  -0.00466   0.00000  -0.00859  -0.00859   1.82920
    R9        2.69719  -0.01572   0.00000  -0.03678  -0.03678   2.66041
   R10        1.83612  -0.00388   0.00000  -0.00713  -0.00713   1.82898
   R11        2.67572   0.01413   0.00000   0.03180   0.03180   2.70752
   R12        1.83790  -0.00641   0.00000  -0.01182  -0.01182   1.82608
   R13        2.88913   0.00437   0.00000   0.01547   0.01560   2.90474
   R14        2.89216   0.00337   0.00000   0.01230   0.01234   2.90450
   R15        2.07284  -0.00245   0.00000  -0.00693  -0.00693   2.06591
   R16        2.88882  -0.00004   0.00000   0.00259   0.00284   2.89166
   R17        2.07301   0.00117   0.00000   0.00330   0.00330   2.07631
   R18        2.88259   0.00087   0.00000   0.00279   0.00279   2.88538
   R19        2.07598   0.00160   0.00000   0.00456   0.00456   2.08054
   R20        2.88874   0.00728   0.00000   0.02206   0.02200   2.91075
   R21        2.07244  -0.00177   0.00000  -0.00500  -0.00500   2.06743
   R22        2.07127   0.00025   0.00000   0.00070   0.00070   2.07197
   R23        2.06948   0.00243   0.00000   0.00682   0.00682   2.07629
   R24        2.06683  -0.00252   0.00000  -0.00705  -0.00705   2.05978
    A1        1.96440   0.00016   0.00000   0.00920   0.00916   1.97357
    A2        1.88471   0.00127   0.00000   0.00734   0.00734   1.89205
    A3        1.87472  -0.00049   0.00000  -0.00283  -0.00283   1.87189
    A4        1.88571   0.00149   0.00000   0.00860   0.00860   1.89432
    A5        1.89461   0.00063   0.00000   0.00363   0.00363   1.89824
    A6        1.87825   0.00023   0.00000   0.00134   0.00134   1.87959
    A7        1.90775   0.00136   0.00000   0.02270   0.02154   1.92929
    A8        1.90777   0.00370   0.00000   0.04072   0.03991   1.94768
    A9        1.87427  -0.00265   0.00000  -0.03431  -0.03375   1.84051
   A10        1.93357  -0.00030   0.00000   0.00993   0.00914   1.94270
   A11        1.90931  -0.00074   0.00000  -0.01633  -0.01628   1.89303
   A12        1.93011  -0.00140   0.00000  -0.02341  -0.02314   1.90697
   A13        1.88525   0.00599   0.00000   0.05148   0.05155   1.93681
   A14        1.91026  -0.00701   0.00000  -0.02992  -0.03098   1.87928
   A15        1.85697   0.00312   0.00000   0.04020   0.04041   1.89738
   A16        1.94116   0.00239   0.00000   0.02037   0.02077   1.96193
   A17        1.93745  -0.00377   0.00000  -0.04290  -0.04367   1.89378
   A18        1.93013  -0.00066   0.00000  -0.03645  -0.03680   1.89333
   A19        1.91899   0.00078   0.00000  -0.00463  -0.00466   1.91433
   A20        1.87705  -0.00421   0.00000  -0.02055  -0.02041   1.85665
   A21        1.89313   0.00167   0.00000   0.01680   0.01680   1.90993
   A22        1.94996   0.00510   0.00000   0.02619   0.02622   1.97617
   A23        1.93782  -0.00400   0.00000  -0.02657  -0.02658   1.91124
   A24        1.88487   0.00058   0.00000   0.00909   0.00925   1.89412
   A25        1.90913   0.00371   0.00000   0.03886   0.03761   1.94674
   A26        1.88938   0.00302   0.00000   0.04454   0.04367   1.93305
   A27        1.86431  -0.00251   0.00000  -0.02646  -0.02552   1.83878
   A28        1.94312  -0.00131   0.00000   0.00184   0.00033   1.94345
   A29        1.91625  -0.00106   0.00000  -0.01734  -0.01750   1.89874
   A30        1.93959  -0.00172   0.00000  -0.04025  -0.04032   1.89927
   A31        1.91518  -0.01045   0.00000  -0.04954  -0.05117   1.86401
   A32        1.92897   0.00390   0.00000   0.01746   0.01769   1.94667
   A33        1.91498  -0.00012   0.00000  -0.00919  -0.00963   1.90536
   A34        1.88382   0.01395   0.00000   0.08326   0.08362   1.96743
   A35        1.86398  -0.00291   0.00000  -0.01975  -0.02014   1.84384
   A36        1.95533  -0.00467   0.00000  -0.02339  -0.02321   1.93212
   A37        1.89486   0.01428   0.00000   0.06786   0.06767   1.96253
   A38        1.88074   0.00137   0.00000   0.05085   0.05061   1.93135
   A39        1.89115  -0.00632   0.00000  -0.03718  -0.03596   1.85519
   A40        1.94583  -0.00691   0.00000  -0.03161  -0.03406   1.91177
   A41        1.95008  -0.00496   0.00000  -0.04190  -0.04210   1.90799
   A42        1.89913   0.00273   0.00000  -0.00485  -0.00613   1.89300
    D1        1.10311  -0.00176   0.00000  -0.00213  -0.00209   1.10102
    D2       -3.05331   0.00230   0.00000   0.01425   0.01438  -3.03893
    D3       -1.01888   0.00162   0.00000   0.02276   0.02292  -0.99595
    D4        3.12250  -0.01051   0.00000  -0.07465  -0.07352   3.04898
    D5       -1.08516   0.00255   0.00000   0.00778   0.00768  -1.07748
    D6        1.07964  -0.00079   0.00000  -0.01630  -0.01644   1.06320
    D7       -1.07969  -0.00136   0.00000  -0.02171  -0.02229  -1.10198
    D8        1.03930   0.00143   0.00000   0.03010   0.03075   1.07004
    D9        3.13384   0.00029   0.00000   0.00488   0.00481   3.13865
   D10        1.01086  -0.00050   0.00000  -0.00692  -0.00613   1.00473
   D11        3.12676   0.00189   0.00000   0.03147   0.03190  -3.12453
   D12       -1.07049  -0.00087   0.00000  -0.00496  -0.00617  -1.07666
   D13        1.06136   0.00083   0.00000   0.01388   0.01487   1.07624
   D14       -1.05878  -0.00166   0.00000  -0.03913  -0.04008  -1.09886
   D15        3.13436   0.00014   0.00000  -0.00084  -0.00088   3.13348
   D16        1.43861   0.00394   0.00000  -0.00345  -0.00472   1.43389
   D17       -0.66452  -0.00313   0.00000  -0.04610  -0.04541  -0.70993
   D18       -2.77000  -0.00355   0.00000  -0.05265  -0.05208  -2.82208
   D19       -1.01941  -0.00064   0.00000  -0.02024  -0.02193  -1.04133
   D20        1.09046   0.00006   0.00000   0.01040   0.01232   1.10278
   D21       -3.14054   0.00065   0.00000   0.01233   0.01209  -3.12846
   D22       -1.21839   0.00039   0.00000   0.04403   0.04478  -1.17361
   D23        2.96820   0.00375   0.00000   0.03575   0.03566   3.00387
   D24        0.81122   0.00560   0.00000   0.09910   0.09873   0.90995
   D25        2.96150  -0.00489   0.00000  -0.02746  -0.02679   2.93471
   D26        0.86491  -0.00154   0.00000  -0.03575  -0.03591   0.82900
   D27       -1.29208   0.00031   0.00000   0.02761   0.02716  -1.26492
   D28        0.82931  -0.00245   0.00000   0.00632   0.00693   0.83624
   D29       -1.26729   0.00091   0.00000  -0.00196  -0.00218  -1.26947
   D30        2.85891   0.00276   0.00000   0.06139   0.06089   2.91980
   D31       -3.07868  -0.00203   0.00000  -0.04108  -0.04140  -3.12009
   D32        1.12175  -0.00053   0.00000  -0.02905  -0.02941   1.09234
   D33       -0.98360  -0.00200   0.00000  -0.04017  -0.04031  -1.02391
   D34       -0.97540   0.00186   0.00000   0.01971   0.01980  -0.95560
   D35       -3.05815   0.00336   0.00000   0.03173   0.03179  -3.02636
   D36        1.11969   0.00190   0.00000   0.02061   0.02089   1.14057
   D37        1.14460  -0.00022   0.00000  -0.01004  -0.00998   1.13462
   D38       -0.93815   0.00128   0.00000   0.00198   0.00201  -0.93614
   D39       -3.04350  -0.00019   0.00000  -0.00913  -0.00889  -3.05239
   D40        1.26625  -0.00518   0.00000  -0.08166  -0.08141   1.18485
   D41       -2.92958   0.00016   0.00000   0.00008   0.00050  -2.92908
   D42       -0.77420  -0.00370   0.00000  -0.06227  -0.06178  -0.83598
   D43       -2.93520  -0.00077   0.00000  -0.02436  -0.02462  -2.95982
   D44       -0.84785   0.00458   0.00000   0.05737   0.05729  -0.79056
   D45        1.30753   0.00072   0.00000  -0.00497  -0.00498   1.30254
   D46       -0.77405  -0.00439   0.00000  -0.09130  -0.09160  -0.86564
   D47        1.31330   0.00095   0.00000  -0.00957  -0.00969   1.30361
   D48       -2.81451  -0.00291   0.00000  -0.07192  -0.07196  -2.88647
   D49        1.02607   0.00256   0.00000   0.05768   0.05785   1.08392
   D50       -1.04313  -0.00401   0.00000  -0.02878  -0.02803  -1.07116
   D51        3.11068   0.00095   0.00000   0.03000   0.02938   3.14006
   D52        3.13345   0.00386   0.00000   0.05442   0.05430  -3.09544
   D53        1.06425  -0.00271   0.00000  -0.03204  -0.03158   1.03266
   D54       -1.06513   0.00225   0.00000   0.02674   0.02583  -1.03930
   D55       -1.01377   0.00250   0.00000   0.04404   0.04420  -0.96957
   D56       -3.08298  -0.00407   0.00000  -0.04243  -0.04168  -3.12465
   D57        1.07083   0.00090   0.00000   0.01636   0.01573   1.08657
   D58        3.03950   0.00213   0.00000   0.03502   0.03489   3.07438
   D59       -1.14922   0.00032   0.00000   0.03644   0.03731  -1.11191
   D60        0.89807   0.00276   0.00000   0.05074   0.05104   0.94911
   D61        0.94046  -0.00360   0.00000  -0.04279  -0.04304   0.89742
   D62        3.03492  -0.00541   0.00000  -0.04137  -0.04061   2.99431
   D63       -1.20097  -0.00296   0.00000  -0.02707  -0.02689  -1.22785
   D64       -1.20157  -0.00007   0.00000   0.00691   0.00620  -1.19537
   D65        0.89290  -0.00188   0.00000   0.00833   0.00863   0.90152
   D66        2.94019   0.00057   0.00000   0.02263   0.02235   2.96254
         Item               Value     Threshold  Converged?
 Maximum Force            0.015718     0.000450     NO 
 RMS     Force            0.004139     0.000300     NO 
 Maximum Displacement     0.215795     0.001800     NO 
 RMS     Displacement     0.053223     0.001200     NO 
 Predicted change in Energy=-7.717484D-03
 GradGradGradGradGradGradGradGradGradGradGradGradGradGradGradGradGradGrad

                          Input orientation:                          
 ---------------------------------------------------------------------
 Center     Atomic      Atomic             Coordinates (Angstroms)
 Number     Number       Type             X           Y           Z
 ---------------------------------------------------------------------
      1          8           0       -0.645367    1.150847    0.277748
      2          8           0       -0.908637   -2.489415   -0.312195
      3          8           0        1.918074   -2.076235    0.439032
      4          8           0        2.927416    0.512781   -0.437052
      5          8           0        1.045505    2.666382    0.256718
      6          8           0       -3.445969    1.001459   -0.184398
      7          6           0       -0.381197   -1.262183    0.204049
      8          6           0        1.091208   -1.094022   -0.203981
      9          6           0       -1.224155   -0.054684   -0.236087
     10          6           0        1.642866    0.286599    0.158058
     11          6           0        0.656745    1.404152   -0.230744
     12          6           0       -2.658649   -0.099707    0.285015
     13          1           0       -0.430125   -1.358850    1.291899
     14          1           0        1.168787   -1.225701   -1.292035
     15          1           0       -1.252754   -0.007520   -1.335680
     16          1           0        1.812967    0.325989    1.238075
     17          1           0        0.603009    1.511810   -1.320560
     18          1           0       -2.649824   -0.129564    1.383302
     19          1           0       -3.147064   -1.002828   -0.080906
     20          1           0       -0.887530   -2.448425   -1.279020
     21          1           0        1.573834   -2.945761    0.193782
     22          1           0        2.830694    0.479979   -1.399621
     23          1           0        1.385023    2.561337    1.156962
     24          1           0       -3.023057    1.815461    0.119440
 ---------------------------------------------------------------------
                    Distance matrix (angstroms):
                    1          2          3          4          5
     1  O    0.000000
     2  O    3.697141   0.000000
     3  O    4.124477   2.953872   0.000000
     4  O    3.699033   4.872789   2.913640   0.000000
     5  O    2.270757   5.542976   4.825665   2.942941   0.000000
     6  O    2.842405   4.317474   6.215612   6.397084   4.810395
     7  C    2.428566   1.432061   2.450418   3.808993   4.179938
     8  C    2.878748   2.440945   1.435938   2.451080   3.788795
     9  C    1.432595   2.456269   3.796849   4.194991   3.577488
    10  C    2.448930   3.799679   2.395344   1.433661   2.455594
    11  C    1.420642   4.197252   3.762001   2.448071   1.407827
    12  C    2.370072   3.021573   4.987663   5.665743   4.623074
    13  H    2.715403   2.019967   2.599243   4.214897   4.410395
    14  H    3.376885   2.621593   2.069162   2.616503   4.190721
    15  H    2.076989   2.706610   4.181308   4.307211   3.868783
    16  H    2.765145   4.211528   2.533812   2.020628   2.651320
    17  H    2.059933   4.394505   4.207093   2.679835   2.004157
    18  H    2.622890   3.387526   5.054391   5.901855   4.768854
    19  H    3.320458   2.697033   5.203669   6.270823   5.581643
    20  H    3.928986   0.967924   3.310838   4.902189   5.679469
    21  H    4.659839   2.574282   0.966811   3.767180   5.637308
    22  H    3.917477   4.897182   3.278376   0.967972   3.272723
    23  H    2.623925   5.738414   4.722991   3.019344   0.967857
    24  H    2.473901   4.815500   6.297795   6.116763   4.158860
                    6          7          8          9         10
     6  O    0.000000
     7  C    3.829855   0.000000
     8  C    4.997739   1.537122   0.000000
     9  C    2.460603   1.536994   2.538141   0.000000
    10  C    5.150198   2.549054   1.530200   2.914041   0.000000
    11  C    4.122690   2.894083   2.535813   2.380340   1.540301
    12  C    1.432755   2.558260   3.910141   1.526875   4.320692
    13  H    4.104367   1.093232   2.149941   2.160110   2.879304
    14  H    5.242430   2.154541   1.098734   2.865742   2.148155
    15  H    2.674637   2.168999   2.820529   1.100975   3.271448
    16  H    5.489635   2.899286   2.148696   3.397378   1.094039
    17  H    4.236218   3.314835   2.876707   2.639794   2.183748
    18  H    2.090632   2.796449   4.176717   2.158833   4.483481
    19  H    2.029094   2.792577   4.241039   2.149567   4.966202
    20  H    4.432325   1.965461   2.627836   2.632682   3.993551
    21  H    6.397030   2.580056   1.954503   4.046215   3.233294
    22  H    6.414453   3.990379   2.633029   4.252231   1.968424
    23  H    5.250805   4.318204   3.911539   3.948666   2.497744
    24  H    0.966319   4.056905   5.049443   2.619140   4.910168
                   11         12         13         14         15
    11  C    0.000000
    12  C    3.676879   0.000000
    13  H    3.336752   2.750559   0.000000
    14  H    2.881779   4.290013   3.041539   0.000000
    15  H    2.619139   2.147485   3.067081   2.711038   0.000000
    16  H    2.157941   4.591828   2.805894   3.037131   4.016726
    17  H    1.096439   3.976590   4.016591   2.795511   2.398426
    18  H    3.986330   1.098728   2.539008   4.789648   3.059340
    19  H    4.503885   1.089989   3.064818   4.488104   2.480626
    20  H    4.280890   3.331597   2.829491   2.392418   2.468727
    21  H    4.465761   5.101202   2.782085   2.308749   4.354551
    22  H    2.635606   5.771214   4.610695   2.383873   4.112941
    23  H    1.948125   4.918610   4.322133   4.515085   4.446365
    24  H    3.719241   1.956548   4.263123   5.367726   2.928244
                   16         17         18         19         20
    16  H    0.000000
    17  H    3.068678   0.000000
    18  H    4.488332   4.537168   0.000000
    19  H    5.301639   4.682221   1.775878   0.000000
    20  H    4.617989   4.231653   3.945979   2.937809   0.000000
    21  H    3.442685   4.806836   5.213943   5.112467   2.911152
    22  H    2.831416   2.456320   6.176752   6.298517   4.734477
    23  H    2.277387   2.801994   4.855118   5.897068   6.016329
    24  H    5.182374   3.913331   2.349420   2.828122   4.969597
                   21         22         23         24
    21  H    0.000000
    22  H    3.981748   0.000000
    23  H    5.593880   3.599740   0.000000
    24  H    6.618623   6.193340   4.589549   0.000000
 Stoichiometry    C6H12O6
 Framework group  C1[X(C6H12O6)]
 Deg. of freedom    66
 Full point group                 C1      NOp   1
 Largest Abelian subgroup         C1      NOp   1
 Largest concise Abelian subgroup C1      NOp   1
                         Standard orientation:                         
 ---------------------------------------------------------------------
 Center     Atomic      Atomic             Coordinates (Angstroms)
 Number     Number       Type             X           Y           Z
 ---------------------------------------------------------------------
      1          8           0       -0.705987   -1.135279   -0.255388
      2          8           0       -0.775635    2.526726    0.248315
      3          8           0        2.018091    1.950393   -0.518689
      4          8           0        2.902150   -0.665702    0.410710
      5          8           0        0.904888   -2.735164   -0.213129
      6          8           0       -3.490222   -0.830538    0.228802
      7          6           0       -0.317395    1.261963   -0.242794
      8          6           0        1.148611    1.027761    0.155605
      9          6           0       -1.216645    0.110413    0.234314
     10          6           0        1.624766   -0.387724   -0.177848
     11          6           0        0.586635   -1.443304    0.247078
     12          6           0       -2.652303    0.217027   -0.274475
     13          1           0       -0.372669    1.335114   -1.332175
     14          1           0        1.244235    1.181112    1.239375
     15          1           0       -1.236123    0.090967    1.334945
     16          1           0        1.781308   -0.461533   -1.258111
     17          1           0        0.538842   -1.522081    1.339638
     18          1           0       -2.653447    0.220246   -1.373198
     19          1           0       -3.089803    1.152613    0.073879
     20          1           0       -0.746547    2.507718    1.215615
     21          1           0        1.721579    2.842122   -0.291478
     22          1           0        2.817318   -0.605054    1.373049
     23          1           0        1.239918   -2.669240   -1.118753
     24          1           0       -3.112906   -1.672289   -0.059051
 ---------------------------------------------------------------------
 Rotational constants (GHZ):      1.1433145      0.7702125      0.4862334
 Standard basis: 6-31+G(2df,p) (6D, 7F)
 There are   444 symmetry adapted basis functions of A   symmetry.
 Integral buffers will be    131072 words long.
 Raffenetti 2 integral format.
 Two-electron integral symmetry is turned on.
   444 basis functions,   660 primitive gaussians,   480 cartesian basis functions
    48 alpha electrons       48 beta electrons
       nuclear repulsion energy       818.1364880124 Hartrees.
 NAtoms=   24 NActive=   24 NUniq=   24 SFac= 1.00D+00 NAtFMM=   50 NAOKFM=F Big=F
 ------------------------------------------------------------------------------
 Polarizable Continuum Model (PCM)
 =================================
 Model                : PCM.
 Atomic radii         : SMD-Coulomb.
 Polarization charges : Total charges.
 Charge compensation  : None.
 Solution method      : Matrix inversion.
 Cavity type          : VdW (van der Waals Surface) (Alpha=1.000).
 Cavity algorithm     : GePol (No added spheres)
                        Default sphere list used, NSphG=   24.
                        Lebedev-Laikov grids with approx.  5.0 points / Ang**2.
                        Smoothing algorithm: Karplus/York (Gamma=1.0000).
                        Polarization charges: spherical gaussians, with
                                              point-specific exponents (IZeta= 3).
                        Self-potential: point-specific (ISelfS= 7).
                        Self-field    : sphere-specific E.n sum rule (ISelfD= 2).
 1st derivatives      : Analytical E(r).r(x)/FMM algorithm (CHGder, D1EAlg=3).
                        Cavity 1st derivative terms included.
 Solvent              : Water, Eps=  78.355300 Eps(inf)=   1.777849
 ------------------------------------------------------------------------------
 ------------------------------------------------------------------------------
 Atomic radii for non-electrostatic terms: SMD-CDS.
 ------------------------------------------------------------------------------
 Nuclear repulsion after PCM non-electrostatic terms =      818.1427246622 Hartrees.
 One-electron integrals computed using PRISM.
 NBasis=   444 RedAO= T  NBF=   444
 NBsUse=   444 1.00D-06 NBFU=   444
 Initial guess read from the read-write file.
 B after Tr=     0.000000    0.000000    0.000000
         Rot=    1.000000    0.000000    0.000000    0.000000 Ang=   0.00 deg.
 Initial guess orbital symmetries:
       Occupied  (A) (A) (A) (A) (A) (A) (A) (A) (A) (A) (A) (A)
                 (A) (A) (A) (A) (A) (A) (A) (A) (A) (A) (A) (A)
                 (A) (A) (A) (A) (A) (A) (A) (A) (A) (A) (A) (A)
                 (A) (A) (A) (A) (A) (A) (A) (A) (A) (A) (A) (A)
       Virtual   (A) (A) (A) (A) (A) (A) (A) (A) (A) (A) (A) (A)
                 (A) (A) (A) (A) (A) (A) (A) (A) (A) (A) (A) (A)
                 (A) (A) (A) (A) (A) (A) (A) (A) (A) (A) (A) (A)
                 (A) (A) (A) (A) (A) (A) (A) (A) (A) (A) (A) (A)
                 (A) (A) (A) (A) (A) (A) (A) (A) (A) (A) (A) (A)
                 (A) (A) (A) (A) (A) (A) (A) (A) (A) (A) (A) (A)
                 (A) (A) (A) (A) (A) (A) (A) (A) (A) (A) (A) (A)
                 (A) (A) (A) (A) (A) (A) (A) (A) (A) (A) (A) (A)
                 (A) (A) (A) (A) (A) (A) (A) (A) (A) (A) (A) (A)
                 (A) (A) (A) (A) (A) (A) (A) (A) (A) (A) (A) (A)
                 (A) (A) (A) (A) (A) (A) (A) (A) (A) (A) (A) (A)
                 (A) (A) (A) (A) (A) (A) (A) (A) (A) (A) (A) (A)
                 (A) (A) (A) (A) (A) (A) (A) (A) (A) (A) (A) (A)
                 (A) (A) (A) (A) (A) (A) (A) (A) (A) (A) (A) (A)
                 (A) (A) (A) (A) (A) (A) (A) (A) (A) (A) (A) (A)
                 (A) (A) (A) (A) (A) (A) (A) (A) (A) (A) (A) (A)
                 (A) (A) (A) (A) (A) (A) (A) (A) (A) (A) (A) (A)
                 (A) (A) (A) (A) (A) (A) (A) (A) (A) (A) (A) (A)
                 (A) (A) (A) (A) (A) (A) (A) (A) (A) (A) (A) (A)
                 (A) (A) (A) (A) (A) (A) (A) (A) (A) (A) (A) (A)
                 (A) (A) (A) (A) (A) (A) (A) (A) (A) (A) (A) (A)
                 (A) (A) (A) (A) (A) (A) (A) (A) (A) (A) (A) (A)
                 (A) (A) (A) (A) (A) (A) (A) (A) (A) (A) (A) (A)
                 (A) (A) (A) (A) (A) (A) (A) (A) (A) (A) (A) (A)
                 (A) (A) (A) (A) (A) (A) (A) (A) (A) (A) (A) (A)
                 (A) (A) (A) (A) (A) (A) (A) (A) (A) (A) (A) (A)
                 (A) (A) (A) (A) (A) (A) (A) (A) (A) (A) (A) (A)
                 (A) (A) (A) (A) (A) (A) (A) (A) (A) (A) (A) (A)
                 (A) (A) (A) (A) (A) (A) (A) (A) (A) (A) (A) (A)
                 (A) (A) (A) (A) (A) (A) (A) (A) (A) (A) (A) (A)
[...]
 043220,0.04242641,0.00066001,-0.00166314,0.00104273,-0.00006084,0.0000
 4812,-0.00000065,0.00030690,0.00031709,-0.00044005,-0.00049896,-0.0002
 6018,-0.01240909,-0.00011091,-0.00013058,0.00000477,-0.04867995,-0.000
 14520,-0.03473248,-0.00281538,0.00002820,-0.02116792,0.00007668,-0.000
 01277,-0.00006810,-0.00000774,-0.00013857,0.00007116,-0.00039873,-0.00
 224642,-0.00032616,0.00000545,0.00000103,0.00006518,0.06497011,-0.0014
 2892,0.00070912,-0.00120555,-0.00035119,-0.00038631,0.00029959,0.00018
 221,0.00298055,0.00070518,-0.00141545,0.00176651,0.00580223,-0.0001987
 2,0.00322343,0.00048259,-0.00007470,0.00003947,0.00001137,0.00110475,0
 .00080171,-0.00047199,-0.00453413,-0.00332642,-0.03028213,-0.00024461,
 -0.00042105,-0.00014281,0.00010064,-0.05076140,-0.01145575,0.00513094,
 -0.00210932,0.02649266,0.00006185,0.00008479,-0.00006880,-0.00022714,-
 0.00011281,0.00030019,-0.00188296,-0.00461945,-0.00136339,-0.00004468,
 -0.00002179,0.00003326,0.00234763,0.05529649,-0.00028419,-0.00038283,0
 .00159169,-0.00034438,-0.00025912,0.00023680,0.00058585,0.00041689,0.0
 0119188,0.00732575,0.00072405,-0.01461980,0.00080750,-0.00053643,0.002
 32381,-0.00004608,0.00001486,0.00000144,0.00066563,-0.00010509,-0.0003
 7872,-0.00271865,-0.00045395,-0.00948776,0.00004293,0.00011684,0.00022
 306,-0.02495199,-0.01120457,-0.30062812,-0.00187267,-0.00076350,-0.012
 72235,0.00005194,0.00001634,-0.00003327,-0.00034322,0.00002295,0.00038
 219,-0.00078610,-0.00119000,0.00034350,0.00007836,0.00002620,-0.000030
 96,0.02133025,0.01003598,0.33013089,-0.01637253,-0.00909167,0.03952397
 ,0.00025179,-0.00033113,-0.00003648,-0.00004399,0.00050034,0.00018096,
 0.00219764,-0.00071062,0.00017345,-0.00064636,-0.00453261,-0.01302132,
 -0.00009666,0.00006196,-0.00001213,-0.00066912,0.00003471,-0.00034555,
 -0.00005856,-0.00119307,-0.00042011,0.00267299,0.00422677,0.00364966,0
 .00042609,0.00321192,-0.01941684,-0.05039453,0.00459888,-0.02150958,-0
 .00007680,-0.00019194,-0.00009306,-0.00000912,0.00000786,-0.00001722,0
 .00013252,0.00025875,0.00026308,0.00008310,0.00009278,-0.00126025,-0.0
 0196932,0.00255669,-0.00099252,0.06313877,-0.00410877,0.00253737,0.004
 22456,-0.00015503,-0.00015115,-0.00004484,0.00009419,-0.00034734,-0.00
 014974,-0.00095474,0.00058787,-0.00119036,-0.00875757,-0.00858768,-0.0
 4103515,-0.00000378,0.00000466,0.00000433,0.00030170,-0.00006771,-0.00
 002704,-0.00002504,0.00147561,0.00066383,-0.00002852,0.00135183,0.0015
 1891,0.00283817,-0.00027104,0.02471314,0.00583197,-0.05343879,0.027265
 63,-0.00002601,-0.00000313,0.00006078,-0.00003933,0.00000371,-0.000042
 61,0.00002909,-0.00007722,-0.00010918,0.00023710,0.00019477,-0.0003985
 4,0.00264889,-0.00294459,0.00114697,0.00259198,0.06464847,0.01303774,0
 .00388897,-0.01316118,0.00006426,0.00034609,0.00007600,-0.00006169,0.0
 0023574,0.00024726,-0.00099137,-0.00038315,0.00197694,-0.00485082,-0.0
 0708532,-0.01280765,0.00012762,-0.00002402,-0.00003106,0.00018633,-0.0
 0018269,0.00005162,-0.00029652,-0.00064802,-0.00040497,-0.00093080,-0.
 00150177,0.00051084,0.00074820,0.00111165,-0.01020116,-0.02032731,0.01
 601889,-0.29269044,-0.00004381,0.00030256,0.00065327,-0.00007716,-0.00
 006755,-0.00003194,0.00008087,0.00047273,0.00049843,0.00066526,0.00104
 527,0.00034557,-0.00052491,0.00123508,0.00028823,0.01409236,-0.0135698
 1,0.32353692,0.00260366,0.00123513,-0.00058133,0.00008514,0.00030472,0
 .00010006,-0.00021838,0.00011639,-0.00008138,-0.00002948,-0.00003182,0
 .00001053,-0.00005067,-0.00003394,-0.00009974,-0.00511329,0.00994433,-
 0.02544514,0.00160673,-0.00144523,0.00093751,0.00018927,-0.00007340,-0
 .00004673,-0.00354181,0.00238250,0.03287934,0.00011240,0.00007287,0.00
 000458,0.00024790,0.00017604,0.00017288,-0.04875700,-0.00261626,-0.001
 28650,0.00014709,0.00012831,-0.00054572,-0.00002012,0.00004626,-0.0001
 2338,-0.00522730,-0.00059968,0.00184679,-0.00002056,-0.00000484,-0.000
 00698,-0.00002321,-0.00004508,-0.00019611,0.05666876,0.00073962,0.0008
 6107,0.00101456,0.00026917,-0.00039321,0.00012227,-0.00001677,-0.00002
 510,0.00001935,0.00005123,-0.00000328,-0.00000987,0.00007706,0.0000740
 8,-0.00002968,0.01127312,-0.00882110,0.03388277,-0.00020965,0.00030211
 ,-0.00058349,-0.00003967,0.00007082,-0.00014879,-0.00232211,0.00084926
 ,0.00149109,-0.00002206,0.00000676,-0.00001324,-0.00011927,-0.00002016
 ,0.00022251,-0.00369415,-0.05148093,-0.02202680,0.00011981,-0.00001980
 ,-0.00007486,0.00006287,-0.00001193,0.00001748,0.00040677,0.00071443,0
 .00037087,0.00000381,0.00000270,0.00000040,-0.00005664,-0.00004094,-0.
 00007172,-0.00676921,0.05503672,-0.00076027,0.00018729,0.00124441,0.00
 026033,-0.00029362,0.00000998,0.00027729,-0.00010305,0.00001278,0.0000
 5124,0.00001381,-0.00001721,0.00013205,0.00008474,-0.00001172,-0.00752
 056,0.01062557,-0.00981998,-0.00025598,0.00069401,0.00003404,-0.000115
 95,-0.00018224,0.00036546,0.00041887,-0.00266518,-0.01499054,-0.000067
 32,-0.00004103,-0.00001561,-0.00032120,-0.00005417,0.00048640,-0.00057
 732,-0.01741423,-0.29752946,0.00021916,-0.00037300,0.00043654,-0.00012
 921,0.00000646,0.00001319,0.00245812,0.00016984,-0.00004292,0.00000834
 ,0.00000980,0.00000822,-0.00015913,-0.00005018,-0.00000215,0.00590099,
 0.01029876,0.32637707,-0.00888038,-0.00164412,0.00350196,0.00058283,0.
 00058138,0.00018058,-0.00000067,0.00012724,0.00000657,-0.00033277,0.00
 013401,0.00005140,-0.00103517,-0.00103926,-0.00014891,0.00864665,0.026
 05117,0.00524995,0.00010453,-0.00072109,-0.00050164,0.00002168,-0.0001
 9721,-0.00002721,-0.00857776,-0.02359131,-0.01169338,0.00017276,-0.000
 24820,0.00017246,0.00173367,-0.00010108,-0.00129266,-0.10813167,-0.109
 87258,-0.03622824,-0.00002558,0.00020018,-0.00002593,0.00000217,0.0000
 1687,0.00000281,0.00120162,0.00037543,0.00039499,-0.00001574,0.0000128
 5,-0.00000760,-0.00015906,-0.00000380,0.00017620,0.00134851,0.00043317
 ,0.00085104,0.11504354,0.00073133,0.00084386,0.00022051,0.00220838,-0.
 00092606,-0.00011058,-0.00007129,0.00007336,-0.00000363,-0.00001013,0.
 00000617,0.00000632,0.00007964,0.00006651,-0.00002027,-0.00488047,-0.0
 3278994,-0.00476892,-0.00076754,-0.00071574,0.00004662,-0.00001550,0.0
 0010325,-0.00003865,-0.00299107,-0.00081909,-0.00109591,0.00002995,0.0
 0001880,0.00000670,0.00032329,0.00018846,-0.00008659,-0.10203273,-0.23
 113727,-0.06678058,-0.00011440,0.00000167,0.00004622,-0.00000756,-0.00
 000166,0.00001091,-0.00002125,0.00022134,0.00011550,-0.00000020,-0.000
 00894,-0.00000196,-0.00000411,0.00000389,0.00000407,-0.00111656,0.0009
 0690,-0.00074814,0.10557976,0.26595664,0.00292532,0.00032305,-0.000307
 96,0.00059081,-0.00039595,0.00000967,-0.00010377,0.00001965,-0.0000025
 9,0.00005722,-0.00002937,-0.00001176,0.00031824,0.00028309,-0.00003680
 ,0.00467751,0.01525491,0.00551088,-0.00059908,-0.00035846,0.00026399,0
 .00010260,0.00015610,-0.00010184,0.00618992,0.01052578,0.00309500,-0.0
 0000811,0.00004635,-0.00003180,-0.00007313,0.00018543,0.00080331,-0.03
 880600,-0.07455043,-0.07782689,0.00001888,-0.00003021,0.00003119,0.000
 00294,-0.00000553,0.00001103,-0.00083362,0.00012426,0.00047523,0.00000
 332,-0.00000025,-0.00000123,-0.00007844,-0.00000300,-0.00002511,-0.014
 21333,-0.02502569,-0.00744915,0.04078622,0.07063821,0.07561894,-0.0002
 6397,-0.00018397,-0.00016057,-0.01045958,-0.01573551,0.02991905,-0.000
 11138,-0.00024750,0.00041599,0.00032353,0.00026337,0.00000984,-0.00009
 766,0.00009927,0.00000253,0.00014019,-0.00009347,-0.00002230,-0.002454
 07,-0.00167747,-0.01758328,-0.00002595,0.00042400,-0.00310196,0.000738
 96,0.00028732,0.00152893,-0.00008239,-0.00053047,0.00019675,0.00038019
 ,-0.00011448,-0.00007297,-0.00035742,0.00012698,0.00010059,-0.00030145
 ,-0.00243359,-0.00085456,-0.00011895,0.00010191,0.00093124,0.00013314,
 -0.00017162,-0.00006769,0.00003808,0.00018444,0.00012680,-0.00002566,0
 .00001660,0.00000931,0.00000822,-0.00004119,-0.00005118,-0.00009467,0.
 00003187,0.00001236,0.01301721,0.00027534,0.00074846,0.00084282,-0.016
 40747,-0.03732073,0.04558426,0.00029069,-0.00019972,0.00023862,0.00019
 800,0.00007750,-0.00002677,0.00012171,0.00017809,0.00003163,-0.0001745
 0,0.00018108,0.00001786,-0.00123846,-0.00498835,-0.04130364,-0.0004667
 7,0.00123707,-0.00120917,0.00011110,-0.00056417,-0.00265017,0.00002711
 ,-0.00027372,0.00012590,-0.00043200,-0.00028768,0.00014272,0.00050176,
 -0.00013584,0.00002603,-0.00216351,-0.00457756,-0.00159670,-0.00029390
 ,-0.00000657,0.00066494,0.00010670,-0.00021237,0.00122843,0.00003482,0
 .00012543,0.00009250,0.00000856,-0.00000550,-0.00001944,-0.00011879,0.
 00004621,0.00013882,0.00007948,0.00001025,0.00000631,0.01959407,0.0459
 8706,-0.00003994,0.00159799,0.00002777,0.01080425,0.00140459,-0.496582
 23,0.00020577,0.00013844,-0.00024234,0.00053703,0.00035895,-0.00011701
 ,0.00011643,0.00023875,0.00003564,-0.00022604,0.00020013,0.00000215,0.
 00002596,0.00022969,-0.01642021,0.00016715,0.00185784,0.00322180,0.001
 52713,0.00033783,0.00230215,0.00037194,-0.00035666,0.00011627,-0.00035
 658,-0.00044617,0.00016433,0.00027376,-0.00005052,-0.00014662,-0.00102
 749,-0.00256658,0.00136489,-0.00101210,-0.00038630,-0.00047080,0.00027
 219,-0.00041386,-0.00017281,0.00008071,0.00014968,0.00000225,0.0000143
 0,0.00002059,-0.00004685,-0.00003801,0.00002229,0.00004472,0.00011210,
 -0.00000018,0.00000521,-0.01120521,-0.00233534,0.50712387,-0.00020916,
 -0.00046604,0.00003792,0.00258462,-0.00178030,0.00034442,-0.09050895,-
 0.16856147,-0.07469117,0.00053983,-0.00061413,-0.00008413,-0.00023779,
 0.00068193,0.00003518,0.00012941,-0.00010937,-0.00000183,-0.00062998,0
 .00280170,0.00115207,0.00564540,0.02803981,0.00669077,0.00026236,0.000
 28248,-0.00023579,-0.00389078,0.00262995,-0.00152289,0.00123394,0.0003
 7036,0.00021438,-0.00012271,-0.00005342,0.00007042,-0.00011414,-0.0001
 1781,0.00003102,0.00003749,0.00008624,-0.00079232,0.00000851,-0.000032
 78,0.00001774,-0.00008090,-0.00015432,0.00002343,-0.00006755,0.0000243
 0,-0.00002021,0.00000689,-0.00000655,-0.00001173,-0.00003277,-0.000023
 97,-0.00000056,-0.00032963,-0.00001992,-0.00058829,0.08573783,0.000323
 88,0.00027875,-0.00000784,-0.00084822,0.00097239,-0.00021051,-0.129146
 85,-0.39257016,-0.11572329,0.00031161,0.00078352,-0.00014951,0.0002518
 2,-0.00053339,-0.00002130,-0.00029478,0.00018972,0.00001945,-0.0003314
 3,0.00061025,-0.00131618,-0.00824826,-0.02954456,-0.00785852,-0.000938
 52,-0.00088180,0.00022878,0.00381451,-0.00300828,0.00295873,-0.0014105
 5,-0.00028208,-0.00045015,0.00024681,0.00023936,-0.00014897,0.00018569
 ,-0.00001226,-0.00000490,-0.00126824,0.00174949,-0.00050755,-0.0000243
 4,0.00003458,-0.00000333,0.00013869,0.00046900,0.00013681,0.00006843,-
 0.00000468,0.00007982,-0.00003069,0.00000059,0.00003118,0.00001333,0.0
 0000284,-0.00001411,0.00018001,0.00004957,0.00007735,0.13710704,0.4215
 2699,-0.00003564,-0.00000130,-0.00003806,0.00036363,-0.00045471,-0.000
 55407,-0.07236213,-0.14498503,-0.06431173,-0.00003654,0.00006884,-0.00
 008721,-0.00018571,0.00063695,0.00001747,-0.00012470,0.00007071,-0.000
 00046,-0.00039651,0.00044834,0.00040888,0.00438560,0.01958189,0.002927
 11,-0.00021791,-0.00026372,0.00012052,-0.00206375,0.00162568,-0.000986
 42,0.00060840,0.00013340,0.00079986,0.00008818,0.00006134,-0.00007710,
 0.00010225,-0.00005894,-0.00005318,0.00057996,0.00028644,0.00067358,-0
 .00000920,0.00002596,-0.00005297,0.00007240,0.00010239,0.00028120,0.00
 006140,-0.00006418,-0.00002942,-0.00000244,-0.00000108,0.00000102,-0.0
 0001225,-0.00000424,-0.00000162,-0.00018144,0.00002818,-0.00020917,0.0
 6937965,0.12283944,0.06116465,0.00061704,-0.00011480,-0.00083091,0.000
 23994,0.00024879,0.00003090,-0.00020784,0.00035966,-0.00033850,-0.0428
 4062,-0.01041897,-0.04742194,0.00002418,-0.00013222,-0.00043678,0.0000
 6928,-0.00003810,0.00000196,-0.00049674,0.00014743,-0.00026459,0.00160
 482,-0.00019407,0.00112239,-0.00018154,-0.00014052,-0.00012728,-0.0058
 3479,0.00180583,0.04444142,-0.00101293,0.00146180,0.00271106,-0.000061
 45,0.00003373,0.00003492,0.00020808,0.00001116,-0.00013126,-0.00022749
 ,-0.00061050,-0.00132484,-0.00001415,0.00000177,0.00002190,-0.00533884
 ,-0.00081300,0.00168414,-0.00014282,0.00012873,-0.00097488,0.00000895,
 -0.00000412,-0.00000205,0.00002360,0.00000061,-0.00000033,-0.00006724,
 -0.00003395,-0.00002714,0.00001335,-0.00007520,-0.00001247,0.05363786,
 -0.00047520,-0.00009227,0.00044602,0.00029616,0.00019806,-0.00001957,-
 0.00000132,-0.00002909,-0.00028932,-0.00788361,-0.00581540,-0.03405272
 ,0.00013875,-0.00013326,0.00024631,0.00003426,-0.00003126,0.00000085,-
 0.00048815,0.00006726,-0.00019072,0.00080675,0.00065016,0.00290717,0.0
 0014611,0.00037516,0.00007430,-0.00020985,-0.00148736,0.00689386,0.000
 71368,-0.00061776,-0.00229154,-0.00003555,-0.00006818,0.00000671,0.000
 15485,-0.00000468,-0.00010616,-0.00028199,0.00014130,-0.00102567,0.000
 00509,-0.00002813,-0.00001124,-0.00122048,0.00064527,0.00061786,-0.000
 05632,0.00014970,0.00035114,0.00000423,0.00000015,-0.00000192,-0.00002
 012,0.00000005,0.00000308,-0.00008126,-0.00003019,-0.00003457,-0.00004
 444,-0.00008321,-0.00002697,0.00847906,0.00619442,-0.00152824,0.000601
 88,0.00013591,-0.00051052,-0.00045072,-0.00011338,-0.00005844,-0.00025
 900,-0.00023885,0.00053876,-0.02491666,-0.49652365,-0.00012314,0.00030
 696,-0.00001903,-0.00008271,0.00004135,-0.00000189,0.00036452,-0.00051
 722,0.00010711,-0.00266578,0.00076575,0.00333586,0.00030147,0.00017809
 ,0.00017491,-0.00084910,-0.00092349,-0.01620740,-0.00002886,-0.0017324
 2,0.00153422,0.00006893,-0.00004818,-0.00005429,-0.00017491,-0.0000453
 0,0.00001213,0.00008071,0.00052980,0.00010286,-0.00001456,-0.00001317,
 -0.00005146,0.00263372,0.00043190,0.00137226,0.00018445,-0.00038283,-0
 .00021820,-0.00000528,0.00000471,0.00000303,-0.00003075,-0.00000127,0.
 00000334,0.00004733,0.00001893,0.00004895,0.00000691,0.00000157,0.0000
 7237,0.00183287,0.02644204,0.50661865,0.00136705,0.00090895,-0.0011567
 6,-0.00008430,0.00011488,0.00002112,-0.00004295,-0.00014282,-0.0000305
 8,-0.00026892,0.00014325,-0.00022463,-0.02731272,-0.00445452,-0.095365
 44,0.00004980,-0.00001629,0.00000290,0.00017543,-0.00012681,0.00004758
 ,0.00012803,0.00027955,0.00002260,-0.00034357,-0.00071468,0.00005044,0
 .00042007,-0.00016868,0.00236690,-0.00579191,-0.00189177,-0.01277581,-
 0.00001618,0.00010881,0.00007488,-0.00000755,0.00000801,-0.00000451,-0
 .00003544,-0.00003989,-0.00004572,0.00004657,0.00019511,0.00015906,0.0
 0019615,-0.00031041,-0.00037898,0.00173749,-0.00060768,0.00022007,0.00
 000063,-0.00000743,0.00000368,0.00006685,-0.00000459,-0.00000705,0.000
 01601,-0.00001183,-0.00000706,0.00002038,-0.00002636,-0.00000718,0.000
 00125,0.00000472,-0.00001937,0.02972018,0.00060784,0.00095113,0.000748
 14,0.00014970,0.00017180,0.00003209,-0.00000279,0.00045703,0.00006740,
 -0.00009229,-0.00008169,0.00052857,0.00559504,-0.04459101,0.06122985,0
 .00004456,-0.00001968,-0.00000843,-0.00021204,-0.00008983,0.00002835,-
 0.00051603,-0.00046557,0.00013339,-0.00022229,-0.00021212,0.00002020,0
 .00048060,0.00020706,-0.00368369,-0.01088276,-0.00633929,-0.04639929,-
 0.00001859,0.00000042,0.00010535,0.00001862,0.00000395,-0.00000395,0.0
 0010993,0.00020467,0.00020161,0.00005727,0.00009884,0.00015750,0.00034
 641,-0.00142563,0.00153513,-0.00200762,-0.00500930,-0.00158038,-0.0000
 2061,-0.00000893,-0.00000370,0.00001787,-0.00000367,-0.00000990,-0.000
 02237,-0.00001262,-0.00002408,-0.00005018,0.00003955,-0.00003708,-0.00
 011409,-0.00000195,-0.00001736,0.00674891,0.05611708,0.00081466,0.0018
 8430,0.00088325,0.00007241,0.00024134,0.00004277,-0.00001286,0.0006358
 2,0.00003180,0.00002805,0.00010230,-0.00006033,-0.10511134,0.01375505,
 -0.47169226,0.00007831,-0.00005821,-0.00000430,-0.00011595,-0.00023433
 ,0.00007591,-0.00071990,0.00018479,-0.00002961,0.00020470,-0.00003884,
 -0.00036650,0.00175345,0.00111980,0.00220989,-0.00398785,-0.00158113,-
 0.01628564,-0.00005189,0.00025484,0.00012478,0.00002849,0.00001718,-0.
 00002344,0.00004224,0.00015486,0.00001343,0.00011091,0.00013758,0.0000
 0722,0.00061412,-0.00109624,-0.00047163,-0.00080097,-0.00255131,0.0014
 6827,0.00000014,-0.00000970,-0.00001770,0.00010099,-0.00000298,-0.0000
 2424,-0.00001074,-0.00002063,-0.00002598,-0.00006369,0.00005697,-0.000
 06210,0.00000776,0.00006009,-0.00008993,0.10705926,-0.01302523,0.48428
 261,0.00099719,-0.00016964,-0.00040039,-0.00015496,-0.00030751,-0.0000
 6706,0.00004739,-0.00009975,0.00000650,0.00034989,-0.00012833,-0.00003
 951,0.00017542,0.00034933,0.00012891,-0.10676089,-0.17932394,-0.083616
 00,-0.00004529,0.00021761,-0.00018899,-0.00003227,0.00011037,0.0000520
 3,0.00022702,0.00273183,0.00089453,0.00001589,0.00028232,-0.00022874,-
 0.00079818,-0.00140175,0.00055357,0.00647713,0.02697760,0.00690973,0.0
 0001664,-0.00003421,0.00001642,-0.00000027,-0.00001073,-0.00000646,-0.
 00009580,-0.00007440,-0.00001044,0.00000340,0.00000307,0.00001081,0.00
 011488,0.00001265,-0.00011261,-0.00003232,-0.00012779,-0.00060921,-0.0
 0166214,0.00307656,-0.00096193,-0.00000552,0.00001173,0.00001913,0.000
 00434,0.00000161,0.00000643,-0.00002190,0.00001463,0.00003196,-0.00004
 236,-0.00001509,-0.00004029,0.10122272,-0.00036588,0.00046704,0.000126
 41,0.00020358,0.00020720,0.00008529,-0.00025568,0.00014807,-0.00001356
 ,-0.00015763,0.00001025,0.00003089,-0.00009234,-0.00016378,-0.00004432
 ,-0.13849573,-0.37639418,-0.12108821,-0.00080646,-0.00074332,0.0002748
 8,0.00017293,0.00016265,-0.00012136,-0.00070672,0.00063848,-0.00139701
 ,0.00006174,-0.00001410,0.00005803,0.00053101,0.00045866,-0.00022101,-
 0.01042378,-0.03073083,-0.00975347,-0.00000591,0.00000174,0.00001086,-
 0.00002672,-0.00000274,0.00002891,0.00014573,-0.00005007,-0.00000023,-
 0.00000600,-0.00000675,-0.00000634,-0.00004389,-0.00000883,0.00004187,
 -0.00150466,0.00195357,-0.00032980,0.00381603,-0.00200164,0.00285669,0
 .00002307,-0.00002571,-0.00001986,0.00001091,-0.00002617,-0.00001229,0
 .00001097,0.00000121,-0.00001536,0.00001158,0.00000976,0.00001367,0.14
 790386,0.40610950,-0.00031074,0.00024790,0.00002148,-0.00008743,0.0001
 5106,0.00007801,-0.00012435,0.00006770,-0.00001141,-0.00004493,-0.0000
 0540,0.00001056,-0.00009149,-0.00009006,-0.00001730,-0.08078575,-0.149
 75904,-0.07057821,-0.00013350,-0.00030996,0.00016166,0.00006599,0.0000
 6082,-0.00008166,-0.00059577,-0.00031272,0.00004150,0.00004167,0.00002
 051,0.00001606,0.00020531,-0.00004544,-0.00019553,0.00487983,0.0174669
 2,0.00301822,-0.00000332,0.00001882,-0.00003831,-0.00000207,-0.0000026
 9,0.00000185,0.00010253,-0.00006195,-0.00002718,-0.00000632,-0.0000049
 9,-0.00000357,0.00001996,0.00000003,-0.00000322,0.00081928,0.00052786,
 0.00085958,-0.00161870,0.00256885,-0.00000681,0.00001118,-0.00002609,-
 0.00002599,0.00000870,-0.00001393,-0.00000316,0.00000367,0.00000097,-0
 .00000353,-0.00000538,0.00000551,0.00001374,0.07765161,0.12949534,0.06
 677322\\-0.00000557,-0.00001204,-0.00000936,-0.00001195,0.00000024,0.0
 0001101,0.00000425,-0.00001727,-0.00000925,0.00000060,-0.00001066,-0.0
 0003666,0.00003425,0.00000003,-0.00002195,-0.00000544,0.00001554,0.000
 04490,-0.00000492,0.00002269,-0.00000592,-0.00002425,-0.00000112,-0.00
 000202,0.00002698,0.00000775,0.00002797,-0.00000732,-0.00000479,-0.000
 03102,0.00000458,-0.00000613,0.00000257,-0.00000883,0.00000095,0.00002
 579,0.00001420,0.00000130,0.00001004,-0.00001299,-0.00000752,-0.000012
 01,-0.00001491,0.00000196,0.00001040,0.00001421,-0.00000758,-0.0000166
 8,-0.00001002,-0.00000253,-0.00001094,0.00001637,0.00001161,0.00002493
 ,0.00000113,0.00001137,0.00002860,-0.00001920,0.00000058,0.00001225,-0
 .00000563,-0.00000721,-0.00001344,-0.00000621,-0.00001285,-0.00003146,
 0.00000739,0.00000008,-0.00001568,0.00001326,0.00001560,0.00001791\\\@


 Everywhere is walking distance if you have the time.
                                    -- Steven Wright
 Job cpu time:  0 days  6 hours 49 minutes 51.2 seconds.
 File lengths (MBytes):  RWF=    449 Int=      0 D2E=      0 Chk=     18 Scr=      1
 Normal termination of Gaussian 09 at Thu Apr  2 02:31:10 2015.
Gaussian '09 finished on node013 at Thu Apr  2 02:31:10 EDT 2015.
