Gaussian '09 started on node028 at Fri Feb 12 11:29:03 EST 2016.
 Entering Gaussian System, Link 0=/usr/local/gaussian/g09/g09
 Initial command:
 /usr/local/gaussian/g09/l1.exe /home/srmcgrat/thesis/gaussian/cellobiose/450/9000/1/2dfp/gaussian19456/Gau-19492.inp -scrdir=/home/srmcgrat/thesis/gaussian/cellobiose/450/9000/1/2dfp/gaussian19456/
 Entering Link 1 = /usr/local/gaussian/g09/l1.exe PID=     19494.
  
 Copyright (c) 1988,1990,1992,1993,1995,1998,2003,2009,2010,
            Gaussian, Inc.  All Rights Reserved.
  
 This is part of the Gaussian(R) 09 program.  It is based on
 the Gaussian(R) 03 system (copyright 2003, Gaussian, Inc.),
 the Gaussian(R) 98 system (copyright 1998, Gaussian, Inc.),
 the Gaussian(R) 94 system (copyright 1995, Gaussian, Inc.),
 the Gaussian 92(TM) system (copyright 1992, Gaussian, Inc.),
 the Gaussian 90(TM) system (copyright 1990, Gaussian, Inc.),
 the Gaussian 88(TM) system (copyright 1988, Gaussian, Inc.),
 the Gaussian 86(TM) system (copyright 1986, Carnegie Mellon
 University), and the Gaussian 82(TM) system (copyright 1983,
 Carnegie Mellon University). Gaussian is a federally registered
 trademark of Gaussian, Inc.
  
 This software contains proprietary and confidential information,
 including trade secrets, belonging to Gaussian, Inc.
  
 This software is provided under written license and may be
 used, copied, transmitted, or stored only in accord with that
 written license.
  
 The following legend is applicable only to US Government
 contracts under FAR:
  
                    RESTRICTED RIGHTS LEGEND
  
 Use, reproduction and disclosure by the US Government is
 subject to restrictions as set forth in subparagraphs (a)
 and (c) of the Commercial Computer Software - Restricted
 Rights clause in FAR 52.227-19.
  
 Gaussian, Inc.
 340 Quinnipiac St., Bldg. 40, Wallingford CT 06492
  
  
 ---------------------------------------------------------------
 Warning -- This program may not be used in any manner that
 competes with the business of Gaussian, Inc. or will provide
 assistance to any competitor of Gaussian, Inc.  The licensee
 of this program is prohibited from giving any competitor of
 Gaussian, Inc. access to this program.  By using this program,
 the user acknowledges that Gaussian, Inc. is engaged in the
 business of creating and licensing software in the field of
 computational chemistry and represents and warrants to the
 licensee that it is not a competitor of Gaussian, Inc. and that
 it will not use this program in any manner prohibited above.
 ---------------------------------------------------------------
  

 Cite this work as:
 Gaussian 09, Revision B.01,
 M. J. Frisch, G. W. Trucks, H. B. Schlegel, G. E. Scuseria, 
 M. A. Robb, J. R. Cheeseman, G. Scalmani, V. Barone, B. Mennucci, 
 G. A. Petersson, H. Nakatsuji, M. Caricato, X. Li, H. P. Hratchian, 
 A. F. Izmaylov, J. Bloino, G. Zheng, J. L. Sonnenberg, M. Hada, 
 M. Ehara, K. Toyota, R. Fukuda, J. Hasegawa, M. Ishida, T. Nakajima, 
 Y. Honda, O. Kitao, H. Nakai, T. Vreven, J. A. Montgomery, Jr., 
 J. E. Peralta, F. Ogliaro, M. Bearpark, J. J. Heyd, E. Brothers, 
 K. N. Kudin, V. N. Staroverov, T. Keith, R. Kobayashi, J. Normand, 
 K. Raghavachari, A. Rendell, J. C. Burant, S. S. Iyengar, J. Tomasi, 
 M. Cossi, N. Rega, J. M. Millam, M. Klene, J. E. Knox, J. B. Cross, 
 V. Bakken, C. Adamo, J. Jaramillo, R. Gomperts, R. E. Stratmann, 
 O. Yazyev, A. J. Austin, R. Cammi, C. Pomelli, J. W. Ochterski, 
 R. L. Martin, K. Morokuma, V. G. Zakrzewski, G. A. Voth, 
 P. Salvador, J. J. Dannenberg, S. Dapprich, A. D. Daniels, 
 O. Farkas, J. B. Foresman, J. V. Ortiz, J. Cioslowski, 
 and D. J. Fox, Gaussian, Inc., Wallingford CT, 2010.
 
 ******************************************
 Gaussian 09:  EM64L-G09RevB.01 12-Aug-2010
                12-Feb-2016 
 ******************************************
 --------------------------------------------------
 # freq=raman b3lyp/6-31+g(2df,p) geom=connectivity
 --------------------------------------------------
 1/10=4,30=1,38=1,57=2/1,3;
 2/12=2,17=6,18=5,40=1/2;
 3/5=1,6=6,7=114,11=2,16=1,25=1,30=1,71=2,74=-5/1,2,3;
 4//1;
 5/5=2,38=5,98=1/2;
 8/6=4,10=90,11=11/1;
 10/13=10,15=4/2;
 11/6=3,8=1,9=11,15=111,16=1/1,2,10;
 10/6=1/2;
 6/7=2,8=2,9=2,10=2,18=1,28=1/1;
 7/8=1,10=1,25=1/1,2,3,16;
 1/10=4,30=1/3;
 99//99;
 ------------
 450 9000.com
 ------------
 Symbolic Z-matrix:
 Charge =  0 Multiplicity = 1
 O                     9.942     8.071     11.508 
 C                     10.859    7.998     12.609 
 C                     11.322    9.392     12.999 
 O                     12.05     10.16     12.029 
 H                     11.782    9.997     11.08 
 C                     12.083    9.396     14.314 
 O                     12.1      10.663    14.987 
 H                     12.564    11.4      14.495 
 C                     9.947     5.776     13.261 
 O                     10.953    4.756     13.161 
 H                     10.527    3.899     12.873 
 C                     10.187    7.205     13.719 
 O                     11.118    7.152     14.81 
 C                     11.451    8.45      15.323 
 O                     12.077    8.165     16.582 
 C                     11.382    8.35      17.824 
 C                     10.807    7.004     18.237 
 O                     9.885     6.43      17.3 
 H                     10.299    6.405     16.39 
 C                     10.338    7.272     19.657 
 O                     9.706     6.102     20.197 
 H                     8.943     5.793     19.629 
 C                     12.825    10.313    18.456 
 O                     13.57     11.027    19.453 
 H                     14.363    10.581    19.867 
 C                     12.394    8.9       18.814 
 O                     11.706    8.973     20.071 
 C                     11.426    7.684     20.635 
 O                     10.696    7.941     21.844 
 H                     11.31259   8.09399   22.56373 
 H                     12.25774   7.01537   20.71268 
 H                     9.6109    8.0562    19.6217 
 H                     11.62924   6.32291   18.30734 
 H                     10.58838   9.05522   17.69083 
 H                     13.24269   8.25238   18.88616 
 H                     11.94564   10.87982   18.23165 
 H                     13.42319   10.26158   17.57032 
 H                     10.43357   8.12555   10.68521 
 H                     9.50665   5.84982   12.28861 
 H                     9.19392   5.3823    13.9112 
 H                     9.27137   7.66926   14.02064 
 H                     11.71759   7.44691   12.28647 
 H                     10.42474   9.94514   13.18298 
 H                     13.09088   9.08648   14.1316 
 H                     10.51641   8.90693   15.57331 
 

 GradGradGradGradGradGradGradGradGradGradGradGradGradGradGradGradGradGrad
 Berny optimization.
 Initialization pass.
 Trust Radius=3.00D-01 FncErr=1.00D-07 GrdErr=1.00D-07
 Number of steps in this run=      2 maximum allowed number of steps=      2.
 GradGradGradGradGradGradGradGradGradGradGradGradGradGradGradGradGradGrad

                          Input orientation:                          
 ---------------------------------------------------------------------
 Center     Atomic      Atomic             Coordinates (Angstroms)
 Number     Number       Type             X           Y           Z
 ---------------------------------------------------------------------
      1          8           0        9.942000    8.071000   11.508000
      2          6           0       10.859000    7.998000   12.609000
      3          6           0       11.322000    9.392000   12.999000
      4          8           0       12.050000   10.160000   12.029000
      5          1           0       11.782000    9.997000   11.080000
      6          6           0       12.083000    9.396000   14.314000
      7          8           0       12.100000   10.663000   14.987000
      8          1           0       12.564000   11.400000   14.495000
      9          6           0        9.947000    5.776000   13.261000
     10          8           0       10.953000    4.756000   13.161000
     11          1           0       10.527000    3.899000   12.873000
     12          6           0       10.187000    7.205000   13.719000
     13          8           0       11.118000    7.152000   14.810000
     14          6           0       11.451000    8.450000   15.323000
     15          8           0       12.077000    8.165000   16.582000
     16          6           0       11.382000    8.350000   17.824000
     17          6           0       10.807000    7.004000   18.237000
     18          8           0        9.885000    6.430000   17.300000
     19          1           0       10.299000    6.405000   16.390000
     20          6           0       10.338000    7.272000   19.657000
     21          8           0        9.706000    6.102000   20.197000
     22          1           0        8.943000    5.793000   19.629000
     23          6           0       12.825000   10.313000   18.456000
     24          8           0       13.570000   11.027000   19.453000
     25          1           0       14.363000   10.581000   19.867000
     26          6           0       12.394000    8.900000   18.814000
     27          8           0       11.706000    8.973000   20.071000
     28          6           0       11.426000    7.684000   20.635000
     29          8           0       10.696000    7.941000   21.844000
     30          1           0       11.312592    8.093994   22.563727
     31          1           0       12.257742    7.015366   20.712675
     32          1           0        9.610896    8.056202   19.621697
     33          1           0       11.629236    6.322912   18.307339
     34          1           0       10.588383    9.055221   17.690828
     35          1           0       13.242691    8.252376   18.886157
     36          1           0       11.945636   10.879822   18.231651
     37          1           0       13.423186   10.261577   17.570320
     38          1           0       10.433566    8.125554   10.685208
     39          1           0        9.506653    5.849823   12.288609
     40          1           0        9.193915    5.382299   13.911202
     41          1           0        9.271372    7.669264   14.020636
     42          1           0       11.717591    7.446912   12.286472
     43          1           0       10.424736    9.945143   13.182981
     44          1           0       13.090884    9.086485   14.131601
     45          1           0       10.516411    8.906933   15.573310
 ---------------------------------------------------------------------
                    Distance matrix (angstroms):
                    1          2          3          4          5
     1  O    0.000000
     2  C    1.434719   0.000000
     3  C    2.423329   1.519771   0.000000
     4  O    3.013142   2.535572   1.435517   0.000000
     5  H    2.697825   2.680629   2.064022   0.999497   0.000000
     6  C    3.770032   2.521826   1.519329   2.409566   3.303113
     7  O    4.845500   3.781163   2.484526   3.000879   3.976095
     8  H    5.184524   4.247073   2.795111   2.807660   3.773878
     9  C    2.887916   2.488801   3.877464   5.015963   5.093214
    10  O    3.839760   3.290001   4.653483   5.629214   5.699639
    11  H    4.428435   4.120888   5.551662   6.498614   6.478849
    12  C    2.387154   1.520701   2.567020   3.880579   4.159761
    13  O    3.623636   2.372172   2.887722   4.201268   4.737913
    14  C    4.120066   2.814350   2.510972   3.759433   4.528335
    15  O    5.505682   4.158863   3.861793   4.970972   5.806484
    16  C    6.484080   5.252967   4.936597   6.107729   6.953714
    17  C    6.867762   5.715341   5.779655   7.074224   7.818652
    18  O    6.020249   5.041109   5.416365   6.810548   7.416906
    19  H    5.170776   4.140919   4.633312   6.015343   6.580110
    20  C    8.197647   7.104423   7.056318   8.334139   9.114587
    21  O    8.912428   7.905819   8.077547   9.416896  10.129190
    22  H    8.493405   7.603518   7.910079   9.299685   9.940771
    23  C    7.849392   6.588762   5.734640   6.475366   7.456077
    24  O    9.220810   7.960195   7.027151   7.627442   8.623513
    25  H    9.783569   8.463360   7.604658   8.182998   9.176818
    26  C    7.750947   6.455374   5.933420   6.909570   7.835350
    27  O    8.789213   7.572944   7.094801   8.136404   9.049444
    28  C    9.254953   8.052128   7.825380   8.976814   9.837415
    29  O   10.364281   9.236614   8.985060  10.153399  11.012276
    30  H   11.140384   9.965518   9.652404  10.760698  11.649796
    31  H    9.550030   8.282005   8.125564   9.237862  10.094796
    32  H    8.120464   7.123137   6.969387   8.247681   9.024466
    33  H    7.220359   5.989178   6.139394   7.370063   8.109050
    34  H    6.293955   5.197685   4.760763   5.950896   6.783415
    35  H    8.084841   6.719329   6.296540   7.216796   8.131015
    36  H    7.557217   6.410919   5.475690   6.245152   7.207792
    37  H    7.325913   6.026071   5.105694   5.709832   6.699832
    38  H    0.960000   1.974396   2.783313   2.925339   2.340181
    39  H    2.394265   2.558546   4.043162   5.011351   4.882317
    40  H    3.682950   3.363053   4.630179   5.875911   6.000779
    41  H    2.631440   2.149732   2.866468   4.229794   4.513198
    42  H    2.036720   1.070000   2.108923   2.745475   2.821821
    43  H    2.559494   2.075911   1.070000   2.004824   2.503475
    44  H    4.222554   2.912803   2.122517   2.580079   3.443034
    45  H    4.189926   3.119401   2.740682   4.060075   4.793725
                    6          7          8          9         10
     6  C    0.000000
     7  O    1.434750   0.000000
     8  H    2.068849   1.000264   0.000000
     9  C    4.333094   5.612241   6.324620   0.000000
    10  O    4.912831   6.288285   6.965459   1.436118   0.000000
    11  H    5.891912   7.259134   7.940104   2.002517   0.999434
    12  C    2.957925   4.150320   4.883680   1.519673   2.625970
    13  O    2.492544   3.650038   4.498405   2.379920   2.913287
    14  C    1.520665   2.330551   3.259885   3.696503   4.309047
    15  O    2.580547   2.963876   3.880459   4.612295   4.958619
    16  C    3.729024   3.730156   4.667105   5.431912   5.902918
    17  C    4.768623   5.061880   6.034437   5.196938   5.553431
    18  O    4.748111   5.307964   6.304440   4.092075   4.590667
    19  H    4.054444   4.831415   5.802695   3.210948   3.684204
    20  C    6.008665   6.034271   6.974360   6.580252   6.993318
    21  O    7.149144   7.326531   8.291548   6.947838   7.271315
    22  H    7.147757   7.431804   8.420692   6.446684   6.852043
    23  C    4.306694   3.561192   4.115727   7.473639   7.900738
    24  O    5.592911   4.715777   5.072763   8.890444   9.260853
    25  H    6.118695   5.379804   5.724120   9.285920   9.514681
    26  C    4.537922   4.223806   4.993262   6.825174   7.155811
    27  O    5.784817   5.372001   6.141520   7.725994   8.130080
    28  C    6.581613   6.420952   7.266588   7.759110   8.040994
    29  O    7.793696   7.509923   8.334381   8.883474   9.252284
    30  H    8.387296   8.039067   8.809089   9.683938   9.984126
    31  H    6.829422   6.790690   7.614348   7.899558   7.989674
    32  H    6.006497   5.871240   6.795943   6.765409   7.377885
    33  H    5.059301   5.484764   6.417518   5.347389   5.421929
    34  H    3.708501   3.490076   4.428812   5.548697   6.255845
    35  H    4.853594   4.724434   5.445220   6.973980   7.088353
    36  H    4.191490   3.255549   3.823025   7.399387   8.012367
    37  H    3.626147   2.930103   3.389956   7.125623   7.473640
    38  H    4.183634   5.265078   5.456671   3.520207   4.213461
    39  H    4.828576   6.097003   6.709695   1.070000   2.012321
    40  H    4.961739   6.122783   6.921778   1.070000   2.012321
    41  H    3.312542   4.230538   4.998481   2.148946   3.471880
    42  H    2.836078   4.216907   4.606616   2.622335   2.930939
    43  H    2.081010   2.564432   2.900768   4.197151   5.216009
    44  H    1.070000   2.049136   2.400420   4.647716   4.926024
    45  H    2.068635   2.436244   3.401581   3.933669   4.820798
                   11         12         13         14         15
    11  H    0.000000
    12  C    3.429424   0.000000
    13  O    3.831874   1.435218   0.000000
    14  C    5.250512   2.391764   1.434874   0.000000
    15  O    5.861564   3.562368   2.255179   1.434637   0.000000
    16  C    6.712289   4.426068   3.254089   2.503949   1.435205
    17  C    6.204186   4.564770   3.444264   3.316180   2.387435
    18  O    5.139694   3.676328   2.870831   3.231298   2.886280
    19  H    4.324501   2.790481   1.930070   2.578298   2.509133
    20  C    7.578622   5.940297   4.910826   4.627095   3.643789
    21  O    7.692089   6.588813   5.667099   5.684541   4.790181
    22  H    7.193040   6.202369   5.458962   5.647243   4.973183
    23  C    8.808524   6.249630   5.118504   3.895425   2.947081
    24  O   10.166840   7.676661   6.525747   5.309236   4.320039
    25  H   10.405770   8.162981   6.918187   5.802486   4.674834
    26  C    7.986938   5.805420   4.551450   3.644013   2.371189
    27  O    8.885197   6.766172   5.598206   4.783519   3.600504
    28  C    8.682342   7.042416   5.857347   5.367003   4.133034
    29  O    9.840994   8.174130   7.090681   6.584265   5.444812
    30  H   10.588924   8.960271   7.813162   7.250794   6.030789
    31  H    8.612068   7.296261   6.013257   5.635389   4.291481
    32  H    7.979129   5.991517   5.122634   4.692532   3.915772
    33  H    6.051637   4.889885   3.630445   3.669135   2.563313
    34  H    7.057043   4.399983   3.493124   2.591720   2.058634
    35  H    7.904740   6.093747   4.726541   3.993156   2.583720
    36  H    8.914009   6.079568   5.127313   3.822166   3.179444
    37  H    8.422297   5.886275   4.754232   3.495966   2.680416
    38  H    4.760139   3.179954   4.293037   4.759154   6.121649
    39  H    2.277791   2.084562   3.263360   4.443978   5.513614
    40  H    2.248367   2.084562   2.764377   4.061821   4.815471
    41  H    4.136249   1.070000   2.073811   2.656403   3.831173
    42  H    3.788034   2.110300   2.610493   3.209012   4.369941
    43  H    6.054948   2.802181   3.305973   2.805058   4.177585
    44  H    5.921789   3.484648   2.845124   2.124562   2.807410
    45  H    5.689568   2.538416   2.006076   1.070000   2.000840
                   16         17         18         19         20
    16  C    0.000000
    17  C    1.520825   0.000000
    18  O    2.490378   1.434409   0.000000
    19  H    2.648069   2.007056   1.000060   0.000000
    20  C    2.368947   1.519271   2.543545   3.380310   0.000000
    21  O    3.673365   2.422273   2.920999   3.864804   1.435244
    22  H    3.967996   2.622724   2.591790   3.564323   2.033286
    23  C    2.516951   3.881980   5.005759   5.091316   4.107950
    24  O    3.821952   5.029648   6.272722   6.437724   4.958575
    25  H    4.247066   5.300657   6.623653   6.785617   5.214806
    26  C    1.518797   2.538959   3.832516   4.060767   2.754663
    27  O    2.354169   2.837026   4.178676   4.703619   2.221761
    28  C    2.889154   2.568261   3.881935   4.574494   1.519859
    29  O    4.098570   3.728369   4.856828   5.680055   2.314885
    30  H    4.747143   4.490465   5.702080   6.480353   3.174046
    31  H    3.300397   2.869451   4.197488   4.784845   2.205838
    32  H    2.540638   2.110730   2.847797   3.693755   1.070000
    33  H    2.098530   1.070000   2.017067   2.335049   2.095147
    34  H    1.070000   2.133918   2.745775   2.966407   2.666158
    35  H    2.144733   2.812905   4.136549   4.278891   3.161102
    36  H    2.623712   4.039619   4.991504   5.111470   4.199106
    37  H    2.808010   4.230922   5.222338   5.101655   4.776000
    38  H    7.205016   7.643749   6.850642   5.960123   9.012810
    39  H    6.356758   6.197289   5.059031   4.213958   7.550292
    40  H    5.376332   4.893310   3.613755   2.900270   6.155818
    41  H    4.402696   4.536348   3.559008   2.875459   5.750140
    42  H    5.620712   6.036069   5.433963   4.465078   7.500569
    43  H    4.999989   5.859996   5.440348   4.778430   7.004723
    44  H    4.134792   5.138791   5.231956   4.481668   6.434342
    45  H    2.474879   3.286463   3.084694   2.640818   4.402427
                   21         22         23         24         25
    21  O    0.000000
    22  H    1.000137   0.000000
    23  C    5.521935   6.072582   0.000000
    24  O    6.303940   6.988194   1.434862   0.000000
    25  H    6.469775   7.235882   2.104326   0.999580   0.000000
    26  C    4.119082   4.714560   1.520031   2.513051   2.794912
    27  O    3.501217   4.235792   2.378232   2.841714   3.112383
    28  C    2.377597   3.279208   3.690106   4.143611   4.196237
    29  O    2.659818   3.548681   4.651620   4.847696   4.932040
    30  H    3.485767   4.418389   4.907625   4.834773   4.771008
    31  H    2.758903   3.695408   4.035933   4.404772   4.226231
    32  H    2.039344   2.359708   4.096639   4.952636   5.386768
    33  H    2.705265   3.040306   4.168063   5.216085   5.295028
    34  H    3.972532   4.135925   2.677677   3.985374   4.616434
    35  H    4.341729   5.008761   2.146083   2.850786   2.763989
    36  H    5.630822   6.069940   1.070000   2.037624   2.933821
    37  H    6.165955   6.654202   1.070000   2.037624   2.502003
    38  H    9.751836   9.362372   8.419565   9.753450  10.284696
    39  H    7.914922   7.362220   8.304703   9.728435  10.168587
    40  H    6.347555   5.738017   7.625731   9.040149   9.445499
    41  H    6.386915   5.923001   6.268179   7.698258   8.281477
    42  H    8.272347   8.021626   6.892306   8.222382   8.618880
    43  H    8.030118   7.809417   5.805283   7.097622   7.783980
    44  H    7.560004   7.633701   4.502828   5.684403   6.061902
    45  H    5.468357   5.349843   3.951773   5.373182   6.002876
                   26         27         28         29         30
    26  C    0.000000
    27  O    1.434825   0.000000
    28  C    2.394101   1.434579   0.000000
    29  O    3.603302   2.286625   1.435489   0.000000
    30  H    3.984914   2.672285   1.975081   0.960000   0.000000
    31  H    2.678690   2.132721   1.070000   2.139096   2.341610
    32  H    3.018284   2.330634   2.111852   2.475753   3.398932
    33  H    2.735498   3.184236   2.704047   3.999639   4.621021
    34  H    2.132103   2.630788   3.354101   4.301384   5.019320
    35  H    1.070000   2.069921   2.584931   3.915537   4.156307
    36  H    2.111837   2.660188   4.032293   4.821548   5.189264
    37  H    2.111837   3.295840   4.474921   5.575568   5.838419
    38  H    8.397638   9.509487  10.008909  11.163403  11.911041
    39  H    7.760225   8.669312   8.758444   9.853582  10.671259
    40  H    6.830241   7.559551   7.449126   8.469503   9.311727
    41  H    5.851654   6.650868   6.956468   7.956659   8.793826
    42  H    6.721429   7.932714   8.356982   9.624661  10.305566
    43  H    6.056294   7.073295   7.851617   8.894011   9.602783
    44  H    4.737645   6.099774   6.858061   8.156513   8.674567
    45  H    3.745325   4.652817   5.286173   6.347191   7.082422
                   31         32         33         34         35
    31  H    0.000000
    32  H    3.046206   0.000000
    33  H    2.580728   2.967411   0.000000
    34  H    4.009904   2.383647   2.988139   0.000000
    35  H    2.415883   3.710720   2.580910   3.019722   0.000000
    36  H    4.602924   3.918683   4.568508   2.337477   3.002366
    37  H    4.665892   4.858537   4.390277   3.083168   2.408505
    38  H   10.252328   8.974544   7.923132   7.068731   8.669649
    39  H    8.938226   7.658536   6.399553   6.374064   7.953482
    40  H    7.636359   6.319287   5.112882   5.451648   7.027097
    41  H    7.357267   5.624667   5.074249   4.138321   6.307510
    42  H    8.454519   7.656038   6.125522   5.750551   6.821329
    43  H    8.284914   6.759253   6.389869   4.597763   6.582746
    44  H    6.949403   6.581258   5.216372   4.351045   4.829553
    45  H    5.746594   4.234754   3.923067   2.123924   4.340046
                   36         37         38         39         40
    36  H    0.000000
    37  H    1.732841   0.000000
    38  H    8.174421   7.804178   0.000000
    39  H    8.159001   7.918288   2.934112   0.000000
    40  H    7.514054   7.421807   4.412394   1.717321   0.000000
    41  H    5.932287   6.046313   3.561457   2.523022   2.290891
    42  H    6.868918   6.224985   2.161787   2.727443   3.642981
    43  H    5.354982   5.323493   3.090284   4.291204   4.781712
    44  H    4.619314   3.649117   4.456720   5.169073   5.381072
    45  H    3.605795   3.777890   4.950854   4.599435   4.115172
                   41         42         43         44         45
    41  H    0.000000
    42  H    3.006784   0.000000
    43  H    2.685432   2.952349   0.000000
    44  H    4.075476   2.824648   2.957283   0.000000
    45  H    2.343660   3.791806   2.607673   2.956125   0.000000
 Stoichiometry    C12H22O11
 Framework group  C1[X(C12H22O11)]
 Deg. of freedom   129
 Full point group                 C1      NOp   1
 Largest Abelian subgroup         C1      NOp   1
 Largest concise Abelian subgroup C1      NOp   1
                         Standard orientation:                         
 ---------------------------------------------------------------------
 Center     Atomic      Atomic             Coordinates (Angstroms)
 Number     Number       Type             X           Y           Z
 ---------------------------------------------------------------------
      1          8           0        4.965650   -0.330150   -0.930522
      2          6           0        3.809859   -0.027277   -0.136270
      3          6           0        3.324292    1.381899   -0.433174
      4          8           0        4.205660    2.477203   -0.142989
      5          1           0        5.177218    2.274959   -0.262012
      6          6           0        1.962146    1.659623    0.179843
      7          8           0        1.230655    2.719498   -0.452686
      8          1           0        1.654944    3.623414   -0.393998
      9          6           0        3.326274   -2.452952    0.140094
     10          8           0        3.405959   -2.840801    1.520550
     11          1           0        3.762100   -3.772614    1.581836
     12          6           0        2.786360   -1.127342   -0.370448
     13          8           0        1.638648   -0.799500    0.426502
     14          6           0        1.043801    0.453580    0.059335
     15          8           0       -0.239811    0.418255    0.699080
     16          6           0       -1.439336    0.147406   -0.040917
     17          6           0       -1.748732   -1.334326    0.106235
     18          8           0       -0.725597   -2.214291   -0.379961
     19          1           0        0.154513   -1.966256    0.025015
     20          6           0       -3.144830   -1.435806   -0.484356
     21          8           0       -3.585226   -2.801798   -0.477906
     22          1           0       -2.953054   -3.401071   -0.969337
     23          6           0       -2.259082    2.512092    0.226139
     24          8           0       -3.336641    3.422842    0.487348
     25          1           0       -3.781831    3.391821    1.381778
     26          6           0       -2.520243    1.046545    0.533482
     27          8           0       -3.729918    0.680634   -0.145867
     28          6           0       -4.212418   -0.618620    0.224470
     29          8           0       -5.380079   -0.841526   -0.580212
     30          1           0       -6.146227   -0.460664   -0.144825
     31          1           0       -4.314566   -0.799317    1.274144
     32          1           0       -3.097421   -1.106660   -1.501368
     33          1           0       -1.842340   -1.529950    1.154028
     34          1           0       -1.286178    0.382653   -1.073439
     35          1           0       -2.619025    0.892803    1.587762
     36          1           0       -2.002750    2.591891   -0.809634
     37          1           0       -1.414412    2.825337    0.803468
     38          1           0        5.749863    0.018472   -0.500322
     39          1           0        4.321645   -2.531777   -0.244516
     40          1           0        2.747698   -3.211384   -0.344602
     41          1           0        2.525771   -1.193440   -1.406124
     42          1           0        4.099209   -0.062978    0.893245
     43          1           0        3.175535    1.410770   -1.492390
     44          1           0        2.090386    1.896483    1.215387
     45          1           0        0.835990    0.375653   -0.987394
 ---------------------------------------------------------------------
 Rotational constants (GHZ):      0.3957118      0.1444678      0.1112762
 Standard basis: 6-31+G(2df,p) (6D, 7F)
 There are   846 symmetry adapted basis functions of A   symmetry.
 Integral buffers will be    131072 words long.
 Raffenetti 2 integral format.
 Two-electron integral symmetry is turned on.
   846 basis functions,  1258 primitive gaussians,   915 cartesian basis functions
    91 alpha electrons       91 beta electrons
       nuclear repulsion energy      2275.6140425359 Hartrees.
 NAtoms=   45 NActive=   45 NUniq=   45 SFac= 1.00D+00 NAtFMM=   50 NAOKFM=F Big=F
 One-electron integrals computed using PRISM.
 NBasis=   846 RedAO= T  NBF=   846
 NBsUse=   846 1.00D-06 NBFU=   846
 Harris functional with IExCor=  402 diagonalized for initial guess.
 ExpMin= 4.38D-02 ExpMax= 5.48D+03 ExpMxC= 8.25D+02 IAcc=2 IRadAn=         0 AccDes= 0.00D+00
 HarFok:  IExCor=  402 AccDes= 0.00D+00 IRadAn=         0 IDoV= 1
 ScaDFX=  1.000000  1.000000  1.000000  1.000000
 FoFCou: FMM=F IPFlag=           0 FMFlag=      100000 FMFlg1=           0
         NFxFlg=           0 DoJE=T BraDBF=F KetDBF=T FulRan=T
         Omega=  0.000000  0.000000  1.000000  0.000000  0.000000 ICntrl=     500 IOpCl=  0
         NMat0=    1 NMatS0=    1 NMatT0=    0 NMatD0=    1 NMtDS0=    0 NMtDT0=    0
         I1Cent=           4 NGrid=           0.
 Petite list used in FoFCou.
 Initial guess orbital symmetries:
       Occupied  (A) (A) (A) (A) (A) (A) (A) (A) (A) (A) (A) (A)
                 (A) (A) (A) (A) (A) (A) (A) (A) (A) (A) (A) (A)
                 (A) (A) (A) (A) (A) (A) (A) (A) (A) (A) (A) (A)
                 (A) (A) (A) (A) (A) (A) (A) (A) (A) (A) (A) (A)
                 (A) (A) (A) (A) (A) (A) (A) (A) (A) (A) (A) (A)
                 (A) (A) (A) (A) (A) (A) (A) (A) (A) (A) (A) (A)
                 (A) (A) (A) (A) (A) (A) (A) (A) (A) (A) (A) (A)
                 (A) (A) (A) (A) (A) (A) (A)
       Virtual   (A) (A) (A) (A) (A) (A) (A) (A) (A) (A) (A) (A)
                 (A) (A) (A) (A) (A) (A) (A) (A) (A) (A) (A) (A)
                 (A) (A) (A) (A) (A) (A) (A) (A) (A) (A) (A) (A)
                 (A) (A) (A) (A) (A) (A) (A) (A) (A) (A) (A) (A)
                 (A) (A) (A) (A) (A) (A) (A) (A) (A) (A) (A) (A)
                 (A) (A) (A) (A) (A) (A) (A) (A) (A) (A) (A) (A)
                 (A) (A) (A) (A) (A) (A) (A) (A) (A) (A) (A) (A)
                 (A) (A) (A) (A) (A) (A) (A) (A) (A) (A) (A) (A)
                 (A) (A) (A) (A) (A) (A) (A) (A) (A) (A) (A) (A)
                 (A) (A) (A) (A) (A) (A) (A) (A) (A) (A) (A) (A)
                 (A) (A) (A) (A) (A) (A) (A) (A) (A) (A) (A) (A)
                 (A) (A) (A) (A) (A) (A) (A) (A) (A) (A) (A) (A)
                 (A) (A) (A) (A) (A) (A) (A) (A) (A) (A) (A) (A)
                 (A) (A) (A) (A) (A) (A) (A) (A) (A) (A) (A) (A)
                 (A) (A) (A) (A) (A) (A) (A) (A) (A) (A) (A) (A)
                 (A) (A) (A) (A) (A) (A) (A) (A) (A) (A) (A) (A)
                 (A) (A) (A) (A) (A) (A) (A) (A) (A) (A) (A) (A)
                 (A) (A) (A) (A) (A) (A) (A) (A) (A) (A) (A) (A)
                 (A) (A) (A) (A) (A) (A) (A) (A) (A) (A) (A) (A)
                 (A) (A) (A) (A) (A) (A) (A) (A) (A) (A) (A) (A)
                 (A) (A) (A) (A) (A) (A) (A) (A) (A) (A) (A) (A)
                 (A) (A) (A) (A) (A) (A) (A) (A) (A) (A) (A) (A)
                 (A) (A) (A) (A) (A) (A) (A) (A) (A) (A) (A) (A)
                 (A) (A) (A) (A) (A) (A) (A) (A) (A) (A) (A) (A)
                 (A) (A) (A) (A) (A) (A) (A) (A) (A) (A) (A) (A)
                 (A) (A) (A) (A) (A) (A) (A) (A) (A) (A) (A) (A)
                 (A) (A) (A) (A) (A) (A) (A) (A) (A) (A) (A) (A)
                 (A) (A) (A) (A) (A) (A) (A) (A) (A) (A) (A) (A)
                 (A) (A) (A) (A) (A) (A) (A) (A) (A) (A) (A) (A)
                 (A) (A) (A) (A) (A) (A) (A) (A) (A) (A) (A) (A)
                 (A) (A) (A) (A) (A) (A) (A) (A) (A) (A) (A) (A)
                 (A) (A) (A) (A) (A) (A) (A) (A) (A) (A) (A) (A)
                 (A) (A) (A) (A) (A) (A) (A) (A) (A) (A) (A) (A)
                 (A) (A) (A) (A) (A) (A) (A) (A) (A) (A) (A) (A)
                 (A) (A) (A) (A) (A) (A) (A) (A) (A) (A) (A) (A)
                 (A) (A) (A) (A) (A) (A) (A) (A) (A) (A) (A) (A)
                 (A) (A) (A) (A) (A) (A) (A) (A) (A) (A) (A) (A)
                 (A) (A) (A) (A) (A) (A) (A) (A) (A) (A) (A) (A)
                 (A) (A) (A) (A) (A) (A) (A) (A) (A) (A) (A) (A)
                 (A) (A) (A) (A) (A) (A) (A) (A) (A) (A) (A) (A)
                 (A) (A) (A) (A) (A) (A) (A) (A) (A) (A) (A) (A)
                 (A) (A) (A) (A) (A) (A) (A) (A) (A) (A) (A) (A)
                 (A) (A) (A) (A) (A) (A) (A) (A) (A) (A) (A) (A)
                 (A) (A) (A) (A) (A) (A) (A) (A) (A) (A) (A) (A)
                 (A) (A) (A) (A) (A) (A) (A) (A) (A) (A) (A) (A)
                 (A) (A) (A) (A) (A) (A) (A) (A) (A) (A) (A) (A)
                 (A) (A) (A) (A) (A) (A) (A) (A) (A) (A) (A) (A)
                 (A) (A) (A) (A) (A) (A) (A) (A) (A) (A) (A) (A)
                 (A) (A) (A) (A) (A) (A) (A) (A) (A) (A) (A) (A)
                 (A) (A) (A) (A) (A) (A) (A) (A) (A) (A) (A) (A)
                 (A) (A) (A) (A) (A) (A) (A) (A) (A) (A) (A) (A)
                 (A) (A) (A) (A) (A) (A) (A) (A) (A) (A) (A) (A)
                 (A) (A) (A) (A) (A) (A) (A) (A) (A) (A) (A) (A)
                 (A) (A) (A) (A) (A) (A) (A) (A) (A) (A) (A) (A)
                 (A) (A) (A) (A) (A) (A) (A) (A) (A) (A) (A) (A)
                 (A) (A) (A) (A) (A) (A) (A) (A) (A) (A) (A) (A)
                 (A) (A) (A) (A) (A) (A) (A) (A) (A) (A) (A) (A)
                 (A) (A) (A) (A) (A) (A) (A) (A) (A) (A) (A) (A)
                 (A) (A) (A) (A) (A) (A) (A) (A) (A) (A) (A) (A)
                 (A) (A) (A) (A) (A) (A) (A) (A) (A) (A) (A) (A)
                 (A) (A) (A) (A) (A) (A) (A) (A) (A) (A) (A) (A)
                 (A) (A) (A) (A) (A) (A) (A) (A) (A) (A) (A) (A)
                 (A) (A) (A) (A) (A) (A) (A) (A) (A) (A) (A)
 The electronic state of the initial guess is 1-A.
 Requested convergence on RMS density matrix=1.00D-08 within 128 cycles.
 Requested convergence on MAX density matrix=1.00D-06.
 Requested convergence on             energy=1.00D-06.
 No special actions if energy rises.
 SCF Done:  E(RB3LYP) =  -1297.99411855     A.U. after   14 cycles
             Convg  =    0.1289D-08             -V/T =  2.0066
 Range of M.O.s used for correlation:     1   846
 NBasis=   846 NAE=    91 NBE=    91 NFC=     0 NFV=     0
 NROrb=    846 NOA=    91 NOB=    91 NVA=   755 NVB=   755

 **** Warning!!: The largest alpha MO coefficient is  0.67649478D+02

          Differentiating once with respect to electric field.
                with respect to dipole field.
          Electric field/nuclear overlap derivatives assumed to be zero.
          There are     3 degrees of freedom in the 1st order CPHF.  IDoFFX=0.
      3 vectors produced by pass  0 Test12= 2.29D-12 3.33D-08 XBig12= 1.22D+02 1.28D+00.
 AX will form     3 AO Fock derivatives at one time.
      3 vectors produced by pass  1 Test12= 2.29D-12 3.33D-08 XBig12= 2.65D+01 3.93D-01.
      3 vectors produced by pass  2 Test12= 2.29D-12 3.33D-08 XBig12= 1.02D+01 2.16D-01.
      3 vectors produced by pass  3 Test12= 2.29D-12 3.33D-08 XBig12= 1.20D+00 7.44D-02.
      3 vectors produced by pass  4 Test12= 2.29D-12 3.33D-08 XBig12= 3.26D-01 3.71D-02.
      3 vectors produced by pass  5 Test12= 2.29D-12 3.33D-08 XBig12= 6.41D-02 1.96D-02.
      3 vectors produced by pass  6 Test12= 2.29D-12 3.33D-08 XBig12= 2.21D-02 1.17D-02.
      3 vectors produced by pass  7 Test12= 2.29D-12 3.33D-08 XBig12= 3.30D-03 6.84D-03.
      3 vectors produced by pass  8 Test12= 2.29D-12 3.33D-08 XBig12= 7.47D-04 2.06D-03.
      3 vectors produced by pass  9 Test12= 2.29D-12 3.33D-08 XBig12= 1.83D-04 1.06D-03.
      3 vectors produced by pass 10 Test12= 2.29D-12 3.33D-08 XBig12= 2.91D-05 6.35D-04.
      3 vectors produced by pass 11 Test12= 2.29D-12 3.33D-08 XBig12= 9.08D-06 3.22D-04.
      3 vectors produced by pass 12 Test12= 2.29D-12 3.33D-08 XBig12= 1.25D-06 1.30D-04.
      3 vectors produced by pass 13 Test12= 2.29D-12 3.33D-08 XBig12= 2.64D-07 6.13D-05.
      3 vectors produced by pass 14 Test12= 2.29D-12 3.33D-08 XBig12= 3.70D-08 3.50D-05.
      3 vectors produced by pass 15 Test12= 2.29D-12 3.33D-08 XBig12= 9.98D-09 1.32D-05.
      3 vectors produced by pass 16 Test12= 2.29D-12 3.33D-08 XBig12= 1.08D-09 5.47D-06.
      3 vectors produced by pass 17 Test12= 2.29D-12 3.33D-08 XBig12= 1.39D-10 1.60D-06.
      3 vectors produced by pass 18 Test12= 2.29D-12 3.33D-08 XBig12= 2.77D-11 4.48D-07.
      3 vectors produced by pass 19 Test12= 2.29D-12 3.33D-08 XBig12= 1.14D-11 2.22D-07.
      3 vectors produced by pass 20 Test12= 2.29D-12 3.33D-08 XBig12= 7.16D-12 2.54D-07.
      2 vectors produced by pass 21 Test12= 2.29D-12 3.33D-08 XBig12= 2.00D-12 1.21D-07.
      1 vectors produced by pass 22 Test12= 2.29D-12 3.33D-08 XBig12= 6.17D-13 5.34D-08.
 Inverted reduced A of dimension    66 with in-core refinement.
 End of Minotr Frequency-dependent properties file   721 does not exist.
 End of Minotr Frequency-dependent properties file   722 does not exist.
 Symmetrizing basis deriv contribution to polar:
 IMax=3 JMax=2 DiffMx= 0.00D+00
 G2DrvN: will do     8 centers at a time, making    6 passes doing MaxLOS=3.
 Calling FoFCou, ICntrl=  3107 FMM=F I1Cent=   0 AccDes= 0.00D+00.
 Calling FoFCou, ICntrl=  3107 FMM=F I1Cent=   0 AccDes= 0.00D+00.
 Calling FoFCou, ICntrl=  3107 FMM=F I1Cent=   0 AccDes= 0.00D+00.
 Calling FoFCou, ICntrl=  3107 FMM=F I1Cent=   0 AccDes= 0.00D+00.
 Calling FoFCou, ICntrl=  3107 FMM=F I1Cent=   0 AccDes= 0.00D+00.
 Calling FoFCou, ICntrl=  3107 FMM=F I1Cent=   0 AccDes= 0.00D+00.
 FoFDir/FoFCou used for L=0 through L=3.
 End of G2Drv Frequency-dependent properties file   721 does not exist.
 End of G2Drv Frequency-dependent properties file   722 does not exist.
          IDoAtm=111111111111111111111111111111111111111111111
          Differentiating once with respect to electric field.
                with respect to dipole field.
          Differentiating once with respect to nuclear coordinates.
          There are   138 degrees of freedom in the 1st order CPHF.  IDoFFX=5.
 Will reuse    3 saved solutions.
    135 vectors produced by pass  0 Test12= 6.87D-14 1.00D-09 XBig12= 1.68D-01 5.03D-02.
 AX will form    27 AO Fock derivatives at one time.
    135 vectors produced by pass  1 Test12= 6.87D-14 1.00D-09 XBig12= 2.21D-02 1.45D-02.
    132 vectors produced by pass  2 Test12= 6.87D-14 1.00D-09 XBig12= 2.20D-04 1.76D-03.
    132 vectors produced by pass  3 Test12= 6.87D-14 1.00D-09 XBig12= 1.20D-06 8.38D-05.
    132 vectors produced by pass  4 Test12= 6.87D-14 1.00D-09 XBig12= 3.18D-09 3.31D-06.
    132 vectors produced by pass  5 Test12= 6.87D-14 1.00D-09 XBig12= 7.01D-12 1.53D-07.
     91 vectors produced by pass  6 Test12= 6.87D-14 1.00D-09 XBig12= 2.43D-13 2.54D-08.
      2 vectors produced by pass  7 Test12= 6.87D-14 1.00D-09 XBig12= 8.23D-16 1.29D-09.
 Inverted reduced A of dimension   891 with in-core refinement.
 Isotropic polarizability for W=    0.000000      191.80 Bohr**3.
 End of Minotr Frequency-dependent properties file   721 does not exist.
 End of Minotr Frequency-dependent properties file   722 does not exist.

 **********************************************************************

            Population analysis using the SCF density.

 **********************************************************************

 Orbital symmetries:
       Occupied  (A) (A) (A) (A) (A) (A) (A) (A) (A) (A) (A) (A)
                 (A) (A) (A) (A) (A) (A) (A) (A) (A) (A) (A) (A)
                 (A) (A) (A) (A) (A) (A) (A) (A) (A) (A) (A) (A)
                 (A) (A) (A) (A) (A) (A) (A) (A) (A) (A) (A) (A)
                 (A) (A) (A) (A) (A) (A) (A) (A) (A) (A) (A) (A)
                 (A) (A) (A) (A) (A) (A) (A) (A) (A) (A) (A) (A)
                 (A) (A) (A) (A) (A) (A) (A) (A) (A) (A) (A) (A)
                 (A) (A) (A) (A) (A) (A) (A)
       Virtual   (A) (A) (A) (A) (A) (A) (A) (A) (A) (A) (A) (A)
                 (A) (A) (A) (A) (A) (A) (A) (A) (A) (A) (A) (A)
                 (A) (A) (A) (A) (A) (A) (A) (A) (A) (A) (A) (A)
                 (A) (A) (A) (A) (A) (A) (A) (A) (A) (A) (A) (A)
                 (A) (A) (A) (A) (A) (A) (A) (A) (A) (A) (A) (A)
                 (A) (A) (A) (A) (A) (A) (A) (A) (A) (A) (A) (A)
                 (A) (A) (A) (A) (A) (A) (A) (A) (A) (A) (A) (A)
                 (A) (A) (A) (A) (A) (A) (A) (A) (A) (A) (A) (A)
                 (A) (A) (A) (A) (A) (A) (A) (A) (A) (A) (A) (A)
                 (A) (A) (A) (A) (A) (A) (A) (A) (A) (A) (A) (A)
                 (A) (A) (A) (A) (A) (A) (A) (A) (A) (A) (A) (A)
                 (A) (A) (A) (A) (A) (A) (A) (A) (A) (A) (A) (A)
                 (A) (A) (A) (A) (A) (A) (A) (A) (A) (A) (A) (A)
                 (A) (A) (A) (A) (A) (A) (A) (A) (A) (A) (A) (A)
                 (A) (A) (A) (A) (A) (A) (A) (A) (A) (A) (A) (A)
                 (A) (A) (A) (A) (A) (A) (A) (A) (A) (A) (A) (A)
                 (A) (A) (A) (A) (A) (A) (A) (A) (A) (A) (A) (A)
                 (A) (A) (A) (A) (A) (A) (A) (A) (A) (A) (A) (A)
                 (A) (A) (A) (A) (A) (A) (A) (A) (A) (A) (A) (A)
                 (A) (A) (A) (A) (A) (A) (A) (A) (A) (A) (A) (A)
                 (A) (A) (A) (A) (A) (A) (A) (A) (A) (A) (A) (A)
                 (A) (A) (A) (A) (A) (A) (A) (A) (A) (A) (A) (A)
                 (A) (A) (A) (A) (A) (A) (A) (A) (A) (A) (A) (A)
                 (A) (A) (A) (A) (A) (A) (A) (A) (A) (A) (A) (A)
                 (A) (A) (A) (A) (A) (A) (A) (A) (A) (A) (A) (A)
                 (A) (A) (A) (A) (A) (A) (A) (A) (A) (A) (A) (A)
                 (A) (A) (A) (A) (A) (A) (A) (A) (A) (A) (A) (A)
                 (A) (A) (A) (A) (A) (A) (A) (A) (A) (A) (A) (A)
                 (A) (A) (A) (A) (A) (A) (A) (A) (A) (A) (A) (A)
                 (A) (A) (A) (A) (A) (A) (A) (A) (A) (A) (A) (A)
                 (A) (A) (A) (A) (A) (A) (A) (A) (A) (A) (A) (A)
                 (A) (A) (A) (A) (A) (A) (A) (A) (A) (A) (A) (A)
                 (A) (A) (A) (A) (A) (A) (A) (A) (A) (A) (A) (A)
                 (A) (A) (A) (A) (A) (A) (A) (A) (A) (A) (A) (A)
                 (A) (A) (A) (A) (A) (A) (A) (A) (A) (A) (A) (A)
                 (A) (A) (A) (A) (A) (A) (A) (A) (A) (A) (A) (A)
                 (A) (A) (A) (A) (A) (A) (A) (A) (A) (A) (A) (A)
                 (A) (A) (A) (A) (A) (A) (A) (A) (A) (A) (A) (A)
                 (A) (A) (A) (A) (A) (A) (A) (A) (A) (A) (A) (A)
                 (A) (A) (A) (A) (A) (A) (A) (A) (A) (A) (A) (A)
                 (A) (A) (A) (A) (A) (A) (A) (A) (A) (A) (A) (A)
                 (A) (A) (A) (A) (A) (A) (A) (A) (A) (A) (A) (A)
                 (A) (A) (A) (A) (A) (A) (A) (A) (A) (A) (A) (A)
                 (A) (A) (A) (A) (A) (A) (A) (A) (A) (A) (A) (A)
                 (A) (A) (A) (A) (A) (A) (A) (A) (A) (A) (A) (A)
                 (A) (A) (A) (A) (A) (A) (A) (A) (A) (A) (A) (A)
                 (A) (A) (A) (A) (A) (A) (A) (A) (A) (A) (A) (A)
                 (A) (A) (A) (A) (A) (A) (A) (A) (A) (A) (A) (A)
                 (A) (A) (A) (A) (A) (A) (A) (A) (A) (A) (A) (A)
                 (A) (A) (A) (A) (A) (A) (A) (A) (A) (A) (A) (A)
                 (A) (A) (A) (A) (A) (A) (A) (A) (A) (A) (A) (A)
                 (A) (A) (A) (A) (A) (A) (A) (A) (A) (A) (A) (A)
                 (A) (A) (A) (A) (A) (A) (A) (A) (A) (A) (A) (A)
                 (A) (A) (A) (A) (A) (A) (A) (A) (A) (A) (A) (A)
                 (A) (A) (A) (A) (A) (A) (A) (A) (A) (A) (A) (A)
                 (A) (A) (A) (A) (A) (A) (A) (A) (A) (A) (A) (A)
                 (A) (A) (A) (A) (A) (A) (A) (A) (A) (A) (A) (A)
                 (A) (A) (A) (A) (A) (A) (A) (A) (A) (A) (A) (A)
                 (A) (A) (A) (A) (A) (A) (A) (A) (A) (A) (A) (A)
                 (A) (A) (A) (A) (A) (A) (A) (A) (A) (A) (A) (A)
                 (A) (A) (A) (A) (A) (A) (A) (A) (A) (A) (A) (A)
                 (A) (A) (A) (A) (A) (A) (A) (A) (A) (A) (A) (A)
                 (A) (A) (A) (A) (A) (A) (A) (A) (A) (A) (A)
 The electronic state is 1-A.
 Alpha  occ. eigenvalues --  -19.18724 -19.18539 -19.18498 -19.17260 -19.16858
 Alpha  occ. eigenvalues --  -19.16630 -19.15873 -19.15417 -19.15042 -19.14539
 Alpha  occ. eigenvalues --  -19.13352 -10.30820 -10.29211 -10.27252 -10.26505
 Alpha  occ. eigenvalues --  -10.26474 -10.26221 -10.24587 -10.24550 -10.24330
 Alpha  occ. eigenvalues --  -10.23437 -10.23030 -10.22668  -1.09747  -1.07432
 Alpha  occ. eigenvalues --   -1.06769  -1.04889  -1.03818  -1.03099  -1.02702
 Alpha  occ. eigenvalues --   -1.01831  -1.01281  -1.00105  -0.99450  -0.82205
 Alpha  occ. eigenvalues --   -0.81710  -0.78767  -0.77756  -0.72079  -0.69594
 Alpha  occ. eigenvalues --   -0.67753  -0.64950  -0.63209  -0.62095  -0.61502
 Alpha  occ. eigenvalues --   -0.60487  -0.57077  -0.55934  -0.55295  -0.54063
 Alpha  occ. eigenvalues --   -0.53319  -0.53029  -0.52892  -0.52190  -0.51147
 Alpha  occ. eigenvalues --   -0.50032  -0.49442  -0.48554  -0.47621  -0.46483
 Alpha  occ. eigenvalues --   -0.45854  -0.45356  -0.44702  -0.43555  -0.43154
 Alpha  occ. eigenvalues --   -0.42799  -0.42131  -0.40891  -0.40229  -0.38948
 Alpha  occ. eigenvalues --   -0.38737  -0.37138  -0.36592  -0.36030  -0.35776
 Alpha  occ. eigenvalues --   -0.35573  -0.34813  -0.33938  -0.33218  -0.32841
 Alpha  occ. eigenvalues --   -0.31876  -0.31080  -0.30916  -0.30423  -0.30009
 Alpha  occ. eigenvalues --   -0.29122  -0.28856  -0.28309  -0.27426  -0.26154
 Alpha  occ. eigenvalues --   -0.25726
 Alpha virt. eigenvalues --   -0.03840  -0.01984  -0.00784  -0.00199   0.00426
 Alpha virt. eigenvalues --    0.01363   0.01736   0.02104   0.02495   0.02833
 Alpha virt. eigenvalues --    0.03463   0.04305   0.04803   0.05061   0.05829
 Alpha virt. eigenvalues --    0.06502   0.06569   0.06822   0.07509   0.07995
 Alpha virt. eigenvalues --    0.08386   0.08696   0.09317   0.09499   0.10034
 Alpha virt. eigenvalues --    0.10366   0.11075   0.11249   0.11531   0.11851
 Alpha virt. eigenvalues --    0.12074   0.12394   0.13139   0.13364   0.13642
 Alpha virt. eigenvalues --    0.14203   0.14236   0.14648   0.15001   0.15099
 Alpha virt. eigenvalues --    0.15281   0.15663   0.16168   0.16641   0.16920
 Alpha virt. eigenvalues --    0.17208   0.17459   0.17841   0.18028   0.18836
 Alpha virt. eigenvalues --    0.18888   0.19131   0.19483   0.19767   0.20177
 Alpha virt. eigenvalues --    0.20366   0.20588   0.20841   0.21318   0.21596
 Alpha virt. eigenvalues --    0.21800   0.21975   0.22200   0.22575   0.22981
 Alpha virt. eigenvalues --    0.23374   0.23601   0.23969   0.24158   0.24437
 Alpha virt. eigenvalues --    0.24655   0.24824   0.25531   0.25902   0.25981
 Alpha virt. eigenvalues --    0.26193   0.26413   0.26928   0.27194   0.27323
 Alpha virt. eigenvalues --    0.27578   0.27926   0.28073   0.28444   0.28823
 Alpha virt. eigenvalues --    0.29150   0.29470   0.29722   0.30132   0.30302
 Alpha virt. eigenvalues --    0.30768   0.30994   0.31314   0.31573   0.32167
 Alpha virt. eigenvalues --    0.32650   0.32930   0.33330   0.33617   0.33905
 Alpha virt. eigenvalues --    0.34182   0.34506   0.35001   0.35390   0.35574
 Alpha virt. eigenvalues --    0.36379   0.36497   0.36693   0.36946   0.37113
 Alpha virt. eigenvalues --    0.37737   0.38021   0.38268   0.38626   0.39338
 Alpha virt. eigenvalues --    0.39478   0.40004   0.40494   0.40706   0.41118
 Alpha virt. eigenvalues --    0.41423   0.41890   0.42566   0.43012   0.43252
 Alpha virt. eigenvalues --    0.43529   0.44122   0.45337   0.45558   0.46255
 Alpha virt. eigenvalues --    0.46318   0.46953   0.48318   0.48643   0.49335
 Alpha virt. eigenvalues --    0.50686   0.52150   0.54034   0.56976   0.58081
 Alpha virt. eigenvalues --    0.58561   0.60124   0.60666   0.61309   0.61880
 Alpha virt. eigenvalues --    0.62914   0.63803   0.64588   0.65389   0.66278
 Alpha virt. eigenvalues --    0.67076   0.67299   0.68116   0.68862   0.69097
 Alpha virt. eigenvalues --    0.70185   0.71133   0.71675   0.72051   0.72984
 Alpha virt. eigenvalues --    0.73654   0.74469   0.74843   0.76201   0.76686
 Alpha virt. eigenvalues --    0.77259   0.78171   0.78647   0.79611   0.80532
 Alpha virt. eigenvalues --    0.82004   0.82076   0.83606   0.84295   0.84689
 Alpha virt. eigenvalues --    0.85298   0.86336   0.87516   0.87920   0.88243
 Alpha virt. eigenvalues --    0.89668   0.90040   0.90264   0.91097   0.91273
 Alpha virt. eigenvalues --    0.91867   0.92379   0.92683   0.92729   0.92913
 Alpha virt. eigenvalues --    0.93845   0.94311   0.94842   0.95365   0.95930
 Alpha virt. eigenvalues --    0.96152   0.96515   0.96947   0.97012   0.97689
 Alpha virt. eigenvalues --    0.98737   0.99607   1.00176   1.00540   1.01319
 Alpha virt. eigenvalues --    1.02406   1.02876   1.03336   1.03542   1.04146
 Alpha virt. eigenvalues --    1.04797   1.05867   1.06069   1.07038   1.07662
 Alpha virt. eigenvalues --    1.07927   1.08612   1.09065   1.09729   1.10369
 Alpha virt. eigenvalues --    1.10836   1.11545   1.12173   1.12771   1.13271
 Alpha virt. eigenvalues --    1.13874   1.15062   1.15419   1.16171   1.16880
 Alpha virt. eigenvalues --    1.17123   1.17827   1.18024   1.18623   1.19621
 Alpha virt. eigenvalues --    1.20034   1.20626   1.20797   1.21038   1.21614
 Alpha virt. eigenvalues --    1.22102   1.22658   1.22947   1.23570   1.24410
 Alpha virt. eigenvalues --    1.24899   1.25588   1.26048   1.26269   1.27134
 Alpha virt. eigenvalues --    1.27244   1.28141   1.28679   1.29839   1.29938
 Alpha virt. eigenvalues --    1.30717   1.31397   1.31746   1.32492   1.33435
 Alpha virt. eigenvalues --    1.34184   1.35071   1.35126   1.35295   1.36135
 Alpha virt. eigenvalues --    1.36836   1.37297   1.37957   1.38787   1.39164
 Alpha virt. eigenvalues --    1.40232   1.40626   1.41852   1.42123   1.42471
 Alpha virt. eigenvalues --    1.43089   1.43710   1.44616   1.45978   1.47438
 Alpha virt. eigenvalues --    1.48358   1.48772   1.50207   1.50846   1.52248
 Alpha virt. eigenvalues --    1.52944   1.53427   1.54051   1.54880   1.55359
 Alpha virt. eigenvalues --    1.55503   1.56197   1.57735   1.58400   1.58831
 Alpha virt. eigenvalues --    1.59563   1.59722   1.60105   1.61252   1.61766
 Alpha virt. eigenvalues --    1.62938   1.64473   1.64868   1.65965   1.66652
 Alpha virt. eigenvalues --    1.67341   1.68318   1.68859   1.70694   1.72512
 Alpha virt. eigenvalues --    1.73347   1.73586   1.73836   1.75191   1.75607
 Alpha virt. eigenvalues --    1.77200   1.78153   1.79013   1.80163   1.80771
 Alpha virt. eigenvalues --    1.81740   1.82784   1.84359   1.85442   1.85742
 Alpha virt. eigenvalues --    1.86755   1.87781   1.88696   1.90249   1.91010
 Alpha virt. eigenvalues --    1.92480   1.93384   1.94188   1.94830   1.95785
 Alpha virt. eigenvalues --    1.96624   1.97317   1.97626   1.98800   1.99684
 Alpha virt. eigenvalues --    1.99691   2.01817   2.03523   2.04432   2.06891
 Alpha virt. eigenvalues --    2.07764   2.08717   2.10464   2.11213   2.12519
 Alpha virt. eigenvalues --    2.14165   2.15394   2.16318   2.19034   2.20932
 Alpha virt. eigenvalues --    2.21268   2.21916   2.23325   2.23795   2.24638
 Alpha virt. eigenvalues --    2.25604   2.27168   2.28806   2.29355   2.29704
 Alpha virt. eigenvalues --    2.30773   2.34215   2.34737   2.35623   2.39867
 Alpha virt. eigenvalues --    2.42548   2.43169   2.45402   2.49912   2.50643
 Alpha virt. eigenvalues --    2.51665   2.52920   2.53478   2.54309   2.54775
 Alpha virt. eigenvalues --    2.55402   2.57567   2.58644   2.58785   2.60285
 Alpha virt. eigenvalues --    2.60450   2.61881   2.62647   2.63195   2.63990
 Alpha virt. eigenvalues --    2.64270   2.65587   2.66583   2.67467   2.68926
 Alpha virt. eigenvalues --    2.70837   2.72078   2.74554   2.76477   2.79565
 Alpha virt. eigenvalues --    2.80276   2.81681   2.82397   2.82528   2.84091
 Alpha virt. eigenvalues --    2.84640   2.85855   2.87972   2.88406   2.88790
 Alpha virt. eigenvalues --    2.90182   2.90524   2.91869   2.92080   2.93339
 Alpha virt. eigenvalues --    2.93932   2.95286   2.96280   2.97143   2.97687
 Alpha virt. eigenvalues --    2.98482   3.00123   3.01554   3.01723   3.02784
 Alpha virt. eigenvalues --    3.04524   3.04728   3.05138   3.06287   3.07052
 Alpha virt. eigenvalues --    3.07890   3.09044   3.09518   3.10056   3.11132
 Alpha virt. eigenvalues --    3.12784   3.14836   3.15687   3.17148   3.17712
 Alpha virt. eigenvalues --    3.18593   3.19240   3.19948   3.21321   3.22015
 Alpha virt. eigenvalues --    3.22740   3.23767   3.24354   3.26424   3.27873
 Alpha virt. eigenvalues --    3.28952   3.30947   3.31316   3.33327   3.34805
 Alpha virt. eigenvalues --    3.36183   3.36702   3.37079   3.38204   3.39257
 Alpha virt. eigenvalues --    3.40953   3.42059   3.42753   3.44239   3.45414
 Alpha virt. eigenvalues --    3.46451   3.47851   3.48700   3.50837   3.52067
 Alpha virt. eigenvalues --    3.53641   3.54421   3.57174   3.58739   3.59506
 Alpha virt. eigenvalues --    3.61333   3.62696   3.63657   3.65054   3.68269
 Alpha virt. eigenvalues --    3.68772   3.70050   3.70283   3.71576   3.73097
 Alpha virt. eigenvalues --    3.74471   3.75744   3.76519   3.77069   3.78167
 Alpha virt. eigenvalues --    3.80626   3.80811   3.81540   3.83754   3.86001
 Alpha virt. eigenvalues --    3.87084   3.87717   3.88825   3.90003   3.92053
 Alpha virt. eigenvalues --    3.94711   3.96044   4.01763   4.03638   4.04405
 Alpha virt. eigenvalues --    4.07799   4.09685   4.11230   4.12703   4.13590
 Alpha virt. eigenvalues --    4.14141   4.15531   4.16974   4.18088   4.18546
 Alpha virt. eigenvalues --    4.20969   4.21547   4.22410   4.23429   4.24931
 Alpha virt. eigenvalues --    4.26132   4.26961   4.28411   4.29454   4.29950
 Alpha virt. eigenvalues --    4.30980   4.31281   4.32964   4.33740   4.34180
 Alpha virt. eigenvalues --    4.35535   4.35802   4.37026   4.38125   4.38915
 Alpha virt. eigenvalues --    4.39762   4.40307   4.41956   4.42154   4.42691
 Alpha virt. eigenvalues --    4.43086   4.44475   4.45255   4.45883   4.46688
 Alpha virt. eigenvalues --    4.47793   4.48117   4.49346   4.50289   4.50752
 Alpha virt. eigenvalues --    4.51874   4.52787   4.53482   4.54142   4.54443
 Alpha virt. eigenvalues --    4.55630   4.56577   4.57701   4.58384   4.58880
 Alpha virt. eigenvalues --    4.59091   4.59939   4.60801   4.61015   4.61790
 Alpha virt. eigenvalues --    4.62466   4.62874   4.63498   4.63856   4.65291
 Alpha virt. eigenvalues --    4.66730   4.67091   4.67773   4.68031   4.68947
 Alpha virt. eigenvalues --    4.69744   4.70135   4.71224   4.71512   4.71853
 Alpha virt. eigenvalues --    4.72368   4.73017   4.73761   4.74153   4.75748
 Alpha virt. eigenvalues --    4.76214   4.77172   4.77492   4.77860   4.78409
 Alpha virt. eigenvalues --    4.79764   4.80006   4.80488   4.81484   4.82257
 Alpha virt. eigenvalues --    4.83003   4.83319   4.83966   4.84328   4.84989
 Alpha virt. eigenvalues --    4.85771   4.87373   4.87735   4.90492   4.91163
 Alpha virt. eigenvalues --    4.92081   4.92918   4.94455   4.95154   4.96295
 Alpha virt. eigenvalues --    4.98178   4.99808   5.00045   5.01203   5.02166
 Alpha virt. eigenvalues --    5.04563   5.05934   5.07955   5.09685   5.10401
 Alpha virt. eigenvalues --    5.11907   5.13166   5.14465   5.16630   5.17671
 Alpha virt. eigenvalues --    5.18425   5.19479   5.20016   5.20797   5.22101
 Alpha virt. eigenvalues --    5.22554   5.23787   5.24017   5.24789   5.25601
 Alpha virt. eigenvalues --    5.26736   5.27878   5.28484   5.29370   5.31954
 Alpha virt. eigenvalues --    5.34779   5.35904   5.36246   5.36933   5.37933
 Alpha virt. eigenvalues --    5.38507   5.40523   5.40666   5.41519   5.41955
 Alpha virt. eigenvalues --    5.42964   5.44091   5.45100   5.45341   5.46252
 Alpha virt. eigenvalues --    5.47676   5.47961   5.49002   5.50820   5.51220
 Alpha virt. eigenvalues --    5.53521   5.54361   5.54578   5.55989   5.56636
 Alpha virt. eigenvalues --    5.59191   5.60647   5.61797   5.63113   5.64240
 Alpha virt. eigenvalues --    5.67910   5.70431   5.72601   5.76521   5.76721
 Alpha virt. eigenvalues --    5.77281   5.79706   5.80129   5.82268   5.85522
 Alpha virt. eigenvalues --    5.86717   5.88261   5.89232   5.89744   5.91008
 Alpha virt. eigenvalues --    5.91809   5.93166   5.93392   5.94974   5.96034
 Alpha virt. eigenvalues --    5.97586   5.97925   5.98811   5.99169   5.99539
 Alpha virt. eigenvalues --    6.00869   6.01851   6.02980   6.04912   6.05470
 Alpha virt. eigenvalues --    6.07582   6.07821   6.08981   6.09930   6.12155
 Alpha virt. eigenvalues --    6.14186   6.15999   6.17205   6.17907   6.19428
 Alpha virt. eigenvalues --    6.20821   6.24001   6.30058   6.33307   6.37722
 Alpha virt. eigenvalues --    6.56770   6.74587   6.91670   7.05460   7.11174
 Alpha virt. eigenvalues --    7.13124   7.16656   7.20258   7.26510   7.27408
 Alpha virt. eigenvalues --    7.37826   7.39961   7.45609   7.54183   7.75261
 Alpha virt. eigenvalues --    7.84139   8.22412  11.98923  12.14964  12.16877
 Alpha virt. eigenvalues --   12.26259  12.45887  12.58774  12.86912  12.89003
 Alpha virt. eigenvalues --   12.96017  13.11071  13.20582  13.33544  13.36635
 Alpha virt. eigenvalues --   13.40331  13.46992  13.55258  13.60141  13.66731
 Alpha virt. eigenvalues --   13.71568  13.74787  14.06069  14.09594  14.24822
          Condensed to atoms (all electrons):
              1          2          3          4          5          6
     1  O    8.104100   0.197081  -0.000618  -0.002109   0.013200   0.022855
     2  C    0.197081   8.787182  -1.180948   0.026071  -0.040070  -1.298611
     3  C   -0.000618  -1.180948   6.683991   0.123791   0.015946   0.428014
     4  O   -0.002109   0.026071   0.123791   8.133107   0.239545  -0.052056
     5  H    0.013200  -0.040070   0.015946   0.239545   0.430944  -0.011522
     6  C    0.022855  -1.298611   0.428014  -0.052056  -0.011522   9.471765
     7  O   -0.000261   0.030050  -0.038971   0.006259  -0.000469   0.178604
     8  H   -0.000019   0.010589  -0.034458   0.004451  -0.000080  -0.038251
     9  C   -0.084155  -0.186103  -0.160823   0.006151  -0.001045   0.068623
    10  O    0.003436   0.026232  -0.006969   0.000011   0.000008  -0.000567
    11  H    0.000371   0.001760  -0.001336  -0.000003   0.000000  -0.000153
    12  C   -0.035867  -1.271247   0.246225   0.028955   0.011306   0.200466
    13  O    0.005098  -0.034724  -0.040036  -0.002847  -0.000023   0.072887
    14  C   -0.009425   0.774232  -0.351264   0.016697   0.007605  -2.550055
    15  O    0.000022  -0.022478   0.006749   0.000246   0.000016  -0.074153
    16  C    0.000772   0.131721   0.027960   0.000449   0.000073  -0.209790
    17  C    0.000002  -0.102006   0.021345   0.000357   0.000026   0.046225
    18  O    0.000074   0.008752  -0.001706  -0.000012   0.000000   0.007590
    19  H   -0.000067  -0.003878   0.000945   0.000010   0.000000  -0.005291
    20  C    0.000092   0.003179   0.002403  -0.000023   0.000000  -0.054266
    21  O    0.000000   0.000007  -0.000048   0.000000   0.000000   0.000204
    22  H    0.000000   0.000048  -0.000006   0.000000   0.000000   0.000213
    23  C   -0.000026   0.013679  -0.030341   0.000538  -0.000039  -0.100803
    24  O    0.000000  -0.000130  -0.000126   0.000000   0.000000   0.004968
    25  H    0.000000   0.000002  -0.000020   0.000000   0.000000   0.001142
    26  C    0.000068  -0.056700   0.032236  -0.000451   0.000026  -0.043854
    27  O    0.000000  -0.000067  -0.000161   0.000000   0.000000  -0.000404
    28  C    0.000000   0.002037  -0.001262  -0.000001   0.000000   0.008324
    29  O    0.000000   0.000007  -0.000012   0.000000   0.000000  -0.000087
    30  H    0.000000   0.000000   0.000000   0.000000   0.000000   0.000017
    31  H    0.000000   0.000000  -0.000005   0.000000   0.000000  -0.000170
    32  H    0.000000  -0.000020  -0.000063   0.000000   0.000000  -0.000055
    33  H    0.000000   0.000354   0.000239   0.000000   0.000000   0.006563
    34  H   -0.000001  -0.003533   0.001685   0.000001   0.000000   0.008980
    35  H    0.000000   0.000074  -0.000792   0.000000   0.000000  -0.001328
    36  H    0.000000   0.000366  -0.002270   0.000000   0.000000   0.000293
    37  H    0.000000   0.000246   0.001669   0.000000   0.000000  -0.022358
    38  H    0.266593  -0.003383  -0.044656   0.001854   0.001101  -0.005788
    39  H   -0.005838  -0.006517  -0.001072   0.000003   0.000000   0.008090
    40  H    0.000342  -0.025319   0.006303   0.000012   0.000000  -0.002446
    41  H    0.003168   0.083306  -0.045403  -0.000316   0.000005  -0.047156
    42  H   -0.017929   0.416497  -0.124781   0.000686   0.000371  -0.039062
    43  H   -0.001256   0.030701   0.346295  -0.035911  -0.000304  -0.245700
    44  H   -0.000224  -0.017234  -0.056435   0.001450  -0.000205   0.363366
    45  H    0.000048  -0.077052  -0.002068  -0.000081   0.000001  -0.001329
              7          8          9         10         11         12
     1  O   -0.000261  -0.000019  -0.084155   0.003436   0.000371  -0.035867
     2  C    0.030050   0.010589  -0.186103   0.026232   0.001760  -1.271247
     3  C   -0.038971  -0.034458  -0.160823  -0.006969  -0.001336   0.246225
     4  O    0.006259   0.004451   0.006151   0.000011  -0.000003   0.028955
     5  H   -0.000469  -0.000080  -0.001045   0.000008   0.000000   0.011306
     6  C    0.178604  -0.038251   0.068623  -0.000567  -0.000153   0.200466
     7  O    8.100254   0.256301  -0.000218   0.000008   0.000000  -0.013784
     8  H    0.256301   0.390252   0.000292   0.000000   0.000000  -0.000751
     9  C   -0.000218   0.000292   6.156267   0.292216  -0.057599  -0.246860
    10  O    0.000008   0.000000   0.292216   8.081447   0.248593  -0.131948
    11  H    0.000000   0.000000  -0.057599   0.248593   0.424943   0.043491
    12  C   -0.013784  -0.000751  -0.246860  -0.131948   0.043491   7.505629
    13  O    0.003708  -0.000404  -0.045243   0.003662   0.001015   0.102597
    14  C    0.010758   0.042293  -0.301297   0.002185   0.003786  -0.572364
    15  O   -0.005113   0.000767  -0.000051  -0.001218   0.000020  -0.016396
    16  C    0.000464   0.001669  -0.018238  -0.007852   0.000044   0.038662
    17  C    0.000618  -0.000231   0.026954   0.007279  -0.000310  -0.117735
    18  O    0.000093  -0.000006  -0.006531  -0.000465   0.000033   0.002201
    19  H   -0.000085   0.000000   0.005100  -0.000532  -0.000008   0.007032
    20  C   -0.000397  -0.000058   0.000066  -0.000467  -0.000014  -0.011307
    21  O    0.000003   0.000000   0.000149  -0.000002   0.000000   0.001396
    22  H    0.000000   0.000000  -0.000071   0.000000   0.000000  -0.000062
    23  C   -0.025402   0.001464   0.000321   0.000038  -0.000001   0.013493
    24  O    0.000905  -0.000030   0.000003   0.000000   0.000000  -0.000253
    25  H    0.000011   0.000000   0.000001   0.000000   0.000000  -0.000004
    26  C   -0.002856   0.000292   0.009576  -0.000165  -0.000016   0.024544
    27  O   -0.000111   0.000003   0.000046  -0.000001   0.000000   0.000539
    28  C    0.000710  -0.000002  -0.000721  -0.000090   0.000001   0.002239
    29  O    0.000000   0.000000  -0.000004   0.000000   0.000000   0.000100
    30  H    0.000000   0.000000   0.000000   0.000000   0.000000  -0.000003
    31  H    0.000001   0.000000   0.000006   0.000000   0.000000   0.000131
    32  H    0.000012   0.000000   0.000052   0.000000   0.000000   0.001270
    33  H   -0.000019   0.000000   0.000104   0.000006   0.000000  -0.000301
    34  H   -0.002216  -0.000012   0.000277   0.000000   0.000000   0.007079
    35  H   -0.000053   0.000000   0.000087   0.000000   0.000000   0.001006
    36  H   -0.000330  -0.000012   0.000035   0.000000   0.000000   0.000868
    37  H   -0.002206   0.000028  -0.000064   0.000000   0.000000   0.000409
    38  H   -0.000029   0.000000   0.005813  -0.000096  -0.000005   0.033173
    39  H    0.000002   0.000000   0.506613  -0.037477  -0.004470  -0.146116
    40  H   -0.000002   0.000000   0.504921  -0.044027  -0.005807  -0.122018
    41  H    0.000198   0.000000  -0.026966   0.005383  -0.000063   0.174956
    42  H    0.000661  -0.000001   0.002577   0.004667  -0.000055  -0.068284
    43  H    0.008073  -0.000420   0.006243   0.000018   0.000000   0.023527
    44  H   -0.026956  -0.004945   0.009942  -0.000108   0.000000   0.057596
    45  H   -0.004135  -0.000441   0.024402  -0.000174   0.000000   0.099139
             13         14         15         16         17         18
     1  O    0.005098  -0.009425   0.000022   0.000772   0.000002   0.000074
     2  C   -0.034724   0.774232  -0.022478   0.131721  -0.102006   0.008752
     3  C   -0.040036  -0.351264   0.006749   0.027960   0.021345  -0.001706
     4  O   -0.002847   0.016697   0.000246   0.000449   0.000357  -0.000012
     5  H   -0.000023   0.007605   0.000016   0.000073   0.000026   0.000000
     6  C    0.072887  -2.550055  -0.074153  -0.209790   0.046225   0.007590
     7  O    0.003708   0.010758  -0.005113   0.000464   0.000618   0.000093
     8  H   -0.000404   0.042293   0.000767   0.001669  -0.000231  -0.000006
     9  C   -0.045243  -0.301297  -0.000051  -0.018238   0.026954  -0.006531
    10  O    0.003662   0.002185  -0.001218  -0.007852   0.007279  -0.000465
    11  H    0.001015   0.003786   0.000020   0.000044  -0.000310   0.000033
    12  C    0.102597  -0.572364  -0.016396   0.038662  -0.117735   0.002201
    13  O    7.831245   0.175227  -0.011647   0.000131   0.032979  -0.028165
    14  C    0.175227   9.025602   0.328448  -0.953666   0.253547   0.032170
    15  O   -0.011647   0.328448   7.846536   0.219266  -0.102494  -0.006680
    16  C    0.000131  -0.953666   0.219266  12.015095  -2.144233  -0.093475
    17  C    0.032979   0.253547  -0.102494  -2.144233   8.512657   0.282575
    18  O   -0.028165   0.032170  -0.006680  -0.093475   0.282575   8.129976
    19  H    0.034140  -0.012853   0.010074  -0.022397   0.006745   0.238863
    20  C   -0.009810  -0.246290  -0.014140  -1.264396   0.093761  -0.059914
    21  O    0.000093  -0.000582   0.000642   0.073623  -0.162592   0.004631
    22  H   -0.000034   0.002471   0.000061  -0.004137  -0.059110   0.009408
    23  C    0.006998   0.286030  -0.047696   0.084640  -0.207008   0.007761
    24  O   -0.000073  -0.008429  -0.001571  -0.045791   0.010404   0.000035
    25  H   -0.000001  -0.000599  -0.000323   0.040789   0.004579   0.000002
    26  C   -0.025549  -0.670823  -0.002631  -2.947889  -0.196126  -0.002124
    27  O   -0.000065   0.001379   0.007115   0.058843  -0.018339  -0.001105
    28  C   -0.002481   0.046684   0.016070   0.666360  -0.351455   0.000589
    29  O    0.000017   0.002255   0.000112   0.010764  -0.018015   0.000365
    30  H    0.000000   0.000121   0.000009   0.004831   0.004571  -0.000011
    31  H    0.000017   0.001483   0.000612   0.047877  -0.015460   0.000363
    32  H    0.000090  -0.005531   0.001401   0.103883  -0.147209   0.002668
    33  H   -0.000479   0.007520  -0.000630  -0.171848   0.370041  -0.027486
    34  H   -0.002023   0.031504  -0.015540   0.076064   0.054887  -0.001004
    35  H   -0.000397   0.062559   0.000754   0.077334  -0.002232  -0.000104
    36  H    0.000187   0.047870  -0.000104   0.122538   0.007083   0.000143
    37  H    0.000245   0.018088  -0.003956  -0.026476  -0.014081  -0.000038
    38  H   -0.000837   0.002679   0.000013   0.000053   0.000006  -0.000002
    39  H    0.003985  -0.005463  -0.000109  -0.000956   0.000753   0.000034
    40  H    0.003452  -0.006788   0.000642   0.002372   0.000986   0.000050
    41  H   -0.016154   0.117338  -0.000375   0.004389   0.003764   0.000056
    42  H    0.007549   0.074767  -0.000918  -0.003490   0.001453   0.000034
    43  H    0.002787   0.109349  -0.000243  -0.008611   0.002814   0.000046
    44  H    0.007258  -0.053556  -0.008139  -0.020303   0.004191   0.000032
    45  H   -0.032279   0.228773  -0.019929  -0.028365   0.010977  -0.001906
             19         20         21         22         23         24
     1  O   -0.000067   0.000092   0.000000   0.000000  -0.000026   0.000000
     2  C   -0.003878   0.003179   0.000007   0.000048   0.013679  -0.000130
     3  C    0.000945   0.002403  -0.000048  -0.000006  -0.030341  -0.000126
     4  O    0.000010  -0.000023   0.000000   0.000000   0.000538   0.000000
     5  H    0.000000   0.000000   0.000000   0.000000  -0.000039   0.000000
     6  C   -0.005291  -0.054266   0.000204   0.000213  -0.100803   0.004968
     7  O   -0.000085  -0.000397   0.000003   0.000000  -0.025402   0.000905
     8  H    0.000000  -0.000058   0.000000   0.000000   0.001464  -0.000030
     9  C    0.005100   0.000066   0.000149  -0.000071   0.000321   0.000003
    10  O   -0.000532  -0.000467  -0.000002   0.000000   0.000038   0.000000
    11  H   -0.000008  -0.000014   0.000000   0.000000  -0.000001   0.000000
    12  C    0.007032  -0.011307   0.001396  -0.000062   0.013493  -0.000253
    13  O    0.034140  -0.009810   0.000093  -0.000034   0.006998  -0.000073
    14  C   -0.012853  -0.246290  -0.000582   0.002471   0.286030  -0.008429
    15  O    0.010074  -0.014140   0.000642   0.000061  -0.047696  -0.001571
    16  C   -0.022397  -1.264396   0.073623  -0.004137   0.084640  -0.045791
    17  C    0.006745   0.093761  -0.162592  -0.059110  -0.207008   0.010404
    18  O    0.238863  -0.059914   0.004631   0.009408   0.007761   0.000035
    19  H    0.347110   0.003124   0.000481  -0.000110  -0.002437   0.000000
    20  C    0.003124   6.783340   0.292738   0.026940  -0.002935  -0.000575
    21  O    0.000481   0.292738   8.138398   0.247279   0.000811  -0.000071
    22  H   -0.000110   0.026940   0.247279   0.412773   0.000242   0.000001
    23  C   -0.002437  -0.002935   0.000811   0.000242   6.009659   0.168102
    24  O    0.000000  -0.000575  -0.000071   0.000001   0.168102   8.066370
    25  H    0.000000  -0.003720   0.000000   0.000000  -0.009940   0.259170
    26  C   -0.003112   0.882678  -0.005303   0.000644  -0.889842   0.094251
    27  O    0.000032  -0.103621   0.001774  -0.000173  -0.072205  -0.011506
    28  C    0.001934  -0.246666  -0.102905   0.019517   0.007509  -0.012147
    29  O    0.000000   0.008337  -0.026363   0.000319   0.004701  -0.000310
    30  H    0.000000   0.007233  -0.000978   0.000034  -0.000029   0.000107
    31  H    0.000002  -0.139882   0.010857  -0.000315   0.004391  -0.000186
    32  H   -0.000151   0.275836  -0.022015  -0.004249   0.014161  -0.000202
    33  H   -0.003684  -0.043285   0.003274  -0.000141   0.007763   0.000037
    34  H    0.000213   0.010625   0.000243   0.000011  -0.014045   0.000627
    35  H    0.000022  -0.054681   0.000357  -0.000001   0.054990  -0.004651
    36  H    0.000000  -0.014897   0.000022   0.000000   0.552098  -0.038433
    37  H    0.000001   0.005664  -0.000009   0.000000   0.389913  -0.043207
    38  H    0.000000   0.000000   0.000000   0.000000  -0.000003   0.000000
    39  H   -0.000001  -0.000018   0.000000   0.000000   0.000002   0.000000
    40  H    0.000291   0.000083   0.000000   0.000000  -0.000013   0.000000
    41  H   -0.000863   0.001592  -0.000001   0.000000   0.000064   0.000000
    42  H   -0.000016   0.000010   0.000000   0.000000   0.000142   0.000000
    43  H   -0.000001   0.000002   0.000000   0.000000   0.000427   0.000000
    44  H   -0.000007   0.000219   0.000000   0.000000   0.002122   0.000002
    45  H   -0.000757   0.011420   0.000003   0.000000  -0.003761   0.000017
             25         26         27         28         29         30
     1  O    0.000000   0.000068   0.000000   0.000000   0.000000   0.000000
     2  C    0.000002  -0.056700  -0.000067   0.002037   0.000007   0.000000
     3  C   -0.000020   0.032236  -0.000161  -0.001262  -0.000012   0.000000
     4  O    0.000000  -0.000451   0.000000  -0.000001   0.000000   0.000000
     5  H    0.000000   0.000026   0.000000   0.000000   0.000000   0.000000
     6  C    0.001142  -0.043854  -0.000404   0.008324  -0.000087   0.000017
     7  O    0.000011  -0.002856  -0.000111   0.000710   0.000000   0.000000
     8  H    0.000000   0.000292   0.000003  -0.000002   0.000000   0.000000
     9  C    0.000001   0.009576   0.000046  -0.000721  -0.000004   0.000000
    10  O    0.000000  -0.000165  -0.000001  -0.000090   0.000000   0.000000
    11  H    0.000000  -0.000016   0.000000   0.000001   0.000000   0.000000
    12  C   -0.000004   0.024544   0.000539   0.002239   0.000100  -0.000003
    13  O   -0.000001  -0.025549  -0.000065  -0.002481   0.000017   0.000000
    14  C   -0.000599  -0.670823   0.001379   0.046684   0.002255   0.000121
    15  O   -0.000323  -0.002631   0.007115   0.016070   0.000112   0.000009
    16  C    0.040789  -2.947889   0.058843   0.666360   0.010764   0.004831
    17  C    0.004579  -0.196126  -0.018339  -0.351455  -0.018015   0.004571
    18  O    0.000002  -0.002124  -0.001105   0.000589   0.000365  -0.000011
    19  H    0.000000  -0.003112   0.000032   0.001934   0.000000   0.000000
    20  C   -0.003720   0.882678  -0.103621  -0.246666   0.008337   0.007233
    21  O    0.000000  -0.005303   0.001774  -0.102905  -0.026363  -0.000978
    22  H    0.000000   0.000644  -0.000173   0.019517   0.000319   0.000034
    23  C   -0.009940  -0.889842  -0.072205   0.007509   0.004701  -0.000029
    24  O    0.259170   0.094251  -0.011506  -0.012147  -0.000310   0.000107
    25  H    0.422283  -0.048751  -0.002518  -0.001390   0.000111  -0.000001
    26  C   -0.048751  10.695273   0.150900  -0.671852  -0.013886  -0.013654
    27  O   -0.002518   0.150900   7.958132   0.171324  -0.030102   0.000845
    28  C   -0.001390  -0.671852   0.171324   5.620663   0.234519  -0.012421
    29  O    0.000111  -0.013886  -0.030102   0.234519   8.017534   0.256899
    30  H   -0.000001  -0.013654   0.000845  -0.012421   0.256899   0.425713
    31  H   -0.000003   0.012303  -0.041433   0.410232  -0.016912  -0.007224
    32  H    0.000000   0.025287  -0.011229   0.003897   0.003898  -0.000053
    33  H   -0.000001   0.085477   0.002644  -0.000495   0.000699   0.000003
    34  H    0.000002   0.087425   0.000542   0.003593  -0.000242   0.000002
    35  H    0.002272   0.088597  -0.027048   0.040008   0.000682  -0.000002
    36  H    0.005281  -0.375250   0.005871   0.004079   0.000189   0.000000
    37  H   -0.002389   0.018857  -0.000288   0.000039  -0.000023   0.000000
    38  H    0.000000  -0.000001   0.000000   0.000000   0.000000   0.000000
    39  H    0.000000   0.000002   0.000000  -0.000002   0.000000   0.000000
    40  H    0.000000   0.000249   0.000000  -0.000010   0.000000   0.000000
    41  H    0.000000   0.000858   0.000000  -0.000030   0.000000   0.000000
    42  H    0.000000  -0.000307   0.000000  -0.000004   0.000000   0.000000
    43  H    0.000000  -0.001942   0.000000   0.000001   0.000000   0.000000
    44  H    0.000000  -0.004979   0.000005  -0.000048   0.000000   0.000000
    45  H    0.000000   0.036298   0.000404   0.000034  -0.000002   0.000000
             31         32         33         34         35         36
     1  O    0.000000   0.000000   0.000000  -0.000001   0.000000   0.000000
     2  C    0.000000  -0.000020   0.000354  -0.003533   0.000074   0.000366
     3  C   -0.000005  -0.000063   0.000239   0.001685  -0.000792  -0.002270
     4  O    0.000000   0.000000   0.000000   0.000001   0.000000   0.000000
     5  H    0.000000   0.000000   0.000000   0.000000   0.000000   0.000000
     6  C   -0.000170  -0.000055   0.006563   0.008980  -0.001328   0.000293
     7  O    0.000001   0.000012  -0.000019  -0.002216  -0.000053  -0.000330
     8  H    0.000000   0.000000   0.000000  -0.000012   0.000000  -0.000012
     9  C    0.000006   0.000052   0.000104   0.000277   0.000087   0.000035
    10  O    0.000000   0.000000   0.000006   0.000000   0.000000   0.000000
    11  H    0.000000   0.000000   0.000000   0.000000   0.000000   0.000000
    12  C    0.000131   0.001270  -0.000301   0.007079   0.001006   0.000868
    13  O    0.000017   0.000090  -0.000479  -0.002023  -0.000397   0.000187
    14  C    0.001483  -0.005531   0.007520   0.031504   0.062559   0.047870
    15  O    0.000612   0.001401  -0.000630  -0.015540   0.000754  -0.000104
    16  C    0.047877   0.103883  -0.171848   0.076064   0.077334   0.122538
    17  C   -0.015460  -0.147209   0.370041   0.054887  -0.002232   0.007083
    18  O    0.000363   0.002668  -0.027486  -0.001004  -0.000104   0.000143
    19  H    0.000002  -0.000151  -0.003684   0.000213   0.000022   0.000000
    20  C   -0.139882   0.275836  -0.043285   0.010625  -0.054681  -0.014897
    21  O    0.010857  -0.022015   0.003274   0.000243   0.000357   0.000022
    22  H   -0.000315  -0.004249  -0.000141   0.000011  -0.000001   0.000000
    23  C    0.004391   0.014161   0.007763  -0.014045   0.054990   0.552098
    24  O   -0.000186  -0.000202   0.000037   0.000627  -0.004651  -0.038433
    25  H   -0.000003   0.000000  -0.000001   0.000002   0.002272   0.005281
    26  C    0.012303   0.025287   0.085477   0.087425   0.088597  -0.375250
    27  O   -0.041433  -0.011229   0.002644   0.000542  -0.027048   0.005871
    28  C    0.410232   0.003897  -0.000495   0.003593   0.040008   0.004079
    29  O   -0.016912   0.003898   0.000699  -0.000242   0.000682   0.000189
    30  H   -0.007224  -0.000053   0.000003   0.000002  -0.000002   0.000000
    31  H    0.576420   0.004327   0.002310  -0.000107   0.002762  -0.000005
    32  H    0.004327   0.611539   0.006597   0.001489  -0.000181  -0.000042
    33  H    0.002310   0.006597   0.624316   0.006175   0.002027  -0.000003
    34  H   -0.000107   0.001489   0.006175   0.605827   0.005849   0.005651
    35  H    0.002762  -0.000181   0.002027   0.005849   0.631791   0.006349
    36  H   -0.000005  -0.000042  -0.000003   0.005651   0.006349   0.557725
    37  H   -0.000001  -0.000003  -0.000014   0.000053  -0.004184  -0.040457
    38  H    0.000000   0.000000   0.000000   0.000000   0.000000   0.000000
    39  H    0.000000   0.000000   0.000000   0.000000   0.000000   0.000000
    40  H    0.000000   0.000000   0.000000   0.000000   0.000000   0.000000
    41  H    0.000000   0.000000  -0.000003  -0.000004   0.000000   0.000000
    42  H    0.000000   0.000000   0.000000   0.000000   0.000000   0.000000
    43  H    0.000000   0.000000   0.000000   0.000000   0.000000   0.000001
    44  H    0.000000   0.000000  -0.000001   0.000000   0.000001   0.000001
    45  H    0.000000  -0.000001  -0.000018   0.008380  -0.000005   0.000057
             37         38         39         40         41         42
[...]
 ,0.00013736,-0.00005716,-0.00009884,-0.01419219,0.00706287,0.00721528,
 0.00220195,-0.00003389,-0.00117997,-0.00017402,-0.00015675,0.00013486,
 0.00007710,-0.00000162,-0.00002593,-0.00003089,0.00002534,0.00002211,0
 .00000836,0.00000206,-0.00000936,0.00004819,-0.00001913,-0.00005282,-0
 .00007013,-0.00000256,0.00007882,-0.00001004,0.00000388,0.00000563,0.0
 0001030,-0.00000306,-0.00000786,-0.00000789,0.00000447,0.00000234,-0.0
 0000219,0.00000608,0.00000583,-0.00000125,-0.00000479,-0.00000751,-0.0
 0000013,0.00000088,0.00000182,-0.00000166,0.00000090,0.00000514,0.0000
 0695,-0.00000033,-0.00001297,-0.00000490,-0.00000152,0.00000788,0.0000
 0441,-0.00000299,-0.00000847,-0.00000063,0.00000086,0.00000130,0.00000
 179,0.,0.00000031,0.00000152,-0.00000299,-0.00000211,0.00000724,-0.000
 00127,0.00000757,0.00000435,-0.00000735,-0.00000191,0.00000272,-0.0000
 0135,0.00000234,0.00000053,-0.00000048,0.00000024,0.00000305,0.0000007
 9,-0.00000161,0.00069537,-0.00054721,0.00023097,-0.00022653,-0.0000599
 4,-0.00011032,0.00012555,0.00019002,-0.00022111,-0.00048802,-0.0015204
 7,0.00162412,0.26105071,0.00149384,0.00227377,0.00243775,0.12935103,-0
 .12987192,-0.05248071,0.02666581,-0.02230331,-0.01503587,-0.00076936,0
 .00446167,0.00121999,0.00025964,-0.00075870,0.00070575,0.00142431,-0.0
 0002360,0.00109628,-0.00090406,-0.00000263,-0.00043789,0.00012874,-0.0
 0002098,0.00000601,-0.00086255,0.00102912,0.00003394,0.00021295,-0.000
 15701,0.00007545,0.00008819,0.00002306,-0.00008045,-0.01641906,0.00830
 107,0.00887464,-0.00007689,0.00056017,-0.00155861,-0.00008807,-0.00051
 978,-0.00015712,0.00005027,0.00006975,-0.00006936,-0.00001947,0.000030
 47,0.00002270,-0.00002151,-0.00003433,-0.00003972,0.00006537,-0.000011
 00,0.00003671,-0.00009094,0.00004290,-0.00000859,0.00000703,0.00000266
 ,0.00000360,0.00000295,0.00000319,-0.00000131,0.00000040,0.00000237,-0
 .00000409,0.00000834,0.00000034,0.00001744,-0.00000996,0.00000119,-0.0
 0001423,0.00000141,-0.00000105,-0.00000151,0.00000325,-0.00000456,-0.0
 0000050,0.00000193,0.00001065,-0.00000943,-0.00000572,-0.00001195,0.00
 000366,0.00000195,0.00000375,0.00000010,0.00000014,-0.00000080,0.00000
 092,0.00000028,0.00000158,0.00000007,-0.00000141,-0.00000099,-0.000000
 72,0.00001136,0.00000461,0.00000739,-0.00000416,-0.00000481,0.00000479
 ,-0.00000095,0.00000350,-0.00000355,-0.00000699,0.00000190,0.00000780,
 0.00001207,-0.00000547,0.00000152,0.00063851,0.00077944,0.00054893,0.0
 0003697,-0.00002142,-0.00016674,0.00020356,0.00027328,-0.00014162,-0.0
 0158133,-0.00133392,0.00320989,-0.13670188,0.14244692,-0.03711695,0.01
 681233,-0.00431339,0.08515889,-0.05352588,-0.07616313,0.01120464,-0.00
 629004,-0.00189634,-0.00148086,0.00027351,0.00156623,-0.00039057,-0.00
 005514,-0.00004125,0.00086229,-0.00003335,0.00034997,-0.00034279,0.000
 17221,-0.00003446,0.00007148,-0.00000010,0.00005288,-0.00039673,-0.001
 00740,0.00084967,-0.00030044,0.00044719,0.00016649,-0.00021873,0.00000
 693,0.00007743,0.02247368,-0.01192179,-0.00976109,-0.00056210,0.000116
 11,0.00233544,0.00019286,-0.00037988,-0.00026907,-0.00002568,0.0000651
 2,-0.00014577,-0.00002567,-0.00002088,0.00002455,0.00004489,0.00001712
 ,0.00004133,-0.00010738,0.00003026,-0.00002960,0.00014076,-0.00004433,
 -0.00003229,-0.00001174,-0.00000955,0.00001012,0.00000428,0.00001604,-
 0.00001484,-0.00000176,-0.00000807,0.00000893,0.00001787,0.00001113,0.
 00000721,-0.00001896,-0.00001072,-0.00001383,0.00000462,0.00000067,-0.
 00000163,0.00002255,-0.00000440,0.00001284,-0.00000983,0.00000562,-0.0
 0002135,0.00001015,-0.00000744,0.00002214,-0.00000002,0.00000085,-0.00
 001814,0.00000070,-0.00000276,0.00000262,-0.00000218,0.00000088,-0.000
 00202,-0.00000243,0.00000411,0.00000360,-0.00002053,0.00000120,-0.0000
 1819,-0.00000614,0.00001138,0.00000879,-0.00000686,0.00000372,-0.00000
 668,-0.00000408,0.00000344,0.00000420,0.00000437,-0.00000368,-0.000000
 27,-0.00123019,0.00050870,0.00349288,0.00004367,0.00037966,0.00020327,
 -0.00018938,-0.00036366,0.00004763,0.00128947,0.00272069,-0.00336344,-
 0.07712653,0.05417331,0.08711322,0.00173005,-0.00008552,0.00099794,0.0
 0621767,-0.00545709,-0.00339369,-0.25027603,0.13939936,0.03496137,-0.0
 2029620,-0.00369492,0.01946001,-0.00150746,-0.00000933,-0.00040089,-0.
 01940336,0.01416088,-0.00208604,0.00323523,-0.00070105,0.00224181,-0.0
 0050429,-0.00006359,-0.00011999,0.00021851,0.00024162,-0.00026582,-0.0
 0002487,-0.00009025,-0.00001915,-0.00000354,-0.00000326,0.00001772,0.0
 0052423,0.00074081,0.00004869,0.00027228,-0.00003597,0.00010455,-0.001
 75620,-0.00064420,0.00134126,0.00058692,-0.00019541,-0.00047717,-0.000
 10017,0.00018554,0.00001195,0.00000491,-0.00002759,-0.00008828,0.00003
 322,-0.00002337,0.00003745,-0.00002472,0.00002485,0.00000260,0.0000010
 7,0.00003296,0.00000782,0.00000886,-0.00000694,-0.00000468,-0.00000299
 ,0.00000574,-0.00000370,-0.00004472,0.00000819,-0.00000345,0.00003245,
 -0.00000209,0.00001679,-0.00000484,-0.00000059,0.00000746,0.00000841,0
 .00000902,-0.00000131,0.00000776,-0.00001606,-0.00000650,-0.00000739,0
 .00000448,-0.00000910,0.00000250,-0.00000386,0.00000748,-0.00000120,0.
 00000282,-0.00000204,0.00000236,-0.00000171,0.00000152,0.00000450,-0.0
 0000441,-0.00000348,0.00000554,-0.00001057,0.00000806,0.00002213,-0.00
 001632,-0.00002576,0.00000742,-0.00001004,0.00001351,0.00001742,-0.000
 00616,-0.00001937,-0.00001354,0.00001669,-0.00000142,0.00000602,-0.000
 20416,-0.00012271,-0.00000514,-0.00002295,0.00003909,0.00003949,0.0000
 3970,0.00004960,0.00018233,0.00029477,-0.00022336,0.00004011,-0.002196
 95,-0.00137335,0.28075958,-0.00049542,0.00392396,0.00208101,0.02817462
 ,-0.02628919,-0.00664930,0.14175619,-0.12895730,-0.02789580,-0.0233468
 5,0.00673425,0.01313001,-0.00084131,0.00051510,-0.00007124,0.00074199,
 -0.00004898,-0.00182745,-0.00114883,0.00116139,0.00049910,-0.00033706,
 0.00001568,-0.00000885,-0.00013808,0.00000750,-0.00015910,-0.00013853,
 0.00013698,0.00011783,-0.00006458,0.00003016,0.00003301,0.00153836,0.0
 0141080,-0.00085839,-0.00051164,-0.00015466,0.00048162,0.00088216,-0.0
 0046170,-0.00055074,-0.00024091,0.00013996,-0.00009015,0.00002168,-0.0
 0003360,0.00005190,-0.00000151,-0.00001277,0.00000056,-0.00003737,0.00
 003776,0.00002621,0.00005473,-0.00001938,-0.00007092,0.00000513,-0.000
 00685,0.00000523,-0.00000179,0.00001013,-0.00000514,0.00000295,-0.0000
 0545,0.00000042,0.00000695,0.00000840,-0.00000367,-0.00000890,-0.00000
 901,0.00000313,0.00000302,0.00000154,-0.00000199,0.00000907,0.00001518
 ,0.00000979,-0.00000930,-0.00000552,-0.00000753,0.00000530,0.00000075,
 0.00000822,-0.00000212,0.00000048,-0.00000377,0.00000051,-0.00000079,0
 .00000054,-0.00000189,0.00000004,-0.00000138,-0.00000255,0.00000347,0.
 00000298,-0.00000519,0.00000324,-0.00000462,-0.00000115,0.00001131,0.0
 0000987,-0.00000497,-0.00000100,-0.00000508,0.00000484,0.00000213,-0.0
 0000472,-0.00000507,0.00000324,-0.00000229,0.00005708,0.00000331,0.000
 21338,0.00004588,0.00001800,0.00001414,-0.00003663,-0.00012236,0.00003
 394,-0.00080809,-0.00020242,0.00068483,-0.00246695,-0.00521881,-0.0020
 9661,-0.14167918,0.14711064,0.00096839,0.00126173,0.00110026,0.0082320
 0,-0.01045932,-0.00021423,0.03329880,-0.02770105,-0.04534166,0.0335395
 3,0.00044241,-0.01688466,0.00203489,-0.00065404,-0.00028491,-0.0287340
 4,0.01636817,0.00021044,0.00237599,0.00076869,0.00291368,-0.00020950,-
 0.00021425,-0.00018768,-0.00016697,-0.00010738,0.00011567,-0.00002709,
 0.00006965,0.00002527,-0.00000484,0.00001294,-0.00000457,-0.00043204,0
 .00035701,-0.00008195,0.00022070,0.00023475,-0.00039934,-0.00158880,-0
 .00038152,0.00200676,0.00044022,-0.00020469,-0.00039403,-0.00002435,0.
 00007548,0.00007937,0.00001175,-0.00001522,-0.00003908,0.00002054,0.00
 000079,-0.00001391,-0.00003211,-0.00000751,0.00003036,-0.00000768,0.00
 001182,0.00001320,0.00001130,0.00000746,-0.00001575,-0.00000370,-0.000
 00078,0.00000229,-0.00001995,0.00002260,0.00002556,-0.00000109,-0.0000
 2101,-0.00000891,0.00000354,0.00000339,0.00000614,0.00001131,0.0000063
 9,0.00002196,0.00000420,-0.00000562,-0.00003161,-0.00000269,-0.0000066
 2,0.00001596,0.00000406,-0.00000171,-0.00001245,-0.00000023,0.00000025
 ,0.00000180,0.00000064,0.00000021,0.00000035,0.00000134,-0.00000023,-0
 .00000161,-0.00000200,-0.00000523,0.00000507,0.00002131,-0.00000550,-0
 .00003696,0.00000255,-0.00000762,0.00000923,0.00001511,-0.00000328,-0.
 00001727,-0.00000601,0.00002352,-0.00000233,0.00018503,-0.00004544,-0.
 00005283,0.00001979,0.00000983,0.00001800,-0.00002284,-0.00008590,0.00
 000921,-0.00009677,-0.00001029,0.00029736,-0.00050061,-0.00184361,-0.0
 0025538,-0.04737945,0.02234884,0.06251868,0.00020924,-0.00059369,-0.00
 045243,-0.00042807,0.00168525,0.00025305,-0.02007483,0.00448493,0.0025
 7725,0.00265554,-0.00066445,0.00118645,0.00031222,-0.00010529,0.000149
 31,-0.32524423,0.07785550,0.04651243,0.00727640,0.00202992,0.00016469,
 0.00082404,0.00046225,0.00043411,-0.00011965,0.00009003,0.00005487,0.0
 0008662,-0.00006932,-0.00003137,0.00001770,0.00000321,0.00000531,-0.00
 000019,-0.00000842,0.00007334,0.00093588,-0.00100184,-0.00062959,-0.01
 615625,0.00419271,0.00389175,0.00156198,-0.00048690,-0.00017258,0.0000
 9918,0.00011987,0.00004904,0.00002655,0.00000783,-0.00011961,0.0000429
 7,-0.00009598,0.00002116,-0.00004263,0.00006012,0.00002311,0.00001465,
 0.00004549,-0.00000320,0.00000043,-0.00001899,0.00000055,-0.00000144,0
 .00000767,-0.00000550,-0.00005776,-0.00000642,0.00001400,0.00003198,-0
 .00000150,0.00001280,-0.00000434,0.00000168,0.00000666,-0.00003095,-0.
 00001009,0.00000424,0.00000904,-0.00001875,0.00002359,-0.00000826,0.00
 001928,-0.00002279,0.00000072,-0.00000627,0.00001759,-0.00000156,0.000
 00414,-0.00000271,0.00000316,-0.00000249,0.00000279,0.00000633,-0.0000
 0674,-0.00000347,0.00000417,-0.00002193,0.00002323,0.00005121,-0.00003
 226,-0.00016923,0.00001515,-0.00000831,0.00002648,0.00002323,-0.000012
 55,-0.00002188,0.00000164,0.00003418,-0.00000763,-0.00008428,-0.000008
 96,-0.00003511,0.00000980,-0.00000432,0.00000364,0.00001768,-0.0000229
 7,-0.00001416,0.00016656,0.00008480,-0.00000670,0.00013405,-0.00080019
 ,-0.00046070,-0.00092362,-0.00061760,-0.00268532,0.34880333,0.00022048
 ,0.00023046,0.00019469,0.00000127,-0.00036834,0.00066967,0.00235436,0.
 00333008,0.00189586,0.00003462,0.00011820,-0.00072375,-0.00011473,-0.0
 0000283,-0.00010580,0.07470400,-0.06125656,-0.00875868,0.02922211,-0.0
 2730058,-0.01840013,0.00136729,0.00108870,-0.00009471,-0.00002108,0.00
 006728,0.00005303,0.00002185,-0.00004128,-0.00001808,0.00001095,-0.000
 00049,0.00000061,-0.00014976,-0.00000625,-0.00003782,0.00181045,0.0012
 6653,-0.00057471,-0.02407872,0.00766510,0.00462799,0.00169416,0.000287
 52,-0.00134695,0.00002364,0.00027163,0.00001391,-0.00002886,-0.0000357
 5,-0.00021546,0.00006555,-0.00013083,0.00010384,-0.00004937,0.00011778
 ,0.00004637,0.00001867,0.00001889,0.00000400,0.00000957,0.00001210,0.0
 0000206,0.00000518,0.00000250,-0.00001281,0.00008144,-0.00004473,0.000
 04098,-0.00004888,0.00004272,-0.00006413,-0.00000324,-0.00000678,-0.00
 001378,-0.00001800,-0.00008332,-0.00001201,0.00001484,0.00005436,-0.00
 001194,-0.00002189,-0.00003757,0.00000056,0.00000820,0.00001340,0.0000
 0472,-0.00000037,-0.00000374,0.00000272,0.00000136,0.00000451,0.000000
 63,0.00000120,-0.00000374,-0.00000538,0.00001268,-0.00001427,0.0000201
 1,0.00006823,-0.00012502,-0.00004470,0.00001517,0.00003927,0.00001016,
 -0.00008009,0.00000627,0.00009074,0.00007858,-0.00004441,0.00000770,0.
 00003988,0.00003195,-0.00001275,-0.00000561,-0.00001369,-0.00000642,0.
 00000312,-0.00001970,-0.00001137,0.00011570,-0.00003449,0.00003830,-0.
 00016200,0.00005393,-0.00012185,-0.00003178,0.00027899,-0.00037629,-0.
 08502103,0.07729025,0.00016211,-0.00058688,-0.00065685,0.00023038,0.00
 146382,0.00099041,-0.03167884,0.00832715,0.00214396,0.00148233,-0.0011
 4088,0.00323854,0.00011578,-0.00016333,0.00039115,0.04551477,-0.009967
 27,-0.04939143,0.01449202,-0.01470474,-0.00560665,-0.00024842,0.000754
 39,0.00023571,-0.00008130,0.00002036,0.00009692,0.00002261,-0.00003162
 ,-0.00000382,0.00000204,0.00000717,0.00000213,-0.00040242,0.00005597,-
 0.00056213,-0.00120571,0.00049385,0.00070451,0.02600988,-0.00532202,-0
 .00490651,-0.00166281,-0.00054490,0.00243749,0.00019640,-0.00042327,-0
 .00038625,-0.00003947,0.00003492,0.00023855,-0.00006452,0.00011641,-0.
 00005893,0.00005329,-0.00007945,-0.00001197,-0.00001431,-0.00005667,-0
 .00001965,-0.00002568,-0.00000799,0.00002760,0.00000472,-0.00000480,0.
 00000462,0.00011893,-0.00005759,-0.00012476,-0.00003550,0.00005391,0.0
 0004762,-0.00000099,-0.00000493,-0.00003102,-0.00002232,0.00003975,-0.
 00003829,-0.00003611,-0.00000585,0.00007615,0.00002861,0.00002775,-0.0
 0001957,-0.00001564,0.00000046,0.00001454,0.00000202,-0.00000211,-0.00
 000384,-0.00000406,-0.00000053,-0.00000278,-0.00000739,0.00000460,0.00
 000758,-0.00000573,0.00004249,-0.00002760,-0.00019122,0.00012768,0.000
 10837,-0.00003055,0.00002313,-0.00006127,-0.00005933,0.00001635,0.0000
 7451,-0.00000123,-0.00009734,-0.00001837,-0.00006497,-0.00009219,-0.00
 005320,0.00001457,0.00003655,0.00001032,-0.00000811,-0.00005100,0.0000
 0744,-0.00000148,-0.00008405,-0.00013173,0.00006000,-0.00050191,-0.000
 20232,-0.00277744,0.00010247,-0.00477959,-0.05197751,0.01997942,0.0588
 2711,0.00016473,0.00006757,0.00003827,-0.00036611,0.00001346,0.0001012
 3,-0.00100681,0.00042769,-0.00100430,0.00043698,-0.00030448,0.00004516
 ,0.00008807,-0.00007633,0.00011906,-0.01883567,0.00675785,0.01088272,0
 .00190055,0.00087701,-0.00111457,0.00049814,0.00001372,-0.00036379,0.0
 0057948,-0.00002093,0.00033460,-0.00006953,-0.00020062,-0.00012126,0.0
 0001709,-0.00004410,-0.00004138,0.00276388,-0.00151944,0.00009691,0.01
 059860,-0.00501579,-0.00366531,-0.27952281,0.10624691,0.06754184,-0.02
 181692,0.01372954,-0.01332351,-0.00011931,-0.00057246,0.00482990,0.000
 27604,-0.00005011,-0.00040359,0.00023653,-0.00052684,-0.00002768,-0.00
 027703,0.00005156,0.00027051,0.00005871,0.00012624,0.00008377,0.000083
 21,0.00004936,-0.00011334,-0.00003210,0.00000496,-0.00000178,-0.000192
 29,0.00016570,-0.00000969,0.00004643,-0.00011080,-0.00000869,0.0000208
 1,0.00001909,0.00002663,0.00043892,-0.00030978,0.00014043,-0.00001522,
 -0.00006605,-0.00034945,-0.00005794,-0.00007881,0.00009901,0.00003687,
 -0.00000436,-0.00006781,-0.00000296,0.00000302,0.00001094,0.00001204,0
 .00000525,0.00000264,0.00002250,-0.00000926,-0.00003503,-0.00007453,-0
 .00022996,0.00018121,0.00132413,-0.00086627,-0.00131201,0.00020365,0.0
 0003839,0.00029456,0.00006514,-0.00007157,-0.00006182,0.00001382,0.000
 07882,-0.00003998,-0.00000421,0.00001115,-0.00001121,-0.00002257,0.000
 04907,0.00000532,-0.00000189,-0.00001383,-0.00001167,0.00033928,0.0008
 3491,0.00134681,-0.00004536,-0.00010883,-0.00011460,0.00092929,-0.0003
 5700,0.00052508,-0.00016342,-0.00216914,0.00215260,0.30147176,0.000103
 59,0.00029934,-0.00027955,-0.00060541,-0.00045913,-0.00004331,-0.00044
 306,0.00059153,-0.00057669,0.00016234,-0.00016712,0.00024602,0.0000962
 0,-0.00006340,0.00000541,-0.01817924,0.00686033,0.00825518,0.00018175,
 0.00166718,0.00037537,0.00006293,0.00039023,-0.00007628,-0.00000936,0.
 00007779,0.00023514,-0.00010414,0.00002569,-0.00002977,-0.00008979,0.0
 0004368,-0.00005311,0.00394635,0.00033489,0.00323375,0.02215182,-0.039
 25024,-0.02116085,0.10228917,-0.08460235,-0.02607493,0.01110390,0.0003
 5533,0.00506715,-0.00051330,0.00035259,-0.00140640,0.00025904,0.000005
 04,0.00057086,-0.00047431,0.00070199,-0.00011699,0.00080692,-0.0007923
 5,-0.00102423,-0.00004322,-0.00005351,0.00000792,-0.00000682,0.0000051
 5,-0.00002013,-0.00001365,-0.00002084,0.00003077,0.00001104,0.00002158
 ,-0.00006077,-0.00001492,-0.00001884,0.00001808,0.00000668,0.00000396,
 -0.00000295,-0.00020795,0.00016842,-0.00004432,-0.00000136,-0.00000432
 ,0.00008690,0.00005205,0.00005026,0.00001452,-0.00001384,-0.00001333,-
 0.00002303,0.00000147,-0.00000171,0.00000015,-0.00000822,-0.00000649,-
 0.00000479,-0.00000759,0.00001461,0.00001617,-0.00003905,0.00004901,-0
 .00011529,-0.00045348,0.00010019,0.00052389,-0.00008682,-0.00004215,-0
 .00012252,-0.00000861,0.00002132,0.00001420,-0.00002518,-0.00003015,0.
 00001456,-0.00004012,-0.00001228,-0.00005628,-0.00002566,-0.00009344,-
 0.00005792,-0.00003827,-0.00002155,0.00000626,-0.00141804,0.00058939,-
 0.00046188,-0.00005559,-0.00007427,0.00012533,0.00007791,-0.00003461,0
 .00013818,-0.00154161,-0.00271807,0.00220274,-0.11684454,0.11575064,-0
 .00014897,-0.00000591,-0.00022224,-0.00007560,0.00002186,-0.00018492,0
 .00130256,-0.00074752,0.00083899,-0.00051939,0.00019569,0.00017522,-0.
 00008984,-0.00003327,-0.00000182,0.02710698,-0.00530751,-0.00694672,-0
 .00194439,-0.00105270,0.00093685,-0.00034995,-0.00012124,0.00010055,-0
 .00004704,0.00000936,0.00005627,-0.00005246,0.00002481,-0.00000107,-0.
 00005201,0.00001899,-0.00004267,0.00269701,-0.00123263,0.00191341,0.00
 654780,-0.01718247,-0.00421005,0.07359216,-0.02953256,-0.06088881,-0.0
 3647835,0.01867413,-0.01543106,-0.00595416,0.00286047,0.00318805,-0.00
 009749,0.00015318,-0.00049826,0.00007947,0.00001086,0.00038059,0.00006
 708,0.00016078,-0.00026768,0.00005346,0.00001843,0.00000488,0.00003804
 ,0.00001647,-0.00000392,0.00000826,0.00000547,-0.00001604,-0.00000848,
 0.00005269,0.00009651,-0.00000293,-0.00003427,-0.00005414,0.00001408,0
 .00001260,0.00000576,-0.00025894,-0.00009368,-0.00001520,0.00017080,-0
 .00004043,-0.00019082,-0.00006464,-0.00009082,0.00004850,0.00003018,0.
 00001406,-0.00002514,-0.00000210,-0.00000026,0.00000862,0.00000529,0.0
 0000310,0.00001219,0.00002938,-0.00001698,-0.00005400,0.00013142,-0.00
 021391,0.00002607,0.00098434,-0.00106267,0.00012571,0.00025442,-0.0001
 0395,0.00000429,0.00000316,-0.00004554,0.00001339,0.00005066,0.0000406
 9,-0.00005818,-0.00001351,0.00001661,0.00000088,-0.00000179,-0.0000648
 4,-0.00002618,-0.00000659,0.00000060,0.00000742,-0.00074989,0.00035880
 ,0.00009241,-0.00004284,0.00006892,0.00020306,-0.00056853,0.00045974,-
 0.00036594,0.00129007,0.00316142,-0.00258668,-0.06692673,0.03062342,0.
 08385192\\0.00309037,-0.00475064,-0.00155521,-0.00331472,-0.00886855,0
 .02481642,0.01420067,-0.01001789,-0.00434749,-0.00444225,0.01493961,0.
 02294023,-0.00171740,-0.00230160,-0.03483708,-0.02567598,-0.00781728,-
 0.01148880,-0.00570247,-0.01967213,0.01262958,0.01376119,0.03173264,-0
 .00810099,0.02746341,0.02627426,0.00486218,-0.01030287,0.00454528,0.00
 060879,-0.00942565,-0.03311315,-0.00989644,-0.05896289,0.01507904,0.00
 409750,-0.00209624,-0.00794259,0.00533282,0.02597957,0.02278605,-0.041
 26354,-0.02072079,-0.01688590,0.04149457,-0.01193617,0.01437392,0.0365
 7584,-0.02077176,-0.00977158,0.00183359,0.00133772,-0.01315692,-0.0024
 7579,0.00287924,-0.00351175,-0.02520179,0.04152669,0.06582667,0.001618
 15,0.02283725,0.01682730,0.01182299,-0.02775025,-0.01404760,-0.0134580
 6,-0.02462890,0.00838531,-0.01360626,-0.01089171,0.00396022,-0.0158834
 0,0.02989167,-0.00382352,0.02263168,0.02213768,-0.01484088,-0.01895432
 ,-0.03652164,-0.00281207,-0.01420474,0.06629087,-0.04606179,0.00809639
 ,-0.02300383,0.01127704,0.01657345,-0.00388577,-0.00167369,-0.00209709
 ,-0.01584029,0.00681099,-0.00544499,0.00970790,-0.01608033,-0.00615640
 ,-0.01708796,0.01349740,-0.00090308,0.01371574,-0.01341344,0.00186096,
 -0.01605940,0.01310705,-0.00100839,0.01007853,-0.01441845,-0.00232310,
 -0.00589086,0.00169013,0.01728625,0.00020482,0.00216741,0.00162653,0.0
 1229746,-0.00616065,0.01480028,0.01563148,0.00527189,-0.01310263,0.018
 84571,-0.00361401,-0.00381394,-0.01570265,0.01377298,0.00315168,0.0197
 2624,-0.01068883,-0.00481751,-0.01955131,0.00589207,0.00500267,0.02027
 958,-0.01277203,-0.00472150\\\@


 IN-LAWS ARE LIKE SEEDS. YOU DON'T NEED THEM
 BUT THEY COME WITH THE TOMATO.
 Job cpu time:  3 days 22 hours 17 minutes 38.0 seconds.
 File lengths (MBytes):  RWF=   2351 Int=      0 D2E=      0 Chk=     43 Scr=      1
 Normal termination of Gaussian 09 at Tue Feb 16 09:48:26 2016.
Gaussian '09 finished on node028 at Tue Feb 16 09:48:26 EST 2016.
