Gaussian '09 started on node018 at Tue Mar  1 03:27:53 EST 2016.
 Entering Gaussian System, Link 0=/usr/local/gaussian/g09/g09
 Initial command:
 /usr/local/gaussian/g09/l1.exe /home/srmcgrat/thesis/gaussian/cellobiose/450/9000/2/gdp/gaussian934/Gau-970.inp -scrdir=/home/srmcgrat/thesis/gaussian/cellobiose/450/9000/2/gdp/gaussian934/
 Entering Link 1 = /usr/local/gaussian/g09/l1.exe PID=       972.
  
 Copyright (c) 1988,1990,1992,1993,1995,1998,2003,2009,2010,
            Gaussian, Inc.  All Rights Reserved.
  
 This is part of the Gaussian(R) 09 program.  It is based on
 the Gaussian(R) 03 system (copyright 2003, Gaussian, Inc.),
 the Gaussian(R) 98 system (copyright 1998, Gaussian, Inc.),
 the Gaussian(R) 94 system (copyright 1995, Gaussian, Inc.),
 the Gaussian 92(TM) system (copyright 1992, Gaussian, Inc.),
 the Gaussian 90(TM) system (copyright 1990, Gaussian, Inc.),
 the Gaussian 88(TM) system (copyright 1988, Gaussian, Inc.),
 the Gaussian 86(TM) system (copyright 1986, Carnegie Mellon
 University), and the Gaussian 82(TM) system (copyright 1983,
 Carnegie Mellon University). Gaussian is a federally registered
 trademark of Gaussian, Inc.
  
 This software contains proprietary and confidential information,
 including trade secrets, belonging to Gaussian, Inc.
  
 This software is provided under written license and may be
 used, copied, transmitted, or stored only in accord with that
 written license.
  
 The following legend is applicable only to US Government
 contracts under FAR:
  
                    RESTRICTED RIGHTS LEGEND
  
 Use, reproduction and disclosure by the US Government is
 subject to restrictions as set forth in subparagraphs (a)
 and (c) of the Commercial Computer Software - Restricted
 Rights clause in FAR 52.227-19.
  
 Gaussian, Inc.
 340 Quinnipiac St., Bldg. 40, Wallingford CT 06492
  
  
 ---------------------------------------------------------------
 Warning -- This program may not be used in any manner that
 competes with the business of Gaussian, Inc. or will provide
 assistance to any competitor of Gaussian, Inc.  The licensee
 of this program is prohibited from giving any competitor of
 Gaussian, Inc. access to this program.  By using this program,
 the user acknowledges that Gaussian, Inc. is engaged in the
 business of creating and licensing software in the field of
 computational chemistry and represents and warrants to the
 licensee that it is not a competitor of Gaussian, Inc. and that
 it will not use this program in any manner prohibited above.
 ---------------------------------------------------------------
  

 Cite this work as:
 Gaussian 09, Revision B.01,
 M. J. Frisch, G. W. Trucks, H. B. Schlegel, G. E. Scuseria, 
 M. A. Robb, J. R. Cheeseman, G. Scalmani, V. Barone, B. Mennucci, 
 G. A. Petersson, H. Nakatsuji, M. Caricato, X. Li, H. P. Hratchian, 
 A. F. Izmaylov, J. Bloino, G. Zheng, J. L. Sonnenberg, M. Hada, 
 M. Ehara, K. Toyota, R. Fukuda, J. Hasegawa, M. Ishida, T. Nakajima, 
 Y. Honda, O. Kitao, H. Nakai, T. Vreven, J. A. Montgomery, Jr., 
 J. E. Peralta, F. Ogliaro, M. Bearpark, J. J. Heyd, E. Brothers, 
 K. N. Kudin, V. N. Staroverov, T. Keith, R. Kobayashi, J. Normand, 
 K. Raghavachari, A. Rendell, J. C. Burant, S. S. Iyengar, J. Tomasi, 
 M. Cossi, N. Rega, J. M. Millam, M. Klene, J. E. Knox, J. B. Cross, 
 V. Bakken, C. Adamo, J. Jaramillo, R. Gomperts, R. E. Stratmann, 
 O. Yazyev, A. J. Austin, R. Cammi, C. Pomelli, J. W. Ochterski, 
 R. L. Martin, K. Morokuma, V. G. Zakrzewski, G. A. Voth, 
 P. Salvador, J. J. Dannenberg, S. Dapprich, A. D. Daniels, 
 O. Farkas, J. B. Foresman, J. V. Ortiz, J. Cioslowski, 
 and D. J. Fox, Gaussian, Inc., Wallingford CT, 2010.
 
 ******************************************
 Gaussian 09:  EM64L-G09RevB.01 12-Aug-2010
                 1-Mar-2016 
 ******************************************
 ------------------------------------------------
 # freq=raman b3lyp/6-31+g(d,p) geom=connectivity
 ------------------------------------------------
 1/10=4,30=1,38=1,57=2/1,3;
 2/12=2,17=6,18=5,40=1/2;
 3/5=1,6=6,7=111,11=2,16=1,25=1,30=1,71=2,74=-5/1,2,3;
 4//1;
 5/5=2,38=5,98=1/2;
 8/6=4,10=90,11=11/1;
 10/13=10,15=4/2;
 11/6=3,8=1,9=11,15=111,16=1/1,2,10;
 10/6=1/2;
 6/7=2,8=2,9=2,10=2,18=1,28=1/1;
 7/8=1,10=1,25=1/1,2,3,16;
 1/10=4,30=1/3;
 99//99;
 ------------
 450 9000.com
 ------------
 Symbolic Z-matrix:
 Charge =  0 Multiplicity = 1
 O                     10.696    7.941     21.844 
 C                     11.463    7.871     23.054 
 C                     12.104    9.204     23.405 
 O                     12.966    9.623     22.338 
 H                     12.617    9.409     21.425 
 C                     12.606    9.322     24.835 
 O                     12.824    10.731    25. 
 H                     13.343    11.183    24.274 
 C                     10.389    5.949     23.755 
 O                     10.04     4.927     24.699 
 H                     9.81      4.139     24.128 
 C                     10.607    7.382     24.211 
 O                     11.303    7.448     25.464 
 C                     11.733    8.735     25.932 
 O                     12.472    8.59      27.154 
 C                     11.515    8.719     28.215 
 C                     10.808    7.456     28.68 
 O                     9.852     7.047     27.691 
 H                     10.345    7.004     26.823 
 C                     10.146    7.492     30.048 
 O                     9.353     6.356     30.423 
 H                     8.618     6.229     29.757 
 C                     12.566    10.648    28.956 
 O                     13.263    11.54     29.837 
 H                     13.557    12.434    29.5 
 C                     12.298    9.224     29.416 
 O                     11.711    9.2       30.725 
 C                     11.11     7.96      31.125 
 O                     10.526    8.385     32.365 
 H                     11.22253   8.5992    32.98995 
 H                     11.2897   7.98457   21.09086 
 H                     11.28924   5.63382   23.2701 
 H                     9.61639   5.96947   23.01503 
 H                     9.68041   7.91536   24.25414 
 H                     12.24798   7.15969   22.90322 
 H                     11.29268   9.90056   23.36665 
 H                     13.55772   8.8357    24.88632 
 H                     10.88294   9.36419   26.09454 
 H                     11.62088   11.09506   28.72843 
 H                     13.12717   10.59136   28.04673 
 H                     13.22938   8.69886   29.45664 
 H                     10.7831   9.44952   27.94011 
 H                     11.55338   6.68958   28.7237 
 H                     9.43399   8.2869    29.97003 
 H                     11.86379   7.22125   31.30091 
 

 GradGradGradGradGradGradGradGradGradGradGradGradGradGradGradGradGradGrad
 Berny optimization.
 Initialization pass.
 Trust Radius=3.00D-01 FncErr=1.00D-07 GrdErr=1.00D-07
 Number of steps in this run=      2 maximum allowed number of steps=      2.
 GradGradGradGradGradGradGradGradGradGradGradGradGradGradGradGradGradGrad

                          Input orientation:                          
 ---------------------------------------------------------------------
 Center     Atomic      Atomic             Coordinates (Angstroms)
 Number     Number       Type             X           Y           Z
 ---------------------------------------------------------------------
      1          8           0       10.696000    7.941000   21.844000
      2          6           0       11.463000    7.871000   23.054000
      3          6           0       12.104000    9.204000   23.405000
      4          8           0       12.966000    9.623000   22.338000
      5          1           0       12.617000    9.409000   21.425000
      6          6           0       12.606000    9.322000   24.835000
      7          8           0       12.824000   10.731000   25.000000
      8          1           0       13.343000   11.183000   24.274000
      9          6           0       10.389000    5.949000   23.755000
     10          8           0       10.040000    4.927000   24.699000
     11          1           0        9.810000    4.139000   24.128000
     12          6           0       10.607000    7.382000   24.211000
     13          8           0       11.303000    7.448000   25.464000
     14          6           0       11.733000    8.735000   25.932000
     15          8           0       12.472000    8.590000   27.154000
     16          6           0       11.515000    8.719000   28.215000
     17          6           0       10.808000    7.456000   28.680000
     18          8           0        9.852000    7.047000   27.691000
     19          1           0       10.345000    7.004000   26.823000
     20          6           0       10.146000    7.492000   30.048000
     21          8           0        9.353000    6.356000   30.423000
     22          1           0        8.618000    6.229000   29.757000
     23          6           0       12.566000   10.648000   28.956000
     24          8           0       13.263000   11.540000   29.837000
     25          1           0       13.557000   12.434000   29.500000
     26          6           0       12.298000    9.224000   29.416000
     27          8           0       11.711000    9.200000   30.725000
     28          6           0       11.110000    7.960000   31.125000
     29          8           0       10.526000    8.385000   32.365000
     30          1           0       11.222527    8.599198   32.989955
     31          1           0       11.289699    7.984570   21.090858
     32          1           0       11.289242    5.633819   23.270103
     33          1           0        9.616388    5.969474   23.015033
     34          1           0        9.680414    7.915364   24.254135
     35          1           0       12.247982    7.159687   22.903216
     36          1           0       11.292684    9.900559   23.366645
     37          1           0       13.557722    8.835697   24.886323
     38          1           0       10.882941    9.364190   26.094541
     39          1           0       11.620880   11.095061   28.728435
     40          1           0       13.127174   10.591359   28.046728
     41          1           0       13.229384    8.698860   29.456638
     42          1           0       10.783099    9.449518   27.940111
     43          1           0       11.553378    6.689579   28.723701
     44          1           0        9.433987    8.286895   29.970032
     45          1           0       11.863792    7.221248   31.300908
 ---------------------------------------------------------------------
                    Distance matrix (angstroms):
                    1          2          3          4          5
     1  O    0.000000
     2  C    1.434325   0.000000
     3  C    2.452418   1.520188   0.000000
     4  O    2.868111   2.416851   1.434257   0.000000
     5  H    2.453737   2.520080   2.055625   1.000583   0.000000
     6  C    3.808063   2.565894   1.520141   2.540711   3.411127
     7  O    4.719409   3.717370   2.322532   2.886879   3.817219
     8  H    4.839636   3.999018   2.491330   2.514722   3.433796
     9  C    2.777451   2.310619   3.695775   4.706070   4.729110
    10  O    4.203041   3.660340   4.922120   6.015664   6.119504
    11  H    4.522926   4.220629   5.607084   6.575613   6.554263
    12  C    2.433740   1.520035   2.492053   3.754343   3.988812
    13  O    3.703498   2.452066   2.822165   4.155487   4.678209
    14  C    4.291567   3.016999   2.596792   3.902008   4.642066
    15  O    5.636619   4.283111   3.816729   4.950251   5.789061
    16  C    6.470370   5.230462   4.870138   6.120600   6.913364
    17  C    6.854098   5.679184   5.706202   7.040868   7.727983
    18  O    5.974862   4.977556   5.300373   6.707263   7.244793
    19  H    5.078544   4.025789   4.429086   5.817562   6.331225
    20  C    8.234666   7.127003   7.134014   8.481607   9.172615
    21  O    8.826954   7.813417   8.058004   9.438977  10.046816
    22  H    8.358504   7.464610   7.832670   9.244777   9.773772
    23  C    7.836153   6.615281   5.754318   6.708841   7.632410
    24  O    9.134021   7.919006   6.940519   7.745844   8.701737
    25  H    9.326666   8.170479   7.049336   7.716557   8.674091
    26  C    7.845233   6.557658   6.014163   7.120640   7.999504
    27  O    9.027041   7.789222   7.330543   8.490920   9.346364
    28  C    9.290249   8.079206   7.882511   9.133547   9.922734
    29  O   10.531737   9.372133   9.134684  10.393603  11.185010
    30  H   11.177780   9.965505   9.644384  10.842140  11.676837
    31  H    0.960000   1.974046   2.739589   2.655146   1.975444
    32  H    2.776471   2.254301   3.664454   4.426500   4.406738
    33  H    2.534521   2.650905   4.099079   5.002652   4.833448
    34  H    2.615497   2.149397   2.873218   4.169253   4.342637
    35  H    2.034954   1.070000   2.109914   2.627343   2.716746
    36  H    2.552323   2.060550   1.070000   1.983718   2.401131
    37  H    4.271495   2.945490   2.107907   2.732020   3.632409
    38  H    4.486370   3.436710   2.958086   4.303222   4.981323
    39  H    7.628823   6.528300   5.669962   6.694324   7.561430
    40  H    7.169996   5.924285   4.951493   5.792518   6.745779
    41  H    8.058824   6.693223   6.176081   7.183203   8.086193
    42  H    6.280588   5.179582   4.729935   6.014881   6.768420
    43  H    7.044959   5.792188   5.908814   7.167820   7.861144
    44  H    8.230718   7.219512   7.146306   8.515175   9.187397
    45  H    9.555883   8.282168   8.144592   9.344357  10.143330
                    6          7          8          9         10
     6  C    0.000000
     7  O    1.435280   0.000000
     8  H    2.078752   1.000370   0.000000
     9  C    4.178351   5.508791   6.032432   0.000000
    10  O    5.091059   6.444197   7.087169   1.434371   0.000000
    11  H    5.931353   7.300619   7.881709   1.936613   0.999942
    12  C    2.854641   4.093093   4.683724   1.519523   2.566449
    13  O    2.367557   3.647852   4.419041   2.450118   2.921615
    14  C    1.519904   2.458235   3.366566   3.782520   4.345964
    15  O    2.435476   3.057368   3.971988   4.781942   5.035794
    16  C    3.602539   4.012213   4.994433   5.369579   5.377466
    17  C    4.636678   5.322808   6.303141   5.167421   4.778496
    18  O    4.573497   5.444825   6.400739   4.121416   3.671758
    19  H    3.799656   4.833146   5.740161   3.244624   2.986357
    20  C    6.047799   6.568494   7.561968   6.483961   5.933149
    21  O    7.113713   7.784433   8.776687   6.760264   5.939544
    22  H    7.049601   7.783797   8.771034   6.264092   5.413008
    23  C    4.329263   3.965273   4.776094   7.339641   7.565221
    24  O    5.511005   4.923796   5.575017   8.746993   8.973212
    25  H    5.687809   4.866980   5.377906   9.224775   9.579872
    26  C    4.592388   4.695613   5.600881   6.812990   6.768520
    27  O    5.958860   6.029789   6.943422   7.803690   7.573866
    28  C    6.607357   6.937713   7.893682   7.673387   7.185921
    29  O    7.867990   8.063978   9.012690   8.949020   8.423866
    30  H    8.302995   8.423103   9.334897   9.643791   9.144580
    31  H    4.188074   5.017803   4.957660   3.471665   4.891745
    32  H    4.217278   5.597257   6.001595   1.070000   2.025326
    33  H    4.846596   6.074619   6.530964   1.070000   2.025326
    34  H    3.297739   4.285587   4.908399   2.148911   3.042618
    35  H    2.921569   4.181217   4.389210   2.376366   3.617308
    36  H    2.053192   2.387972   2.582972   4.072135   5.299120
    37  H    1.070000   2.035545   2.435339   4.433251   5.261879
    38  H    2.134749   2.614173   3.560102   4.169047   4.727234
    39  H    4.390107   3.934624   4.776549   7.261854   7.535284
    40  H    3.492576   3.064957   3.824931   6.889704   7.267935
    41  H    4.704939   4.914830   5.748356   6.938169   6.858150
    42  H    3.602907   3.801542   4.795667   5.470292   5.613392
    43  H    4.812448   5.640347   6.572170   5.156765   4.647066
    44  H    6.123860   6.493616   7.490834   6.708534   6.280121
    45  H    6.839006   7.276112   8.201279   7.793225   7.223225
                   11         12         13         14         15
    11  H    0.000000
    12  C    3.340531   0.000000
    13  O    3.868259   1.434845   0.000000
    14  C    5.298638   2.461773   1.435372   0.000000
    15  O    6.004525   3.687647   2.350920   1.435420   0.000000
    16  C    6.370792   4.317876   3.037826   2.293440   1.434647
    17  C    5.720070   4.474130   3.253882   3.169065   2.526564
    18  O    4.599260   3.576681   2.688072   3.079218   3.087656
    19  H    3.969569   2.652182   1.720983   2.390980   2.673777
    20  C    6.811894   5.856210   4.727964   4.583129   3.871836
    21  O    6.689616   6.419824   5.439361   5.611873   5.040365
    22  H    6.121651   6.003636   5.208170   5.532982   5.215673
    23  C    8.559918   6.084362   4.901962   3.673967   2.737043
    24  O    9.964471   7.482992   6.301523   5.045587   4.065301
    25  H   10.569078   7.886617   6.799265   5.453458   4.632200
    26  C    7.746632   5.774467   4.445504   3.563229   2.355605
    27  O    8.529240   6.852455   5.560044   4.815554   3.701792
    28  C    8.077627   6.956327   5.687382   5.287344   4.245090
    29  O    9.294587   8.215856   7.007532   6.554604   5.566279
    30  H   10.021120   8.884284   7.613917   7.077694   5.968219
    31  H    5.118804   3.250301   4.405957   4.918975   6.206937
    32  H    2.271261   2.099257   2.846863   4.110954   5.022209
    33  H    2.151004   2.099257   3.320864   4.542783   5.670337
    34  H    3.780691   1.070000   2.077255   2.774913   4.081336
    35  H    4.070430   2.110106   2.744764   3.452586   4.490562
    36  H    5.997798   2.743399   3.227081   2.851921   4.177608
    37  H    6.056355   3.357984   2.709831   2.105515   2.526167
    38  H    5.685165   2.748263   2.060538   1.070000   2.060809
    39  H    8.534054   5.934812   4.904960   3.660943   3.078730
    40  H    8.245787   5.600363   4.458564   3.140360   2.287280
    41  H    7.802493   6.010635   4.606166   3.829301   2.426442
    42  H    6.609139   4.267542   3.226065   2.333529   2.051616
    43  H    5.537625   4.662569   3.356120   3.465488   2.630481
    44  H    7.174661   5.946532   4.949877   4.668186   4.153484
    45  H    8.072727   7.202233   5.868169   5.579761   4.409110
                   16         17         18         19         20
    16  C    0.000000
    17  C    1.520277   0.000000
    18  O    2.415725   1.435039   0.000000
    19  H    2.499558   1.966500   0.999161   0.000000
    20  C    2.596070   1.520186   2.416591   3.267778   0.000000
    21  O    3.890151   2.522910   2.861871   3.789983   1.435260
    22  H    4.119523   2.731585   2.541699   3.491634   2.003655
    23  C    2.318345   3.654532   4.683292   4.770877   4.124221
    24  O    3.693837   4.903543   6.035502   6.178529   5.113366
    25  H    4.429697   5.745423   6.783751   6.853333   6.029808
    26  C    1.520038   2.426442   3.701063   3.932716   2.833788
    27  O    2.563177   2.835308   4.158900   4.681237   2.413466
    28  C    3.034503   2.514606   3.769415   4.472848   1.519292
    29  O    4.279273   3.810747   4.908238   5.714340   2.512039
    30  H    4.785403   4.478219   5.689164   6.430089   3.322634
    31  H    7.165441   7.622762   6.819669   5.891640   9.043288
    32  H    5.832780   5.728780   4.858711   3.923272   7.120374
    33  H    6.180961   5.976751   4.804294   4.012697   7.215345
    34  H    4.438467   4.590288   3.549019   2.805588   5.827939
    35  H    5.584243   5.960921   5.355026   4.360079   7.454978
    36  H    4.995203   5.868776   5.377584   4.608096   7.194202
    37  H    3.907227   4.884314   4.979762   4.174616   6.331531
    38  H    2.304803   3.214250   2.996814   2.527950   4.435991
    39  H    2.433206   3.729059   4.537841   4.689918   4.110787
    40  H    2.476519   3.950959   4.838986   4.701823   4.743259
    41  H    2.116881   2.830365   4.153654   4.257731   3.363551
    42  H    1.070000   2.126540   2.588648   2.724046   2.946349
    43  H    2.092558   1.070000   2.022105   2.274138   2.092453
    44  H    2.756350   2.059728   2.627939   3.518462   1.070000
    45  H    3.447861   2.835307   4.136315   4.733454   2.143337
                   21         22         23         24         25
    21  O    0.000000
    22  H    0.999955   0.000000
    23  C    5.558482   5.979621   0.000000
    24  O    6.519613   7.056142   1.434446   0.000000
    25  H    7.447659   7.934847   2.113720   0.999620   0.000000
    26  C    4.232316   4.756964   1.520263   2.544076   3.449092
    27  O    3.706711   4.396648   2.440715   2.944970   3.920089
    28  C    2.480457   3.328340   3.748312   4.371585   5.352113
    29  O    3.043704   3.884645   4.572095   4.882210   5.812881
    30  H    3.887972   4.780523   4.719671   4.770007   5.686409
    31  H    9.669122   9.236992   8.401384   9.645206   9.780171
    32  H    7.445436   7.040569   7.687753   9.050018   9.497200
    33  H    7.422719   6.820429   8.116890   9.532459   9.968617
    34  H    6.371319   5.852698   6.156415   7.559186   7.935055
    35  H    8.097777   7.811357   6.993258   8.264065   8.546898
    36  H    8.131323   7.840339   5.781080   6.959555   7.011668
    37  H    7.381286   7.410750   4.564014   5.648833   5.850966
    38  H    5.488669   5.326630   3.559326   4.940125   5.307681
    39  H    5.520283   5.809801   1.070000   2.030626   2.477222
    40  H    6.150554   6.502911   1.070000   2.030626   2.385808
    41  H    4.631328   5.239780   2.118930   2.866685   3.749731
    42  H    4.216607   4.284913   2.376368   3.757421   4.362902
    43  H    2.800099   3.145836   4.092489   5.262017   6.133149
    44  H    1.984967   2.223994   4.051245   5.026105   5.866741
    45  H    2.797043   3.728723   4.211214   4.769951   5.769143
                   26         27         28         29         30
    26  C    0.000000
    27  O    1.434791   0.000000
    28  C    2.435102   1.434852   0.000000
    29  O    3.541258   2.181295   1.435020   0.000000
    30  H    3.784200   2.393656   1.974663   0.960000   0.000000
    31  H    8.477078   9.719643  10.035781  11.307071  11.915149
    32  H    7.188814   8.274722   8.194062   9.532507  10.162354
    33  H    7.665205   8.617847   8.483197   9.699693  10.440029
    34  H    5.933729   6.902584   7.018155   8.168335   8.897207
    35  H    6.832294   8.101329   8.338659   9.694946  10.240413
    36  H    6.169529   7.403456   7.999451   9.157244   9.711156
    37  H    4.717590   6.134594   6.758645   8.082393   8.436700
    38  H    3.613051   4.706782   5.227698   6.356483   6.946025
    39  H    2.105256   2.754206   3.979086   4.665597   4.954651
    40  H    2.105256   3.333852   4.524245   5.502872   5.659671
    41  H    1.070000   2.040925   2.796629   3.983135   4.064694
    42  H    2.126977   2.945992   3.531154   4.558393   5.139754
    43  H    2.730756   3.214383   2.752597   4.145964   4.685833
    44  H    3.063933   2.566812   2.061512   2.634006   3.523684
    45  H    2.784319   2.066513   1.070000   2.067921   2.272189
                   31         32         33         34         35
    31  H    0.000000
    32  H    3.205486   0.000000
    33  H    3.250082   1.725157   0.000000
    34  H    3.549776   2.960084   2.307804   0.000000
    35  H    2.209837   1.839038   2.890398   2.998073   0.000000
    36  H    2.974934   4.267834   4.288010   2.707038   2.939344
    37  H    4.502655   4.243842   5.220256   4.034873   2.908117
    38  H    5.206308   4.696616   4.755168   2.632919   4.111901
    39  H    8.253327   7.728424   7.933006   5.821962   7.057875
    40  H    7.652175   7.125401   7.681496   5.781424   6.245403
    41  H    8.617358   7.171600   7.873853   6.346266   6.802907
    42  H    7.022463   6.051836   6.142338   4.141976   5.723593
    43  H    7.746407   5.561127   6.071192   4.998757   5.880606
    44  H    9.076056   7.441091   7.333193   5.733257   7.689542
    45  H   10.254627   8.206331   8.676030   7.409855   8.406701
                   36         37         38         39         40
    36  H    0.000000
    37  H    2.928097   0.000000
    38  H    2.810159   2.982206   0.000000
    39  H    5.503030   4.859825   3.236953   0.000000
    40  H    5.074025   3.640862   3.217694   1.728398   0.000000
    41  H    6.502530   4.584136   4.153572   2.976465   2.362169
    42  H    4.623819   4.171442   1.850237   2.007770   2.609569
    43  H    6.251112   4.832048   3.809923   4.406002   4.261339
    44  H    7.047225   6.568902   4.275449   3.769597   4.759126
    45  H    8.393891   6.828085   5.714939   4.656506   4.852161
                   41         42         43         44         45
    41  H    0.000000
    42  H    2.974500   0.000000
    43  H    2.717242   2.970625   0.000000
    44  H    3.852055   2.700440   2.931992   0.000000
    45  H    2.729380   4.174691   2.649722   2.968297   0.000000
 Stoichiometry    C12H22O11
 Framework group  C1[X(C12H22O11)]
 Deg. of freedom   129
 Full point group                 C1      NOp   1
 Largest Abelian subgroup         C1      NOp   1
 Largest concise Abelian subgroup C1      NOp   1
                         Standard orientation:                         
 ---------------------------------------------------------------------
 Center     Atomic      Atomic             Coordinates (Angstroms)
 Number     Number       Type             X           Y           Z
 ---------------------------------------------------------------------
      1          8           0        5.017484   -0.510613   -0.759458
      2          6           0        3.849902   -0.189108    0.009096
      3          6           0        3.420464    1.257186   -0.177420
      4          8           0        4.485496    2.133452    0.216231
      5          1           0        5.397368    1.799606   -0.025019
      6          6           0        2.007730    1.575607    0.284769
      7          8           0        1.739868    2.854877   -0.308315
      8          1           0        2.448382    3.551011   -0.189377
      9          6           0        3.260677   -2.410310    0.250005
     10          8           0        2.387672   -3.491028    0.606842
     11          1           0        3.009756   -4.246735    0.811302
     12          6           0        2.701080   -1.123672   -0.333402
     13          8           0        1.476851   -0.731582    0.304022
     14          6           0        0.925789    0.553110   -0.021844
     15          8           0       -0.248915    0.796415    0.766383
     16          6           0       -1.355716    0.319643   -0.012007
     17          6           0       -1.747300   -1.140857    0.145617
     18          8           0       -0.769401   -1.973696   -0.494250
     19          1           0        0.119012   -1.694956   -0.131829
     20          6           0       -3.140149   -1.541771   -0.312860
     21          8           0       -3.455825   -2.941859   -0.304277
     22          1           0       -2.812956   -3.431379   -0.893343
     23          6           0       -2.204143    2.471978   -0.161506
     24          8           0       -3.123853    3.562808   -0.013665
     25          1           0       -2.847439    4.480906   -0.296389
     26          6           0       -2.559621    1.125463    0.448192
     27          8           0       -3.885796    0.719671    0.080471
     28          6           0       -4.210073   -0.659469    0.307669
     29          8           0       -5.503285   -0.689759   -0.313592
     30          1           0       -6.113845   -0.148083    0.191784
     31          1           0        5.788776   -0.108683   -0.353058
     32          1           0        3.806235   -2.143880    1.131073
     33          1           0        3.963862   -2.795995   -0.458287
     34          1           0        2.576956   -1.205787   -1.393001
     35          1           0        4.089568   -0.328960    1.042489
     36          1           0        3.369251    1.378145   -1.239326
     37          1           0        2.035065    1.706679    1.346358
     38          1           0        0.678270    0.588048   -1.062235
     39          1           0       -2.052542    2.319748   -1.209716
     40          1           0       -1.270700    2.779536    0.261568
     41          1           0       -2.519386    1.213482    1.513806
     42          1           0       -1.170767    0.523413   -1.046015
     43          1           0       -1.698571   -1.356811    1.192464
     44          1           0       -3.155638   -1.282078   -1.350752
     45          1           0       -4.294874   -0.853499    1.356507
 ---------------------------------------------------------------------
 Rotational constants (GHZ):      0.3917563      0.1480593      0.1105023
 Standard basis: 6-31+G(d,p) (6D, 7F)
 There are   547 symmetry adapted basis functions of A   symmetry.
 Integral buffers will be    131072 words long.
 Raffenetti 2 integral format.
 Two-electron integral symmetry is turned on.
   547 basis functions,   890 primitive gaussians,   547 cartesian basis functions
    91 alpha electrons       91 beta electrons
       nuclear repulsion energy      2277.8192440282 Hartrees.
 NAtoms=   45 NActive=   45 NUniq=   45 SFac= 1.00D+00 NAtFMM=   50 NAOKFM=F Big=F
 One-electron integrals computed using PRISM.
 NBasis=   547 RedAO= T  NBF=   547
 NBsUse=   547 1.00D-06 NBFU=   547
 Harris functional with IExCor=  402 diagonalized for initial guess.
 ExpMin= 4.38D-02 ExpMax= 5.48D+03 ExpMxC= 8.25D+02 IAcc=2 IRadAn=         0 AccDes= 0.00D+00
 HarFok:  IExCor=  402 AccDes= 0.00D+00 IRadAn=         0 IDoV= 1
 ScaDFX=  1.000000  1.000000  1.000000  1.000000
 FoFCou: FMM=F IPFlag=           0 FMFlag=      100000 FMFlg1=           0
         NFxFlg=           0 DoJE=T BraDBF=F KetDBF=T FulRan=T
         Omega=  0.000000  0.000000  1.000000  0.000000  0.000000 ICntrl=     500 IOpCl=  0
         NMat0=    1 NMatS0=    1 NMatT0=    0 NMatD0=    1 NMtDS0=    0 NMtDT0=    0
         I1Cent=           4 NGrid=           0.
 Petite list used in FoFCou.
 Initial guess orbital symmetries:
       Occupied  (A) (A) (A) (A) (A) (A) (A) (A) (A) (A) (A) (A)
                 (A) (A) (A) (A) (A) (A) (A) (A) (A) (A) (A) (A)
                 (A) (A) (A) (A) (A) (A) (A) (A) (A) (A) (A) (A)
                 (A) (A) (A) (A) (A) (A) (A) (A) (A) (A) (A) (A)
                 (A) (A) (A) (A) (A) (A) (A) (A) (A) (A) (A) (A)
                 (A) (A) (A) (A) (A) (A) (A) (A) (A) (A) (A) (A)
                 (A) (A) (A) (A) (A) (A) (A) (A) (A) (A) (A) (A)
                 (A) (A) (A) (A) (A) (A) (A)
       Virtual   (A) (A) (A) (A) (A) (A) (A) (A) (A) (A) (A) (A)
                 (A) (A) (A) (A) (A) (A) (A) (A) (A) (A) (A) (A)
                 (A) (A) (A) (A) (A) (A) (A) (A) (A) (A) (A) (A)
                 (A) (A) (A) (A) (A) (A) (A) (A) (A) (A) (A) (A)
                 (A) (A) (A) (A) (A) (A) (A) (A) (A) (A) (A) (A)
                 (A) (A) (A) (A) (A) (A) (A) (A) (A) (A) (A) (A)
                 (A) (A) (A) (A) (A) (A) (A) (A) (A) (A) (A) (A)
                 (A) (A) (A) (A) (A) (A) (A) (A) (A) (A) (A) (A)
                 (A) (A) (A) (A) (A) (A) (A) (A) (A) (A) (A) (A)
                 (A) (A) (A) (A) (A) (A) (A) (A) (A) (A) (A) (A)
                 (A) (A) (A) (A) (A) (A) (A) (A) (A) (A) (A) (A)
                 (A) (A) (A) (A) (A) (A) (A) (A) (A) (A) (A) (A)
                 (A) (A) (A) (A) (A) (A) (A) (A) (A) (A) (A) (A)
                 (A) (A) (A) (A) (A) (A) (A) (A) (A) (A) (A) (A)
                 (A) (A) (A) (A) (A) (A) (A) (A) (A) (A) (A) (A)
                 (A) (A) (A) (A) (A) (A) (A) (A) (A) (A) (A) (A)
                 (A) (A) (A) (A) (A) (A) (A) (A) (A) (A) (A) (A)
                 (A) (A) (A) (A) (A) (A) (A) (A) (A) (A) (A) (A)
                 (A) (A) (A) (A) (A) (A) (A) (A) (A) (A) (A) (A)
                 (A) (A) (A) (A) (A) (A) (A) (A) (A) (A) (A) (A)
                 (A) (A) (A) (A) (A) (A) (A) (A) (A) (A) (A) (A)
                 (A) (A) (A) (A) (A) (A) (A) (A) (A) (A) (A) (A)
                 (A) (A) (A) (A) (A) (A) (A) (A) (A) (A) (A) (A)
                 (A) (A) (A) (A) (A) (A) (A) (A) (A) (A) (A) (A)
                 (A) (A) (A) (A) (A) (A) (A) (A) (A) (A) (A) (A)
                 (A) (A) (A) (A) (A) (A) (A) (A) (A) (A) (A) (A)
                 (A) (A) (A) (A) (A) (A) (A) (A) (A) (A) (A) (A)
                 (A) (A) (A) (A) (A) (A) (A) (A) (A) (A) (A) (A)
                 (A) (A) (A) (A) (A) (A) (A) (A) (A) (A) (A) (A)
                 (A) (A) (A) (A) (A) (A) (A) (A) (A) (A) (A) (A)
                 (A) (A) (A) (A) (A) (A) (A) (A) (A) (A) (A) (A)
                 (A) (A) (A) (A) (A) (A) (A) (A) (A) (A) (A) (A)
                 (A) (A) (A) (A) (A) (A) (A) (A) (A) (A) (A) (A)
                 (A) (A) (A) (A) (A) (A) (A) (A) (A) (A) (A) (A)
                 (A) (A) (A) (A) (A) (A) (A) (A) (A) (A) (A) (A)
                 (A) (A) (A) (A) (A) (A) (A) (A) (A) (A) (A) (A)
                 (A) (A) (A) (A) (A) (A) (A) (A) (A) (A) (A) (A)
                 (A) (A) (A) (A) (A) (A) (A) (A) (A) (A) (A) (A)
 The electronic state of the initial guess is 1-A.
 Requested convergence on RMS density matrix=1.00D-08 within 128 cycles.
 Requested convergence on MAX density matrix=1.00D-06.
 Requested convergence on             energy=1.00D-06.
 No special actions if energy rises.
 SCF Done:  E(RB3LYP) =  -1297.89384217     A.U. after   14 cycles
             Convg  =    0.3388D-08             -V/T =  2.0087
 Range of M.O.s used for correlation:     1   547
 NBasis=   547 NAE=    91 NBE=    91 NFC=     0 NFV=     0
 NROrb=    547 NOA=    91 NOB=    91 NVA=   456 NVB=   456

 **** Warning!!: The largest alpha MO coefficient is  0.79739102D+02

          Differentiating once with respect to electric field.
                with respect to dipole field.
          Electric field/nuclear overlap derivatives assumed to be zero.
          There are     3 degrees of freedom in the 1st order CPHF.  IDoFFX=0.
      3 vectors produced by pass  0 Test12= 1.38D-12 3.33D-08 XBig12= 1.19D+02 1.35D+00.
 AX will form     3 AO Fock derivatives at one time.
      3 vectors produced by pass  1 Test12= 1.38D-12 3.33D-08 XBig12= 2.02D+01 3.76D-01.
      3 vectors produced by pass  2 Test12= 1.38D-12 3.33D-08 XBig12= 8.38D+00 3.16D-01.
      3 vectors produced by pass  3 Test12= 1.38D-12 3.33D-08 XBig12= 7.89D-01 7.09D-02.
      3 vectors produced by pass  4 Test12= 1.38D-12 3.33D-08 XBig12= 2.33D-01 3.60D-02.
      3 vectors produced by pass  5 Test12= 1.38D-12 3.33D-08 XBig12= 5.30D-02 1.88D-02.
      3 vectors produced by pass  6 Test12= 1.38D-12 3.33D-08 XBig12= 1.69D-02 8.99D-03.
      3 vectors produced by pass  7 Test12= 1.38D-12 3.33D-08 XBig12= 2.34D-03 5.43D-03.
      3 vectors produced by pass  8 Test12= 1.38D-12 3.33D-08 XBig12= 6.02D-04 1.70D-03.
      3 vectors produced by pass  9 Test12= 1.38D-12 3.33D-08 XBig12= 1.23D-04 1.17D-03.
      3 vectors produced by pass 10 Test12= 1.38D-12 3.33D-08 XBig12= 3.67D-05 4.00D-04.
      3 vectors produced by pass 11 Test12= 1.38D-12 3.33D-08 XBig12= 6.04D-06 1.95D-04.
      3 vectors produced by pass 12 Test12= 1.38D-12 3.33D-08 XBig12= 9.32D-07 6.13D-05.
      3 vectors produced by pass 13 Test12= 1.38D-12 3.33D-08 XBig12= 2.10D-07 3.84D-05.
      3 vectors produced by pass 14 Test12= 1.38D-12 3.33D-08 XBig12= 2.59D-08 1.22D-05.
      3 vectors produced by pass 15 Test12= 1.38D-12 3.33D-08 XBig12= 6.43D-09 7.89D-06.
      3 vectors produced by pass 16 Test12= 1.38D-12 3.33D-08 XBig12= 5.28D-10 1.97D-06.
      3 vectors produced by pass 17 Test12= 1.38D-12 3.33D-08 XBig12= 6.10D-11 7.37D-07.
      3 vectors produced by pass 18 Test12= 1.38D-12 3.33D-08 XBig12= 2.01D-11 5.03D-07.
      3 vectors produced by pass 19 Test12= 1.38D-12 3.33D-08 XBig12= 2.16D-11 3.53D-07.
      3 vectors produced by pass 20 Test12= 1.38D-12 3.33D-08 XBig12= 5.77D-12 1.48D-07.
      2 vectors produced by pass 21 Test12= 1.38D-12 3.33D-08 XBig12= 9.27D-13 5.35D-08.
      1 vectors produced by pass 22 Test12= 1.38D-12 3.33D-08 XBig12= 2.04D-13 3.52D-08.
 Inverted reduced A of dimension    66 with in-core refinement.
 End of Minotr Frequency-dependent properties file   721 does not exist.
 End of Minotr Frequency-dependent properties file   722 does not exist.
 Symmetrizing basis deriv contribution to polar:
 IMax=3 JMax=2 DiffMx= 0.00D+00
 G2DrvN: will do    23 centers at a time, making    2 passes doing MaxLOS=2.
 Calling FoFCou, ICntrl=  3107 FMM=F I1Cent=   0 AccDes= 0.00D+00.
 Calling FoFCou, ICntrl=  3107 FMM=F I1Cent=   0 AccDes= 0.00D+00.
 FoFDir/FoFCou used for L=0 through L=2.
 End of G2Drv Frequency-dependent properties file   721 does not exist.
 End of G2Drv Frequency-dependent properties file   722 does not exist.
          IDoAtm=111111111111111111111111111111111111111111111
          Differentiating once with respect to electric field.
                with respect to dipole field.
          Differentiating once with respect to nuclear coordinates.
          There are   138 degrees of freedom in the 1st order CPHF.  IDoFFX=5.
 Will reuse    3 saved solutions.
    135 vectors produced by pass  0 Test12= 4.15D-14 1.00D-09 XBig12= 2.91D-01 9.19D-02.
 AX will form    68 AO Fock derivatives at one time.
    135 vectors produced by pass  1 Test12= 4.15D-14 1.00D-09 XBig12= 2.67D-02 1.57D-02.
    132 vectors produced by pass  2 Test12= 4.15D-14 1.00D-09 XBig12= 1.93D-04 1.61D-03.
    132 vectors produced by pass  3 Test12= 4.15D-14 1.00D-09 XBig12= 4.86D-07 6.84D-05.
    132 vectors produced by pass  4 Test12= 4.15D-14 1.00D-09 XBig12= 8.83D-10 2.69D-06.
    129 vectors produced by pass  5 Test12= 4.15D-14 1.00D-09 XBig12= 3.22D-12 1.49D-07.
     77 vectors produced by pass  6 Test12= 4.15D-14 1.00D-09 XBig12= 1.15D-13 2.41D-08.
 Inverted reduced A of dimension   872 with in-core refinement.
 Isotropic polarizability for W=    0.000000      187.41 Bohr**3.
 End of Minotr Frequency-dependent properties file   721 does not exist.
 End of Minotr Frequency-dependent properties file   722 does not exist.

 **********************************************************************

            Population analysis using the SCF density.

 **********************************************************************

 Orbital symmetries:
       Occupied  (A) (A) (A) (A) (A) (A) (A) (A) (A) (A) (A) (A)
                 (A) (A) (A) (A) (A) (A) (A) (A) (A) (A) (A) (A)
                 (A) (A) (A) (A) (A) (A) (A) (A) (A) (A) (A) (A)
                 (A) (A) (A) (A) (A) (A) (A) (A) (A) (A) (A) (A)
                 (A) (A) (A) (A) (A) (A) (A) (A) (A) (A) (A) (A)
                 (A) (A) (A) (A) (A) (A) (A) (A) (A) (A) (A) (A)
                 (A) (A) (A) (A) (A) (A) (A) (A) (A) (A) (A) (A)
                 (A) (A) (A) (A) (A) (A) (A)
       Virtual   (A) (A) (A) (A) (A) (A) (A) (A) (A) (A) (A) (A)
                 (A) (A) (A) (A) (A) (A) (A) (A) (A) (A) (A) (A)
                 (A) (A) (A) (A) (A) (A) (A) (A) (A) (A) (A) (A)
                 (A) (A) (A) (A) (A) (A) (A) (A) (A) (A) (A) (A)
                 (A) (A) (A) (A) (A) (A) (A) (A) (A) (A) (A) (A)
                 (A) (A) (A) (A) (A) (A) (A) (A) (A) (A) (A) (A)
                 (A) (A) (A) (A) (A) (A) (A) (A) (A) (A) (A) (A)
                 (A) (A) (A) (A) (A) (A) (A) (A) (A) (A) (A) (A)
                 (A) (A) (A) (A) (A) (A) (A) (A) (A) (A) (A) (A)
                 (A) (A) (A) (A) (A) (A) (A) (A) (A) (A) (A) (A)
                 (A) (A) (A) (A) (A) (A) (A) (A) (A) (A) (A) (A)
                 (A) (A) (A) (A) (A) (A) (A) (A) (A) (A) (A) (A)
                 (A) (A) (A) (A) (A) (A) (A) (A) (A) (A) (A) (A)
                 (A) (A) (A) (A) (A) (A) (A) (A) (A) (A) (A) (A)
                 (A) (A) (A) (A) (A) (A) (A) (A) (A) (A) (A) (A)
                 (A) (A) (A) (A) (A) (A) (A) (A) (A) (A) (A) (A)
                 (A) (A) (A) (A) (A) (A) (A) (A) (A) (A) (A) (A)
                 (A) (A) (A) (A) (A) (A) (A) (A) (A) (A) (A) (A)
                 (A) (A) (A) (A) (A) (A) (A) (A) (A) (A) (A) (A)
                 (A) (A) (A) (A) (A) (A) (A) (A) (A) (A) (A) (A)
                 (A) (A) (A) (A) (A) (A) (A) (A) (A) (A) (A) (A)
                 (A) (A) (A) (A) (A) (A) (A) (A) (A) (A) (A) (A)
                 (A) (A) (A) (A) (A) (A) (A) (A) (A) (A) (A) (A)
                 (A) (A) (A) (A) (A) (A) (A) (A) (A) (A) (A) (A)
                 (A) (A) (A) (A) (A) (A) (A) (A) (A) (A) (A) (A)
                 (A) (A) (A) (A) (A) (A) (A) (A) (A) (A) (A) (A)
                 (A) (A) (A) (A) (A) (A) (A) (A) (A) (A) (A) (A)
                 (A) (A) (A) (A) (A) (A) (A) (A) (A) (A) (A) (A)
                 (A) (A) (A) (A) (A) (A) (A) (A) (A) (A) (A) (A)
                 (A) (A) (A) (A) (A) (A) (A) (A) (A) (A) (A) (A)
                 (A) (A) (A) (A) (A) (A) (A) (A) (A) (A) (A) (A)
                 (A) (A) (A) (A) (A) (A) (A) (A) (A) (A) (A) (A)
                 (A) (A) (A) (A) (A) (A) (A) (A) (A) (A) (A) (A)
                 (A) (A) (A) (A) (A) (A) (A) (A) (A) (A) (A) (A)
                 (A) (A) (A) (A) (A) (A) (A) (A) (A) (A) (A) (A)
                 (A) (A) (A) (A) (A) (A) (A) (A) (A) (A) (A) (A)
                 (A) (A) (A) (A) (A) (A) (A) (A) (A) (A) (A) (A)
                 (A) (A) (A) (A) (A) (A) (A) (A) (A) (A) (A) (A)
 The electronic state is 1-A.
 Alpha  occ. eigenvalues --  -19.21564 -19.21271 -19.20885 -19.20119 -19.17961
 Alpha  occ. eigenvalues --  -19.17576 -19.16667 -19.15749 -19.15560 -19.14546
 Alpha  occ. eigenvalues --  -19.14496 -10.33402 -10.29473 -10.28472 -10.27751
 Alpha  occ. eigenvalues --  -10.27700 -10.27082 -10.25826 -10.25499 -10.24564
 Alpha  occ. eigenvalues --  -10.24507 -10.24275 -10.22738  -1.11892  -1.08593
 Alpha  occ. eigenvalues --   -1.07216  -1.06370  -1.05751  -1.03573  -1.03427
 Alpha  occ. eigenvalues --   -1.02310  -1.00566  -1.00178  -0.99291  -0.84170
 Alpha  occ. eigenvalues --   -0.82488  -0.79849  -0.78107  -0.72791  -0.69634
 Alpha  occ. eigenvalues --   -0.68568  -0.65497  -0.65277  -0.63177  -0.61722
 Alpha  occ. eigenvalues --   -0.59808  -0.58322  -0.56682  -0.56392  -0.55142
 Alpha  occ. eigenvalues --   -0.54523  -0.53226  -0.53018  -0.52645  -0.51498
 Alpha  occ. eigenvalues --   -0.51162  -0.50340  -0.49591  -0.49030  -0.46966
 Alpha  occ. eigenvalues --   -0.46401  -0.45753  -0.45625  -0.44443  -0.43348
 Alpha  occ. eigenvalues --   -0.42833  -0.42661  -0.41335  -0.40258  -0.39960
 Alpha  occ. eigenvalues --   -0.39551  -0.38812  -0.37315  -0.36418  -0.36301
 Alpha  occ. eigenvalues --   -0.35806  -0.35221  -0.34696  -0.33778  -0.33550
 Alpha  occ. eigenvalues --   -0.32552  -0.31601  -0.30944  -0.30826  -0.29801
 Alpha  occ. eigenvalues --   -0.29201  -0.28728  -0.27623  -0.27564  -0.26645
 Alpha  occ. eigenvalues --   -0.26073
 Alpha virt. eigenvalues --   -0.05050  -0.02382  -0.00771  -0.00126   0.00521
 Alpha virt. eigenvalues --    0.01347   0.01359   0.01979   0.02448   0.02931
 Alpha virt. eigenvalues --    0.03687   0.04252   0.04775   0.05528   0.05550
 Alpha virt. eigenvalues --    0.06252   0.06393   0.06492   0.07207   0.08080
 Alpha virt. eigenvalues --    0.08512   0.08896   0.09426   0.09512   0.09902
 Alpha virt. eigenvalues --    0.10242   0.10640   0.10875   0.11289   0.11854
 Alpha virt. eigenvalues --    0.12044   0.12204   0.12896   0.13344   0.13597
 Alpha virt. eigenvalues --    0.13863   0.14311   0.14575   0.14836   0.15200
 Alpha virt. eigenvalues --    0.15429   0.15783   0.16110   0.16248   0.16791
 Alpha virt. eigenvalues --    0.17096   0.17732   0.18140   0.18169   0.18251
 Alpha virt. eigenvalues --    0.18630   0.19022   0.19397   0.19774   0.19941
 Alpha virt. eigenvalues --    0.20034   0.20360   0.21097   0.21389   0.21564
 Alpha virt. eigenvalues --    0.21758   0.22118   0.22638   0.22709   0.22974
 Alpha virt. eigenvalues --    0.23064   0.23455   0.23924   0.24338   0.24375
 Alpha virt. eigenvalues --    0.24680   0.25141   0.25284   0.25572   0.25759
 Alpha virt. eigenvalues --    0.26269   0.26369   0.26767   0.27070   0.27193
 Alpha virt. eigenvalues --    0.27686   0.28123   0.28308   0.28764   0.28918
 Alpha virt. eigenvalues --    0.29272   0.29746   0.29989   0.30300   0.30607
 Alpha virt. eigenvalues --    0.30937   0.31158   0.31885   0.32057   0.32179
 Alpha virt. eigenvalues --    0.32576   0.32751   0.33289   0.33504   0.33758
 Alpha virt. eigenvalues --    0.34523   0.34934   0.35508   0.35542   0.35699
 Alpha virt. eigenvalues --    0.35915   0.36649   0.36683   0.37164   0.37364
 Alpha virt. eigenvalues --    0.38202   0.38406   0.38663   0.39227   0.39346
 Alpha virt. eigenvalues --    0.39700   0.39878   0.40249   0.40957   0.41304
 Alpha virt. eigenvalues --    0.41625   0.41791   0.42645   0.42949   0.43335
 Alpha virt. eigenvalues --    0.43783   0.44697   0.44975   0.45132   0.46152
 Alpha virt. eigenvalues --    0.47225   0.48059   0.48420   0.48898   0.49932
 Alpha virt. eigenvalues --    0.51910   0.52454   0.53698   0.61958   0.63499
 Alpha virt. eigenvalues --    0.66022   0.66803   0.67853   0.68978   0.69943
 Alpha virt. eigenvalues --    0.70237   0.71727   0.72407   0.73445   0.73650
 Alpha virt. eigenvalues --    0.74200   0.75274   0.76315   0.76861   0.77522
 Alpha virt. eigenvalues --    0.78117   0.79175   0.80426   0.81866   0.83371
 Alpha virt. eigenvalues --    0.84838   0.85574   0.87034   0.87075   0.88662
 Alpha virt. eigenvalues --    0.90845   0.92463   0.92837   0.93558   0.95042
 Alpha virt. eigenvalues --    0.95857   0.96851   0.98619   0.99316   1.01263
 Alpha virt. eigenvalues --    1.01712   1.02491   1.02803   1.03520   1.04159
 Alpha virt. eigenvalues --    1.04469   1.05091   1.05451   1.06145   1.06397
 Alpha virt. eigenvalues --    1.07410   1.07837   1.08664   1.08935   1.09168
 Alpha virt. eigenvalues --    1.09817   1.11283   1.12666   1.13123   1.13773
 Alpha virt. eigenvalues --    1.15524   1.16189   1.18133   1.19140   1.21529
 Alpha virt. eigenvalues --    1.22328   1.23386   1.24273   1.25325   1.25496
 Alpha virt. eigenvalues --    1.26030   1.26294   1.27451   1.27885   1.28003
 Alpha virt. eigenvalues --    1.29104   1.29514   1.30015   1.30261   1.30695
 Alpha virt. eigenvalues --    1.31619   1.31784   1.32296   1.32746   1.33388
 Alpha virt. eigenvalues --    1.34068   1.34284   1.36322   1.36693   1.37573
 Alpha virt. eigenvalues --    1.39432   1.39862   1.40329   1.40841   1.41800
 Alpha virt. eigenvalues --    1.42393   1.43455   1.44659   1.45141   1.47232
 Alpha virt. eigenvalues --    1.48522   1.50477   1.51295   1.52617   1.53401
 Alpha virt. eigenvalues --    1.54596   1.55016   1.55406   1.56516   1.57118
 Alpha virt. eigenvalues --    1.57860   1.59007   1.59480   1.59799   1.60999
 Alpha virt. eigenvalues --    1.61368   1.62048   1.62439   1.64050   1.64549
 Alpha virt. eigenvalues --    1.65371   1.65848   1.66111   1.66678   1.67703
 Alpha virt. eigenvalues --    1.68168   1.70427   1.70625   1.71363   1.72560
 Alpha virt. eigenvalues --    1.73358   1.74708   1.75236   1.76620   1.76835
 Alpha virt. eigenvalues --    1.78041   1.79403   1.80596   1.81434   1.82930
 Alpha virt. eigenvalues --    1.83092   1.83994   1.84515   1.85957   1.86909
 Alpha virt. eigenvalues --    1.87137   1.89153   1.89162   1.89709   1.91938
 Alpha virt. eigenvalues --    1.92087   1.92341   1.93558   1.94350   1.95174
 Alpha virt. eigenvalues --    1.95785   1.96198   1.97169   1.98411   1.98718
 Alpha virt. eigenvalues --    1.99461   1.99999   2.01393   2.02031   2.02518
 Alpha virt. eigenvalues --    2.03371   2.04414   2.05433   2.05934   2.07276
 Alpha virt. eigenvalues --    2.08113   2.08885   2.09767   2.10212   2.11738
 Alpha virt. eigenvalues --    2.11877   2.12287   2.12424   2.14561   2.15225
 Alpha virt. eigenvalues --    2.16024   2.16249   2.17157   2.19448   2.20279
 Alpha virt. eigenvalues --    2.21942   2.22184   2.26292   2.26418   2.27529
 Alpha virt. eigenvalues --    2.29839   2.30450   2.31533   2.32650   2.33685
 Alpha virt. eigenvalues --    2.34429   2.35594   2.36436   2.37099   2.38205
 Alpha virt. eigenvalues --    2.39002   2.39704   2.41329   2.42293   2.43164
 Alpha virt. eigenvalues --    2.44710   2.45234   2.46794   2.48139   2.48755
 Alpha virt. eigenvalues --    2.50237   2.51104   2.52154   2.54236   2.55010
 Alpha virt. eigenvalues --    2.56405   2.56434   2.56665   2.58268   2.59217
 Alpha virt. eigenvalues --    2.60382   2.60685   2.61111   2.61726   2.62683
 Alpha virt. eigenvalues --    2.63457   2.65172   2.65499   2.67100   2.68800
 Alpha virt. eigenvalues --    2.70199   2.70365   2.72735   2.74298   2.74628
 Alpha virt. eigenvalues --    2.76510   2.77018   2.77439   2.79666   2.79860
 Alpha virt. eigenvalues --    2.80672   2.82093   2.82680   2.83190   2.84349
 Alpha virt. eigenvalues --    2.85148   2.86107   2.88742   2.89193   2.89811
 Alpha virt. eigenvalues --    2.90509   2.91570   2.92732   2.93962   2.94915
 Alpha virt. eigenvalues --    2.96095   2.97392   2.98590   2.99320   2.99748
 Alpha virt. eigenvalues --    3.00933   3.02083   3.02235   3.04322   3.07396
 Alpha virt. eigenvalues --    3.08938   3.09475   3.11025   3.12275   3.13940
 Alpha virt. eigenvalues --    3.17324   3.18918   3.21210   3.21657   3.26102
 Alpha virt. eigenvalues --    3.31610   3.37040   3.39700   3.40208   3.41552
 Alpha virt. eigenvalues --    3.43051   3.44842   3.46851   3.47644   3.48317
 Alpha virt. eigenvalues --    3.48999   3.49535   3.49922   3.50436   3.51267
 Alpha virt. eigenvalues --    3.53603   3.54044   3.57395   3.58662   3.61604
 Alpha virt. eigenvalues --    3.64760   3.65844   3.72548   4.26149   4.30979
 Alpha virt. eigenvalues --    4.32825   4.34989   4.39160   4.41109   4.43361
 Alpha virt. eigenvalues --    4.46231   4.48331   4.49883   4.50584   4.53318
 Alpha virt. eigenvalues --    4.55081   4.59134   4.63303   4.65061   4.73003
 Alpha virt. eigenvalues --    4.77405   4.80053   4.81120   4.84710   4.87283
 Alpha virt. eigenvalues --    4.91630
          Condensed to atoms (all electrons):
              1          2          3          4          5          6
     1  O    8.296583   0.098625   0.089449  -0.022133   0.015265   0.045072
     2  C    0.098625  10.778309  -2.854904   0.026516  -0.043889  -3.185146
     3  C    0.089449  -2.854904   8.878054   0.092249   0.023607   1.136636
     4  O   -0.022133   0.026516   0.092249   8.285032   0.200144   0.059922
     5  H    0.015265  -0.043889   0.023607   0.200144   0.449424  -0.021396
     6  C    0.045072  -3.185146   1.136636   0.059922  -0.021396  14.854476
     7  O   -0.001792   0.055507  -0.071985  -0.017467   0.000933   0.094408
     8  H   -0.000130   0.040618  -0.056697   0.013513  -0.000372   0.014977
     9  C   -0.086872   0.552503  -0.495223   0.011939   0.001481  -0.042393
    10  O    0.000440  -0.019319   0.000024   0.000052  -0.000009  -0.013218
    11  H   -0.000037   0.000840   0.003619  -0.000002   0.000000   0.001166
    12  C   -0.102009  -1.558538   0.516048   0.007462   0.004249   0.386109
    13  O    0.006214   0.011046   0.015304  -0.002955  -0.000220   0.091965
    14  C    0.013770   1.322003  -1.242684  -0.059833   0.032929  -4.897559
    15  O    0.000433  -0.008710  -0.011046   0.000427   0.000088   0.019449
    16  C    0.003494   0.274809  -0.262486   0.001907   0.001829  -1.571558
    17  C    0.000209  -0.067208   0.029211   0.000835   0.000069  -0.036692
    18  O    0.000056  -0.003261   0.000824  -0.000023   0.000000   0.013509
    19  H   -0.000022   0.005519   0.000543  -0.000004   0.000000   0.017052
    20  C    0.000101   0.009297  -0.012337   0.000100   0.000004  -0.063523
    21  O    0.000000   0.000107  -0.000046   0.000000   0.000000   0.000351
    22  H    0.000000   0.000025   0.000000   0.000000   0.000000   0.000329
    23  C   -0.000002   0.013433  -0.031089   0.000151  -0.000016  -0.162067
    24  O    0.000000   0.000120   0.000393   0.000000   0.000000  -0.000612
    25  H    0.000000   0.000006   0.000118   0.000000   0.000000  -0.000037
    26  C    0.000067   0.010155  -0.028552   0.000094   0.000009  -0.479043
    27  O    0.000000  -0.000123  -0.000075   0.000000   0.000000  -0.002141
    28  C   -0.000003   0.000412   0.001485   0.000004   0.000000   0.018266
    29  O    0.000000  -0.000005   0.000006   0.000000   0.000000   0.000166
    30  H    0.000000   0.000000   0.000000   0.000000   0.000000   0.000016
    31  H    0.209840   0.072011  -0.083157   0.001202   0.010984  -0.014032
    32  H   -0.000259   0.058129  -0.003924  -0.000448   0.000012   0.008848
    33  H   -0.001892   0.015128  -0.014931   0.000069  -0.000001  -0.003802
    34  H    0.005125   0.025373  -0.034089  -0.000504  -0.000005  -0.007061
    35  H   -0.056586   0.391432  -0.057759  -0.000143  -0.000069  -0.067403
    36  H   -0.011962   0.109832   0.388255  -0.065679  -0.003369  -0.399964
    37  H   -0.000761   0.043354   0.034622  -0.001348  -0.000146   0.177509
    38  H    0.000002   0.020544  -0.012742  -0.000354   0.000003  -0.159015
    39  H    0.000000   0.000095  -0.000858  -0.000001   0.000000   0.002155
    40  H    0.000000  -0.001441   0.001610   0.000002   0.000000   0.001469
    41  H    0.000000  -0.000097   0.000048   0.000000   0.000000  -0.000002
    42  H   -0.000002   0.001150  -0.000960   0.000005   0.000000   0.006773
    43  H    0.000000   0.000038  -0.000245   0.000000   0.000000   0.012615
    44  H    0.000000   0.000058  -0.000087   0.000000   0.000000   0.000362
    45  H    0.000000  -0.000003   0.000003   0.000000   0.000000   0.000230
              7          8          9         10         11         12
     1  O   -0.001792  -0.000130  -0.086872   0.000440  -0.000037  -0.102009
     2  C    0.055507   0.040618   0.552503  -0.019319   0.000840  -1.558538
     3  C   -0.071985  -0.056697  -0.495223   0.000024   0.003619   0.516048
     4  O   -0.017467   0.013513   0.011939   0.000052  -0.000002   0.007462
     5  H    0.000933  -0.000372   0.001481  -0.000009   0.000000   0.004249
     6  C    0.094408   0.014977  -0.042393  -0.013218   0.001166   0.386109
     7  O    8.275836   0.212253  -0.000890  -0.000033   0.000000   0.024370
     8  H    0.212253   0.394452   0.000941   0.000000   0.000000  -0.001837
     9  C   -0.000890   0.000941   6.845672   0.328712  -0.070122  -1.747357
    10  O   -0.000033   0.000000   0.328712   8.291218   0.198730  -0.187301
    11  H    0.000000   0.000000  -0.070122   0.198730   0.446946   0.083128
    12  C    0.024370  -0.001837  -1.747357  -0.187301   0.083128   9.550732
    13  O    0.006857  -0.000598   0.015296   0.018267  -0.001135  -0.154282
    14  C    0.045135   0.008421  -0.119745  -0.008653   0.000907  -0.483524
    15  O   -0.002784  -0.000063   0.000708  -0.000539  -0.000007  -0.025356
    16  C   -0.040678  -0.001319  -0.117260   0.016337  -0.001442   0.150094
    17  C    0.001866  -0.000601   0.029771  -0.008552   0.000644  -0.329086
    18  O    0.000434  -0.000003   0.002550   0.000528   0.000020   0.006372
    19  H   -0.000040   0.000000  -0.014948   0.004544  -0.000067   0.011077
    20  C    0.001017  -0.000060   0.004201   0.001649  -0.000175  -0.054157
    21  O   -0.000002   0.000000  -0.000728   0.000011   0.000001   0.001117
    22  H    0.000000   0.000000  -0.000062  -0.000008   0.000000   0.000139
    23  C   -0.004728   0.000053   0.002158  -0.000051  -0.000003   0.018898
    24  O    0.000316   0.000000   0.000002   0.000000   0.000000  -0.000069
    25  H    0.000064   0.000000  -0.000001   0.000000   0.000000  -0.000021
    26  C    0.000857   0.000564   0.004121  -0.000061  -0.000021  -0.009627
    27  O   -0.000141   0.000000  -0.000008   0.000001   0.000000   0.000524
    28  C    0.000005   0.000008  -0.001030   0.000095  -0.000004   0.003407
    29  O   -0.000002   0.000000   0.000006   0.000000   0.000000   0.000083
    30  H    0.000000   0.000000   0.000000   0.000000   0.000000  -0.000002
    31  H   -0.000078  -0.000001   0.003026  -0.000039  -0.000004   0.026625
    32  H   -0.000001   0.000000   0.627821  -0.069734  -0.003251  -0.361880
    33  H   -0.000008   0.000000   0.446370  -0.043011  -0.009442  -0.081059
    34  H   -0.000177   0.000000   0.024537   0.004735  -0.000063   0.211224
    35  H   -0.000286  -0.000005   0.007871   0.001500  -0.000031  -0.096273
    36  H   -0.001870  -0.001759   0.012072   0.000015   0.000000  -0.024133
    37  H   -0.047329  -0.003598   0.006913  -0.000016   0.000000   0.006601
    38  H    0.005615  -0.000094   0.009352   0.000003   0.000000  -0.001045
    39  H    0.000455   0.000007   0.000099   0.000000   0.000000   0.001457
    40  H   -0.002186  -0.000095  -0.000044   0.000000   0.000000  -0.001487
    41  H   -0.000091   0.000000   0.000122   0.000000   0.000000   0.000595
    42  H    0.000173   0.000004   0.001114   0.000001   0.000000   0.006911
    43  H    0.000037   0.000000   0.003279   0.000017   0.000000   0.001023
    44  H    0.000002   0.000000   0.000063   0.000003   0.000000   0.000891
    45  H    0.000000   0.000000   0.000000   0.000000   0.000000   0.000012
             13         14         15         16         17         18
     1  O    0.006214   0.013770   0.000433   0.003494   0.000209   0.000056
     2  C    0.011046   1.322003  -0.008710   0.274809  -0.067208  -0.003261
     3  C    0.015304  -1.242684  -0.011046  -0.262486   0.029211   0.000824
     4  O   -0.002955  -0.059833   0.000427   0.001907   0.000835  -0.000023
     5  H   -0.000220   0.032929   0.000088   0.001829   0.000069   0.000000
     6  C    0.091965  -4.897559   0.019449  -1.571558  -0.036692   0.013509
     7  O    0.006857   0.045135  -0.002784  -0.040678   0.001866   0.000434
     8  H   -0.000598   0.008421  -0.000063  -0.001319  -0.000601  -0.000003
     9  C    0.015296  -0.119745   0.000708  -0.117260   0.029771   0.002550
    10  O    0.018267  -0.008653  -0.000539   0.016337  -0.008552   0.000528
    11  H   -0.001135   0.000907  -0.000007  -0.001442   0.000644   0.000020
    12  C   -0.154282  -0.483524  -0.025356   0.150094  -0.329086   0.006372
    13  O    8.518170   0.099607  -0.029504  -0.109266   0.000623   0.022192
    14  C    0.099607  13.877845   0.091236  -2.419345   0.078400   0.031464
    15  O   -0.029504   0.091236   8.213436   0.139276   0.075482  -0.019218
    16  C   -0.109266  -2.419345   0.139276  20.092652  -6.813692  -0.205458
    17  C    0.000623   0.078400   0.075482  -6.813692  12.920209   0.316288
    18  O    0.022192   0.031464  -0.019218  -0.205458   0.316288   8.294034
    19  H    0.011245  -0.025991   0.008427  -0.060916   0.061278   0.183802
    20  C   -0.013586  -0.756534   0.016590  -2.085359   0.400636  -0.114677
    21  O    0.000455  -0.003322  -0.000319   0.001664  -0.187858   0.004521
    22  H    0.000004   0.005331  -0.000066   0.025499  -0.088460   0.016198
    23  C    0.002031   0.074632  -0.139467   0.676132  -0.795406   0.003880
    24  O    0.000175   0.010923  -0.003962  -0.027874  -0.004385   0.000300
    25  H    0.000002  -0.001854   0.000291   0.008862   0.002904   0.000000
    26  C   -0.015159  -1.007753   0.079410  -3.931635   0.723523   0.045006
    27  O    0.000204  -0.031023   0.004584  -0.095819  -0.031823  -0.001224
    28  C    0.001946   0.138788   0.000540   1.213730  -0.589515   0.020598
    29  O   -0.000005   0.007211   0.000003   0.039205   0.010159   0.000065
    30  H    0.000000   0.000678   0.000000   0.006729  -0.005098   0.000010
    31  H   -0.000824   0.011166   0.000016   0.000668  -0.000008  -0.000002
    32  H    0.002837   0.010083   0.000144  -0.000684   0.001507   0.000059
    33  H    0.008863   0.001538  -0.000005   0.001446  -0.000342  -0.000036
    34  H   -0.047749   0.051708  -0.000037  -0.001268   0.017469   0.000411
    35  H    0.010222   0.084878  -0.000753  -0.002393   0.003490   0.000074
    36  H    0.005172   0.191163  -0.001233   0.006931   0.003672   0.000075
    37  H    0.012659  -0.023524  -0.008719   0.030512   0.008612   0.000102
    38  H   -0.066159   0.357477  -0.055782   0.036105   0.051632  -0.000243
    39  H    0.000332   0.058661  -0.003134   0.040731   0.002553  -0.000166
    40  H   -0.001227  -0.052918   0.000939   0.073397  -0.001889  -0.000002
    41  H   -0.000201   0.088857   0.004519   0.078639  -0.029725  -0.000754
    42  H    0.001585   0.093978  -0.077986   0.410413  -0.078776  -0.000394
    43  H    0.002567   0.098838  -0.009272   0.043281   0.334642  -0.045872
    44  H    0.000298   0.004887  -0.001224   0.190261  -0.134879   0.001412
    45  H    0.000012   0.006140  -0.000179   0.098977   0.014720  -0.000599
             19         20         21         22         23         24
     1  O   -0.000022   0.000101   0.000000   0.000000  -0.000002   0.000000
     2  C    0.005519   0.009297   0.000107   0.000025   0.013433   0.000120
     3  C    0.000543  -0.012337  -0.000046   0.000000  -0.031089   0.000393
     4  O   -0.000004   0.000100   0.000000   0.000000   0.000151   0.000000
     5  H    0.000000   0.000004   0.000000   0.000000  -0.000016   0.000000
     6  C    0.017052  -0.063523   0.000351   0.000329  -0.162067  -0.000612
     7  O   -0.000040   0.001017  -0.000002   0.000000  -0.004728   0.000316
     8  H    0.000000  -0.000060   0.000000   0.000000   0.000053   0.000000
     9  C   -0.014948   0.004201  -0.000728  -0.000062   0.002158   0.000002
    10  O    0.004544   0.001649   0.000011  -0.000008  -0.000051   0.000000
    11  H   -0.000067  -0.000175   0.000001   0.000000  -0.000003   0.000000
    12  C    0.011077  -0.054157   0.001117   0.000139   0.018898  -0.000069
    13  O    0.011245  -0.013586   0.000455   0.000004   0.002031   0.000175
    14  C   -0.025991  -0.756534  -0.003322   0.005331   0.074632   0.010923
    15  O    0.008427   0.016590  -0.000319  -0.000066  -0.139467  -0.003962
    16  C   -0.060916  -2.085359   0.001664   0.025499   0.676132  -0.027874
    17  C    0.061278   0.400636  -0.187858  -0.088460  -0.795406  -0.004385
    18  O    0.183802  -0.114677   0.004521   0.016198   0.003880   0.000300
    19  H    0.351179   0.022940   0.001033  -0.000341  -0.005397   0.000000
    20  C    0.022940   8.602040   0.506661   0.014882  -0.004773  -0.005140
    21  O    0.001033   0.506661   8.176435   0.222900  -0.003225  -0.000013
    22  H   -0.000341   0.014882   0.222900   0.396719  -0.000064   0.000001
    23  C   -0.005397  -0.004773  -0.003225  -0.000064   6.930184   0.271883
    24  O    0.000000  -0.005140  -0.000013   0.000001   0.271883   8.355593
    25  H    0.000000  -0.000203   0.000000   0.000000  -0.056614   0.213432
    26  C    0.001143   0.879354   0.044156  -0.011677  -1.658569  -0.138901
    27  O   -0.000066  -0.062174   0.004236  -0.000393  -0.039294   0.011215
    28  C   -0.002732  -0.878463  -0.236887   0.055284  -0.123166   0.005374
    29  O    0.000015  -0.119021   0.004393  -0.000028  -0.003506  -0.000497
    30  H    0.000000   0.026528  -0.000954   0.000013  -0.001566   0.000047
    31  H    0.000000   0.000002   0.000000   0.000000   0.000000   0.000000
    32  H    0.000037   0.000049   0.000000   0.000000  -0.000017   0.000000
    33  H    0.000017   0.000071   0.000000   0.000000   0.000008   0.000000
    34  H    0.000331   0.001196   0.000002   0.000000  -0.000281   0.000000
    35  H   -0.000016   0.000075   0.000000   0.000000   0.000035   0.000000
    36  H   -0.000007   0.000122   0.000000   0.000000   0.000326  -0.000001
    37  H   -0.000051   0.001153   0.000000   0.000000   0.002850  -0.000011
    38  H   -0.000286   0.016885   0.000015   0.000000  -0.000267  -0.000030
    39  H    0.000001  -0.001793  -0.000017   0.000000   0.607338  -0.064555
    40  H   -0.000004  -0.000723  -0.000009   0.000000   0.430135  -0.050576
    41  H    0.000010  -0.013871  -0.000127   0.000000   0.075804   0.003289
    42  H   -0.001048  -0.013646  -0.000546   0.000008   0.063792   0.001396
    43  H   -0.008789  -0.193028  -0.000785   0.000032   0.018909   0.000058
    44  H   -0.000211   0.265600  -0.059291  -0.006338   0.021842  -0.000067
    45  H    0.000005  -0.192296   0.006869  -0.000171   0.009160  -0.000195
             25         26         27         28         29         30
     1  O    0.000000   0.000067   0.000000  -0.000003   0.000000   0.000000
     2  C    0.000006   0.010155  -0.000123   0.000412  -0.000005   0.000000
     3  C    0.000118  -0.028552  -0.000075   0.001485   0.000006   0.000000
     4  O    0.000000   0.000094   0.000000   0.000004   0.000000   0.000000
     5  H    0.000000   0.000009   0.000000   0.000000   0.000000   0.000000
     6  C   -0.000037  -0.479043  -0.002141   0.018266   0.000166   0.000016
     7  O    0.000064   0.000857  -0.000141   0.000005  -0.000002   0.000000
     8  H    0.000000   0.000564   0.000000   0.000008   0.000000   0.000000
     9  C   -0.000001   0.004121  -0.000008  -0.001030   0.000006   0.000000
    10  O    0.000000  -0.000061   0.000001   0.000095   0.000000   0.000000
    11  H    0.000000  -0.000021   0.000000  -0.000004   0.000000   0.000000
    12  C   -0.000021  -0.009627   0.000524   0.003407   0.000083  -0.000002
    13  O    0.000002  -0.015159   0.000204   0.001946  -0.000005   0.000000
    14  C   -0.001854  -1.007753  -0.031023   0.138788   0.007211   0.000678
    15  O    0.000291   0.079410   0.004584   0.000540   0.000003   0.000000
    16  C    0.008862  -3.931635  -0.095819   1.213730   0.039205   0.006729
    17  C    0.002904   0.723523  -0.031823  -0.589515   0.010159  -0.005098
    18  O    0.000000   0.045006  -0.001224   0.020598   0.000065   0.000010
    19  H    0.000000   0.001143  -0.000066  -0.002732   0.000015   0.000000
    20  C   -0.000203   0.879354  -0.062174  -0.878463  -0.119021   0.026528
    21  O    0.000000   0.044156   0.004236  -0.236887   0.004393  -0.000954
    22  H    0.000000  -0.011677  -0.000393   0.055284  -0.000028   0.000013
    23  C   -0.056614  -1.658569  -0.039294  -0.123166  -0.003506  -0.001566
    24  O    0.213432  -0.138901   0.011215   0.005374  -0.000497   0.000047
    25  H    0.427217   0.054357  -0.000534   0.000384  -0.000001   0.000000
    26  C    0.054357  12.927062   0.309352  -0.877127  -0.035196  -0.019454
    27  O   -0.000534   0.309352   8.429970   0.011676  -0.081662  -0.004220
    28  C    0.000384  -0.877127   0.011676   6.000455   0.323112   0.014172
    29  O   -0.000001  -0.035196  -0.081662   0.323112   8.172598   0.226592
    30  H    0.000000  -0.019454  -0.004220   0.014172   0.226592   0.410656
    31  H    0.000000   0.000000   0.000000   0.000000   0.000000   0.000000
    32  H    0.000000  -0.000050   0.000000   0.000001   0.000000   0.000000
    33  H    0.000000   0.000058   0.000000  -0.000003   0.000000   0.000000
    34  H    0.000000   0.000668   0.000000  -0.000028   0.000000   0.000000
    35  H    0.000000   0.000040   0.000000  -0.000004   0.000000   0.000000
    36  H    0.000000   0.000371   0.000000  -0.000005   0.000000   0.000000
    37  H    0.000000  -0.006222   0.000002   0.000000   0.000000   0.000000
    38  H    0.000001   0.017431   0.000148   0.000590  -0.000008   0.000000
    39  H   -0.002118  -0.366810  -0.001604   0.001435  -0.000173   0.000002
    40  H   -0.005769  -0.069434   0.007928   0.000408   0.000056   0.000000
    41  H   -0.000050   0.064838  -0.048720   0.014357  -0.000652  -0.000022
    42  H   -0.000021  -0.223117   0.004007   0.016383  -0.000343   0.000001
    43  H    0.000000  -0.070202   0.002338   0.024550   0.000148  -0.000001
    44  H    0.000000  -0.030610   0.003826  -0.037793  -0.004215  -0.000023
    45  H    0.000000  -0.040643  -0.063925   0.436548  -0.047951  -0.008309
             31         32         33         34         35         36
     1  O    0.209840  -0.000259  -0.001892   0.005125  -0.056586  -0.011962
     2  C    0.072011   0.058129   0.015128   0.025373   0.391432   0.109832
     3  C   -0.083157  -0.003924  -0.014931  -0.034089  -0.057759   0.388255
     4  O    0.001202  -0.000448   0.000069  -0.000504  -0.000143  -0.065679
     5  H    0.010984   0.000012  -0.000001  -0.000005  -0.000069  -0.003369
     6  C   -0.014032   0.008848  -0.003802  -0.007061  -0.067403  -0.399964
     7  O   -0.000078  -0.000001  -0.000008  -0.000177  -0.000286  -0.001870
     8  H   -0.000001   0.000000   0.000000   0.000000  -0.000005  -0.001759
     9  C    0.003026   0.627821   0.446370   0.024537   0.007871   0.012072
    10  O   -0.000039  -0.069734  -0.043011   0.004735   0.001500   0.000015
    11  H   -0.000004  -0.003251  -0.009442  -0.000063  -0.000031   0.000000
    12  C    0.026625  -0.361880  -0.081059   0.211224  -0.096273  -0.024133
    13  O   -0.000824   0.002837   0.008863  -0.047749   0.010222   0.005172
    14  C    0.011166   0.010083   0.001538   0.051708   0.084878   0.191163
    15  O    0.000016   0.000144  -0.000005  -0.000037  -0.000753  -0.001233
    16  C    0.000668  -0.000684   0.001446  -0.001268  -0.002393   0.006931
    17  C   -0.000008   0.001507  -0.000342   0.017469   0.003490   0.003672
    18  O   -0.000002   0.000059  -0.000036   0.000411   0.000074   0.000075
    19  H    0.000000   0.000037   0.000017   0.000331  -0.000016  -0.000007
    20  C    0.000002   0.000049   0.000071   0.001196   0.000075   0.000122
    21  O    0.000000   0.000000   0.000000   0.000002   0.000000   0.000000
    22  H    0.000000   0.000000   0.000000   0.000000   0.000000   0.000000
    23  C    0.000000  -0.000017   0.000008  -0.000281   0.000035   0.000326
    24  O    0.000000   0.000000   0.000000   0.000000   0.000000  -0.000001
    25  H    0.000000   0.000000   0.000000   0.000000   0.000000   0.000000
    26  C    0.000000  -0.000050   0.000058   0.000668   0.000040   0.000371
    27  O    0.000000   0.000000   0.000000   0.000000   0.000000   0.000000
    28  C    0.000000   0.000001  -0.000003  -0.000028  -0.000004  -0.000005
    29  O    0.000000   0.000000   0.000000   0.000000   0.000000   0.000000
    30  H    0.000000   0.000000   0.000000   0.000000   0.000000   0.000000
    31  H    0.431848   0.000080  -0.000130  -0.000171  -0.008483   0.000166
    32  H    0.000080   0.656649  -0.054443   0.007035   0.006892  -0.000037
    33  H   -0.000130  -0.054443   0.582682  -0.008543   0.000972   0.000023
    34  H   -0.000171   0.007035  -0.008543   0.578287   0.005495   0.002190
    35  H   -0.008483   0.006892   0.000972   0.005495   0.629587   0.007224
    36  H    0.000166  -0.000037   0.000023   0.002190   0.007224   0.622047
    37  H    0.000000  -0.000032   0.000001   0.000002   0.001842   0.007330
    38  H    0.000000   0.000012   0.000009   0.005510   0.000035   0.002807
    39  H    0.000000   0.000000   0.000000   0.000000   0.000000   0.000000
    40  H    0.000000   0.000000   0.000000   0.000000   0.000000   0.000002
    41  H    0.000000   0.000000   0.000000   0.000000   0.000000   0.000000
    42  H    0.000000   0.000000   0.000000  -0.000030   0.000000  -0.000002
    43  H    0.000000   0.000000   0.000000  -0.000004   0.000000   0.000000
    44  H    0.000000   0.000000   0.000000   0.000000   0.000000   0.000000
    45  H    0.000000   0.000000   0.000000   0.000000   0.000000   0.000000
             37         38         39         40         41         42
     1  O   -0.000761   0.000002   0.000000   0.000000   0.000000  -0.000002
     2  C    0.043354   0.020544   0.000095  -0.001441  -0.000097   0.001150
     3  C    0.034622  -0.012742  -0.000858   0.001610   0.000048  -0.000960
     4  O   -0.001348  -0.000354  -0.000001   0.000002   0.000000   0.000005
     5  H   -0.000146   0.000003   0.000000   0.000000   0.000000   0.000000
     6  C    0.177509  -0.159015   0.002155   0.001469  -0.000002   0.006773
     7  O   -0.047329   0.005615   0.000455  -0.002186  -0.000091   0.000173
     8  H   -0.003598  -0.000094   0.000007  -0.000095   0.000000   0.000004
     9  C    0.006913   0.009352   0.000099  -0.000044   0.000122   0.001114
    10  O   -0.000016   0.000003   0.000000   0.000000   0.000000   0.000001
    11  H    0.000000   0.000000   0.000000   0.000000   0.000000   0.000000
    12  C    0.006601  -0.001045   0.001457  -0.001487   0.000595   0.006911
    13  O    0.012659  -0.066159   0.000332  -0.001227  -0.000201   0.001585
    14  C   -0.023524   0.357477   0.058661  -0.052918   0.088857   0.093978
    15  O   -0.008719  -0.055782  -0.003134   0.000939   0.004519  -0.077986
    16  C    0.030512   0.036105   0.040731   0.073397   0.078639   0.410413
    17  C    0.008612   0.051632   0.002553  -0.001889  -0.029725  -0.078776
    18  O    0.000102  -0.000243  -0.000166  -0.000002  -0.000754  -0.000394
    19  H   -0.000051  -0.000286   0.000001  -0.000004   0.000010  -0.001048
    20  C    0.001153   0.016885  -0.001793  -0.000723  -0.013871  -0.013646
    21  O    0.000000   0.000015  -0.000017  -0.000009  -0.000127  -0.000546
    22  H    0.000000   0.000000   0.000000   0.000000   0.000000   0.000008
    23  C    0.002850  -0.000267   0.607338   0.430135   0.075804   0.063792
    24  O   -0.000011  -0.000030  -0.064555  -0.050576   0.003289   0.001396
    25  H    0.000000   0.000001  -0.002118  -0.005769  -0.000050  -0.000021
    26  C   -0.006222   0.017431  -0.366810  -0.069434   0.064838  -0.223117
    27  O    0.000002   0.000148  -0.001604   0.007928  -0.048720   0.004007
    28  C    0.000000   0.000590   0.001435   0.000408   0.014357   0.016383
    29  O    0.000000  -0.000008  -0.000173   0.000056  -0.000652  -0.000343
    30  H    0.000000   0.000000   0.000002   0.000000  -0.000022   0.000001
    31  H    0.000000   0.000000   0.000000   0.000000   0.000000   0.000000
    32  H   -0.000032   0.000012   0.000000   0.000000   0.000000   0.000000
    33  H    0.000001   0.000009   0.000000   0.000000   0.000000   0.000000
    34  H    0.000002   0.005510   0.000000   0.000000   0.000000  -0.000030
    35  H    0.001842   0.000035   0.000000   0.000000   0.000000   0.000000
    36  H    0.007330   0.002807   0.000000   0.000002   0.000000  -0.000002
    37  H    0.598675   0.005891  -0.000002   0.000101  -0.000004  -0.000013
    38  H    0.005891   0.628393  -0.000386   0.000509  -0.000040   0.012401
    39  H   -0.000002  -0.000386   0.644776  -0.054278   0.007039   0.011219
    40  H    0.000101   0.000509  -0.054278   0.568591  -0.007119  -0.002100
    41  H   -0.000004  -0.000040   0.007039  -0.007119   0.607667   0.006803
    42  H   -0.000013   0.012401   0.011219  -0.002100   0.006803   0.635652
    43  H   -0.000005  -0.000081  -0.000018  -0.000007   0.001660   0.006759
    44  H    0.000000  -0.000027  -0.000059   0.000003   0.000021   0.002706
    45  H    0.000000   0.000000  -0.000001   0.000012   0.004086   0.000029
             43         44         45
     1  O    0.000000   0.000000   0.000000
     2  C    0.000038   0.000058  -0.000003
     3  C   -0.000245  -0.000087   0.000003
     4  O    0.000000   0.000000   0.000000
     5  H    0.000000   0.000000   0.000000
     6  C    0.012615   0.000362   0.000230
     7  O    0.000037   0.000002   0.000000
     8  H    0.000000   0.000000   0.000000
     9  C    0.003279   0.000063   0.000000
    10  O    0.000017   0.000003   0.000000
    11  H    0.000000   0.000000   0.000000
    12  C    0.001023   0.000891   0.000012
    13  O    0.002567   0.000298   0.000012
    14  C    0.098838   0.004887   0.006140
    15  O   -0.009272  -0.001224  -0.000179
    16  C    0.043281   0.190261   0.098977
    17  C    0.334642  -0.134879   0.014720
    18  O   -0.045872   0.001412  -0.000599
    19  H   -0.008789  -0.000211   0.000005
    20  C   -0.193028   0.265600  -0.192296
    21  O   -0.000785  -0.059291   0.006869
    22  H    0.000032  -0.006338  -0.000171
    23  C    0.018909   0.021842   0.009160
    24  O    0.000058  -0.000067  -0.000195
    25  H    0.000000   0.000000   0.000000
    26  C   -0.070202  -0.030610  -0.040643
    27  O    0.002338   0.003826  -0.063925
    28  C    0.024550  -0.037793   0.436548
    29  O    0.000148  -0.004215  -0.047951
    30  H   -0.000001  -0.000023  -0.008309
    31  H    0.000000   0.000000   0.000000
    32  H    0.000000   0.000000   0.000000
    33  H    0.000000   0.000000   0.000000
    34  H   -0.000004   0.000000   0.000000
    35  H    0.000000   0.000000   0.000000
    36  H    0.000000   0.000000   0.000000
    37  H   -0.000005   0.000000   0.000000
    38  H   -0.000081  -0.000027   0.000000
    39  H   -0.000018  -0.000059  -0.000001
    40  H   -0.000007   0.000003   0.000012
    41  H    0.001660   0.000021   0.004086
    42  H    0.006759   0.002706   0.000029
    43  H    0.624425   0.008148   0.003946
    44  H    0.008148   0.627457   0.006841
    45  H    0.003946   0.006841   0.647664
 Mulliken atomic charges:
              1
     1  O   -0.500285
     2  C   -0.194349
     3  C    0.063764
     4  O   -0.530730
     5  H    0.328461
     6  C    0.162832
     7  O   -0.533573
     8  H    0.381424
     9  C   -0.246017
    10  O   -0.516338
    11  H    0.349806
    12  C    0.199897
    13  O   -0.423279
    14  C    0.235607
    15  O   -0.256633
    16  C    0.084873
    17  C    0.113589
    18  O   -0.572854
    19  H    0.440739
    20  C   -0.185616
    21  O   -0.480798
    22  H    0.370246
    23  C   -0.194065
    24  O   -0.577628
    25  H    0.359584
    26  C   -0.142771
    27  O   -0.325043
    28  C    0.442748
    29  O   -0.490553
    30  H    0.354205
    31  H    0.339295
    32  H    0.114570
    33  H    0.160394
    34  H    0.158711
    35  H    0.138539
    36  H    0.150227
    37  H    0.153052
    38  H    0.125193
    39  H    0.117621
    40  H    0.166147
    41  H    0.143121
    42  H    0.115722
    43  H    0.141002
    44  H    0.140142
    45  H    0.119020
 Sum of Mulliken atomic charges =   0.00000
 Mulliken charges with hydrogens summed into heavy atoms:
              1
     1  O   -0.160990
     2  C   -0.055810
     3  C    0.213991
     4  O   -0.202269
     6  C    0.315883
     7  O   -0.152148
     9  C    0.028946
    10  O   -0.166532
    12  C    0.358609
    13  O   -0.423279
    14  C    0.360800
    15  O   -0.256633
    16  C    0.200595
    17  C    0.254592
    18  O   -0.132115
    20  C   -0.045474
    21  O   -0.110552
    23  C    0.089703
    24  O   -0.218044
    26  C    0.000351
    27  O   -0.325043
    28  C    0.561768
    29  O   -0.136348
 Sum of Mulliken charges with hydrogens summed into heavy atoms =   0.00000
 APT atomic charges:
              1
     1  O   -0.619980
     2  C    0.395616
     3  C    0.398146
     4  O   -0.659294
     5  H    0.261219
     6  C    0.377458
     7  O   -0.650065
     8  H    0.289937
     9  C    0.471645
    10  O   -0.594415
    11  H    0.241401
    12  C    0.452557
    13  O   -0.888094
    14  C    0.932144
    15  O   -0.803963
    16  C    0.396928
    17  C    0.332162
    18  O   -0.749636
    19  H    0.442914
    20  C    0.414177
    21  O   -0.615710
    22  H    0.280140
    23  C    0.534302
    24  O   -0.705927
    25  H    0.257308
    26  C    0.413705
    27  O   -0.727133
    28  C    0.916097
    29  O   -0.677837
    30  H    0.281569
    31  H    0.248798
    32  H   -0.057531
    33  H   -0.027254
    34  H   -0.037524
    35  H   -0.047453
    36  H   -0.054243
    37  H   -0.033280
    38  H   -0.040148
    39  H   -0.063102
    40  H   -0.011884
    41  H   -0.051363
    42  H   -0.022587
    43  H   -0.056395
    44  H   -0.049279
    45  H   -0.094129
 Sum of APT charges=   0.00000
 APT Atomic charges with hydrogens summed into heavy atoms:
[...]
 195080,0.00137051,-0.00172536,0.00139061,0.00040264,0.00089182,-0.0000
 3956,-0.00009098,0.00005085,-0.01295675,0.01016754,-0.00631486,0.00112
 548,-0.00023354,-0.00094159,-0.00031716,-0.00059666,0.00002570,0.00010
 361,0.00006477,-0.00004229,-0.00001049,0.00001371,0.00002519,0.0000005
 7,0.00000197,-0.00000115,-0.00000169,0.00000430,-0.00000448,0.00000635
 ,0.00003213,0.00000754,0.00003643,0.00000634,0.00003481,0.00000063,-0.
 00000905,-0.00000489,0.00002640,-0.00000929,0.00004311,0.00025808,0.00
 006289,-0.00029996,0.00192686,-0.00046148,0.00026613,0.00126272,-0.001
 40181,0.00000248,-0.00005927,0.00018249,-0.00008239,-0.00102201,-0.000
 92414,-0.00183748,0.20517529,-0.00000233,0.00000384,0.00004728,0.00000
 691,-0.00000209,-0.00004108,0.00002802,0.00004021,-0.00012710,-0.00004
 572,-0.00002598,0.00006204,0.00000922,0.00000135,-0.00000696,-0.000603
 13,0.00064526,-0.00004888,-0.00003996,-0.00016461,-0.00005720,0.000004
 65,0.00001082,-0.00000570,-0.00002043,-0.00006073,-0.00000488,-0.00001
 475,0.00006835,-0.00001465,0.00000266,-0.00001155,0.00000845,0.0000089
 5,-0.00010294,-0.00020657,-0.00016060,0.00017345,0.00016924,0.00115323
 ,0.00091448,0.00290144,0.00489881,-0.00052475,-0.00283097,0.14719370,-
 0.19211989,0.05882959,0.01901270,-0.02330924,0.01230659,0.00088660,0.0
 0515843,-0.00071028,0.00025864,-0.00083386,-0.00032661,0.00136058,-0.0
 0077844,-0.00162873,-0.00074570,0.00031391,0.00025131,0.00005899,-0.00
 011362,0.00010464,-0.00414753,-0.00220695,-0.00305688,-0.00002220,0.00
 023150,0.00046667,-0.00019440,0.00010570,0.00000142,-0.00794215,0.0091
 1446,-0.00289889,0.00039659,0.00007242,0.00041000,-0.00003127,-0.00026
 567,-0.00019568,-0.00000827,0.00011055,0.00007824,-0.00000358,-0.00000
 531,-0.00000055,0.00000016,-0.00000458,-0.00000579,-0.00000954,0.00001
 617,0.00001059,0.00000201,0.00000450,-0.00000568,-0.00003347,0.0000001
 9,-0.00002402,-0.00000969,0.00000476,0.00001511,-0.00000616,0.00001504
 ,-0.00001305,-0.00016416,-0.00013522,0.00026219,-0.00091486,0.00109259
 ,-0.00048357,-0.00152470,-0.00144569,-0.00169061,0.00012085,-0.0001077
 1,0.00028935,-0.00183992,-0.00136926,-0.00155262,-0.15329341,0.2088039
 0,-0.00003173,-0.00002620,-0.00002509,0.00003917,0.00004584,0.00001598
 ,0.00003974,-0.00000283,0.00011504,-0.00001613,0.00000095,-0.00003986,
 0.00000068,0.00000778,-0.00000207,0.00060429,-0.00053271,-0.00023036,-
 0.00014776,0.00014432,-0.00001643,-0.00001280,-0.00000118,0.00002781,-
 0.00001947,0.00005062,-0.00006418,-0.00001238,-0.00003061,0.00003807,0
 .00000044,0.00000263,0.00000107,-0.00009481,-0.00009417,-0.00008015,-0
 .00126313,0.00036799,-0.00018149,0.00993397,-0.00510747,-0.00097200,0.
 02461200,-0.01680829,-0.00941097,-0.06216135,0.06414275,-0.06573297,-0
 .00876803,0.00623657,-0.00074072,0.00101099,-0.00132222,0.00092504,0.0
 0018737,-0.00012678,-0.00017616,-0.00098264,0.00038351,0.00078328,0.00
 025820,-0.00027406,-0.00000304,-0.00002707,0.00005813,0.00003590,-0.00
 179318,0.00186869,-0.00122193,0.00082079,0.00010260,0.00047214,-0.0000
 5275,-0.00001740,0.00009988,-0.02020368,0.01590474,-0.00617531,0.00154
 464,-0.00062750,0.00062540,-0.00036291,-0.00009330,0.00006755,0.000109
 56,-0.00007414,-0.00020838,0.00001482,0.00003072,0.00001912,0.00000280
 ,0.00000708,0.00000690,-0.00000476,0.00000267,0.00000842,0.00000255,-0
 .00001931,-0.00000104,-0.00002681,-0.00001740,-0.00007116,-0.00000208,
 0.00000659,0.00000580,-0.00003740,0.00001779,-0.00005498,-0.00016599,0
 .00020633,-0.00015694,0.00042871,0.00007269,-0.00351715,0.00040737,-0.
 00108653,0.00040300,0.00010877,-0.00031344,0.00021140,-0.00198862,-0.0
 0182482,-0.00305292,0.05629564,-0.06240759,0.08881126,0.00002207,0.000
 01351,-0.00005066,-0.00003395,-0.00003378,0.00004234,-0.00003258,-0.00
 002245,0.00001338,0.00004459,0.00003189,-0.00002946,-0.00001047,-0.000
 00786,0.00000778,-0.00002592,-0.00005255,-0.00000113,0.00005392,0.0000
 6249,0.00001709,-0.00001577,0.00000653,-0.00000239,-0.00003629,0.00007
 327,0.00004939,0.00008727,-0.00013600,-0.00000010,-0.00001230,0.000025
 63,-0.00003297,0.00001780,0.00007327,0.00014835,0.00064333,0.00046048,
 -0.00052698,-0.00015421,-0.00036821,-0.00011736,0.00132095,0.00069197,
 -0.00100519,0.00981549,-0.01327168,0.00241850,-0.18167813,0.15448110,-
 0.00012421,-0.02884251,0.01048797,-0.01905311,-0.00078713,-0.00037959,
 0.00210316,-0.01112118,0.01544948,0.00397780,0.00156967,-0.00137999,-0
 .00113316,-0.00005981,0.00028456,-0.00022068,0.00072256,-0.00002606,0.
 00053514,-0.00018492,0.00007481,-0.00025862,0.00002837,0.00004619,0.00
 001958,0.00029816,0.00085229,0.00029654,0.00025512,0.00008031,-0.00008
 849,-0.00087087,-0.00039896,-0.00132894,0.00032030,-0.00023408,0.00013
 876,0.00003332,0.00004388,0.00009882,-0.00000288,0.00000469,-0.0000011
 6,0.00002089,-0.00001327,-0.00002227,-0.00000431,-0.00001190,0.0000128
 6,0.00002229,-0.00005183,0.00006633,0.00001602,-0.00000143,-0.00001977
 ,0.00000571,-0.00000608,-0.00000088,0.00000482,0.00000349,-0.00000643,
 -0.00013257,-0.00000966,0.00004366,-0.00031520,-0.00017768,-0.00004976
 ,0.00003265,-0.00004518,-0.00001965,0.00017677,-0.00015537,-0.00011352
 ,-0.00138077,-0.00274194,0.00131482,0.21030025,0.00000156,0.00001327,-
 0.00001157,-0.00001043,-0.00002239,0.00000891,0.00002703,0.00000350,-0
 .00002423,-0.00001236,0.00001396,0.00000268,0.00000484,-0.00000495,-0.
 00000129,-0.00014070,0.00000902,-0.00004967,-0.00001655,0.00004320,0.0
 0001448,0.00000128,0.00000363,0.00000426,0.00001636,0.00002462,-0.0000
 1368,-0.00001089,-0.00001288,0.00002829,0.00000510,0.00000312,0.000007
 62,0.00006178,0.00004940,0.00002287,-0.00014322,-0.00003557,0.00003114
 ,0.00032363,-0.00008724,0.00031891,-0.00014016,0.00385217,-0.00107567,
 0.02141892,-0.02802410,0.00188199,0.15440897,-0.21060639,0.00670830,-0
 .01211034,0.01262195,-0.00232696,0.00041927,0.00067004,0.00055632,0.00
 290569,-0.00228182,-0.00114899,0.00052757,0.00182558,-0.00087040,-0.00
 011515,-0.00003502,-0.00010594,0.00031716,-0.00000894,0.00024721,-0.00
 042156,-0.00016495,-0.00022044,0.00000853,-0.00000667,-0.00002587,0.00
 156097,0.00049779,0.00091336,-0.00047307,0.00004583,-0.00044552,0.0012
 4438,-0.00020022,0.00048914,-0.00034470,0.00028093,-0.00001598,0.00000
 824,-0.00009843,-0.00004607,0.00000022,-0.00000421,-0.00000242,-0.0000
 0490,-0.00000376,0.00001104,-0.00000424,-0.00000734,0.00000273,-0.0000
 1688,-0.00000595,-0.00001779,-0.00000091,0.00000664,0.00000332,-0.0000
 0719,0.00000602,-0.00000638,-0.00004399,-0.00001877,0.00005443,-0.0001
 9380,0.00009947,-0.00034128,-0.00039687,0.00023920,-0.00022065,0.00003
 295,0.00000438,0.00000285,-0.00093056,0.00008383,-0.00049266,-0.002913
 73,-0.00382815,0.00144150,-0.16384785,0.22412708,0.00001049,-0.0000054
 7,0.00000638,0.00000452,-0.00000866,0.00001470,-0.00002572,-0.00001212
 ,0.00000003,0.00001616,0.00000106,0.00000262,-0.00000434,0.00000016,0.
 00000261,-0.00000010,0.00002009,0.00003264,0.00001990,-0.00002122,0.00
 000156,-0.00000138,0.00000056,-0.00000460,-0.00002175,0.00004580,0.000
 01351,0.00010691,-0.00005408,0.00002312,-0.00001319,0.00000762,0.00000
 557,-0.00014632,0.00003120,-0.00002169,0.00059186,-0.00000642,-0.00028
 759,-0.00054884,0.00024084,-0.00056204,-0.00119659,-0.00132936,0.00110
 143,-0.00491922,0.01186305,0.00085348,0.00198803,0.00532362,-0.0404616
 6,-0.03157463,0.01189772,-0.01211248,-0.00152159,0.00085797,0.00147571
 ,0.02542873,-0.02702659,-0.00316009,-0.00264742,0.00161876,0.00197150,
 0.00013524,-0.00005331,-0.00022534,0.00003659,0.00001368,0.00010372,0.
 00012009,0.00013248,0.00002391,0.00002490,0.00002158,0.00002463,0.0001
 5083,-0.00040656,-0.00036796,-0.00045513,-0.00004780,-0.00027051,0.001
 99778,-0.00051989,0.00207686,-0.00034803,0.00034351,-0.00003625,-0.000
 10661,0.00005303,-0.00003434,-0.00000056,0.00000155,-0.00000114,0.0000
 1169,-0.00000905,-0.00002029,0.00000183,-0.00000220,0.00001614,0.00004
 216,-0.00003699,0.00006296,0.00001336,-0.00000429,-0.00001668,0.000008
 21,-0.00000765,0.00000884,0.00003810,0.00001252,-0.00002665,0.00011081
 ,-0.00013226,0.00006968,0.00004224,-0.00008079,0.00003605,-0.00000670,
 -0.00000245,0.00000359,0.00008640,-0.00010439,0.00012482,0.00071121,0.
 00167077,-0.00028430,0.00946421,-0.00436526,0.05590335,0.00000027,-0.0
 0001174,0.00000544,0.00000204,0.00000859,-0.00000592,-0.00001008,0.000
 00644,0.00000597,0.00000397,-0.00001136,-0.00000193,-0.00000147,0.0000
 0440,-0.00000033,0.00001888,0.00002117,-0.00000213,0.00000431,-0.00003
 263,-0.00000400,-0.00000204,0.00000225,-0.00000059,0.00000434,0.000023
 33,-0.00001625,0.00001239,-0.00001558,0.00001881,-0.00000561,0.0000006
 8,0.00000251,-0.00002245,-0.00000157,-0.00002479,0.00003624,-0.0000355
 9,-0.00002270,-0.00005341,0.00014724,-0.00000927,0.00024273,-0.0003860
 5,0.00007550,0.00020978,0.00143789,-0.00046444,-0.01576023,0.01430853,
 0.00281372,0.00218060,-0.00109147,-0.00025209,0.00003130,-0.00011710,-
 0.00012977,-0.18738191,0.15786556,-0.01753300,0.01071024,-0.02844214,0
 .00612245,0.00197217,-0.00041247,0.00012135,-0.00025091,0.00006084,-0.
 00013660,0.00009547,-0.00003375,0.00003618,-0.00003174,-0.00001107,-0.
 00000084,-0.00093601,-0.00019595,0.00042469,0.00251677,-0.00037627,0.0
 0105236,-0.02093011,0.01855858,-0.00519546,0.00207917,-0.00085585,0.00
 111891,0.00020248,0.00002672,0.00042203,-0.00000036,0.00000350,0.00000
 027,-0.00000035,-0.00000275,-0.00000159,0.00000169,-0.00000147,0.00000
 369,0.00000781,-0.00000004,0.00000839,0.00000265,-0.00000290,-0.000003
 05,0.00000386,-0.00000365,0.00000305,0.00000876,0.00000172,-0.00000798
 ,0.00002318,-0.00002074,0.00003699,0.00003648,-0.00013413,0.00006806,0
 .00005380,-0.00000806,0.00002659,0.00024956,0.00003227,-0.00003265,-0.
 00001404,-0.00075538,0.00034528,-0.00081754,-0.00042298,0.00314716,0.2
 0758246,-0.00000084,0.00001096,0.00000387,0.00000229,0.00000068,0.0000
 0186,0.00001586,-0.00000084,-0.00000891,-0.00000728,0.00000721,0.00000
 331,0.00000282,-0.00000293,-0.00000190,-0.00002364,-0.00001301,-0.0000
 1828,-0.00000563,0.00001979,0.00000307,0.00000273,-0.00000198,-0.00000
 101,-0.00001202,-0.00004959,0.00001959,0.00000206,0.00005638,-0.000030
 97,0.00000159,-0.00001074,0.00001120,0.00002043,-0.00002491,-0.0000050
 4,-0.00004357,-0.00000279,0.00004495,0.00013825,-0.00005200,0.00004495
 ,0.00007614,0.00025454,-0.00038775,-0.00059294,-0.00048458,0.00025514,
 0.00715782,-0.00077265,-0.00134586,-0.00072151,0.00048395,0.00029801,-
 0.00018622,0.00011328,-0.00005484,0.15574118,-0.19718168,0.01119229,0.
 00136762,-0.04614050,0.01131673,0.00081135,-0.00001958,0.00084440,0.00
 008019,-0.00006082,0.00009531,-0.00004625,0.00001755,-0.00001263,0.000
 01541,0.00000681,0.00000234,0.00021505,0.00013211,-0.00005642,-0.00082
 005,0.00171143,-0.00085644,-0.00514477,0.00454447,-0.00115648,0.000330
 15,0.00036171,0.00061966,-0.00024175,0.00012693,0.00016884,0.00000004,
 -0.00000458,-0.00000088,0.00000038,0.00000682,-0.00000241,0.00000013,0
 .00000438,-0.00000736,-0.00000620,0.00000490,-0.00000684,-0.00000466,0
 .00000208,0.00000362,-0.00000453,0.00000384,-0.00000176,-0.00000896,0.
 00000005,0.00000554,-0.00001162,0.00002147,-0.00002446,-0.00006548,0.0
 0002649,-0.00001106,-0.00002615,-0.00001197,-0.00000678,-0.00000230,-0
 .00003222,0.00000285,0.00027318,0.00049387,-0.00018976,0.00014166,0.00
 077980,-0.00026642,-0.15713699,0.23600752,-0.00000623,-0.00000105,-0.0
 0000297,0.00000314,0.00000427,-0.00000154,0.00001477,0.00000157,0.0000
 0162,-0.00000778,-0.00000323,-0.00000479,0.00000246,0.00000125,-0.0000
 0204,-0.00001820,0.00000292,-0.00001482,-0.00000925,0.00000409,-0.0000
 0673,0.00000010,-0.00000157,0.00000308,0.00000977,-0.00000037,-0.00001
 078,-0.00003300,0.00000769,0.00000439,0.00000711,-0.00000154,-0.000001
 10,0.00002632,0.00000233,0.00000231,-0.00020964,-0.00009883,0.00011080
 ,0.00015597,-0.00001875,0.00011598,-0.00043068,0.00034733,-0.00020984,
 -0.00013822,-0.00104011,0.00122054,0.02884704,-0.02497274,-0.00347264,
 -0.00128427,0.00151081,0.00351688,0.00028746,0.00029493,0.00005422,-0.
 01586341,0.01024343,-0.04526115,-0.00121966,0.01484894,0.00164071,0.00
 012270,-0.00089459,0.00040080,0.00002015,0.00001474,0.00013436,0.00001
 895,0.00001970,-0.00002640,0.00000127,0.00000713,0.00000657,0.00015545
 ,-0.00004807,-0.00025312,0.00285087,0.00040416,0.00095271,-0.02534164,
 0.02008248,-0.00458625,0.00183262,0.00017345,0.00202335,0.00024805,0.0
 0009140,0.00044725,0.00000049,-0.00000003,0.00000095,-0.00000443,0.000
 00117,0.00000701,-0.00000067,-0.00000153,-0.00000325,-0.00000994,0.000
 00745,-0.00002134,-0.00000298,0.00000121,0.00000395,-0.00000208,0.0000
 0275,-0.00000062,-0.00000679,-0.00000435,0.00000785,-0.00001643,0.0000
 2807,-0.00003243,0.00000974,0.00003540,0.00001027,-0.00001072,-0.00001
 958,-0.00000460,-0.00005165,0.00004334,-0.00014734,-0.00003036,0.00056
 025,-0.00035024,0.00275058,-0.00042237,-0.00589138,0.01068456,-0.01935
 097,0.05303054,0.00000796,-0.00000126,-0.00000467,-0.00001263,-0.00000
 127,0.00000352,-0.00000843,0.00000056,0.00000413,0.00001094,0.00000103
 ,-0.00000531,-0.00000300,0.00000111,0.00000075,-0.00001420,-0.00000931
 ,0.00000001,0.00002149,0.00000442,0.00000998,-0.00000605,0.00000402,-0
 .00000278,-0.00000601,0.00001665,0.00000376,0.00001757,-0.00002851,0.0
 0000293,-0.00000830,0.00000740,-0.00000772,0.00000257,0.00001892,0.000
 02755,0.00009375,0.00003636,-0.00008696,-0.00007928,-0.00000645,-0.000
 01918,0.00023468,0.00009532,0.00001535,-0.00041182,-0.00026830,0.00004
 419,-0.00099044,0.00043468,0.00139979,0.00056862,-0.00036784,-0.000429
 06,-0.00010724,-0.00009276,0.00005342,-0.01513816,0.01829108,-0.007243
 24,0.00155140,-0.00095976,0.00107588,0.00025068,-0.00007754,0.00017829
 ,-0.00015563,-0.00000719,0.00015050,0.00003139,-0.00002864,-0.00001810
 ,-0.00001377,0.00002148,0.00001746,0.00231710,-0.00015456,-0.00241154,
 0.01387997,-0.01849011,0.00662720,-0.20974563,0.15124785,-0.04633062,-
 0.01033179,0.01320995,0.00837666,0.00053266,-0.00083244,0.00019565,-0.
 00000165,0.00000237,-0.00000134,0.00000419,-0.00000184,-0.00000406,-0.
 00000013,-0.00000221,0.00000290,0.00000174,-0.00000536,0.00000359,0.00
 000341,-0.00000194,-0.00000318,0.00000279,-0.00000259,0.00000143,0.000
 00539,0.00000016,-0.00000580,0.00000759,-0.00001046,0.00000878,-0.0000
 5717,0.00004775,0.00000748,-0.00010902,-0.00007678,0.00000078,-0.00025
 268,0.00082549,-0.00061292,-0.00006167,-0.00012801,0.00009289,0.000706
 97,-0.00057144,-0.00077129,-0.00207514,-0.00128294,-0.00335155,0.21933
 699,0.00001246,0.00001879,0.00001789,-0.00000762,-0.00002035,-0.000004
 98,-0.00000477,-0.00000373,-0.00002372,-0.00000233,0.00001427,0.000028
 92,0.00000114,-0.00000504,-0.00000092,0.00000637,-0.00004648,0.0000063
 6,0.00001575,0.00003841,0.00004897,-0.00000002,0.00000389,-0.00000652,
 -0.00000457,-0.00004014,0.00002596,0.00000498,0.00003152,-0.00002225,0
 .00000191,-0.00000455,0.00000109,-0.00000975,0.00001072,-0.00001557,0.
 00008964,0.00012437,0.00002218,-0.00013043,-0.00011774,-0.00013021,0.0
 0018411,0.00017262,0.00034091,-0.00064186,-0.00041136,-0.00001386,-0.0
 0023254,0.00026964,0.00092143,-0.00000008,-0.00000116,-0.00041006,-0.0
 0001773,-0.00015085,0.00012564,-0.00720781,0.00940739,-0.00328769,0.00
 189158,0.00103590,0.00085832,0.00033133,0.00014924,-0.00001508,-0.0006
 7188,0.00034840,0.00075650,-0.00012923,-0.00003716,-0.00003537,0.00004
 538,0.00003581,0.00002596,0.00301430,-0.00071017,-0.00357491,0.0088404
 6,-0.03575995,0.01384528,0.15009813,-0.17859005,0.03476709,0.00804310,
 -0.00198509,-0.00570859,0.00043643,-0.00028502,0.00009585,-0.00000109,
 -0.00000730,-0.00000477,0.00000143,0.00000275,-0.00000166,-0.00000009,
 0.00000748,-0.00000136,-0.00000080,-0.00000302,0.00000578,-0.00000118,
 0.00000342,0.00000213,-0.00000181,0.00000142,-0.00000049,-0.00000320,0
 .00000375,-0.00000234,-0.00000926,0.00000495,0.00001094,0.00003516,0.0
 0020793,-0.00020052,-0.00019588,-0.00031716,0.00010016,-0.00098895,0.0
 0037500,0.00095943,0.00007245,0.00002049,-0.00010478,-0.00001607,0.000
 15333,0.00034564,-0.00199006,-0.00033166,-0.00186260,-0.16085709,0.206
 38648,-0.00000290,-0.00000279,-0.00002455,-0.00000365,0.00000427,0.000
 01571,-0.00000279,-0.00000190,0.00002114,0.00001151,0.00000439,-0.0000
 2688,-0.00000259,-0.00000103,0.00000305,-0.00001261,-0.00001182,-0.000
 00452,0.00000961,0.00001482,-0.00001709,-0.00000333,-0.00000488,0.0000
 0224,-0.00000643,0.00001562,0.00000215,0.00000744,-0.00002020,-0.00000
 163,-0.00000275,0.00000542,-0.00000371,0.00002101,0.00000903,0.0000472
 9,0.00002132,-0.00001495,-0.00010634,0.00003112,0.00001588,0.00009103,
 0.00012816,-0.00000440,-0.00022834,-0.00007592,0.00005136,-0.00010808,
 -0.00112507,0.00109238,0.00191626,0.00042961,-0.00040856,-0.00016803,-
 0.00000307,-0.00003613,0.00007890,-0.02000970,0.01596715,-0.00280159,0
 .00048568,-0.00116649,0.00048387,0.00016997,-0.00010612,0.00008413,0.0
 0019556,-0.00005523,-0.00011336,0.00004564,0.00003419,0.00002918,-0.00
 001616,-0.00001321,-0.00001685,-0.00167926,-0.00000135,0.00235654,-0.0
 0333411,0.01368580,-0.00059548,-0.04871830,0.03801706,-0.05540439,0.03
 055464,-0.02747705,-0.01039076,0.00128458,0.00058697,0.00206634,0.0000
 0035,0.00000353,0.00000330,0.00000383,-0.00000176,-0.00000283,-0.00000
 152,-0.00000421,-0.00000032,-0.00000010,-0.00000206,-0.00000090,0.0000
 0156,-0.00000157,-0.00000292,0.00000120,-0.00000152,-0.00000015,0.0000
 0261,0.00000130,-0.00000198,0.00000084,-0.00000818,0.00000974,0.000036
 34,-0.00013211,0.00006314,0.00005630,0.00004900,-0.00001155,0.00047668
 ,-0.00046328,-0.00007574,0.00003101,-0.00010063,0.00009681,0.00068782,
 -0.00050023,-0.00017442,-0.00269854,-0.00113234,-0.00339078,0.04300445
 ,-0.03788417,0.06630236\\0.00876982,-0.00319983,-0.01161180,-0.0159983
 7,-0.02587262,-0.00271722,0.04773895,0.01258850,0.02739421,-0.02188919
 ,0.00315938,0.00649834,-0.00354333,-0.00765799,-0.03591026,-0.04325720
 ,-0.02815006,0.03389275,-0.00567793,-0.02122312,-0.01072772,0.01492544
 ,0.02660541,-0.01722876,0.01096847,0.02845103,-0.01570747,0.00860458,0
 .01135320,0.00955521,-0.00570210,-0.02177167,-0.02214523,-0.00507737,0
 .02055516,0.00502480,-0.00612259,0.00984476,-0.00001835,-0.02356738,0.
 00149299,0.01989823,0.03973216,0.00778062,0.03320816,-0.00009684,0.016
 25041,-0.05386800,-0.00063667,0.03041074,0.03206387,-0.00043726,-0.002
 65235,0.00298929,0.01267724,0.00620880,-0.01737806,0.03966591,-0.02300
 485,-0.00572214,-0.00318352,0.00872319,0.01815389,-0.02614311,-0.00676
 652,-0.01533649,-0.01626745,-0.03721789,-0.01130608,-0.01412790,-0.008
 56354,-0.01896373,0.01635370,0.03488377,0.00355355,-0.02070571,-0.0361
 3677,-0.00899215,0.00330926,0.00494312,0.03573992,0.00025182,-0.031876
 21,-0.02750198,0.02007021,0.02830395,0.02155808,-0.00788279,-0.0004507
 4,0.00096186,-0.00221004,0.00391527,0.00390977,-0.01438805,0.00775341,
 0.00644094,0.01066109,-0.00716974,0.01482904,0.01562168,-0.01126761,-0
 .00457699,-0.01541114,0.01080412,0.00072799,0.01925092,-0.01431349,-0.
 00239660,-0.01815993,0.01275094,-0.00573765,0.01495372,-0.00934667,-0.
 00249057,0.01863472,-0.00864569,0.00249651,-0.00568903,0.00455943,0.01
 497975,-0.01730511,0.01296396,-0.00071477,0.01292993,-0.00896303,0.003
 19568,-0.01856254,0.01666980,-0.00055419,0.01320639,-0.02114274,-0.001
 06842,-0.01628348,0.01442115,-0.00439721\\\@


 IT WAS A GAME, A VERY INTERESTING GAME ONE COULD
 PLAY.  WHENEVER ONE SOLVED ONE OF THE LITTLE PROBLEMS,
 ONE COULD WRITE A PAPER ABOUT IT.  IT WAS VERY EASY IN
 THOSE DAYS FOR ANY SECOND-RATE PHYSICIST TO DO
 FIRST-RATE WORK.  THERE HAS NOT BEEN SUCH A GLORIOUS
 TIME SINCE.  IT IS VERY DIFFICULT NOW FOR A FIRST-RATE
 PHYSICIST TO DO SECOND-RATE WORK.
     P.A.M. DIRAC, ON THE EARLY DAYS OF QUANTUM MECHANICS
                   DIRECTIONS IN PHYSICS, 1978, P. 7
 Job cpu time:  0 days 12 hours 57 minutes 21.7 seconds.
 File lengths (MBytes):  RWF=   1323 Int=      0 D2E=      0 Chk=     19 Scr=      1
 Normal termination of Gaussian 09 at Tue Mar  1 16:25:39 2016.
Gaussian '09 finished on node018 at Tue Mar  1 16:25:39 EST 2016.
