Gaussian '09 started on node015 at Sat Oct 17 22:00:58 EDT 2015.
 Entering Gaussian System, Link 0=/usr/local/gaussian/g09/g09
 Initial command:
 /usr/local/gaussian/g09/l1.exe /home/srmcgrat/data/gaussian/cellobiose/450/6-31gdp/9000ps/gaussian9430/Gau-9466.inp -scrdir=/home/srmcgrat/data/gaussian/cellobiose/450/6-31gdp/9000ps/gaussian9430/
 Entering Link 1 = /usr/local/gaussian/g09/l1.exe PID=      9468.
  
 Copyright (c) 1988,1990,1992,1993,1995,1998,2003,2009,2010,
            Gaussian, Inc.  All Rights Reserved.
  
 This is part of the Gaussian(R) 09 program.  It is based on
 the Gaussian(R) 03 system (copyright 2003, Gaussian, Inc.),
 the Gaussian(R) 98 system (copyright 1998, Gaussian, Inc.),
 the Gaussian(R) 94 system (copyright 1995, Gaussian, Inc.),
 the Gaussian 92(TM) system (copyright 1992, Gaussian, Inc.),
 the Gaussian 90(TM) system (copyright 1990, Gaussian, Inc.),
 the Gaussian 88(TM) system (copyright 1988, Gaussian, Inc.),
 the Gaussian 86(TM) system (copyright 1986, Carnegie Mellon
 University), and the Gaussian 82(TM) system (copyright 1983,
 Carnegie Mellon University). Gaussian is a federally registered
 trademark of Gaussian, Inc.
  
 This software contains proprietary and confidential information,
 including trade secrets, belonging to Gaussian, Inc.
  
 This software is provided under written license and may be
 used, copied, transmitted, or stored only in accord with that
 written license.
  
 The following legend is applicable only to US Government
 contracts under FAR:
  
                    RESTRICTED RIGHTS LEGEND
  
 Use, reproduction and disclosure by the US Government is
 subject to restrictions as set forth in subparagraphs (a)
 and (c) of the Commercial Computer Software - Restricted
 Rights clause in FAR 52.227-19.
  
 Gaussian, Inc.
 340 Quinnipiac St., Bldg. 40, Wallingford CT 06492
  
  
 ---------------------------------------------------------------
 Warning -- This program may not be used in any manner that
 competes with the business of Gaussian, Inc. or will provide
 assistance to any competitor of Gaussian, Inc.  The licensee
 of this program is prohibited from giving any competitor of
 Gaussian, Inc. access to this program.  By using this program,
 the user acknowledges that Gaussian, Inc. is engaged in the
 business of creating and licensing software in the field of
 computational chemistry and represents and warrants to the
 licensee that it is not a competitor of Gaussian, Inc. and that
 it will not use this program in any manner prohibited above.
 ---------------------------------------------------------------
  

 Cite this work as:
 Gaussian 09, Revision B.01,
 M. J. Frisch, G. W. Trucks, H. B. Schlegel, G. E. Scuseria, 
 M. A. Robb, J. R. Cheeseman, G. Scalmani, V. Barone, B. Mennucci, 
 G. A. Petersson, H. Nakatsuji, M. Caricato, X. Li, H. P. Hratchian, 
 A. F. Izmaylov, J. Bloino, G. Zheng, J. L. Sonnenberg, M. Hada, 
 M. Ehara, K. Toyota, R. Fukuda, J. Hasegawa, M. Ishida, T. Nakajima, 
 Y. Honda, O. Kitao, H. Nakai, T. Vreven, J. A. Montgomery, Jr., 
 J. E. Peralta, F. Ogliaro, M. Bearpark, J. J. Heyd, E. Brothers, 
 K. N. Kudin, V. N. Staroverov, T. Keith, R. Kobayashi, J. Normand, 
 K. Raghavachari, A. Rendell, J. C. Burant, S. S. Iyengar, J. Tomasi, 
 M. Cossi, N. Rega, J. M. Millam, M. Klene, J. E. Knox, J. B. Cross, 
 V. Bakken, C. Adamo, J. Jaramillo, R. Gomperts, R. E. Stratmann, 
 O. Yazyev, A. J. Austin, R. Cammi, C. Pomelli, J. W. Ochterski, 
 R. L. Martin, K. Morokuma, V. G. Zakrzewski, G. A. Voth, 
 P. Salvador, J. J. Dannenberg, S. Dapprich, A. D. Daniels, 
 O. Farkas, J. B. Foresman, J. V. Ortiz, J. Cioslowski, 
 and D. J. Fox, Gaussian, Inc., Wallingford CT, 2010.
 
 ******************************************
 Gaussian 09:  EM64L-G09RevB.01 12-Aug-2010
                17-Oct-2015 
 ******************************************
 -------------------------------
 ## freq=raman b3lyp/6-31+g(d,p)
 -------------------------------
 1/10=4,30=1,38=1/1,3;
 2/12=2,17=6,18=5,40=1/2;
 3/5=1,6=6,7=111,11=2,16=1,25=1,30=1,71=2,74=-5/1,2,3;
 4//1;
 5/5=2,38=5,98=1/2;
 8/6=4,10=90,11=11/1;
 10/13=10,15=4/2;
 11/6=3,8=1,9=11,15=111,16=1/1,2,10;
 10/6=1/2;
 6/7=2,8=2,9=2,10=2,18=1,28=1/1;
 7/8=1,10=1,25=1/1,2,3,16;
 1/10=4,30=1/3;
 99//99;
 -----------------------------
 450K 9000ps Cellobiose Unit 1
 -----------------------------
 Symbolic Z-matrix:
 Charge =  0 Multiplicity = 1
 O(PDBName=O1,ResName=GLC,ResNum=6)  10.526    8.385     32.365 
 C(PDBName=C4,ResName=GLC,ResNum=7)  11.333    8.364     33.551 
 C(PDBName=C3,ResName=GLC,ResNum=7)  11.469    9.815     33.982 
 O(PDBName=O3,ResName=GLC,ResNum=7)  12.321    10.539    33.083 
 H(PDBName=HO3,ResName=GLC,ResNum=7)  12.292    10.203    32.142 
 C(PDBName=C2,ResName=GLC,ResNum=7)  12.013    9.957     35.395 
 O(PDBName=O2,ResName=GLC,ResNum=7)  11.89     11.255    35.993 
 H(PDBName=HO2,ResName=GLC,ResNum=7)  12.269    11.855    35.288 
 C(PDBName=C6,ResName=GLC,ResNum=7)  10.538    6.041     34.095 
 O(PDBName=O6,ResName=GLC,ResNum=7)  10.223    5.014     35.047 
 H(PDBName=HO6,ResName=GLC,ResNum=7)  10.351    4.124     34.609 
 C(PDBName=C5,ResName=GLC,ResNum=7)  10.659    7.475     34.584 
 O(PDBName=O5,ResName=GLC,ResNum=7)  11.365    7.655     35.82 
 C(PDBName=C1,ResName=GLC,ResNum=7)  11.39     8.978     36.376 
 O(PDBName=O1,ResName=GLC,ResNum=7)  12.121    8.961     37.611 
 C(PDBName=C4,ResName=GLC,ResNum=8)  11.241    8.853     38.739 
 C(PDBName=C3,ResName=GLC,ResNum=8)  10.798    7.442     39.091 
 O(PDBName=O3,ResName=GLC,ResNum=8)  9.895     7.011     38.062 
 H(PDBName=HO3,ResName=GLC,ResNum=8)  10.49     7.146     37.27 
 C(PDBName=C2,ResName=GLC,ResNum=8)  9.969     7.435     40.365 
 O(PDBName=O2,ResName=GLC,ResNum=8)  9.337     6.165     40.583 
 H(PDBName=HO2,ResName=GLC,ResNum=8)  8.522     6.147     40.003 
 C(PDBName=C6,ResName=GLC,ResNum=8)  12.637    10.584    39.645 
 O(PDBName=O6,ResName=GLC,ResNum=8)  12.135    11.782    40.255 
 H(PDBName=HO6,ResName=GLC,ResNum=8)  12.347    12.614    39.742 
 C(PDBName=C5,ResName=GLC,ResNum=8)  12.08     9.205     39.957 
 O(PDBName=O5,ResName=GLC,ResNum=8)  11.421    9.102     41.228 
 C(PDBName=C1,ResName=GLC,ResNum=8)  10.929    7.78      41.492 
 O(PDBName=O1,ResName=GLC,ResNum=8)  10.248    7.875     42.751 
 H                     11.09433   8.3987    31.59143 
 H                     10.8927   7.92852   43.4603 
 
 Residue   4                        charge    0.00000000 ave dist*************
 Residue   2 PDB Number     7_0 GLC charge    0.00000000 ave dist*************
 Residue   3 PDB Number     8_0 GLC charge    0.00000000 ave dist*************
 Residue   1 PDB Number     6_0 GLC charge    0.00000000 ave dist*************

 GradGradGradGradGradGradGradGradGradGradGradGradGradGradGradGradGradGrad
 Berny optimization.
 Initialization pass.
 Trust Radius=3.00D-01 FncErr=1.00D-07 GrdErr=1.00D-07
 Number of steps in this run=      2 maximum allowed number of steps=      2.
 GradGradGradGradGradGradGradGradGradGradGradGradGradGradGradGradGradGrad

                          Input orientation:                          
 ---------------------------------------------------------------------
 Center     Atomic      Atomic             Coordinates (Angstroms)
 Number     Number       Type             X           Y           Z
 ---------------------------------------------------------------------
      1          8           0       10.526000    8.385000   32.365000
      2          6           0       11.333000    8.364000   33.551000
      3          6           0       11.469000    9.815000   33.982000
      4          8           0       12.321000   10.539000   33.083000
      5          1           0       12.292000   10.203000   32.142000
      6          6           0       12.013000    9.957000   35.395000
      7          8           0       11.890000   11.255000   35.993000
      8          1           0       12.269000   11.855000   35.288000
      9          6           0       10.538000    6.041000   34.095000
     10          8           0       10.223000    5.014000   35.047000
     11          1           0       10.351000    4.124000   34.609000
     12          6           0       10.659000    7.475000   34.584000
     13          8           0       11.365000    7.655000   35.820000
     14          6           0       11.390000    8.978000   36.376000
     15          8           0       12.121000    8.961000   37.611000
     16          6           0       11.241000    8.853000   38.739000
     17          6           0       10.798000    7.442000   39.091000
     18          8           0        9.895000    7.011000   38.062000
     19          1           0       10.490000    7.146000   37.270000
     20          6           0        9.969000    7.435000   40.365000
     21          8           0        9.337000    6.165000   40.583000
     22          1           0        8.522000    6.147000   40.003000
     23          6           0       12.637000   10.584000   39.645000
     24          8           0       12.135000   11.782000   40.255000
     25          1           0       12.347000   12.614000   39.742000
     26          6           0       12.080000    9.205000   39.957000
     27          8           0       11.421000    9.102000   41.228000
     28          6           0       10.929000    7.780000   41.492000
     29          8           0       10.248000    7.875000   42.751000
     30          1           0       11.094334    8.398697   31.591431
     31          1           0       10.892698    7.928521   43.460296
 ---------------------------------------------------------------------
                    Distance matrix (angstroms):
                    1          2          3          4          5
     1  O    0.000000
     2  C    1.434673   0.000000
     3  C    2.355597   1.519756   0.000000
     4  O    2.894351   2.434295   1.434671   0.000000
     5  H    2.544329   2.507366   2.052675   0.999609   0.000000
     6  C    3.723339   2.529898   1.520746   2.403941   3.274197
     7  O    4.822839   3.825114   2.508976   3.027626   4.012295
     8  H    4.860337   4.010031   2.550928   2.568382   3.553442
     9  C    2.913311   2.514814   3.888780   4.943201   4.920668
    10  O    4.318399   3.833095   5.073100   6.227722   6.296468
    11  H    4.818950   4.478983   5.833570   6.881991   6.841623
    12  C    2.402030   1.520423   2.548353   3.795173   4.008995
    13  O    3.629579   2.377407   2.838073   4.089323   4.569389
    14  C    4.145632   2.891517   2.537330   3.761294   4.498998
    15  O    5.513285   4.178631   3.784714   4.799257   5.610861
    16  C    6.431028   5.211807   4.858650   5.999944   6.815241
    17  C    6.797228   5.641623   5.673028   6.928709   7.625205
    18  O    5.894221   4.924183   5.194833   6.566788   7.140089
    19  H    5.059194   4.003141   4.346602   5.691747   6.236091
    20  C    8.075441   7.011001   6.975463   8.257981   8.981975
    21  O    8.595211   7.633390   7.838439   9.180748   9.812642
    22  H    8.207539   7.378693   7.641431   9.033740   9.615579
    23  C    7.892422   6.615561   5.833108   6.569758   7.520585
    24  O    8.739599   7.567664   6.607812   7.281293   8.266720
    25  H    8.696011   7.577544   6.463968   6.974854   7.973453
    26  C    7.792675   6.504008   6.037056   7.006391   7.881318
    27  O    8.936883   7.712893   7.281153   8.319615   9.193815
    28  C    9.155903   7.972688   7.799546   8.958852   9.754548
    29  O   10.402230   9.276656   9.063653  10.240334  11.052077
    30  H    0.960000   1.974355   2.803767   2.882774   2.234511
    31  H   11.110735   9.928628   9.681375  10.795504  11.629063
                    6          7          8          9         10
     6  C    0.000000
     7  O    1.434412   0.000000
     8  H    1.918173   1.000333   0.000000
     9  C    4.381858   5.711051   6.182411   0.000000
    10  O    5.268629   6.528697   7.144472   1.435360   0.000000
    11  H    6.115875   7.425304   7.994256   1.993503   1.000164
    12  C    2.941320   4.217706   4.719334   1.519907   2.541847
    13  O    2.428937   3.642191   4.329000   2.502908   2.979358
    14  C    1.519517   2.362502   3.198986   3.815080   4.340671
    15  O    2.431941   2.816686   3.713956   4.836791   5.074969
    16  C    3.605154   3.705580   4.688090   5.474330   5.422648
    17  C    4.632695   5.032796   6.008429   5.195230   4.751815
    18  O    4.503080   5.125653   6.065912   4.134179   3.631228
    19  H    3.706329   4.524888   5.409977   3.362135   3.091673
    20  C    5.936272   6.115311   7.113531   6.448248   5.848665
    21  O    6.961005   7.313960   8.307211   6.599388   5.723381
    22  H    6.923644   7.315408   8.297741   6.243393   5.360879
    23  C    4.341083   3.787526   4.553495   7.473095   7.615373
    24  O    5.192794   4.301441   4.969343   8.570594   8.751276
    25  H    5.105645   4.013818   4.518881   8.852424   9.182287
    26  C    4.624050   4.466755   5.371944   6.837522   6.717219
    27  O    5.924979   5.679841   6.601645   7.812112   7.506778
    28  C    6.564129   6.575572   7.542602   7.608719   7.048916
    29  O    7.846062   7.732472   8.696046   8.852909   8.218124
    30  H    4.211816   5.307105   5.195238   3.483691   4.914912
    31  H    8.391591   8.235325   9.170489   9.560194   8.928968
                   11         12         13         14         15
    11  H    0.000000
    12  C    3.365218   0.000000
    13  O    3.868162   1.434759   0.000000
    14  C    5.269073   2.450435   1.435301   0.000000
    15  O    5.961667   3.675373   2.341976   1.435226   0.000000
    16  C    6.341328   4.416065   3.157711   2.370990   1.434729
    17  C    5.594395   4.509264   3.326605   3.175057   2.499618
    18  O    4.523927   3.591027   2.757209   2.991105   2.993489
    19  H    4.028986   2.711346   1.768391   2.228331   2.463872
    20  C    6.651329   5.822170   4.759647   4.506907   3.813698
    21  O    6.393947   6.281066   5.386934   5.461376   4.939743
    22  H    6.044254   5.974606   5.277708   5.421726   5.156846
    23  C    8.504040   6.260358   4.982735   3.849754   2.652836
    24  O    9.680131   7.272487   6.106902   4.843974   3.866390
    25  H   10.119872   7.474198   6.398288   5.046415   4.235168
    26  C    7.576748   5.820762   4.475321   3.653928   2.359011
    27  O    8.350841   6.882624   5.598518   4.853683   3.686810
    28  C    7.815121   6.919999   5.690106   5.274579   4.228213
    29  O    8.965086   8.187112   7.023877   6.569733   5.577376
    30  H    5.285008   3.161993   4.301993   4.828572   6.132327
    31  H    9.649521   8.890946   7.659765   7.178855   6.065394
                   16         17         18         19         20
    16  C    0.000000
    17  C    1.520222   0.000000
    18  O    2.379708   1.435274   0.000000
    19  H    2.373986   1.870433   0.999757   0.000000
    20  C    2.504513   1.519989   2.342875   3.151823   0.000000
    21  O    3.775036   2.447716   2.717079   3.642491   1.435217
    22  H    4.038947   2.772895   2.529645   3.512878   1.970735
    23  C    2.401252   3.682526   4.773969   4.697880   4.189609
    24  O    3.417094   4.688077   5.708703   5.754020   4.857990
    25  H    4.046525   5.438087   6.342579   6.281581   5.732805
    26  C    1.520312   2.345559   3.630274   3.739993   2.784903
    27  O    2.507892   2.776778   4.089561   4.512035   2.373176
    28  C    2.971142   2.428210   3.664071   4.291848   1.520116
    29  O    4.247196   3.726337   4.780986   5.534561   2.442220
    30  H    7.163494   7.566150   6.725501   5.846419   8.897786
    31  H    4.823547   4.397319   5.565864   6.252541   3.267665
                   21         22         23         24         25
    21  O    0.000000
    22  H    1.000474   0.000000
    23  C    5.594408   6.062042   0.000000
    24  O    6.283874   6.698544   1.435029   0.000000
    25  H    7.166379   7.518034   2.052903   1.000168   0.000000
    26  C    4.142164   4.691785   1.519616   2.594756   3.426192
    27  O    3.658558   4.317042   2.486135   2.939205   3.924260
    28  C    2.443148   3.267638   3.767106   4.358969   5.332990
    29  O    2.907618   3.676488   4.763742   5.005540   5.993163
    30  H    9.430055   9.079732   8.486185   9.358801   9.261195
    31  H    3.716051   4.554879   4.964941   5.163965   6.155845
                   26         27         28         29         30
    26  C    0.000000
    27  O    1.435385   0.000000
    28  C    2.389906   1.435076   0.000000
    29  O    3.596048   2.280567   1.434527   0.000000
    30  H    8.461939   9.667720   9.921260  11.203862   0.000000
    31  H    3.913076   2.576684   1.974225   0.960000  11.879885
                   31
    31  H    0.000000
 Stoichiometry    C12H8O11
 Framework group  C1[X(C12H8O11)]
 Deg. of freedom    87
 Full point group                 C1      NOp   1
 Largest Abelian subgroup         C1      NOp   1
 Largest concise Abelian subgroup C1      NOp   1
                         Standard orientation:                         
 ---------------------------------------------------------------------
 Center     Atomic      Atomic             Coordinates (Angstroms)
 Number     Number       Type             X           Y           Z
 ---------------------------------------------------------------------
      1          8           0        4.973028    0.557967    0.714105
      2          6           0        3.832609    0.200888   -0.079762
      3          6           0        3.435601   -1.194075    0.374246
      4          8           0        4.392483   -2.168110   -0.066111
      5          1           0        5.324362   -1.813605   -0.137844
      6          6           0        2.057121   -1.600828   -0.122759
      7          8           0        1.476539   -2.756741    0.497183
      8          1           0        2.211739   -3.431588    0.428424
      9          6           0        3.204745    2.622837   -0.333209
     10          8           0        2.218828    3.651162   -0.508642
     11          1           0        2.647220    4.426941   -0.972296
     12          6           0        2.748711    1.247271    0.125015
     13          8           0        1.556451    0.746393   -0.496408
     14          6           0        1.026315   -0.491278    0.000800
     15          8           0       -0.167096   -0.822782   -0.724287
     16          6           0       -1.343147   -0.407633   -0.015057
     17          6           0       -1.743876    1.046306   -0.206242
     18          8           0       -0.773490    1.848635    0.482692
     19          1           0        0.052055    1.512576    0.029863
     20          6           0       -3.061104    1.342868    0.491845
     21          8           0       -3.335846    2.750838    0.536397
     22          1           0       -2.801560    3.123329    1.295830
     23          6           0       -2.140678   -2.592040   -0.613658
     24          8           0       -2.755689   -3.502095    0.309853
     25          1           0       -2.217142   -4.327463    0.480359
     26          6           0       -2.507119   -1.119051   -0.686177
     27          8           0       -3.813794   -0.804467   -0.182226
     28          6           0       -4.127753    0.591808   -0.288489
     29          8           0       -5.420118    0.735380    0.317355
     30          1           0        5.776556    0.342686    0.234942
     31          1           0       -6.092139    0.395240   -0.277870
 ---------------------------------------------------------------------
 Rotational constants (GHZ):      0.4066588      0.1601553      0.1182304
 Standard basis: 6-31+G(d,p) (6D, 7F)
 There are   477 symmetry adapted basis functions of A   symmetry.
 Integral buffers will be    131072 words long.
 Raffenetti 2 integral format.
 Two-electron integral symmetry is turned on.
   477 basis functions,   792 primitive gaussians,   477 cartesian basis functions
    84 alpha electrons       84 beta electrons
       nuclear repulsion energy      1931.8010226871 Hartrees.
 NAtoms=   31 NActive=   31 NUniq=   31 SFac= 1.00D+00 NAtFMM=   50 NAOKFM=F Big=F
 One-electron integrals computed using PRISM.
 NBasis=   477 RedAO= T  NBF=   477
 NBsUse=   477 1.00D-06 NBFU=   477
 Harris functional with IExCor=  402 diagonalized for initial guess.
 ExpMin= 4.38D-02 ExpMax= 5.48D+03 ExpMxC= 8.25D+02 IAcc=2 IRadAn=         0 AccDes= 0.00D+00
 HarFok:  IExCor=  402 AccDes= 0.00D+00 IRadAn=         0 IDoV= 1
 ScaDFX=  1.000000  1.000000  1.000000  1.000000
 FoFCou: FMM=F IPFlag=           0 FMFlag=      100000 FMFlg1=           0
         NFxFlg=           0 DoJE=T BraDBF=F KetDBF=T FulRan=T
         Omega=  0.000000  0.000000  1.000000  0.000000  0.000000 ICntrl=     500 IOpCl=  0
         NMat0=    1 NMatS0=    1 NMatT0=    0 NMatD0=    1 NMtDS0=    0 NMtDT0=    0
         I1Cent=           4 NGrid=           0.
 Petite list used in FoFCou.
 Initial guess orbital symmetries:
       Occupied  (A) (A) (A) (A) (A) (A) (A) (A) (A) (A) (A) (A)
                 (A) (A) (A) (A) (A) (A) (A) (A) (A) (A) (A) (A)
                 (A) (A) (A) (A) (A) (A) (A) (A) (A) (A) (A) (A)
                 (A) (A) (A) (A) (A) (A) (A) (A) (A) (A) (A) (A)
                 (A) (A) (A) (A) (A) (A) (A) (A) (A) (A) (A) (A)
                 (A) (A) (A) (A) (A) (A) (A) (A) (A) (A) (A) (A)
                 (A) (A) (A) (A) (A) (A) (A) (A) (A) (A) (A) (A)
       Virtual   (A) (A) (A) (A) (A) (A) (A) (A) (A) (A) (A) (A)
                 (A) (A) (A) (A) (A) (A) (A) (A) (A) (A) (A) (A)
                 (A) (A) (A) (A) (A) (A) (A) (A) (A) (A) (A) (A)
                 (A) (A) (A) (A) (A) (A) (A) (A) (A) (A) (A) (A)
                 (A) (A) (A) (A) (A) (A) (A) (A) (A) (A) (A) (A)
                 (A) (A) (A) (A) (A) (A) (A) (A) (A) (A) (A) (A)
                 (A) (A) (A) (A) (A) (A) (A) (A) (A) (A) (A) (A)
                 (A) (A) (A) (A) (A) (A) (A) (A) (A) (A) (A) (A)
                 (A) (A) (A) (A) (A) (A) (A) (A) (A) (A) (A) (A)
                 (A) (A) (A) (A) (A) (A) (A) (A) (A) (A) (A) (A)
                 (A) (A) (A) (A) (A) (A) (A) (A) (A) (A) (A) (A)
                 (A) (A) (A) (A) (A) (A) (A) (A) (A) (A) (A) (A)
                 (A) (A) (A) (A) (A) (A) (A) (A) (A) (A) (A) (A)
                 (A) (A) (A) (A) (A) (A) (A) (A) (A) (A) (A) (A)
                 (A) (A) (A) (A) (A) (A) (A) (A) (A) (A) (A) (A)
                 (A) (A) (A) (A) (A) (A) (A) (A) (A) (A) (A) (A)
                 (A) (A) (A) (A) (A) (A) (A) (A) (A) (A) (A) (A)
                 (A) (A) (A) (A) (A) (A) (A) (A) (A) (A) (A) (A)
                 (A) (A) (A) (A) (A) (A) (A) (A) (A) (A) (A) (A)
                 (A) (A) (A) (A) (A) (A) (A) (A) (A) (A) (A) (A)
                 (A) (A) (A) (A) (A) (A) (A) (A) (A) (A) (A) (A)
                 (A) (A) (A) (A) (A) (A) (A) (A) (A) (A) (A) (A)
                 (A) (A) (A) (A) (A) (A) (A) (A) (A) (A) (A) (A)
                 (A) (A) (A) (A) (A) (A) (A) (A) (A) (A) (A) (A)
                 (A) (A) (A) (A) (A) (A) (A) (A) (A) (A) (A) (A)
                 (A) (A) (A) (A) (A) (A) (A) (A) (A) (A) (A) (A)
                 (A) (A) (A) (A) (A) (A) (A) (A) (A) (A) (A) (A)
                 (A) (A) (A) (A) (A) (A) (A) (A) (A) (A) (A) (A)
                 (A) (A) (A) (A) (A) (A) (A) (A) (A) (A) (A) (A)
                 (A) (A) (A) (A) (A) (A) (A) (A) (A) (A) (A) (A)
                 (A) (A) (A) (A) (A) (A) (A) (A) (A) (A) (A) (A)
                 (A) (A) (A) (A) (A) (A) (A) (A) (A) (A) (A) (A)
                 (A) (A) (A) (A) (A) (A) (A) (A) (A)
 The electronic state of the initial guess is 1-A.
 Requested convergence on RMS density matrix=1.00D-08 within 128 cycles.
 Requested convergence on MAX density matrix=1.00D-06.
 Requested convergence on             energy=1.00D-06.
 No special actions if energy rises.
 EnCoef did     9 forward-backward iterations
 EnCoef did   100 forward-backward iterations
 EnCoef did     7 forward-backward iterations
 EnCoef did    11 forward-backward iterations
 EnCoef did     6 forward-backward iterations
 Rare condition: small coef for last iteration:  0.000D+00
 EnCoef did   100 forward-backward iterations
 EnCoef did   100 forward-backward iterations
 Rare condition: small coef for last iteration: -0.996D-15
 Restarting incremental Fock formation.
 SCF Done:  E(RB3LYP) =  -1288.81637474     A.U. after   30 cycles
             Convg  =    0.3202D-08             -V/T =  2.0106
 Range of M.O.s used for correlation:     1   477
 NBasis=   477 NAE=    84 NBE=    84 NFC=     0 NFV=     0
 NROrb=    477 NOA=    84 NOB=    84 NVA=   393 NVB=   393

 **** Warning!!: The largest alpha MO coefficient is  0.69658250D+02


 **** Warning!!: The smallest alpha delta epsilon is  0.21462328D-01

          Differentiating once with respect to electric field.
                with respect to dipole field.
          Electric field/nuclear overlap derivatives assumed to be zero.
          There are     3 degrees of freedom in the 1st order CPHF.  IDoFFX=0.
      3 vectors produced by pass  0 Test12= 1.10D-12 3.33D-08 XBig12= 5.27D+04 2.28D+02.
 AX will form     3 AO Fock derivatives at one time.
      3 vectors produced by pass  1 Test12= 1.10D-12 3.33D-08 XBig12= 5.63D+04 5.78D+01.
      3 vectors produced by pass  2 Test12= 1.10D-12 3.33D-08 XBig12= 6.46D+04 6.56D+01.
      3 vectors produced by pass  3 Test12= 1.10D-12 3.33D-08 XBig12= 2.76D+04 3.42D+01.
      3 vectors produced by pass  4 Test12= 1.10D-12 3.33D-08 XBig12= 2.90D+04 3.82D+01.
      3 vectors produced by pass  5 Test12= 1.10D-12 3.33D-08 XBig12= 9.39D+03 2.96D+01.
      3 vectors produced by pass  6 Test12= 1.10D-12 3.33D-08 XBig12= 4.31D+03 1.63D+01.
      3 vectors produced by pass  7 Test12= 1.10D-12 3.33D-08 XBig12= 1.99D+03 1.15D+01.
      3 vectors produced by pass  8 Test12= 1.10D-12 3.33D-08 XBig12= 6.87D+02 6.74D+00.
      3 vectors produced by pass  9 Test12= 1.10D-12 3.33D-08 XBig12= 4.49D+02 4.57D+00.
      3 vectors produced by pass 10 Test12= 1.10D-12 3.33D-08 XBig12= 8.18D+01 1.86D+00.
      3 vectors produced by pass 11 Test12= 1.10D-12 3.33D-08 XBig12= 2.83D+01 7.23D-01.
      3 vectors produced by pass 12 Test12= 1.10D-12 3.33D-08 XBig12= 1.08D+01 5.51D-01.
      3 vectors produced by pass 13 Test12= 1.10D-12 3.33D-08 XBig12= 3.25D+00 3.73D-01.
      3 vectors produced by pass 14 Test12= 1.10D-12 3.33D-08 XBig12= 8.24D-01 2.09D-01.
      3 vectors produced by pass 15 Test12= 1.10D-12 3.33D-08 XBig12= 2.99D-01 9.72D-02.
      3 vectors produced by pass 16 Test12= 1.10D-12 3.33D-08 XBig12= 4.45D-02 3.33D-02.
      3 vectors produced by pass 17 Test12= 1.10D-12 3.33D-08 XBig12= 5.69D-03 1.32D-02.
      3 vectors produced by pass 18 Test12= 1.10D-12 3.33D-08 XBig12= 5.89D-04 4.63D-03.
      3 vectors produced by pass 19 Test12= 1.10D-12 3.33D-08 XBig12= 3.28D-05 1.04D-03.
      3 vectors produced by pass 20 Test12= 1.10D-12 3.33D-08 XBig12= 2.08D-06 2.75D-04.
      3 vectors produced by pass 21 Test12= 1.10D-12 3.33D-08 XBig12= 1.41D-07 6.70D-05.
      3 vectors produced by pass 22 Test12= 1.10D-12 3.33D-08 XBig12= 6.19D-09 1.50D-05.
      3 vectors produced by pass 23 Test12= 1.10D-12 3.33D-08 XBig12= 2.64D-10 2.97D-06.
      2 vectors produced by pass 24 Test12= 1.10D-12 3.33D-08 XBig12= 1.82D-11 6.65D-07.
      2 vectors produced by pass 25 Test12= 1.10D-12 3.33D-08 XBig12= 7.47D-12 2.59D-07.
      1 vectors produced by pass 26 Test12= 1.10D-12 3.33D-08 XBig12= 2.26D-12 1.42D-07.
 Inverted reduced A of dimension    77 with in-core refinement.
 End of Minotr Frequency-dependent properties file   721 does not exist.
 End of Minotr Frequency-dependent properties file   722 does not exist.
 Symmetrizing basis deriv contribution to polar:
 IMax=3 JMax=2 DiffMx= 0.00D+00
 G2DrvN: will do    32 centers at a time, making    1 passes doing MaxLOS=2.
 Calling FoFCou, ICntrl=  3107 FMM=F I1Cent=   0 AccDes= 0.00D+00.
 FoFDir/FoFCou used for L=0 through L=2.
 End of G2Drv Frequency-dependent properties file   721 does not exist.
 End of G2Drv Frequency-dependent properties file   722 does not exist.
          IDoAtm=1111111111111111111111111111111
          Differentiating once with respect to electric field.
                with respect to dipole field.
          Differentiating once with respect to nuclear coordinates.
          There are    96 degrees of freedom in the 1st order CPHF.  IDoFFX=5.
 Will reuse    3 saved solutions.
     90 vectors produced by pass  0 Test12= 3.44D-14 1.04D-09 XBig12= 5.14D-01 5.02D-01.
 AX will form    90 AO Fock derivatives at one time.
     90 vectors produced by pass  1 Test12= 3.44D-14 1.04D-09 XBig12= 2.25D-01 7.46D-02.
     90 vectors produced by pass  2 Test12= 3.44D-14 1.04D-09 XBig12= 1.93D-03 5.99D-03.
     90 vectors produced by pass  3 Test12= 3.44D-14 1.04D-09 XBig12= 2.87D-05 4.64D-04.
     90 vectors produced by pass  4 Test12= 3.44D-14 1.04D-09 XBig12= 1.31D-07 4.07D-05.
     90 vectors produced by pass  5 Test12= 3.44D-14 1.04D-09 XBig12= 3.65D-10 1.81D-06.
     78 vectors produced by pass  6 Test12= 3.44D-14 1.04D-09 XBig12= 2.32D-12 1.42D-07.
     51 vectors produced by pass  7 Test12= 3.44D-14 1.04D-09 XBig12= 1.27D-13 3.44D-08.
      2 vectors produced by pass  8 Test12= 3.44D-14 1.04D-09 XBig12= 7.02D-16 1.82D-09.
      1 vectors produced by pass  9 Test12= 3.44D-14 1.04D-09 XBig12= 2.62D-16 1.08D-09.
 Inverted reduced A of dimension   672 with in-core refinement.
 Isotropic polarizability for W=    0.000000      393.67 Bohr**3.
 End of Minotr Frequency-dependent properties file   721 does not exist.
 End of Minotr Frequency-dependent properties file   722 does not exist.

 **********************************************************************

            Population analysis using the SCF density.

 **********************************************************************

 Orbital symmetries:
       Occupied  (A) (A) (A) (A) (A) (A) (A) (A) (A) (A) (A) (A)
                 (A) (A) (A) (A) (A) (A) (A) (A) (A) (A) (A) (A)
                 (A) (A) (A) (A) (A) (A) (A) (A) (A) (A) (A) (A)
                 (A) (A) (A) (A) (A) (A) (A) (A) (A) (A) (A) (A)
                 (A) (A) (A) (A) (A) (A) (A) (A) (A) (A) (A) (A)
                 (A) (A) (A) (A) (A) (A) (A) (A) (A) (A) (A) (A)
                 (A) (A) (A) (A) (A) (A) (A) (A) (A) (A) (A) (A)
       Virtual   (A) (A) (A) (A) (A) (A) (A) (A) (A) (A) (A) (A)
                 (A) (A) (A) (A) (A) (A) (A) (A) (A) (A) (A) (A)
                 (A) (A) (A) (A) (A) (A) (A) (A) (A) (A) (A) (A)
                 (A) (A) (A) (A) (A) (A) (A) (A) (A) (A) (A) (A)
                 (A) (A) (A) (A) (A) (A) (A) (A) (A) (A) (A) (A)
                 (A) (A) (A) (A) (A) (A) (A) (A) (A) (A) (A) (A)
                 (A) (A) (A) (A) (A) (A) (A) (A) (A) (A) (A) (A)
                 (A) (A) (A) (A) (A) (A) (A) (A) (A) (A) (A) (A)
                 (A) (A) (A) (A) (A) (A) (A) (A) (A) (A) (A) (A)
                 (A) (A) (A) (A) (A) (A) (A) (A) (A) (A) (A) (A)
                 (A) (A) (A) (A) (A) (A) (A) (A) (A) (A) (A) (A)
                 (A) (A) (A) (A) (A) (A) (A) (A) (A) (A) (A) (A)
                 (A) (A) (A) (A) (A) (A) (A) (A) (A) (A) (A) (A)
                 (A) (A) (A) (A) (A) (A) (A) (A) (A) (A) (A) (A)
                 (A) (A) (A) (A) (A) (A) (A) (A) (A) (A) (A) (A)
                 (A) (A) (A) (A) (A) (A) (A) (A) (A) (A) (A) (A)
                 (A) (A) (A) (A) (A) (A) (A) (A) (A) (A) (A) (A)
                 (A) (A) (A) (A) (A) (A) (A) (A) (A) (A) (A) (A)
                 (A) (A) (A) (A) (A) (A) (A) (A) (A) (A) (A) (A)
                 (A) (A) (A) (A) (A) (A) (A) (A) (A) (A) (A) (A)
                 (A) (A) (A) (A) (A) (A) (A) (A) (A) (A) (A) (A)
                 (A) (A) (A) (A) (A) (A) (A) (A) (A) (A) (A) (A)
                 (A) (A) (A) (A) (A) (A) (A) (A) (A) (A) (A) (A)
                 (A) (A) (A) (A) (A) (A) (A) (A) (A) (A) (A) (A)
                 (A) (A) (A) (A) (A) (A) (A) (A) (A) (A) (A) (A)
                 (A) (A) (A) (A) (A) (A) (A) (A) (A) (A) (A) (A)
                 (A) (A) (A) (A) (A) (A) (A) (A) (A) (A) (A) (A)
                 (A) (A) (A) (A) (A) (A) (A) (A) (A) (A) (A) (A)
                 (A) (A) (A) (A) (A) (A) (A) (A) (A) (A) (A) (A)
                 (A) (A) (A) (A) (A) (A) (A) (A) (A) (A) (A) (A)
                 (A) (A) (A) (A) (A) (A) (A) (A) (A) (A) (A) (A)
                 (A) (A) (A) (A) (A) (A) (A) (A) (A) (A) (A) (A)
                 (A) (A) (A) (A) (A) (A) (A) (A) (A)
 The electronic state is 1-A.
 Alpha  occ. eigenvalues --  -19.24365 -19.23440 -19.23045 -19.22874 -19.22000
 Alpha  occ. eigenvalues --  -19.21929 -19.21721 -19.21187 -19.21120 -19.20758
 Alpha  occ. eigenvalues --  -19.19565 -10.34602 -10.33119 -10.31514 -10.31053
 Alpha  occ. eigenvalues --  -10.30991 -10.30414 -10.30354 -10.30269 -10.29672
 Alpha  occ. eigenvalues --  -10.28456 -10.28110 -10.26988  -1.12101  -1.11455
 Alpha  occ. eigenvalues --   -1.08272  -1.07129  -1.06882  -1.06415  -1.05704
 Alpha  occ. eigenvalues --   -1.05444  -1.05007  -1.04914  -1.04378  -0.82313
 Alpha  occ. eigenvalues --   -0.79993  -0.79030  -0.77184  -0.69719  -0.68579
 Alpha  occ. eigenvalues --   -0.67247  -0.64550  -0.62295  -0.61449  -0.57166
 Alpha  occ. eigenvalues --   -0.56657  -0.55990  -0.55631  -0.55582  -0.52444
 Alpha  occ. eigenvalues --   -0.51050  -0.50173  -0.49671  -0.49530  -0.47406
 Alpha  occ. eigenvalues --   -0.46873  -0.46455  -0.45795  -0.44738  -0.44535
 Alpha  occ. eigenvalues --   -0.44188  -0.44018  -0.43343  -0.42508  -0.42305
 Alpha  occ. eigenvalues --   -0.41780  -0.39706  -0.39642  -0.38777  -0.38314
 Alpha  occ. eigenvalues --   -0.38015  -0.36887  -0.35811  -0.35579  -0.33473
 Alpha  occ. eigenvalues --   -0.32609  -0.32131  -0.29765  -0.28625  -0.27397
 Alpha  occ. eigenvalues --   -0.26704  -0.22002  -0.21319  -0.17963
 Alpha virt. eigenvalues --   -0.15817  -0.13166  -0.12252  -0.10028  -0.09041
 Alpha virt. eigenvalues --   -0.05918  -0.04068  -0.02774  -0.00911  -0.00280
 Alpha virt. eigenvalues --    0.00056   0.00391   0.01084   0.03918   0.04402
 Alpha virt. eigenvalues --    0.05001   0.05124   0.05787   0.06142   0.07021
 Alpha virt. eigenvalues --    0.07402   0.07690   0.07921   0.08446   0.09004
 Alpha virt. eigenvalues --    0.09496   0.09519   0.10313   0.10406   0.11078
 Alpha virt. eigenvalues --    0.11172   0.11748   0.12137   0.12414   0.12818
 Alpha virt. eigenvalues --    0.13214   0.13561   0.14002   0.14346   0.14895
 Alpha virt. eigenvalues --    0.15080   0.15335   0.15816   0.16187   0.16300
 Alpha virt. eigenvalues --    0.16594   0.16948   0.17202   0.17573   0.18064
 Alpha virt. eigenvalues --    0.18284   0.18631   0.19143   0.19302   0.19409
 Alpha virt. eigenvalues --    0.19929   0.20361   0.20597   0.20931   0.21397
 Alpha virt. eigenvalues --    0.21471   0.22053   0.22182   0.22354   0.22848
 Alpha virt. eigenvalues --    0.23086   0.23342   0.23442   0.23816   0.24123
 Alpha virt. eigenvalues --    0.24325   0.24746   0.25111   0.25418   0.25620
 Alpha virt. eigenvalues --    0.26115   0.26475   0.26556   0.26891   0.26931
 Alpha virt. eigenvalues --    0.27349   0.27699   0.27965   0.28492   0.28766
 Alpha virt. eigenvalues --    0.28831   0.29228   0.29478   0.29685   0.30377
 Alpha virt. eigenvalues --    0.30703   0.30991   0.31171   0.31620   0.31959
 Alpha virt. eigenvalues --    0.32087   0.32571   0.32778   0.33213   0.33339
 Alpha virt. eigenvalues --    0.34012   0.34889   0.35099   0.35309   0.35782
 Alpha virt. eigenvalues --    0.36121   0.36245   0.36941   0.37160   0.37714
 Alpha virt. eigenvalues --    0.37899   0.38382   0.39214   0.39666   0.40242
 Alpha virt. eigenvalues --    0.40914   0.41347   0.41696   0.42170   0.42802
 Alpha virt. eigenvalues --    0.43292   0.43510   0.44308   0.45385   0.45825
 Alpha virt. eigenvalues --    0.46550   0.47412   0.47941   0.50182   0.51121
 Alpha virt. eigenvalues --    0.53003   0.64150   0.65904   0.67059   0.68035
 Alpha virt. eigenvalues --    0.69735   0.70731   0.71330   0.71974   0.72834
 Alpha virt. eigenvalues --    0.74342   0.74795   0.75754   0.75991   0.76985
 Alpha virt. eigenvalues --    0.77735   0.78644   0.79151   0.79903   0.80264
 Alpha virt. eigenvalues --    0.80382   0.81613   0.82814   0.84691   0.85955
 Alpha virt. eigenvalues --    0.86502   0.87077   0.89207   0.89616   0.90283
 Alpha virt. eigenvalues --    0.91656   0.92727   0.92914   0.95358   0.96757
 Alpha virt. eigenvalues --    0.97902   0.99225   0.99886   1.00454   1.01670
 Alpha virt. eigenvalues --    1.01834   1.02470   1.04223   1.06831   1.10000
 Alpha virt. eigenvalues --    1.11705   1.12683   1.13551   1.14366   1.14623
 Alpha virt. eigenvalues --    1.15760   1.16843   1.17523   1.17977   1.19098
 Alpha virt. eigenvalues --    1.19435   1.19627   1.20549   1.20829   1.21603
 Alpha virt. eigenvalues --    1.22232   1.23111   1.23831   1.24093   1.24235
 Alpha virt. eigenvalues --    1.25913   1.26296   1.26789   1.27811   1.28322
 Alpha virt. eigenvalues --    1.28972   1.29488   1.30449   1.30658   1.31794
 Alpha virt. eigenvalues --    1.32978   1.33492   1.34088   1.34412   1.35314
 Alpha virt. eigenvalues --    1.36568   1.37269   1.38082   1.40307   1.40449
 Alpha virt. eigenvalues --    1.41868   1.42069   1.43159   1.43262   1.43867
 Alpha virt. eigenvalues --    1.45627   1.46158   1.48462   1.49326   1.50457
 Alpha virt. eigenvalues --    1.51870   1.52301   1.53991   1.55072   1.56055
 Alpha virt. eigenvalues --    1.57074   1.58323   1.58530   1.59172   1.59974
 Alpha virt. eigenvalues --    1.61120   1.61261   1.62125   1.62577   1.62963
 Alpha virt. eigenvalues --    1.63999   1.64905   1.65551   1.66874   1.67325
 Alpha virt. eigenvalues --    1.68094   1.69448   1.70024   1.70571   1.72019
 Alpha virt. eigenvalues --    1.72766   1.73591   1.74707   1.75354   1.76034
 Alpha virt. eigenvalues --    1.77333   1.77673   1.78809   1.79691   1.80353
 Alpha virt. eigenvalues --    1.80593   1.81960   1.82878   1.84957   1.85351
 Alpha virt. eigenvalues --    1.86877   1.87035   1.88023   1.88424   1.89014
 Alpha virt. eigenvalues --    1.89203   1.89831   1.90680   1.93530   1.94089
 Alpha virt. eigenvalues --    1.94908   1.95093   1.96491   1.97664   1.98574
 Alpha virt. eigenvalues --    1.99072   2.00730   2.01285   2.04162   2.04467
 Alpha virt. eigenvalues --    2.05742   2.05955   2.06722   2.07953   2.09817
 Alpha virt. eigenvalues --    2.12557   2.13190   2.14837   2.15666   2.16982
 Alpha virt. eigenvalues --    2.18864   2.20184   2.23201   2.24037   2.26315
 Alpha virt. eigenvalues --    2.26809   2.29376   2.30939   2.32075   2.33537
 Alpha virt. eigenvalues --    2.34264   2.35267   2.36836   2.37154   2.38840
 Alpha virt. eigenvalues --    2.40716   2.41915   2.42736   2.43649   2.45607
 Alpha virt. eigenvalues --    2.47087   2.47629   2.49896   2.50725   2.52543
 Alpha virt. eigenvalues --    2.54963   2.56284   2.56913   2.57455   2.57502
 Alpha virt. eigenvalues --    2.58396   2.59288   2.60661   2.61264   2.62166
 Alpha virt. eigenvalues --    2.63725   2.64574   2.65788   2.66531   2.67201
 Alpha virt. eigenvalues --    2.68500   2.69042   2.70284   2.75725   2.76830
 Alpha virt. eigenvalues --    2.81167   2.84145   2.84878   2.87258   2.88257
 Alpha virt. eigenvalues --    2.88580   2.89565   2.92508   2.92995   2.96888
 Alpha virt. eigenvalues --    2.97510   2.98990   3.00682   3.01256   3.02247
 Alpha virt. eigenvalues --    3.03989   3.05100   3.06558   3.14143   3.15299
 Alpha virt. eigenvalues --    3.16966   3.21811   3.42138   3.42368   3.43088
 Alpha virt. eigenvalues --    3.44361   3.48099   3.48362   3.49227   3.66605
 Alpha virt. eigenvalues --    4.16088   4.18485   4.21992   4.23797   4.26542
 Alpha virt. eigenvalues --    4.28873   4.30844   4.31280   4.34235   4.36454
 Alpha virt. eigenvalues --    4.38498   4.39472   4.44502   4.44958   4.48721
 Alpha virt. eigenvalues --    4.53022   4.54600   4.56893   4.58147   4.58568
 Alpha virt. eigenvalues --    4.63944   4.68895   4.71875
          Condensed to atoms (all electrons):
              1          2          3          4          5          6
     1  O    8.175899   0.265665  -0.250477  -0.001494   0.023452   0.089355
     2  C    0.265665   9.750214  -2.108725  -0.029233  -0.048036   0.380145
     3  C   -0.250477  -2.108725  12.966421   0.052368   0.002987  -4.078957
     4  O   -0.001494  -0.029233   0.052368   8.206197   0.213003  -0.051021
     5  H    0.023452  -0.048036   0.002987   0.213003   0.425430  -0.012811
     6  C    0.089355   0.380145  -4.078957  -0.051021  -0.012811  19.026648
     7  O   -0.000571   0.007504  -0.043479  -0.007805   0.000568   0.079258
     8  H   -0.000156   0.020864  -0.050511   0.012857  -0.000347   0.038297
     9  C    0.094618  -0.348528  -0.585092  -0.012060  -0.002969   0.765546
    10  O   -0.001789   0.039440  -0.007098   0.000058  -0.000003   0.000583
    11  H    0.000003   0.005940   0.002053   0.000000   0.000000   0.000026
    12  C   -0.177046  -2.190530  -0.370517   0.035354   0.033545   0.181546
    13  O    0.013986   0.001459  -0.338183  -0.001021  -0.000013   0.424218
    14  C    0.016454   0.025367   0.509669   0.057598   0.018251  -9.254730
    15  O    0.000258  -0.043187   0.105786  -0.001454   0.000062  -0.189426
    16  C    0.006519   0.196862  -0.402546   0.006579   0.000621  -0.751070
    17  C   -0.000696  -0.194218   0.298916  -0.000781   0.000102   0.163738
    18  O    0.000080   0.001169   0.006606   0.000012   0.000000  -0.057005
    19  H   -0.000063  -0.000546   0.003551  -0.000012   0.000000   0.046013
    20  C    0.000186   0.006502   0.004206  -0.000029   0.000003   0.058689
    21  O    0.000000   0.000130  -0.000140   0.000000   0.000000  -0.000362
    22  H    0.000000  -0.000005   0.000005   0.000000   0.000000   0.000079
    23  C    0.000149   0.005295  -0.073853  -0.000297  -0.000026  -0.117432
    24  O    0.000000   0.000553  -0.002674   0.000006   0.000000  -0.001366
    25  H    0.000000   0.000017   0.000063   0.000000   0.000000   0.000655
    26  C   -0.000140  -0.012847   0.067473   0.000165   0.000016  -0.582422
    27  O    0.000000   0.000271  -0.000240   0.000001   0.000000  -0.005347
    28  C    0.000027  -0.000215  -0.027519   0.000091   0.000000  -0.068004
    29  O    0.000000   0.000003   0.000058   0.000000   0.000000   0.000683
    30  H    0.223760   0.009010  -0.048695   0.002665   0.001174  -0.018117
    31  H    0.000000   0.000000   0.000001   0.000000   0.000000   0.000029
              7          8          9         10         11         12
     1  O   -0.000571  -0.000156   0.094618  -0.001789   0.000003  -0.177046
     2  C    0.007504   0.020864  -0.348528   0.039440   0.005940  -2.190530
     3  C   -0.043479  -0.050511  -0.585092  -0.007098   0.002053  -0.370517
     4  O   -0.007805   0.012857  -0.012060   0.000058   0.000000   0.035354
     5  H    0.000568  -0.000347  -0.002969  -0.000003   0.000000   0.033545
     6  C    0.079258   0.038297   0.765546   0.000583   0.000026   0.181546
     7  O    8.125833   0.190025  -0.002809  -0.000029   0.000000   0.009107
     8  H    0.190025   0.417215   0.000623   0.000000   0.000000  -0.004133
     9  C   -0.002809   0.000623  10.894754   0.177269  -0.130465  -3.254999
    10  O   -0.000029   0.000000   0.177269   8.128061   0.211253  -0.083843
    11  H    0.000000   0.000000  -0.130465   0.211253   0.416732   0.093394
    12  C    0.009107  -0.004133  -3.254999  -0.083843   0.093394  11.438635
    13  O    0.010933  -0.000920   0.283821   0.013387  -0.001151  -0.194361
    14  C    0.064663   0.008024  -1.222600  -0.027401   0.006648   0.335252
    15  O   -0.004127   0.000414  -0.028635  -0.000977  -0.000004   0.043866
    16  C   -0.025595  -0.001604  -0.188537   0.015575  -0.000474  -0.090054
    17  C    0.009391  -0.000941  -0.000861  -0.008830  -0.000548  -0.081838
    18  O    0.000663  -0.000007   0.002544   0.004502  -0.000035   0.001468
    19  H   -0.000214   0.000001  -0.009854   0.003773  -0.000058   0.009173
    20  C    0.000402  -0.000164  -0.018564   0.000073   0.000029  -0.009165
    21  O   -0.000007   0.000000  -0.001003   0.000005   0.000002   0.000401
    22  H    0.000000   0.000000  -0.000030  -0.000010   0.000000  -0.000035
    23  C   -0.008776  -0.001189  -0.001113  -0.000204  -0.000001  -0.007580
    24  O    0.001361  -0.000004   0.000068   0.000000   0.000000   0.000128
    25  H    0.000111   0.000005   0.000002   0.000000   0.000000   0.000084
    26  C    0.002664   0.002184   0.004298  -0.000867   0.000000  -0.013750
    27  O   -0.000059   0.000000  -0.000166  -0.000002   0.000000  -0.000275
    28  C    0.000292   0.000033  -0.000468   0.001228  -0.000029   0.009850
    29  O   -0.000002   0.000000   0.000025  -0.000001   0.000000   0.000011
    30  H   -0.000042   0.000000  -0.017066   0.000031  -0.000001   0.060794
    31  H    0.000000   0.000000   0.000000   0.000000   0.000000   0.000000
             13         14         15         16         17         18
     1  O    0.013986   0.016454   0.000258   0.006519  -0.000696   0.000080
     2  C    0.001459   0.025367  -0.043187   0.196862  -0.194218   0.001169
     3  C   -0.338183   0.509669   0.105786  -0.402546   0.298916   0.006606
     4  O   -0.001021   0.057598  -0.001454   0.006579  -0.000781   0.000012
     5  H   -0.000013   0.018251   0.000062   0.000621   0.000102   0.000000
     6  C    0.424218  -9.254730  -0.189426  -0.751070   0.163738  -0.057005
     7  O    0.010933   0.064663  -0.004127  -0.025595   0.009391   0.000663
     8  H   -0.000920   0.008024   0.000414  -0.001604  -0.000941  -0.000007
     9  C    0.283821  -1.222600  -0.028635  -0.188537  -0.000861   0.002544
    10  O    0.013387  -0.027401  -0.000977   0.015575  -0.008830   0.004502
    11  H   -0.001151   0.006648  -0.000004  -0.000474  -0.000548  -0.000035
    12  C   -0.194361   0.335252   0.043866  -0.090054  -0.081838   0.001468
    13  O    8.481273  -0.265505  -0.065300  -0.055263   0.034146   0.001763
    14  C   -0.265505  17.022840   0.328781  -1.309540   0.091108   0.034775
    15  O   -0.065300   0.328781   8.080783   0.053596  -0.120443  -0.007326
    16  C   -0.055263  -1.309540   0.053596  17.405901  -5.783543  -0.122772
    17  C    0.034146   0.091108  -0.120443  -5.783543  14.438319   0.175662
    18  O    0.001763   0.034775  -0.007326  -0.122772   0.175662   8.197764
    19  H    0.021951  -0.021590   0.014394  -0.054728  -0.015527   0.173627
    20  C   -0.021182  -0.646879   0.028682  -1.316628  -1.566073  -0.175119
    21  O    0.000460  -0.001909  -0.000058  -0.016203  -0.160803   0.024592
    22  H    0.000001   0.003235  -0.000054   0.013022  -0.046162   0.010060
    23  C   -0.026976  -0.515858  -0.055307  -0.167275  -1.464484   0.002464
    24  O    0.000302  -0.013991  -0.003608   0.058995  -0.060063   0.000273
    25  H    0.000013   0.007972   0.000099   0.026464   0.007569  -0.000007
    26  C   -0.043506   0.335454   0.033023  -3.919939   0.687220   0.100272
    27  O   -0.000278  -0.033723   0.001483  -0.174998  -0.217217   0.002681
    28  C    0.014679   0.205835   0.004446   1.981699  -0.611478   0.062599
    29  O   -0.000040   0.005913   0.000465  -0.023345   0.072373  -0.000816
    30  H   -0.001677   0.015394  -0.000002   0.000241   0.000021  -0.000001
    31  H    0.000000   0.000258  -0.000003  -0.002947  -0.005133   0.000023
             19         20         21         22         23         24
     1  O   -0.000063   0.000186   0.000000   0.000000   0.000149   0.000000
     2  C   -0.000546   0.006502   0.000130  -0.000005   0.005295   0.000553
     3  C    0.003551   0.004206  -0.000140   0.000005  -0.073853  -0.002674
     4  O   -0.000012  -0.000029   0.000000   0.000000  -0.000297   0.000006
     5  H    0.000000   0.000003   0.000000   0.000000  -0.000026   0.000000
     6  C    0.046013   0.058689  -0.000362   0.000079  -0.117432  -0.001366
     7  O   -0.000214   0.000402  -0.000007   0.000000  -0.008776   0.001361
     8  H    0.000001  -0.000164   0.000000   0.000000  -0.001189  -0.000004
     9  C   -0.009854  -0.018564  -0.001003  -0.000030  -0.001113   0.000068
    10  O    0.003773   0.000073   0.000005  -0.000010  -0.000204   0.000000
    11  H   -0.000058   0.000029   0.000002   0.000000  -0.000001   0.000000
    12  C    0.009173  -0.009165   0.000401  -0.000035  -0.007580   0.000128
    13  O    0.021951  -0.021182   0.000460   0.000001  -0.026976   0.000302
    14  C   -0.021590  -0.646879  -0.001909   0.003235  -0.515858  -0.013991
    15  O    0.014394   0.028682  -0.000058  -0.000054  -0.055307  -0.003608
    16  C   -0.054728  -1.316628  -0.016203   0.013022  -0.167275   0.058995
    17  C   -0.015527  -1.566073  -0.160803  -0.046162  -1.464484  -0.060063
    18  O    0.173627  -0.175119   0.024592   0.010060   0.002464   0.000273
    19  H    0.363057   0.059622   0.000764  -0.000252  -0.000797  -0.000012
    20  C    0.059622  10.077425   0.462794  -0.016221   0.508368   0.008731
    21  O    0.000764   0.462794   8.035318   0.229560  -0.002463  -0.000013
    22  H   -0.000252  -0.016221   0.229560   0.383578   0.000402  -0.000001
    23  C   -0.000797   0.508368  -0.002463   0.000402  10.710134   0.400155
    24  O   -0.000012   0.008731  -0.000013  -0.000001   0.400155   8.023177
    25  H    0.000000  -0.002652   0.000000   0.000000  -0.155576   0.227530
    26  C    0.011650   1.492959   0.036461  -0.010962  -2.085018  -0.220707
    27  O    0.000046   0.045336   0.007010  -0.000505   0.170296   0.012940
    28  C   -0.011812  -2.605900  -0.204139   0.058544  -0.518831  -0.007885
    29  O    0.000035  -0.136652   0.005232  -0.000930  -0.008244  -0.000329
    30  H    0.000001   0.000002   0.000000   0.000000   0.000002   0.000000
    31  H    0.000000   0.056784  -0.001711   0.000002   0.003451  -0.000025
             25         26         27         28         29         30
     1  O    0.000000  -0.000140   0.000000   0.000027   0.000000   0.223760
     2  C    0.000017  -0.012847   0.000271  -0.000215   0.000003   0.009010
     3  C    0.000063   0.067473  -0.000240  -0.027519   0.000058  -0.048695
     4  O    0.000000   0.000165   0.000001   0.000091   0.000000   0.002665
     5  H    0.000000   0.000016   0.000000   0.000000   0.000000   0.001174
     6  C    0.000655  -0.582422  -0.005347  -0.068004   0.000683  -0.018117
     7  O    0.000111   0.002664  -0.000059   0.000292  -0.000002  -0.000042
     8  H    0.000005   0.002184   0.000000   0.000033   0.000000   0.000000
     9  C    0.000002   0.004298  -0.000166  -0.000468   0.000025  -0.017066
    10  O    0.000000  -0.000867  -0.000002   0.001228  -0.000001   0.000031
    11  H    0.000000   0.000000   0.000000  -0.000029   0.000000  -0.000001
    12  C    0.000084  -0.013750  -0.000275   0.009850   0.000011   0.060794
    13  O    0.000013  -0.043506  -0.000278   0.014679  -0.000040  -0.001677
    14  C    0.007972   0.335454  -0.033723   0.205835   0.005913   0.015394
    15  O    0.000099   0.033023   0.001483   0.004446   0.000465  -0.000002
    16  C    0.026464  -3.919939  -0.174998   1.981699  -0.023345   0.000241
    17  C    0.007569   0.687220  -0.217217  -0.611478   0.072373   0.000021
    18  O   -0.000007   0.100272   0.002681   0.062599  -0.000816  -0.000001
    19  H    0.000000   0.011650   0.000046  -0.011812   0.000035   0.000001
    20  C   -0.002652   1.492959   0.045336  -2.605900  -0.136652   0.000002
    21  O    0.000000   0.036461   0.007010  -0.204139   0.005232   0.000000
    22  H    0.000000  -0.010962  -0.000505   0.058544  -0.000930   0.000000
    23  C   -0.155576  -2.085018   0.170296  -0.518831  -0.008244   0.000002
    24  O    0.227530  -0.220707   0.012940  -0.007885  -0.000329   0.000000
    25  H    0.405548   0.074620   0.000730   0.003728   0.000002   0.000000
    26  C    0.074620  10.875022   0.327378  -1.190830  -0.022146  -0.000003
    27  O    0.000730   0.327378   8.273486  -0.150216  -0.055879   0.000000
    28  C    0.003728  -1.190830  -0.150216   8.364403   0.281320   0.000000
    29  O    0.000002  -0.022146  -0.055879   0.281320   8.119853   0.000000
    30  H    0.000000  -0.000003   0.000000   0.000000   0.000000   0.424839
    31  H    0.000000   0.003131  -0.002812  -0.044581   0.226950   0.000000
             31
     1  O    0.000000
     2  C    0.000000
     3  C    0.000001
     4  O    0.000000
     5  H    0.000000
     6  C    0.000029
     7  O    0.000000
     8  H    0.000000
     9  C    0.000000
    10  O    0.000000
    11  H    0.000000
    12  C    0.000000
    13  O    0.000000
    14  C    0.000258
    15  O   -0.000003
    16  C   -0.002947
    17  C   -0.005133
    18  O    0.000023
    19  H    0.000000
    20  C    0.056784
    21  O   -0.001711
    22  H    0.000002
    23  C    0.003451
    24  O   -0.000025
    25  H    0.000000
    26  C    0.003131
    27  O   -0.002812
    28  C   -0.044581
    29  O    0.226950
    30  H    0.000000
    31  H    0.402152
 Mulliken atomic charges:
              1
     1  O   -0.477976
     2  C    0.259659
     3  C    0.368545
     4  O   -0.481750
     5  H    0.344988
     6  C   -0.067438
     7  O   -0.409262
     8  H    0.369435
     9  C   -0.397748
    10  O   -0.464182
    11  H    0.396689
    12  C    0.225518
    13  O   -0.287017
    14  C    0.220235
    15  O   -0.176226
    16  C    0.640991
    17  C    0.361074
    18  O   -0.440514
    19  H    0.407810
    20  C   -0.295564
    21  O   -0.413919
    22  H    0.376681
    23  C   -0.589415
    24  O   -0.423540
    25  H    0.403023
    26  C    0.049144
    27  O   -0.199940
    28  C    0.453133
    29  O   -0.464540
    30  H    0.347672
    31  H    0.364433
 Sum of Mulliken atomic charges =   0.00000
 Mulliken charges with hydrogens summed into heavy atoms:
              1
     1  O   -0.130304
     2  C    0.259659
     3  C    0.368545
     4  O   -0.136761
     6  C   -0.067438
     7  O   -0.039828
     9  C   -0.397748
    10  O   -0.067494
    12  C    0.225518
    13  O   -0.287017
    14  C    0.220235
    15  O   -0.176226
    16  C    0.640991
    17  C    0.361074
    18  O   -0.032703
    20  C   -0.295564
    21  O   -0.037238
    23  C   -0.589415
    24  O   -0.020518
    26  C    0.049144
    27  O   -0.199940
    28  C    0.453133
    29  O   -0.100106
 Sum of Mulliken charges with hydrogens summed into heavy atoms =   0.00000
 APT atomic charges:
              1
     1  O   -0.653110
     2  C    0.637070
     3  C    0.325900
     4  O   -0.870066
     5  H    0.323387
     6  C    0.515839
     7  O   -0.453354
     8  H    0.270356
     9  C    0.188557
    10  O   -0.340511
    11  H    0.359180
    12  C   -0.641764
    13  O    0.156550
    14  C   -0.186791
    15  O    0.208202
    16  C   -0.212601
    17  C    0.110442
    18  O    0.013197
    19  H   -0.041150
    20  C    0.368729
    21  O   -0.541740
    22  H    0.273778
    23  C    0.576746
    24  O   -0.989773
    25  H    0.364873
    26  C    0.166156
    27  O   -0.400949
    28  C    0.660028
    29  O   -0.878366
    30  H    0.292037
    31  H    0.399150
 Sum of APT charges=   0.00000
 APT Atomic charges with hydrogens summed into heavy atoms:
              1
     1  O   -0.361073
     2  C    0.637070
     3  C    0.325900
     4  O   -0.546678
     5  H    0.000000
     6  C    0.515839
     7  O   -0.182999
     8  H    0.000000
     9  C    0.188557
    10  O    0.018669
    11  H    0.000000
    12  C   -0.641764
    13  O    0.156550
    14  C   -0.186791
    15  O    0.208202
    16  C   -0.212601
    17  C    0.110442
    18  O   -0.027953
    19  H    0.000000
    20  C    0.368729
    21  O   -0.267963
    22  H    0.000000
    23  C    0.576746
    24  O   -0.624900
    25  H    0.000000
    26  C    0.166156
    27  O   -0.400949
    28  C    0.660028
    29  O   -0.479216
    30  H    0.000000
    31  H    0.000000
 Sum of APT charges=   0.00000
 Electronic spatial extent (au):  <R**2>=           8350.5768
 Charge=              0.0000 electrons
 Dipole moment (field-independent basis, Debye):
    X=              2.2895    Y=             -1.8117    Z=             -0.7215  Tot=              3.0074
 Quadrupole moment (field-independent basis, Debye-Ang):
   XX=           -103.8333   YY=           -118.2311   ZZ=           -134.6769
   XY=             -6.2110   XZ=             -2.4430   YZ=             -5.8007
 Traceless Quadrupole moment (field-independent basis, Debye-Ang):
   XX=             15.0805   YY=              0.6827   ZZ=            -15.7631
   XY=             -6.2110   XZ=             -2.4430   YZ=             -5.8007
 Octapole moment (field-independent basis, Debye-Ang**2):
  XXX=             90.1712  YYY=            -19.9763  ZZZ=             10.8118  XYY=             22.9609
  XXY=            -60.4576  XXZ=            -69.5235  XZZ=            -15.2406  YZZ=             18.0097
  YYZ=             13.5267  XYZ=            -15.9582
 Hexadecapole moment (field-independent basis, Debye-Ang**3):
 XXXX=          -5639.2820 YYYY=          -2099.2272 ZZZZ=           -288.7938 XXXY=           -266.1394
 XXXZ=            105.4346 YYYX=            171.5748 YYYZ=           -168.4608 ZZZX=            -40.6292
 ZZZY=            -10.8415 XXYY=          -1797.2376 XXZZ=          -1327.1471 YYZZ=           -494.4785
 XXYZ=            -29.5861 YYXZ=           -114.9140 ZZXY=            -28.5640
 N-N= 1.931801022687D+03 E-N=-6.881974122051D+03  KE= 1.275325997067D+03
  Exact polarizability: 697.837  52.058 354.547  17.238   3.383 128.624
 Approx polarizability:4977.542 689.528 922.515 485.997  76.663 309.625
 Calling FoFJK, ICntrl=    100127 FMM=F ISym2X=0 I1Cent= 0 IOpClX= 0 NMat=1 NMatS=1 NMatT=0.
 Full mass-weighted force constant matrix:
 Low frequencies --- -496.9051 -443.7980 -296.6005 -105.2431   -0.0010   -0.0010
 Low frequencies ---    0.0008   15.5470   33.5960
 ******    4 imaginary frequencies (negative Signs) ****** 
 Harmonic frequencies (cm**-1), IR intensities (KM/Mole), Raman scattering
 activities (A**4/AMU), depolarization ratios for plane and unpolarized
 incident light, reduced masses (AMU), force constants (mDyne/A),
 and normal coordinates:
                     1                      2                      3
                     A                      A                      A
 Frequencies --  -496.8927              -443.6965              -296.2177
 Red. masses --     1.1494                 1.6247                 2.6561
 Frc consts  --     0.1672                 0.1885                 0.1373
 IR Inten    --    41.3921                58.4179               160.7982
 Raman Activ --    73.7234               328.0820               499.6227
 Depolar (P) --     0.5763                 0.5471                 0.4060
 Depolar (U) --     0.7312                 0.7072                 0.5775
  Atom  AN      X      Y      Z        X      Y      Z        X      Y      Z
     1   8    -0.02   0.08  -0.03     0.00  -0.01   0.01     0.02   0.01  -0.02
     2   6     0.01   0.02   0.01    -0.01   0.01   0.00     0.02  -0.02   0.02
     3   6    -0.01  -0.01   0.02    -0.01  -0.01   0.00     0.02   0.02  -0.01
     4   8     0.00  -0.02  -0.02     0.00   0.00   0.00    -0.01   0.00   0.00
     5   1     0.01  -0.06  -0.07     0.00   0.01   0.01     0.00  -0.02  -0.01
     6   6     0.01   0.00   0.00     0.00   0.00   0.03     0.00  -0.01  -0.08
     7   8     0.00   0.00   0.00     0.00   0.00   0.00    -0.01   0.00   0.01
     8   1     0.00   0.00   0.00     0.01   0.00   0.01    -0.03  -0.01  -0.03
     9   6     0.00   0.00   0.00     0.01   0.01  -0.01    -0.03  -0.02   0.03
    10   8     0.00   0.00   0.00     0.00   0.00   0.00    -0.01   0.01   0.01
    11   1     0.00   0.00   0.00     0.00   0.00   0.01     0.01  -0.01  -0.01
    12   6     0.00   0.00   0.00    -0.01  -0.01  -0.01     0.01   0.03   0.05
    13   8     0.01   0.00   0.00     0.00   0.00  -0.01    -0.01  -0.01   0.03
    14   6    -0.01   0.00   0.02    -0.03   0.01   0.07     0.08  -0.04  -0.21
    15   8     0.00   0.00  -0.01     0.00   0.01  -0.05     0.00  -0.02   0.06
    16   6     0.01   0.00   0.00     0.04  -0.01   0.01    -0.06   0.01   0.02
    17   6     0.00   0.00   0.01     0.01  -0.02   0.02    -0.03   0.04  -0.07
    18   8     0.00   0.00   0.00    -0.01   0.01  -0.03     0.01  -0.02   0.07
    19   1     0.00  -0.01   0.01     0.00  -0.02   0.00    -0.01   0.02   0.02
    20   6     0.00   0.00   0.00     0.01   0.00   0.05     0.00   0.03  -0.06
    21   8     0.00   0.00   0.00     0.00   0.01  -0.02     0.00   0.01   0.03
    22   1     0.00   0.00   0.00    -0.06   0.01   0.02     0.07   0.00  -0.02
    23   6     0.00   0.00   0.00     0.00   0.03   0.01     0.00  -0.03   0.00
    24   8     0.00   0.00   0.00    -0.02  -0.01  -0.01     0.02   0.00   0.02
    25   1     0.00   0.00   0.00     0.01   0.02   0.01     0.00  -0.02  -0.01
    26   6     0.00   0.00  -0.01     0.02  -0.01  -0.10    -0.02   0.01   0.14
    27   8     0.00   0.00   0.00    -0.04   0.02   0.01     0.03  -0.02   0.01
    28   6     0.00  -0.01   0.01     0.03  -0.05   0.11    -0.04   0.08  -0.13
    29   8     0.00   0.00   0.00     0.01   0.05  -0.05     0.00   0.03  -0.03
    30   1    -0.02  -0.90   0.41     0.00   0.10  -0.04     0.02  -0.09   0.02
    31   1     0.01  -0.04   0.01     0.15  -0.90   0.32     0.09  -0.83   0.36
                     4                      5                      6
                     A                      A                      A
 Frequencies --   -83.3330                47.2103                83.3233
 Red. masses --     9.3793                 9.0512                 9.4472
 Frc consts  --     0.0384                 0.0119                 0.0386
 IR Inten    --    10.7992                38.4408                 8.4380
 Raman Activ --   336.7037                 5.8731                 4.5297
 Depolar (P) --     0.7488                 0.6274                 0.6518
 Depolar (U) --     0.8564                 0.7711                 0.7892
  Atom  AN      X      Y      Z        X      Y      Z        X      Y      Z
     1   8     0.05   0.03  -0.02    -0.04   0.00   0.08     0.07  -0.16   0.07
     2   6     0.02  -0.03   0.07    -0.02   0.01   0.05     0.06  -0.06   0.03
     3   6    -0.01   0.06   0.05     0.01  -0.01  -0.05    -0.04  -0.04  -0.02
     4   8    -0.04   0.00   0.21     0.02   0.02  -0.12    -0.11  -0.10  -0.01
     5   1    -0.03  -0.03   0.17     0.02   0.03  -0.11    -0.09  -0.14  -0.03
     6   6    -0.03  -0.01  -0.13     0.01  -0.03  -0.04    -0.06   0.07  -0.07
     7   8    -0.08   0.06   0.16     0.04  -0.06  -0.07    -0.14   0.08  -0.11
     8   1    -0.13   0.02   0.11     0.06  -0.04  -0.08    -0.18   0.05  -0.13
     9   6    -0.11  -0.03   0.07    -0.10   0.00   0.22     0.23  -0.01   0.02
    10   8    -0.08   0.00   0.00    -0.12   0.00   0.20     0.26   0.02   0.03
    11   1    -0.06  -0.03  -0.03    -0.11   0.01   0.23     0.28   0.01   0.03
    12   6    -0.01   0.05   0.11    -0.06   0.00   0.12     0.13   0.00   0.03
    13   8    -0.01  -0.04  -0.05    -0.02  -0.05  -0.01     0.08   0.12   0.05
    14   6     0.12  -0.07  -0.50     0.00  -0.04   0.02     0.01   0.12  -0.08
    15   8     0.03   0.01  -0.23    -0.02  -0.07   0.02     0.01   0.20  -0.09
    16   6     0.06  -0.01  -0.01     0.02   0.00  -0.01    -0.01   0.08  -0.01
    17   6     0.06  -0.05   0.00     0.02   0.04  -0.20    -0.11   0.06  -0.06
    18   8     0.03  -0.01  -0.01     0.05   0.12  -0.52    -0.13   0.13  -0.11
    19   1     0.01   0.03  -0.05     0.04   0.05  -0.53    -0.13   0.15  -0.10
    20   6     0.03  -0.05   0.10     0.06   0.04  -0.03    -0.12  -0.03  -0.01
    21   8     0.04   0.02  -0.10     0.05   0.04  -0.04    -0.20  -0.03  -0.05
    22   1    -0.10   0.04  -0.01     0.04   0.05  -0.04    -0.25   0.01  -0.04
    23   6    -0.05   0.17   0.02    -0.05  -0.05   0.03     0.14   0.01   0.14
    24   8     0.01   0.00  -0.07     0.02  -0.01   0.10     0.10  -0.02   0.10
    25   1     0.08   0.06  -0.07    -0.02  -0.05   0.04     0.15   0.02   0.15
    26   6     0.00  -0.03  -0.17     0.00  -0.01   0.11     0.04  -0.03   0.05
    27   8    -0.07  -0.01   0.08     0.02   0.01   0.06     0.01  -0.09   0.06
    28   6     0.06  -0.10   0.27     0.02   0.02   0.06    -0.07  -0.12   0.04
    29   8     0.02   0.00   0.12     0.05   0.02   0.12    -0.08  -0.18   0.04
    30   1     0.03  -0.15   0.02    -0.03   0.05   0.08     0.06  -0.19   0.07
    31   1     0.00   0.43  -0.10     0.02   0.00   0.16    -0.08  -0.11  -0.01
                     7                      8                      9
                     A                      A                      A
 Frequencies --    92.0052               118.4141               138.8140
 Red. masses --     7.3647                 7.4364                 8.6416
 Frc consts  --     0.0367                 0.0614                 0.0981
 IR Inten    --    16.3409                 8.6727                10.5867
 Raman Activ --     9.8475                51.3978                12.7582
 Depolar (P) --     0.6090                 0.7422                 0.4575
 Depolar (U) --     0.7570                 0.8520                 0.6278
  Atom  AN      X      Y      Z        X      Y      Z        X      Y      Z
     1   8    -0.20   0.04   0.43    -0.08   0.00   0.15     0.02  -0.01  -0.06
     2   6    -0.02   0.03   0.10    -0.02  -0.01   0.03     0.00   0.02  -0.06
     3   6    -0.01  -0.01  -0.05    -0.04  -0.01   0.08    -0.05   0.05  -0.01
     4   8     0.03   0.04  -0.07    -0.03  -0.02   0.16    -0.05   0.00   0.16
     5   1     0.02   0.08  -0.11    -0.04  -0.01   0.14    -0.05   0.00   0.15
     6   6     0.02  -0.01  -0.14    -0.03   0.01   0.06    -0.04   0.06  -0.01
     7   8     0.01  -0.04  -0.22    -0.06   0.03   0.08    -0.07   0.09   0.02
     8   1     0.01  -0.03  -0.23    -0.07   0.02   0.11    -0.09   0.07   0.04
     9   6     0.01   0.01  -0.08     0.02  -0.02  -0.14     0.03   0.06   0.04
    10   8     0.00  -0.02  -0.13     0.02  -0.03  -0.20     0.06   0.11   0.09
    11   1     0.00  -0.02  -0.12     0.03  -0.04  -0.21     0.08   0.11   0.11
    12   6    -0.04  -0.01  -0.06    -0.01   0.00  -0.09     0.01   0.05  -0.06
    13   8     0.01   0.00  -0.10     0.01  -0.01  -0.10     0.04   0.04  -0.16
    14   6     0.00  -0.02  -0.11    -0.02   0.02   0.03    -0.02   0.08  -0.07
    15   8     0.00   0.01  -0.09    -0.02   0.00   0.04    -0.01   0.04  -0.12
    16   6     0.02  -0.02   0.01    -0.03   0.05  -0.09     0.00  -0.08  -0.05
    17   6     0.04  -0.03   0.05    -0.02   0.08  -0.10     0.01  -0.08   0.02
    18   8     0.04  -0.05   0.10     0.03   0.05  -0.12     0.05  -0.07  -0.15
    19   1     0.03  -0.04   0.09     0.01   0.04  -0.16     0.04  -0.07  -0.20
    20   6     0.03   0.00   0.01     0.03   0.01   0.04     0.05  -0.09   0.11
    21   8     0.06   0.01  -0.02     0.00  -0.04   0.25     0.09  -0.14   0.37
    22   1     0.06   0.01  -0.02     0.08  -0.08   0.21     0.21  -0.22   0.33
    23   6     0.01   0.00   0.14     0.04  -0.05  -0.26    -0.01  -0.11   0.16
    24   8    -0.03  -0.01   0.12     0.08   0.01  -0.19    -0.14  -0.07   0.13
    25   1    -0.01   0.01   0.16     0.02  -0.04  -0.27    -0.12  -0.04   0.23
    26   6     0.00  -0.02   0.04     0.01   0.06   0.00    -0.02  -0.08   0.03
    27   8     0.00   0.00   0.05     0.07   0.00  -0.02    -0.01   0.00  -0.10
    28   6     0.03   0.01   0.01    -0.02   0.04   0.02     0.04   0.04  -0.11
    29   8     0.02   0.05  -0.02     0.04  -0.09   0.24     0.01   0.08  -0.20
    30   1    -0.05   0.21   0.61    -0.03   0.02   0.23     0.01  -0.09  -0.05
    31   1     0.02   0.09  -0.04     0.00  -0.28   0.39     0.05   0.06  -0.23
                    10                     11                     12
                     A                      A                      A
 Frequencies --   144.7208               149.4321               159.9678
 Red. masses --     8.5249                 8.6589                 8.1481
 Frc consts  --     0.1052                 0.1139                 0.1228
 IR Inten    --    16.5836                 1.8384                 8.4334
 Raman Activ --     4.4327                92.9290                23.6183
 Depolar (P) --     0.4243                 0.3067                 0.2548
 Depolar (U) --     0.5958                 0.4695                 0.4061
  Atom  AN      X      Y      Z        X      Y      Z        X      Y      Z
     1   8     0.07   0.06  -0.11     0.06   0.07   0.10    -0.05  -0.02  -0.06
     2   6     0.03   0.01   0.00     0.09   0.05   0.05    -0.06   0.03  -0.07
     3   6     0.03   0.03   0.09     0.10   0.06  -0.02    -0.10   0.02   0.00
     4   8     0.11   0.02   0.40     0.09   0.08  -0.16    -0.10   0.00   0.14
     5   1     0.10   0.05   0.40     0.09   0.07  -0.17    -0.10   0.00   0.14
     6   6     0.09  -0.02  -0.11     0.07   0.04   0.02    -0.07   0.05   0.04
     7   8     0.15  -0.15  -0.40     0.10   0.07   0.16    -0.10   0.04  -0.08
     8   1     0.20  -0.09  -0.45     0.10   0.07   0.16    -0.10   0.04  -0.06
     9   6     0.03  -0.01  -0.08     0.16   0.02   0.00     0.00   0.08   0.04
    10   8     0.04   0.01  -0.05     0.24   0.08  -0.04     0.05   0.14   0.18
    11   1     0.04   0.00  -0.07     0.30   0.06  -0.03     0.06   0.14   0.20
    12   6     0.02   0.01   0.00     0.08   0.04   0.02    -0.03   0.03  -0.08
    13   8    -0.02   0.01   0.12     0.07   0.02   0.01    -0.01   0.05  -0.10
    14   6     0.01  -0.05   0.03     0.07   0.01  -0.05    -0.08   0.08   0.09
    15   8     0.00  -0.02   0.04     0.00  -0.04   0.05    -0.02   0.00  -0.06
    16   6    -0.02   0.00   0.05    -0.06  -0.08   0.02    -0.02  -0.03  -0.16
    17   6    -0.04   0.01  -0.02    -0.06  -0.08  -0.05     0.05  -0.02  -0.06
    18   8    -0.04   0.04  -0.07    -0.03  -0.08  -0.07     0.07  -0.13   0.14
    19   1    -0.04   0.02  -0.05    -0.05  -0.07  -0.09     0.08  -0.09   0.14
    20   6    -0.04   0.01   0.02    -0.04  -0.03  -0.02     0.09   0.04  -0.16
    21   8    -0.04   0.01   0.01     0.00  -0.02  -0.06     0.13   0.05  -0.24
    22   1    -0.05   0.01   0.02     0.00  -0.02  -0.06     0.18   0.07  -0.28
    23   6    -0.09   0.02   0.02    -0.23  -0.06  -0.02     0.07  -0.19  -0.01
    24   8    -0.13   0.00  -0.02    -0.36  -0.09  -0.12    -0.08  -0.09   0.00
    25   1    -0.14   0.00  -0.02    -0.38  -0.10  -0.10    -0.11  -0.10   0.06
    26   6    -0.04   0.01   0.02    -0.11  -0.06  -0.01     0.02  -0.05   0.05
    27   8    -0.05   0.01   0.02    -0.10  -0.01   0.01     0.08  -0.02   0.07
    28   6    -0.05   0.02   0.03    -0.09  -0.01   0.04     0.03  -0.01  -0.01
    29   8    -0.04   0.01   0.06    -0.06   0.00   0.13     0.12  -0.03   0.23
    30   1     0.03  -0.06  -0.13     0.09   0.10   0.13    -0.06  -0.04  -0.06
    31   1    -0.05   0.01   0.06    -0.10  -0.02   0.19     0.02  -0.14   0.40
                    13                     14                     15
                     A                      A                      A
 Frequencies --   186.4484               194.6457               212.3246
 Red. masses --     8.6440                 9.0474                 9.0868
 Frc consts  --     0.1770                 0.2020                 0.2414
 IR Inten    --     1.7176                 6.7219                19.7703
 Raman Activ --    12.9437                38.6201                16.1307
 Depolar (P) --     0.4880                 0.5116                 0.6645
 Depolar (U) --     0.6559                 0.6769                 0.7984
  Atom  AN      X      Y      Z        X      Y      Z        X      Y      Z
     1   8     0.00  -0.02   0.05     0.06   0.03  -0.07    -0.10   0.10  -0.05
     2   6     0.07  -0.03  -0.10    -0.05   0.03   0.18    -0.11   0.02   0.04
     3   6     0.08  -0.03  -0.10    -0.03   0.02   0.15    -0.05   0.01   0.06
     4   8     0.12  -0.03   0.07    -0.06   0.04  -0.16    -0.01   0.06  -0.02
     5   1     0.10   0.01   0.03    -0.04   0.00  -0.08    -0.01   0.08   0.02
     6   6     0.08  -0.06  -0.02    -0.04   0.04   0.05    -0.03  -0.04   0.00
     7   8     0.15  -0.03   0.09    -0.08   0.01  -0.08    -0.02  -0.08  -0.01
     8   1     0.18  -0.01   0.14    -0.10  -0.01  -0.13     0.00  -0.05  -0.03
     9   6    -0.04  -0.02   0.04    -0.01  -0.01   0.01     0.11  -0.02   0.04
    10   8    -0.07  -0.03   0.17    -0.06  -0.10  -0.19     0.34   0.20   0.03
    11   1    -0.11   0.00   0.18    -0.07  -0.11  -0.21     0.48   0.13   0.04
    12   6     0.03  -0.07  -0.10    -0.02   0.04   0.20    -0.09   0.02   0.02
    13   8     0.09  -0.08  -0.19    -0.07   0.07   0.31    -0.11  -0.03   0.01
    14   6     0.02  -0.01   0.02     0.00   0.00   0.01    -0.04  -0.09  -0.02
    15   8     0.01   0.00  -0.06     0.05   0.02  -0.10    -0.05  -0.16   0.01
    16   6    -0.01   0.07  -0.18     0.02   0.01  -0.21    -0.03  -0.07   0.00
    17   6    -0.04   0.07  -0.10     0.04   0.01  -0.13     0.00  -0.09  -0.01
    18   8    -0.05   0.00   0.11     0.02  -0.03   0.03     0.00  -0.10  -0.02
    19   1    -0.04   0.00   0.14     0.05   0.01   0.07     0.01  -0.12  -0.01
    20   6    -0.06   0.00  -0.05     0.07  -0.05  -0.05     0.00  -0.07   0.00
    21   8    -0.13  -0.03   0.04     0.09  -0.08   0.08     0.07  -0.05   0.00
    22   1    -0.14  -0.04   0.05     0.16  -0.12   0.05     0.06  -0.08   0.02
    23   6    -0.01   0.06   0.05     0.07  -0.04   0.11    -0.12   0.10  -0.12
    24   8    -0.09   0.29   0.20    -0.16   0.10   0.12     0.32   0.18   0.18
    25   1    -0.17   0.26   0.31    -0.17   0.13   0.31     0.28   0.12   0.01
    26   6     0.00   0.08  -0.14     0.04  -0.01  -0.14    -0.08   0.01  -0.12
    27   8    -0.01   0.04  -0.19     0.03   0.01  -0.20    -0.10  -0.01  -0.09
    28   6    -0.07  -0.01  -0.02     0.04  -0.02  -0.02    -0.04  -0.01   0.01
    29   8    -0.04  -0.14   0.15     0.09  -0.07   0.14    -0.02   0.03   0.05
    30   1     0.07  -0.02   0.15    -0.04   0.07  -0.25    -0.12   0.12  -0.09
    31   1    -0.08  -0.17   0.21     0.03  -0.05   0.21    -0.04   0.00   0.10
                    16                     17                     18
                     A                      A                      A
 Frequencies --   240.7860               242.4815               258.2575
 Red. masses --     9.8060                 7.6975                11.6902
 Frc consts  --     0.3350                 0.2667                 0.4594
 IR Inten    --   144.4535                41.2565                26.7166
 Raman Activ --    47.3898                27.0102                77.6829
 Depolar (P) --     0.3545                 0.5413                 0.7498
 Depolar (U) --     0.5234                 0.7024                 0.8570
  Atom  AN      X      Y      Z        X      Y      Z        X      Y      Z
     1   8     0.20  -0.17   0.08     0.04  -0.03   0.04    -0.10  -0.08   0.05
     2   6     0.13   0.02   0.05     0.05   0.00  -0.01    -0.03  -0.02  -0.14
     3   6     0.01   0.05   0.00     0.02   0.01  -0.04    -0.05   0.00  -0.17
     4   8    -0.10  -0.06   0.01     0.01   0.00   0.02    -0.08  -0.05   0.04
     5   1    -0.07  -0.14  -0.01     0.01  -0.01  -0.01    -0.08  -0.06  -0.04
     6   6     0.00   0.15   0.01     0.02   0.00   0.00    -0.03  -0.02  -0.07
     7   8    -0.07   0.12  -0.15     0.12  -0.01   0.05    -0.07   0.00   0.02
     8   1    -0.08   0.11  -0.16     0.17   0.03   0.07    -0.12  -0.04  -0.04
     9   6    -0.04   0.10   0.08     0.00   0.00  -0.04    -0.06   0.06  -0.11
    10   8    -0.21  -0.05  -0.11    -0.04  -0.05   0.02     0.01   0.19   0.02
    11   1    -0.25  -0.01  -0.08    -0.09  -0.04   0.00     0.04   0.15  -0.02
    12   6     0.12   0.09   0.06     0.04  -0.02   0.00    -0.03   0.06  -0.06
    13   8     0.14   0.07  -0.11     0.04   0.00   0.06    -0.08   0.01   0.06
    14   6     0.07   0.15   0.08    -0.04   0.00   0.02     0.06  -0.05  -0.05
    15   8     0.00   0.02   0.14    -0.02   0.09  -0.06     0.03  -0.08   0.28
    16   6    -0.02  -0.11   0.13    -0.10  -0.02  -0.06     0.06  -0.02   0.35
    17   6    -0.02  -0.16   0.15    -0.09  -0.04  -0.05     0.09  -0.01   0.13
    18   8     0.03  -0.18  -0.06    -0.06  -0.08  -0.01     0.04   0.13  -0.06
    19   1     0.01  -0.15  -0.12    -0.07  -0.08  -0.01     0.04   0.12  -0.07
    20   6    -0.01  -0.05   0.01    -0.05   0.03  -0.06     0.05  -0.05   0.04
    21   8     0.10  -0.02  -0.10     0.03   0.04   0.01     0.02  -0.02  -0.08
    22   1     0.08  -0.01  -0.09     0.06  -0.01   0.01    -0.09   0.01  -0.02
    23   6    -0.23   0.02  -0.17     0.17   0.01   0.17     0.12   0.18   0.24
    24   8     0.13   0.15   0.10     0.21  -0.28  -0.03    -0.12  -0.03  -0.10
    25   1     0.01   0.03  -0.09     0.49  -0.07   0.08     0.03   0.10   0.08
    26   6    -0.08  -0.02  -0.05    -0.11  -0.05  -0.07     0.09   0.01  -0.06
    27   8    -0.08  -0.02  -0.09    -0.18   0.07  -0.18    -0.02   0.00  -0.41
    28   6    -0.06   0.00  -0.04    -0.10   0.11  -0.04     0.08  -0.03  -0.04
    29   8    -0.03  -0.01   0.06    -0.02   0.25   0.17     0.12  -0.14   0.12
    30   1     0.16  -0.25   0.04     0.06  -0.05   0.07    -0.03  -0.13   0.19
    31   1    -0.06  -0.11   0.16    -0.16   0.22   0.35     0.06  -0.08   0.15
                    19                     20                     21
                     A                      A                      A
 Frequencies --   270.9752               299.2717               302.4391
 Red. masses --     7.4440                 6.9951                 7.5640
 Frc consts  --     0.3220                 0.3691                 0.4076
 IR Inten    --    21.1641               204.4239                 7.8919
 Raman Activ --   125.7117                22.2717                29.6310
 Depolar (P) --     0.7382                 0.2080                 0.3479
 Depolar (U) --     0.8494                 0.3444                 0.5162
  Atom  AN      X      Y      Z        X      Y      Z        X      Y      Z
     1   8    -0.04   0.27  -0.08    -0.05   0.09   0.07     0.09   0.15   0.03
     2   6     0.01  -0.02   0.03     0.06  -0.03  -0.10     0.09   0.01   0.08
     3   6     0.09  -0.09   0.20     0.03  -0.03  -0.02     0.00  -0.01   0.25
     4   8     0.19   0.03  -0.03    -0.07  -0.13   0.02    -0.24  -0.20  -0.11
     5   1     0.16   0.11   0.02    -0.05  -0.19  -0.06    -0.16  -0.39  -0.09
     6   6     0.02   0.00   0.02     0.02   0.03   0.01    -0.01   0.02   0.12
     7   8    -0.32   0.09  -0.08     0.05   0.04   0.05     0.05  -0.07  -0.08
     8   1    -0.46  -0.06  -0.05     0.05   0.04   0.04     0.12   0.00  -0.10
     9   6     0.07  -0.11   0.00     0.00  -0.01  -0.25    -0.05   0.07  -0.17
    10   8     0.00  -0.22   0.13    -0.06  -0.01   0.17    -0.05   0.15   0.10
    11   1    -0.10  -0.15   0.16    -0.19   0.01   0.07    -0.09   0.13   0.03
    12   6     0.03  -0.12  -0.12     0.06  -0.04  -0.13     0.05   0.01  -0.10
    13   8     0.04   0.01  -0.11    -0.04   0.08   0.21     0.09  -0.05  -0.05
    14   6     0.05   0.04  -0.03     0.00  -0.01  -0.01     0.05  -0.05  -0.04
    15   8     0.02   0.03   0.04     0.06   0.06  -0.06     0.04  -0.06   0.02
    16   6     0.01  -0.02   0.11     0.01  -0.01   0.01     0.03   0.01   0.00
    17   6    -0.01  -0.03   0.07    -0.03  -0.08  -0.04     0.05   0.03  -0.08
    18   8    -0.01   0.01  -0.03    -0.09   0.03  -0.04     0.05   0.01   0.02
    19   1    -0.02   0.00  -0.04    -0.07   0.08  -0.02     0.04   0.01   0.02
    20   6    -0.01   0.00   0.00     0.00  -0.05  -0.05     0.02  -0.04  -0.05
[...]
 0012801,0.00006114,0.00016400,-0.00028535,0.00022212,-0.00081388,-0.00
 053486,-0.00058866,0.00240873,0.00271115,0.00204384,-0.00076754,-0.000
 55148,0.00125020,0.00009498,0.00012363,-0.00021526,0.00002091,0.000043
 82,-0.00013075,0.00015408,-0.00021699,-0.00081942,0.00001766,0.0002168
 9,0.00005191,-0.00001742,-0.00002223,-0.00001432,-0.00847055,-0.017830
 23,-0.00345311,0.06092439,0.17973625,-0.14289389,-0.05518113,-0.155147
 35,0.14086761,0.00011704,-0.00030514,-0.00086100,0.00250983,0.00089297
 ,0.00243113,-0.00604689,-0.00110871,0.00034187,0.00416215,0.00262008,-
 0.00279829,-0.00046534,0.00011492,0.00065889,0.00463879,-0.00707275,0.
 00095158,-0.00014472,0.00262575,0.00126753,-0.00011980,-0.00042892,-0.
 00011619,-0.00064308,0.00853791,-0.00161659,-0.00000038,-0.00466289,0.
 00324113,-0.00017159,0.00070936,0.00025577,-0.00542914,-0.00582010,-0.
 00582874,0.00523231,-0.00226908,0.00472445,0.00441653,0.00298852,-0.01
 375442,-0.01185308,0.01396664,0.01785200,-0.04675545,-0.02366453,0.009
 43328,-0.01446089,-0.04280683,0.00235085,-0.00594139,0.00246983,-0.006
 24338,-0.00006549,-0.00017059,-0.00172084,0.00538440,0.00302065,-0.014
 57934,0.00107120,0.00898421,0.00231370,0.00003208,-0.00034298,-0.00114
 364,-0.00175960,0.00439182,-0.00738263,-0.01911640,-0.00685262,-0.0004
 5351,0.00476883,-0.00025237,0.00130679,0.11778765,0.00004516,0.0002481
 3,0.00064336,-0.00088951,-0.00229268,-0.00006839,0.00194811,0.00073399
 ,0.00074785,-0.00081294,-0.00054466,0.00012800,0.00011558,0.00003386,-
 0.00006256,-0.00115543,0.00419017,0.00000358,0.00038675,-0.00268276,-0
 .00080891,0.00028866,0.00013763,0.00005283,-0.00012622,-0.00211213,0.0
 0014206,0.00004117,0.00127615,-0.00056840,0.00007989,-0.00018186,-0.00
 004628,0.00155688,0.00216952,0.00044979,0.00106081,-0.00036059,-0.0003
 9017,-0.01030523,-0.00023108,0.00445955,0.00717409,0.00413823,0.009005
 22,-0.02432991,-0.06540551,-0.03473464,-0.03681991,-0.03654007,-0.0228
 9349,-0.00719836,-0.00341078,-0.00105575,-0.00011656,0.00057375,0.0012
 7803,-0.00115482,-0.00019391,-0.00665497,0.00121048,0.00099535,0.00015
 873,-0.00008635,0.00036577,0.00019301,0.03436109,-0.08231725,-0.031050
 96,-0.02414843,-0.03402379,0.02281342,-0.00096947,-0.00505847,-0.00652
 223,0.09023372,0.30906292,0.00003561,0.00010315,0.00005563,-0.00049440
 ,-0.00029379,-0.00033341,0.00104395,0.00048243,0.00033092,-0.00058077,
 -0.00028365,0.00033674,-0.00002603,0.00004368,-0.00015488,-0.00034535,
 -0.00176247,-0.00193322,-0.00034063,0.00155322,0.00056246,-0.00004950,
 0.00006336,0.00013377,-0.00001957,-0.00209935,-0.00009989,0.00019647,0
 .00109256,-0.00060191,-0.00001332,-0.00013221,-0.00006267,0.00134145,0
 .00158617,0.00118479,0.00034053,0.00149541,-0.00020885,-0.00472443,0.0
 0153397,-0.00320556,-0.00270080,-0.00307916,-0.03617316,-0.02715064,-0
 .02857004,-0.10259420,-0.01205308,-0.02135359,0.00598041,0.00069848,0.
 00473160,0.00117445,-0.00036628,0.00003863,0.00107748,-0.00726200,-0.0
 0647864,-0.00429341,-0.00100601,-0.00768015,-0.00165111,0.00020591,0.0
 0065263,0.00125614,0.00670729,0.00576428,-0.05208473,-0.00612194,-0.01
 895828,-0.00547368,0.00776305,0.00018460,0.00301398,0.00022912,0.04410
 406,0.32394549,0.00021642,0.00005121,0.00082873,-0.00155341,-0.0000511
 9,-0.00159771,0.00295759,0.00045098,-0.00132972,-0.00232209,-0.0016139
 3,0.00200511,0.00032733,-0.00006751,-0.00038477,-0.00257756,0.00416463
 ,0.00162688,0.00010423,-0.00160767,-0.00087734,0.00011737,0.00034113,0
 .00011822,0.00033462,-0.00515586,0.00197209,0.00002043,0.00324407,-0.0
 0263293,0.00017020,-0.00061597,-0.00009866,0.00269787,0.00348844,0.003
 42823,-0.00183529,0.00167211,-0.00200732,-0.00573937,-0.00240119,0.003
 66417,0.00881132,-0.00436607,0.00289820,0.00606838,-0.00234633,-0.0094
 2963,-0.00888364,0.00687247,-0.00161457,0.00061527,-0.00143981,-0.0020
 8287,-0.00073608,-0.00048851,0.00218270,-0.02313107,-0.04570255,-0.009
 41217,-0.00012940,-0.00434909,-0.00469672,0.00068938,-0.00142831,-0.00
 085477,-0.01601345,-0.01012464,0.01727144,0.00368273,0.00512675,0.0001
 2161,-0.00035061,0.00041822,0.00057640,-0.02622679,-0.01424553,0.02334
 593,0.12428323,-0.00040132,0.00030812,-0.00106721,0.00095473,-0.001835
 47,0.00197420,-0.00343175,0.00092452,0.00117288,0.00295877,0.00135329,
 -0.00259037,-0.00009590,-0.00005634,0.00051174,0.00030061,-0.00367382,
 0.00062768,-0.00000185,0.00235976,0.00057454,-0.00015867,-0.00044978,-
 0.00009986,-0.00059512,0.00361121,-0.00483537,0.00051044,-0.00318006,0
 .00393663,-0.00038377,0.00093453,-0.00009024,-0.00196321,-0.00067240,-
 0.00242047,0.00786010,-0.00147118,0.00505105,-0.01866967,0.00309458,-0
 .00704760,0.00251701,-0.00279885,0.01658642,0.01651845,0.00337907,-0.0
 0558737,0.00101761,0.00077591,-0.00412744,0.00280672,0.00012746,0.0082
 1308,0.00173767,0.00172179,-0.00391530,-0.02697357,-0.03855167,0.00043
 396,-0.00174093,-0.00547173,-0.00477415,0.00003764,-0.00043336,0.00092
 927,-0.02623780,-0.00518029,0.01762569,0.00700744,0.00624386,0.0114662
 4,-0.00172900,-0.00065112,-0.00202779,0.01567312,-0.07750098,-0.032555
 88,0.08555328,0.21846658,-0.00018650,-0.00002553,-0.00064210,0.0012318
 4,-0.00024282,0.00143965,-0.00222956,-0.00011705,0.00162209,0.00188733
 ,0.00137032,-0.00180453,-0.00028752,0.00008057,0.00032641,0.00237428,-
 0.00294188,-0.00282945,-0.00007500,0.00099226,0.00072337,-0.00008972,-
 0.00024545,-0.00008967,-0.00033457,0.00437334,-0.00134904,0.00000925,-
 0.00276180,0.00201869,-0.00015745,0.00050453,0.00007376,-0.00218916,-0
 .00305903,-0.00292069,0.00081536,-0.00183052,0.00057542,0.01011025,-0.
 00008028,-0.00322664,-0.01967675,0.00413080,-0.01021270,0.02946453,0.0
 0203433,-0.02387617,-0.00224212,-0.00078457,0.00362678,-0.00138319,0.0
 0119763,-0.00234424,0.00046659,-0.00090958,-0.00128510,0.00330321,-0.0
 1412532,0.01283394,-0.00513089,0.00957715,-0.00153513,-0.00052537,-0.0
 0282271,-0.00197109,0.02997142,0.02292880,-0.01616993,-0.00791441,-0.0
 0391826,0.00077584,0.00029362,-0.00084255,-0.00014492,-0.02328456,-0.0
 1611689,-0.10996017,-0.04601412,0.02032989,0.24537639,-0.00054208,0.00
 013548,-0.00108588,0.00107532,0.00001300,0.00100673,-0.00192419,-0.000
 14507,0.00077485,0.00155696,0.00089375,-0.00154307,-0.00007432,-0.0000
 9583,0.00031590,-0.00007195,-0.00170928,-0.00002453,-0.00021385,0.0013
 3604,0.00015143,-0.00006675,-0.00033517,0.00000262,-0.00006548,0.00291
 896,-0.00284701,0.00013283,-0.00240893,0.00257787,-0.00024506,0.000681
 93,-0.00004742,-0.00118107,-0.00143464,-0.00135399,0.00192462,-0.00105
 425,0.00268543,-0.00576379,0.00227783,0.00155151,0.00720208,-0.0011427
 1,0.00489564,-0.00784317,-0.00915398,-0.01450049,0.02999898,0.01675198
 ,-0.00700975,-0.00499802,-0.00320623,0.01339936,0.00273766,0.00078180,
 -0.00041905,-0.07609623,0.00100388,0.00400242,-0.01827248,-0.03006913,
 -0.01135712,-0.00030310,0.00072468,0.00477169,0.00389841,-0.00322768,-
 0.00313651,-0.00157059,0.00486094,0.00452038,-0.00020056,-0.00115968,-
 0.00030777,-0.00406161,-0.01151810,0.01753085,-0.04884289,-0.06332083,
 0.00820422,0.19064705,0.00056348,-0.00036330,0.00125350,-0.00073019,0.
 00154161,-0.00166722,0.00338334,-0.00101311,-0.00048599,-0.00275245,-0
 .00094525,0.00234108,-0.00012291,0.00018895,-0.00052379,0.00120475,0.0
 0230241,-0.00279739,0.00016645,-0.00229437,-0.00010503,0.00010602,0.00
 044776,0.00001477,0.00038813,-0.00281264,0.00488947,-0.00044774,0.0028
 3749,-0.00380461,0.00035248,-0.00095707,0.00014477,0.00160421,-0.00034
 373,0.00100286,-0.00867652,0.00112258,-0.00552681,0.02578358,-0.003975
 50,0.00166992,-0.02092444,0.00734291,-0.02348812,0.01075476,0.00835288
 ,0.01779690,-0.00191640,-0.00006851,0.00290249,-0.00288422,0.00315796,
 -0.00896175,-0.00158948,-0.00169857,0.00343489,-0.00603494,-0.06636764
 ,-0.00897424,-0.03363051,-0.00190628,-0.02203620,-0.00190096,-0.006398
 92,-0.00181393,0.00829774,0.01009483,0.00596570,-0.00183329,-0.0069633
 1,-0.01059550,0.00091514,0.00125245,0.00024931,-0.07028716,-0.00805600
 ,0.06564504,0.01136187,-0.09162920,-0.06608742,0.11173880,0.20663621,0
 .00034326,-0.00014960,0.00092215,-0.00113160,0.00064645,-0.00140523,0.
 00268332,0.00014723,-0.00084849,-0.00197992,-0.00116852,0.00170454,0.0
 0016757,0.00003864,-0.00036202,-0.00140509,0.00235246,0.00027344,0.000
 09009,-0.00127138,-0.00045084,0.00005250,0.00031638,0.00003802,0.00039
 896,-0.00316266,0.00220859,-0.00008028,0.00234813,-0.00213986,0.000119
 59,-0.00059154,-0.00004280,0.00149031,0.00166724,0.00170479,-0.0028549
 2,0.00055234,-0.00084347,-0.00052594,0.00041527,0.00424572,0.00882399,
 -0.00064023,0.00148005,-0.01285582,-0.00554496,-0.00920735,-0.00351129
 ,0.00654821,-0.05168109,0.00134030,-0.00143189,0.00102719,-0.00026505,
 -0.00071507,0.00035355,-0.03171174,-0.02219658,-0.09591684,0.00234449,
 0.00194614,0.00577801,0.00102348,0.00301541,0.00098510,-0.00324406,-0.
 00773309,0.00268561,0.00085072,0.00105176,-0.00266992,0.00012881,0.001
 05776,0.00107535,0.03037871,0.03452231,-0.02372228,-0.00210577,-0.0384
 8003,-0.06477506,-0.02597692,0.06015780,0.40575980,0.00037678,-0.00008
 657,0.00087122,-0.00087745,-0.00014047,-0.00080292,0.00181637,0.000165
 91,-0.00033329,-0.00134026,-0.00071574,0.00117741,0.00003479,0.0000868
 8,-0.00025986,-0.00002284,0.00177471,-0.00050104,0.00022024,-0.0013876
 8,-0.00018155,0.00006347,0.00026636,-0.00001062,0.00009612,-0.00239023
 ,0.00202161,-0.00006756,0.00188565,-0.00191250,0.00014104,-0.00050896,
 0.00001589,0.00119003,0.00107463,0.00078898,-0.00224850,0.00065701,-0.
 00197533,0.00490328,-0.00193139,-0.00026623,-0.00592094,0.00215530,-0.
 00353524,0.00378264,0.00136991,0.00684673,-0.00833364,-0.00529691,0.00
 217862,0.00163313,0.00108486,-0.00529364,-0.00115614,-0.00079084,0.000
 76008,0.01469365,-0.00754134,-0.02028101,-0.00025501,0.00972499,-0.001
 50279,-0.00034237,-0.00116993,-0.00116996,-0.00018600,0.00331474,0.001
 14539,0.00060989,-0.00274027,-0.00125216,0.00005972,0.00023858,-0.0002
 1959,-0.00606541,-0.00426397,0.00372035,-0.01165033,0.00074291,0.02362
 302,-0.08087446,-0.02587207,0.01568415,0.36517779,-0.00025854,0.000138
 58,-0.00047779,0.00032606,-0.00032752,0.00044011,-0.00089486,0.0001322
 3,0.00019634,0.00070020,0.00028903,-0.00067399,0.00002654,-0.00007263,
 0.00014379,-0.00046109,-0.00055329,0.00055920,-0.00008001,0.00071274,0
 .00005696,-0.00001567,-0.00017212,-0.00000256,-0.00006430,0.00067686,-
 0.00146494,0.00011395,-0.00079189,0.00107717,-0.00010099,0.00028970,-0
 .00004091,-0.00023128,0.00003231,-0.00015847,0.00164041,-0.00008954,0.
 00124280,-0.00548832,0.00092025,0.00105588,0.00692749,-0.00325772,0.00
 370514,-0.00486739,-0.00031177,-0.00672906,-0.00049390,0.00341904,-0.0
 0209258,0.00128091,-0.00061920,0.00217000,0.00037816,0.00052597,-0.000
 78791,0.00298899,0.00359018,-0.00518871,0.00125351,-0.00283445,0.00095
 760,0.00046766,0.00072172,0.00041832,-0.00243797,-0.00203584,-0.001678
 74,0.00040891,0.00272529,0.00339910,-0.00030875,-0.00057105,-0.0002223
 8,0.01282178,-0.00295546,-0.00809078,-0.02858694,-0.01184457,0.0516247
 7,-0.01462742,-0.04271652,-0.02621208,0.04896128,0.04931099,-0.0005584
 5,0.00018603,-0.00119647,0.00114800,-0.00010012,0.00107749,-0.00231089
 ,-0.00026590,0.00060332,0.00166825,0.00092961,-0.00154463,-0.00006368,
 -0.00012029,0.00033345,0.00017916,-0.00191334,0.00028886,-0.00025296,0
 .00158557,0.00027245,-0.00005790,-0.00036041,0.00001146,-0.00015443,0.
 00274762,-0.00253540,0.00004731,-0.00230488,0.00230956,-0.00014740,0.0
 0066038,-0.00002439,-0.00101155,-0.00124902,-0.00075353,0.00229742,-0.
 00012916,0.00119010,-0.00295117,0.00123761,0.00085388,0.00459804,-0.00
 235992,0.00008747,-0.00364502,0.00154131,-0.00372048,-0.00601860,-0.00
 159084,0.00201225,0.00255538,-0.00044616,-0.00143768,-0.00042680,0.000
 74796,-0.00106608,0.01664013,-0.00179330,-0.05007779,-0.00151574,-0.00
 429415,0.00362748,0.00069691,0.00059418,0.00040455,0.00281827,-0.00209
 853,-0.00341779,-0.00176736,0.00283560,0.00228071,-0.00004351,-0.00073
 490,-0.00004246,0.00247204,0.00277660,0.00284888,0.02573220,0.01648758
 ,-0.02539155,0.02319505,-0.00140625,-0.14731513,0.21449909,0.00812386,
 0.51866861,-0.21987915,-0.00159308,0.26716715,0.01248845,0.00248182,-0
 .02573187,-0.00008544,-0.00134926,-0.00196770,-0.00132038,0.00002804,0
 .00079351,0.00059372,-0.00216145,-0.00024316,-0.00101181,-0.00033725,0
 .00014127,0.00021272,0.00004351,-0.00011382,-0.00000209,-0.00000181,-0
 .00004072,-0.00013066,0.00026602,-0.00009890,0.00013620,-0.00017048,0.
 00026326,-0.00003950,0.00005245,0.00000265,-0.00104998,-0.00180546,-0.
 00121519,-0.00009312,0.00073049,-0.00162110,0.00032109,0.00021366,0.00
 007509,-0.00009480,-0.00003163,-0.00003501,0.00005005,0.00004780,0.000
 08063,0.00005012,-0.00007499,0.00005270,0.00002413,0.00006229,-0.00011
 031,-0.00009430,-0.00003959,0.00008123,0.00001098,0.00006417,-0.000009
 46,-0.00002313,-0.00004406,-0.00000103,0.00001000,0.00000406,0.0000028
 7,-0.00002709,-0.00009821,-0.00001607,-0.00000095,0.00006144,0.0000217
 7,0.00000115,-0.00001193,0.00000216,0.00003494,0.00003109,-0.00003277,
 -0.00004287,0.00006148,0.00004759,0.00005381,-0.00007005,-0.00004180,-
 0.00003357,0.00002366,0.00004477,0.20994060,-0.00305146,0.01369996,-0.
 00043717,0.00313906,0.00142677,0.00746946,0.00138287,-0.00444614,-0.00
 819418,-0.00197929,-0.00022858,0.00414293,-0.00341407,-0.00271386,-0.0
 0084830,-0.00175686,0.00096677,0.00193970,0.00029880,-0.00009012,-0.00
 001556,-0.00005446,0.00001130,-0.00023833,-0.00022536,-0.00012625,-0.0
 0008996,0.00016264,-0.00032089,-0.00011622,-0.00004366,-0.00004387,0.0
 0012512,0.00088450,0.00031913,0.00273724,-0.00009103,-0.00072351,0.002
 02278,0.00197049,-0.00055616,-0.00159448,-0.00092976,-0.00000284,-0.00
 029657,-0.00001739,0.00013462,0.00056176,0.00016361,-0.00019536,0.0000
 6613,-0.00010416,0.00015042,-0.00011585,0.00008380,-0.00012196,0.00002
 078,-0.00001753,0.00005528,0.00001015,0.00000468,-0.00001911,-0.000028
 60,-0.00001047,0.00000391,0.00001375,-0.00015379,-0.00014996,0.0000665
 5,0.00008826,-0.00003083,-0.00005440,-0.00000403,0.00002948,-0.0000013
 3,0.00009921,0.00011867,-0.00005923,-0.00004990,0.00006310,0.00007535,
 -0.00002416,-0.00002782,-0.00001998,0.00002719,-0.00001817,-0.00003819
 ,0.00362060,-0.00717514,0.22471032,0.00649304,-0.35026319,0.01605274,0
 .00424087,-0.02642991,0.00039536,-0.00078225,-0.00192531,0.00035048,0.
 00030998,0.00046245,-0.00096855,-0.00156956,0.00109486,-0.00044711,-0.
 00051262,-0.00048269,0.00005622,0.00019623,0.00019058,-0.00002898,-0.0
 0012863,-0.00006174,0.00068933,0.00153944,-0.00039478,0.00003314,-0.00
 055824,0.00029177,-0.00008957,0.00011052,0.00005104,-0.00272762,-0.004
 16139,-0.00279308,-0.00051610,0.00205356,-0.00110963,-0.00023552,-0.00
 013672,0.00086565,0.00035310,0.00000786,-0.00000932,-0.00006549,0.0000
 0986,-0.00000765,0.00020457,-0.00001204,0.00010910,-0.00019555,-0.0000
 9863,-0.00028553,-0.00015732,0.00003778,0.00019099,0.00009586,0.000315
 56,0.00000847,-0.00013471,-0.00027547,0.00001370,0.00006071,0.00003599
 ,0.00000968,0.00004933,-0.00025000,-0.00032131,-0.00009801,0.00038161,
 0.00029062,-0.00002041,-0.00010563,-0.00000581,0.00030747,-0.00010843,
 -0.00007170,-0.00026097,0.00031413,0.00021797,0.00029542,-0.00034125,-
 0.00025027,-0.00022112,0.00012173,0.00029522,-0.23748407,-0.00711183,0
 .38041056,0.00001246,-0.00000731,0.00001539,-0.00000526,0.00001212,0.0
 0000289,0.00000201,0.00000284,-0.00000685,-0.00000100,0.00000350,0.000
 00641,0.00000089,0.00000282,-0.00000048,0.00003340,-0.00003334,-0.0000
 0484,-0.00000159,-0.00000320,0.00000313,0.00000312,0.00000395,0.000000
 09,-0.00000510,0.00003040,0.00004123,-0.00000548,0.00000225,-0.0000181
 6,0.00000625,-0.00000810,0.00000463,-0.00004505,-0.00002521,-0.0000315
 6,0.00001468,-0.00005364,0.00004075,0.00003680,0.00002263,-0.00015747,
 -0.00029204,0.00011717,0.00010209,0.00049650,0.00007784,0.00012739,0.0
 0081008,-0.00002125,0.00028534,-0.00026392,0.00010516,0.00041461,0.000
 08808,0.00001600,0.00001935,-0.00140238,-0.00087087,0.00322424,0.00020
 701,0.00040442,-0.00019905,-0.00003023,0.00004395,-0.00001731,-0.00015
 864,0.00017484,0.00035801,0.00007886,-0.00015519,-0.00021801,0.0000159
 8,0.00004478,0.00000398,-0.00082870,-0.00039275,0.00012852,-0.00106151
 ,-0.00055459,-0.00008164,0.01398393,0.00305260,0.02176993,-0.27542445,
 -0.01940207,-0.27766655,0.00000086,0.00000167,-0.00000295,0.26373442,0
 .00005482,-0.00003819,0.00007558,-0.00001614,0.00007813,-0.00002673,0.
 00006262,-0.00003081,-0.00000147,-0.00003776,0.00000338,0.00005994,-0.
 00001947,0.00002072,-0.00001157,0.00019657,-0.00004071,-0.00013453,0.0
 0002388,-0.00010964,0.00000719,-0.00000318,0.00003493,0.00000073,0.000
 00205,0.00011736,0.00019901,-0.00001213,-0.00001346,-0.00008427,0.0000
 0429,-0.00002251,0.00000249,-0.00009073,-0.00015070,-0.00010459,-0.000
 12556,-0.00008033,-0.00010515,0.00084728,-0.00013455,-0.00070016,-0.00
 191853,0.00099474,-0.00007403,0.00188370,-0.00052331,0.00132999,-0.001
 67971,-0.00013645,-0.00111443,-0.00010915,0.00002741,-0.00104035,-0.00
 014441,-0.00026162,0.00001383,0.00335010,0.00090698,0.00210410,0.00016
 349,0.00147413,-0.00034504,0.00001718,-0.00024916,-0.00027855,0.000339
 18,0.00097350,0.00098893,0.00011608,-0.00098763,-0.00111619,0.00008082
 ,0.00019231,0.00004047,-0.00410583,-0.00017617,0.00232242,0.00189585,0
 .00203706,-0.00230807,0.00051403,-0.00674029,-0.00746590,-0.01869454,0
 .00568683,-0.01924853,-0.00000338,0.00001117,-0.00001546,0.01740859,-0
 .00286312,0.00014936,-0.00003813,0.00035304,-0.00036884,-0.00001459,-0
 .00035928,0.00077835,0.00007624,-0.00017974,-0.00057563,-0.00031773,0.
 00050199,0.00002707,0.00003136,-0.00011044,-0.00011595,0.00075982,-0.0
 0012962,0.00007645,-0.00055062,-0.00009581,0.00002836,0.00010939,-0.00
 000099,0.00005819,-0.00096822,0.00077227,-0.00002985,0.00074644,-0.000
 73583,0.00005459,-0.00020038,-0.00000148,0.00047788,0.00046009,0.00036
 788,-0.00088135,0.00023844,-0.00067560,0.00150237,-0.00058844,0.000197
 46,-0.00137442,0.00064455,-0.00109369,0.00056289,0.00008275,0.00192557
 ,-0.00231050,-0.00134554,0.00001879,0.00045869,0.00026916,-0.00141318,
 -0.00040539,-0.00022729,0.00029797,0.00516172,-0.00047806,-0.00388011,
 -0.00010839,0.00189399,0.00023459,-0.00011960,-0.00032382,-0.00019317,
 -0.00006112,0.00065749,0.00022987,0.00012804,-0.00072233,-0.00035631,0
 .00003451,0.00010370,-0.00001104,-0.00073320,-0.00039632,0.00072369,-0
 .00037189,0.00338411,0.00091788,-0.02027186,-0.00885297,-0.02861129,-0
 .23361370,-0.02147190,-0.29864235,-0.00001367,0.00000848,-0.00009073,0
 .25185690,0.02703035,0.33003966\\-0.02927773,0.01658676,-0.00421887,0.
 12692804,-0.03897311,-0.03923113,-0.11599170,0.05133574,0.00525416,0.0
 2489734,-0.00657674,0.00983275,0.00772146,-0.00909894,-0.02981520,0.11
 879183,-0.01676859,-0.04452492,-0.04342333,0.01243825,0.05085011,0.011
 11612,0.00698353,-0.02142968,0.01813780,0.01231303,-0.02977525,-0.0184
 9324,-0.03666057,0.03197030,0.00396379,-0.03046944,-0.00533200,-0.0712
 5822,0.04160945,0.03479716,0.02722762,-0.01090591,-0.02338484,-0.09353
 734,-0.00569271,0.04003008,0.06638228,-0.00630502,0.02129900,-0.129820
 96,0.06877570,-0.05957609,0.14645224,-0.06731544,0.04655755,-0.0567860
 3,0.01962663,-0.00665479,0.02409487,0.01474429,0.00111044,-0.10188630,
 0.09834945,-0.03603177,0.02571480,-0.04841887,0.01736429,-0.02427430,0
 .00339901,-0.01047313,0.00716141,-0.02631539,-0.00694688,-0.00159717,0
 .05306061,0.01714167,-0.00948185,0.03249286,-0.00859835,0.05565797,-0.
 12260869,-0.00002644,-0.04232090,0.04388953,0.01789214,0.11057962,-0.0
 7140394,-0.00650332,-0.02688427,0.02102515,0.03504699,-0.00271311,0.00
 346636,0.01032889,-0.00708073,-0.00258300,-0.00695288\\\@


 This summer one third of the nation will be ill-housed
 ill-nourished and ill-clad. Only they call it a vacation.
 -- Jonas Salk
 Job cpu time:  0 days  7 hours 23 minutes 25.1 seconds.
 File lengths (MBytes):  RWF=    792 Int=      0 D2E=      0 Chk=     14 Scr=      1
 Normal termination of Gaussian 09 at Sun Oct 18 05:24:37 2015.
Gaussian '09 finished on node015 at Sun Oct 18 05:24:37 EDT 2015.
