Gaussian '09 started on node012 at Fri Apr  1 16:53:46 EDT 2016.
 Entering Gaussian System, Link 0=/usr/local/gaussian/g09/g09
 Initial command:
 /usr/local/gaussian/g09/l1.exe /home/srmcgrat/thesis/gaussian/cellobiose/550K/5402ps/1/2dp/gaussian5506/Gau-5542.inp -scrdir=/home/srmcgrat/thesis/gaussian/cellobiose/550K/5402ps/1/2dp/gaussian5506/
 Entering Link 1 = /usr/local/gaussian/g09/l1.exe PID=      5544.
  
 Copyright (c) 1988,1990,1992,1993,1995,1998,2003,2009,2010,
            Gaussian, Inc.  All Rights Reserved.
  
 This is part of the Gaussian(R) 09 program.  It is based on
 the Gaussian(R) 03 system (copyright 2003, Gaussian, Inc.),
 the Gaussian(R) 98 system (copyright 1998, Gaussian, Inc.),
 the Gaussian(R) 94 system (copyright 1995, Gaussian, Inc.),
 the Gaussian 92(TM) system (copyright 1992, Gaussian, Inc.),
 the Gaussian 90(TM) system (copyright 1990, Gaussian, Inc.),
 the Gaussian 88(TM) system (copyright 1988, Gaussian, Inc.),
 the Gaussian 86(TM) system (copyright 1986, Carnegie Mellon
 University), and the Gaussian 82(TM) system (copyright 1983,
 Carnegie Mellon University). Gaussian is a federally registered
 trademark of Gaussian, Inc.
  
 This software contains proprietary and confidential information,
 including trade secrets, belonging to Gaussian, Inc.
  
 This software is provided under written license and may be
 used, copied, transmitted, or stored only in accord with that
 written license.
  
 The following legend is applicable only to US Government
 contracts under FAR:
  
                    RESTRICTED RIGHTS LEGEND
  
 Use, reproduction and disclosure by the US Government is
 subject to restrictions as set forth in subparagraphs (a)
 and (c) of the Commercial Computer Software - Restricted
 Rights clause in FAR 52.227-19.
  
 Gaussian, Inc.
 340 Quinnipiac St., Bldg. 40, Wallingford CT 06492
  
  
 ---------------------------------------------------------------
 Warning -- This program may not be used in any manner that
 competes with the business of Gaussian, Inc. or will provide
 assistance to any competitor of Gaussian, Inc.  The licensee
 of this program is prohibited from giving any competitor of
 Gaussian, Inc. access to this program.  By using this program,
 the user acknowledges that Gaussian, Inc. is engaged in the
 business of creating and licensing software in the field of
 computational chemistry and represents and warrants to the
 licensee that it is not a competitor of Gaussian, Inc. and that
 it will not use this program in any manner prohibited above.
 ---------------------------------------------------------------
  

 Cite this work as:
 Gaussian 09, Revision B.01,
 M. J. Frisch, G. W. Trucks, H. B. Schlegel, G. E. Scuseria, 
 M. A. Robb, J. R. Cheeseman, G. Scalmani, V. Barone, B. Mennucci, 
 G. A. Petersson, H. Nakatsuji, M. Caricato, X. Li, H. P. Hratchian, 
 A. F. Izmaylov, J. Bloino, G. Zheng, J. L. Sonnenberg, M. Hada, 
 M. Ehara, K. Toyota, R. Fukuda, J. Hasegawa, M. Ishida, T. Nakajima, 
 Y. Honda, O. Kitao, H. Nakai, T. Vreven, J. A. Montgomery, Jr., 
 J. E. Peralta, F. Ogliaro, M. Bearpark, J. J. Heyd, E. Brothers, 
 K. N. Kudin, V. N. Staroverov, T. Keith, R. Kobayashi, J. Normand, 
 K. Raghavachari, A. Rendell, J. C. Burant, S. S. Iyengar, J. Tomasi, 
 M. Cossi, N. Rega, J. M. Millam, M. Klene, J. E. Knox, J. B. Cross, 
 V. Bakken, C. Adamo, J. Jaramillo, R. Gomperts, R. E. Stratmann, 
 O. Yazyev, A. J. Austin, R. Cammi, C. Pomelli, J. W. Ochterski, 
 R. L. Martin, K. Morokuma, V. G. Zakrzewski, G. A. Voth, 
 P. Salvador, J. J. Dannenberg, S. Dapprich, A. D. Daniels, 
 O. Farkas, J. B. Foresman, J. V. Ortiz, J. Cioslowski, 
 and D. J. Fox, Gaussian, Inc., Wallingford CT, 2010.
 
 ******************************************
 Gaussian 09:  EM64L-G09RevB.01 12-Aug-2010
                 1-Apr-2016 
 ******************************************
 -------------------------------------------------
 # freq=raman b3lyp/6-31+g(2d,p) geom=connectivity
 -------------------------------------------------
 1/10=4,30=1,38=1,57=2/1,3;
 2/12=2,17=6,18=5,40=1/2;
 3/5=1,6=6,7=112,11=2,16=1,25=1,30=1,71=2,74=-5/1,2,3;
 4//1;
 5/5=2,38=5,98=1/2;
 8/6=4,10=90,11=11/1;
 10/13=10,15=4/2;
 11/6=3,8=1,9=11,15=111,16=1/1,2,10;
 10/6=1/2;
 6/7=2,8=2,9=2,10=2,18=1,28=1/1;
 7/8=1,10=1,25=1/1,2,3,16;
 1/10=4,30=1/3;
 99//99;
 -----------------
 550 5402/5402.com
 -----------------
 Symbolic Z-matrix:
 Charge =  0 Multiplicity = 1
 O                     9.54      7.622     11.291 
 C                     10.526    7.743     12.326 
 C                     10.501    9.083     13.042 
 O                     11.129    9.95      12.086 
 H                     10.649    9.652     11.261 
 C                     11.094    9.329     14.419 
 O                     10.519    10.418    15.156 
 H                     10.845    11.192    14.613 
 C                     10.027    5.264     13.175 
 O                     9.228     4.437     14.033 
 H                     8.952     3.754     13.356 
 C                     10.335    6.728     13.442 
 O                     11.285    6.879     14.508 
 C                     10.796    8.048     15.182 
 O                     11.275    7.829     16.517 
 C                     10.377    7.704     17.629 
 C                     10.024    6.346     18.213 
 O                     9.48      5.511     17.18 
 H                     10.194    5.561     16.481 
 C                     9.07      6.565     19.376 
 O                     8.599     5.248     19.697 
 H                     8.003     4.968     18.945 
 C                     11.524    9.902     18.332 
 O                     12.271    10.792    19.176 
 H                     13.201    10.425    19.188 
 C                     11.084    8.499     18.714 
 O                     10.232    8.557     19.867 
 C                     9.942     7.26      20.409 
 O                     9.245     7.502     21.64 
 H                     9.88078   7.64075   22.34578 
 H                     10.84327   6.70967   20.58147 
 H                     8.25786   7.19587   19.08049 
 H                     10.91775   5.89041   18.58521 
 H                     9.46572   8.20677   17.38062 
 H                     11.96214   7.95308   18.98922 
 H                     10.63095   10.42837   18.06686 
 H                     12.09782   9.79633   17.43508 
 H                     9.9775    7.52278   10.44227 
 H                     10.973    4.77237   13.08397 
 H                     9.564     5.228     12.21103 
 H                     9.42402   7.066     13.89008 
 H                     11.49485   7.60168   11.89443 
 H                     9.47336   9.37495   13.10217 
 H                     12.15237   9.46434   14.33879 
 H                     9.73012   7.96297   15.22174 
 

 GradGradGradGradGradGradGradGradGradGradGradGradGradGradGradGradGradGrad
 Berny optimization.
 Initialization pass.
 Trust Radius=3.00D-01 FncErr=1.00D-07 GrdErr=1.00D-07
 Number of steps in this run=      2 maximum allowed number of steps=      2.
 GradGradGradGradGradGradGradGradGradGradGradGradGradGradGradGradGradGrad

                          Input orientation:                          
 ---------------------------------------------------------------------
 Center     Atomic      Atomic             Coordinates (Angstroms)
 Number     Number       Type             X           Y           Z
 ---------------------------------------------------------------------
      1          8           0        9.540000    7.622000   11.291000
      2          6           0       10.526000    7.743000   12.326000
      3          6           0       10.501000    9.083000   13.042000
      4          8           0       11.129000    9.950000   12.086000
      5          1           0       10.649000    9.652000   11.261000
      6          6           0       11.094000    9.329000   14.419000
      7          8           0       10.519000   10.418000   15.156000
      8          1           0       10.845000   11.192000   14.613000
      9          6           0       10.027000    5.264000   13.175000
     10          8           0        9.228000    4.437000   14.033000
     11          1           0        8.952000    3.754000   13.356000
     12          6           0       10.335000    6.728000   13.442000
     13          8           0       11.285000    6.879000   14.508000
     14          6           0       10.796000    8.048000   15.182000
     15          8           0       11.275000    7.829000   16.517000
     16          6           0       10.377000    7.704000   17.629000
     17          6           0       10.024000    6.346000   18.213000
     18          8           0        9.480000    5.511000   17.180000
     19          1           0       10.194000    5.561000   16.481000
     20          6           0        9.070000    6.565000   19.376000
     21          8           0        8.599000    5.248000   19.697000
     22          1           0        8.003000    4.968000   18.945000
     23          6           0       11.524000    9.902000   18.332000
     24          8           0       12.271000   10.792000   19.176000
     25          1           0       13.201000   10.425000   19.188000
     26          6           0       11.084000    8.499000   18.714000
     27          8           0       10.232000    8.557000   19.867000
     28          6           0        9.942000    7.260000   20.409000
     29          8           0        9.245000    7.502000   21.640000
     30          1           0        9.880782    7.640749   22.345783
     31          1           0       10.843273    6.709672   20.581469
     32          1           0        8.257855    7.195867   19.080488
     33          1           0       10.917751    5.890406   18.585214
     34          1           0        9.465722    8.206773   17.380622
     35          1           0       11.962138    7.953081   18.989221
     36          1           0       10.630953   10.428373   18.066863
     37          1           0       12.097816    9.796326   17.435079
     38          1           0        9.977500    7.522776   10.442267
     39          1           0       10.973000    4.772371   13.083972
     40          1           0        9.563999    5.228004   12.211032
     41          1           0        9.424023    7.066001   13.890081
     42          1           0       11.494854    7.601680   11.894432
     43          1           0        9.473359    9.374949   13.102172
     44          1           0       12.152371    9.464344   14.338792
     45          1           0        9.730124    7.962972   15.221737
 ---------------------------------------------------------------------
                    Distance matrix (angstroms):
                    1          2          3          4          5
     1  O    0.000000
     2  C    1.434595   0.000000
     3  C    2.474680   1.519500   0.000000
     4  O    2.928571   2.300447   1.435273   0.000000
     5  H    2.313370   2.189437   1.875534   0.999914   0.000000
     6  C    3.887563   2.686758   1.519307   2.414489   3.205514
     7  O    4.869731   3.894172   2.500309   3.164810   3.971735
     8  H    5.048129   4.150630   2.652218   2.830009   3.694038
     9  C    3.057252   2.667441   3.850601   4.935476   4.827507
    10  O    4.214277   3.940595   4.918122   6.147990   6.074492
    11  H    4.423957   4.410272   5.558438   6.688994   6.485001
    12  C    2.461313   1.520579   2.394490   3.584753   3.661302
    13  O    3.734456   2.466516   2.760693   3.914264   4.317063
    14  C    4.110826   2.884902   2.395381   3.648796   4.238946
    15  O    5.510368   4.258272   3.774549   4.914643   5.598280
    16  C    6.393554   5.305236   4.791408   6.027841   6.664841
    17  C    7.055247   6.071275   5.870089   7.193745   7.723378
    18  O    6.256216   5.444011   5.560995   6.955053   7.317718
    19  H    5.622414   4.704824   4.932084   6.281208   6.647684
    20  C    8.167336   7.294527   6.964743   8.297096   8.824740
    21  O    8.785340   8.016857   7.912892   9.297151   9.734671
    22  H    8.245593   7.607714   7.616997   9.035379   9.380033
    23  C    7.662267   6.459824   5.449898   6.258662   7.129317
    24  O    8.926393   7.698307   6.609050   7.230576   8.159516
    25  H    9.144525   7.838099   6.845749   7.413313   8.363466
    26  C    7.632430   6.456736   5.731713   6.785117   7.554194
    27  O    8.654529   7.590501   6.850523   7.955440   8.685399
    28  C    9.134034   8.118450   7.609763   8.827083   9.481952
    29  O   10.353899   9.404767   8.831914  10.040970  10.691930
    30  H   11.060051  10.041057   9.435314  10.590271  11.291931
    31  H    9.425693   8.325936   7.911601   9.096943   9.775796
    32  H    7.905796   7.146114   6.712399   8.046837   8.537831
    33  H    7.622479   6.539368   6.410426   7.665815   8.238078
    34  H    6.118086   5.185410   4.545681   5.817075   6.398328
    35  H    8.077065   6.819468   6.227446   7.234381   8.020976
    36  H    7.414730   6.338750   5.203476   6.020599   6.850025
    37  H    7.001416   5.726207   4.728403   5.438278   6.343433
    38  H    0.960000   1.974285   3.076843   3.149481   2.377989
    39  H    3.659046   3.098220   4.336596   5.275237   5.219097
    40  H    2.564810   2.695156   4.053328   4.976153   4.653120
    41  H    2.660415   2.029539   2.438730   3.805142   3.885875
    42  H    2.045971   1.070000   2.121077   2.384356   2.306625
    43  H    2.521431   2.091352   1.070000   2.025941   2.202000
    44  H    4.416758   3.107964   2.134038   2.521551   3.430472
    45  H    3.950076   3.011162   2.569040   3.967112   4.402793
                    6          7          8          9         10
     6  C    0.000000
     7  O    1.435171   0.000000
     8  H    1.889552   1.000100   0.000000
     9  C    4.382950   5.543477   6.154523   0.000000
    10  O    5.250011   6.220946   6.970015   1.434745   0.000000
    11  H    6.066198   7.078445   7.777361   1.862387   1.000497
    12  C    2.880245   4.072806   4.643128   1.519687   2.612166
    13  O    2.459045   3.678475   4.336657   2.442883   3.228039
    14  C    1.520505   2.386274   3.195450   3.517110   4.100993
    15  O    2.585414   3.021056   3.888430   4.393824   4.676123
    16  C    3.668626   3.674464   4.634806   5.090601   4.992465
    17  C    4.943443   5.115805   6.092434   5.152880   4.663721
    18  O    4.980486   5.408766   6.381730   4.049721   3.334755
    19  H    4.388584   5.044968   5.968365   3.323512   2.861684
    20  C    6.025622   5.895219   6.873567   6.407874   5.753347
    21  O    7.122982   7.143947   8.137734   6.676520   5.756236
    22  H    7.004090   7.098540   8.098232   6.121854   5.090219
    23  C    3.978039   3.370943   3.994509   7.095541   7.322516
    24  O    5.114171   4.401111   4.797337   8.462052   8.723321
    25  H    5.327666   4.842540   5.202850   8.536180   8.843919
    26  C    4.374474   4.081807   4.911982   6.501000   6.469648
    27  O    5.569536   5.073383   5.909612   7.461149   7.212349
    28  C    6.441115   6.156290   7.061845   7.504798   7.009458
    29  O    7.674606   7.222769   8.096594   8.790699   8.201278
    30  H    8.194876   7.733915   8.563705   9.474892   8.932665
    31  H    6.700729   6.579709   7.464174   7.590261   7.117345
    32  H    5.858621   5.558464   6.528464   6.460400   5.833495
    33  H    5.404843   5.693647   6.625004   5.518718   5.068560
    34  H    3.561164   3.308755   4.298106   5.163546   5.047205
    35  H    4.851158   4.780382   5.557869   6.691867   6.663518
    36  H    3.837960   2.913033   3.543742   7.139036   7.357776
    37  H    3.212907   2.841362   3.388448   6.555801   6.966517
    38  H    4.508151   5.558312   5.622346   3.545751   4.793447
    39  H    4.749717   6.030965   6.600450   1.070000   2.014485
    40  H    4.902468   6.043254   6.555887   1.070000   2.014485
    41  H    2.861773   3.746655   4.423308   2.030303   2.640170
    42  H    3.085087   4.418345   4.550090   3.042893   4.441542
    43  H    2.088689   2.529729   2.732338   4.148701   5.030903
    44  H    1.070000   2.060386   2.183850   4.849176   5.824057
    45  H    2.090592   2.579498   3.469889   3.400252   3.754690
                   11         12         13         14         15
    11  H    0.000000
    12  C    3.280970   0.000000
    13  O    4.066401   1.435847   0.000000
    14  C    5.017275   2.232156   1.435255   0.000000
    15  O    5.656313   3.398739   2.222314   1.435140   0.000000
    16  C    5.990964   4.299455   3.353465   2.506333   1.434773
    17  C    5.608752   4.796362   3.949840   3.560864   2.576957
    18  O    4.241322   4.023028   3.502718   3.487152   3.005781
    19  H    3.817517   3.258418   2.611539   2.869664   2.512704
    20  C    6.645002   6.069526   5.357448   4.771583   3.825389
    21  O    6.524180   6.658012   6.066340   5.749090   4.892335
    22  H    5.797527   6.230476   5.840412   5.607800   4.978603
    23  C    8.317071   5.949798   4.880433   3.726902   2.766506
    24  O    9.717078   7.289921   6.170412   5.065293   4.103860
    25  H    9.826926   7.409337   6.176372   5.242346   4.193201
    26  C    7.467839   5.611722   4.511678   3.572306   2.304819
    27  O    8.191479   6.681053   5.713438   4.746199   3.583341
    28  C    7.938321   6.998326   6.063878   5.354604   4.153109
    29  O    9.097143   8.306286   7.444135   6.664044   5.520232
    30  H    9.837970   8.961963   7.998934   7.233483   5.996165
    31  H    8.032454   7.157563   6.091866   5.563059   4.237829
    32  H    6.715508   6.027103   5.492873   4.729325   4.009425
    33  H    5.981061   5.243455   4.211397   4.031365   2.857146
    34  H    6.024009   4.295947   3.650303   2.574643   2.040108
    35  H    7.643716   5.909320   4.657629   3.982941   2.568936
    36  H    8.340166   5.930405   5.068662   3.743775   3.094125
    37  H    7.940072   5.335431   4.211799   3.134922   2.321695
    38  H    4.872901   3.123760   4.319050   4.838479   6.219298
    39  H    2.279368   2.087992   2.561852   3.893943   4.606503
    40  H    1.964226   2.087992   3.311147   4.277482   5.313573
    41  H    3.387831   1.070000   1.969779   2.125017   3.302875
    42  H    4.838071   2.122156   2.719750   3.390531   4.633373
    43  H    5.650780   2.804326   3.389418   2.799260   4.158956
    44  H    6.619387   3.405092   2.732209   2.134660   2.861594
    45  H    4.669250   2.249109   2.025353   1.070000   2.020469
                   16         17         18         19         20
    16  C    0.000000
    17  C    1.519812   0.000000
    18  O    2.411526   1.435357   0.000000
    19  H    2.438000   1.909175   1.000448   0.000000
    20  C    2.461215   1.520081   2.470108   3.263804   0.000000
    21  O    3.670129   2.332056   2.679668   3.603422   1.435051
    22  H    3.854015   2.553262   2.364657   3.350138   1.968415
    23  C    2.577018   3.861256   4.978546   4.902997   4.271723
    24  O    3.939059   5.073785   6.297830   6.240218   5.306028
    25  H    4.220106   5.261387   6.482692   6.326800   5.656864
    26  C    1.519572   2.451532   3.722112   3.796081   2.869633
    27  O    2.399433   2.769025   4.130810   4.521333   2.357836
    28  C    2.848642   2.380029   3.701201   4.287107   1.520032
    29  O    4.172571   3.699663   4.889878   5.593153   2.456479
    30  H    4.743235   4.333219   5.601944   6.230501   3.261015
    31  H    3.150107   2.532413   3.855557   4.307534   2.149089
    32  H    2.618357   2.143380   2.818558   3.630259   1.070000
    33  H    2.120349   1.070000   2.045900   2.249454   2.120048
    34  H    1.070000   2.113529   2.703266   2.887876   2.614106
    35  H    2.103546   2.634693   3.924035   3.890956   3.231227
    36  H    2.770997   4.129833   5.127551   5.137821   4.367615
    37  H    2.715998   4.100077   5.028126   4.740546   4.834906
    38  H    7.200110   7.859470   7.049241   6.353089   9.030641
    39  H    5.441226   5.448288   4.421772   3.573314   6.813556
    40  H    6.012146   6.122511   4.977729   4.329020   7.305365
    41  H    3.910847   4.423347   3.639331   3.093663   5.520112
    42  H    5.843401   6.607908   6.030573   5.185865   7.932747
    43  H    4.909257   5.966431   5.617724   5.146067   6.886176
    44  H    4.132339   5.409577   5.553644   4.864193   6.578805
    45  H    2.506079   3.413007   3.147939   2.751435   4.432606
                   21         22         23         24         25
    21  O    0.000000
    22  H    0.999560   0.000000
    23  C    5.663794   6.092419   0.000000
    24  O    6.670154   7.224137   1.436122   0.000000
    25  H    6.945417   7.540365   1.954122   0.999866   0.000000
    26  C    4.208386   4.691895   1.519188   2.623025   2.901007
    27  O    3.693923   4.324286   2.415474   3.103261   3.572874
    28  C    2.521654   3.340102   3.714407   4.406762   4.704163
    29  O    3.045173   3.902146   4.679392   5.104123   5.496014
    30  H    3.792659   4.715398   4.891205   5.068634   5.361670
    31  H    2.820555   3.711954   3.964147   4.547434   4.615658
    32  H    2.071389   2.246486   4.307098   5.389492   5.905382
    33  H    2.650539   3.078320   4.065039   5.119173   5.112643
    34  H    3.856313   3.882845   2.831152   4.216202   4.705257
    35  H    4.373684   4.958572   2.102900   2.861772   2.772124
    36  H    5.798486   6.123147   1.070000   2.012999   2.803944
    37  H    6.168085   6.508465   1.070000   2.012999   2.164481
    38  H    9.629380   9.095164   8.384525   9.603440   9.762259
    39  H    7.042318   6.573494   7.359245   8.662190   8.612512
    40  H    7.547936   6.917416   7.946955   9.316474   9.429455
    41  H    6.140529   5.654478   5.673045   7.066066   7.322320
    42  H    8.649037   8.296977   6.836271   7.987601   8.004886
    43  H    7.828663   7.464703   5.642163   6.835657   7.213543
    44  H    7.688589   7.658430   4.065969   5.017502   5.053445
    45  H    5.355231   5.080896   4.080632   5.485950   5.817199
                   26         27         28         29         30
    26  C    0.000000
    27  O    1.434809   0.000000
    28  C    2.390044   1.435295   0.000000
    29  O    3.596861   2.287077   1.435177   0.000000
    30  H    3.920992   2.665940   1.974803   0.960000   0.000000
    31  H    2.597516   2.072859   1.070000   2.074307   2.214971
    32  H    3.133618   2.523595   2.146020   2.760304   3.673414
    33  H    2.617057   3.037096   2.480740   3.837583   4.275615
    34  H    2.117101   2.625246   3.208472   4.322930   5.014527
    35  H    1.070000   2.031893   2.564584   3.822688   3.961831
    36  H    2.084831   2.627108   3.999856   4.822016   5.161663
    37  H    2.084831   3.306273   4.463710   5.575290   5.803170
    38  H    8.402317   9.484724   9.970260  11.221685  11.904494
    39  H    6.752577   7.802690   7.804313   9.145626   9.757135
    40  H    7.436290   8.375099   8.454500   9.704548  10.422806
    41  H    5.298981   6.212847   6.542342   7.764238   8.487512
    42  H    6.890609   8.128301   8.661753  10.002393  10.575325
    43  H    5.903733   6.856199   7.621179   8.743831   9.413702
    44  H    4.606056   5.922177   6.825855   8.100077   8.520419
    45  H    3.783677   4.709907   5.238966   6.453057   7.132922
                   31         32         33         34         35
    31  H    0.000000
    32  H    3.028815   0.000000
    33  H    2.159115   3.004092   0.000000
    34  H    3.792675   2.317416   2.987472   0.000000
    35  H    2.309368   3.781986   2.347039   2.980611   0.000000
    36  H    4.494115   4.136197   4.576471   2.600806   2.958018
    37  H    4.582695   4.920880   4.239290   3.075315   2.414812
    38  H   10.208533   8.813791   8.358008   6.990747   8.784895
    39  H    7.744833   7.014524   5.613976   5.703351   6.779918
    40  H    8.596284   7.264153   6.549933   5.967193   7.689016
    41  H    6.849520   5.321385   5.065325   3.672462   5.764561
    42  H    8.756989   7.891910   6.930229   5.880629   7.118839
    43  H    8.057310   6.478125   6.655227   4.435068   6.547753
    44  H    6.947876   6.541936   5.685897   4.248800   4.893526
    45  H    5.615746   4.200713   4.125405   2.188638   4.379032
                   36         37         38         39         40
    36  H    0.000000
    37  H    1.717651   0.000000
    38  H    8.185595   7.652725   0.000000
    39  H    7.545631   6.740732   3.941364   0.000000
    40  H    7.903985   7.387859   2.926686   1.718984   0.000000
    41  H    5.496156   5.212567   3.521705   2.882686   2.493397
    42  H    6.843641   5.989892   2.101755   3.113250   3.076162
    43  H    5.205562   5.083248   3.280214   4.840762   4.242581
    44  H    4.140360   3.114512   4.866483   4.998010   5.401259
    45  H    3.870974   3.723713   4.806069   4.036670   4.070870
                   41         42         43         44         45
    41  H    0.000000
    42  H    2.925390   0.000000
    43  H    2.440179   2.947806   0.000000
    44  H    3.660228   3.142728   2.952003   0.000000
    45  H    1.634491   3.783617   2.559719   2.983453   0.000000
 Stoichiometry    C12H22O11
 Framework group  C1[X(C12H22O11)]
 Deg. of freedom   129
 Full point group                 C1      NOp   1
 Largest Abelian subgroup         C1      NOp   1
 Largest concise Abelian subgroup C1      NOp   1
                         Standard orientation:                         
 ---------------------------------------------------------------------
 Center     Atomic      Atomic             Coordinates (Angstroms)
 Number     Number       Type             X           Y           Z
 ---------------------------------------------------------------------
      1          8           0        4.957614   -0.554161   -0.886611
      2          6           0        3.970899   -0.019893    0.007265
      3          6           0        3.276706    1.224665   -0.520044
      4          8           0        4.274582    2.236771   -0.320310
      5          1           0        5.071753    1.746433   -0.672329
      6          6           0        1.932495    1.730133   -0.024169
      7          8           0        1.188048    2.528012   -0.956318
      8          1           0        1.758074    3.349348   -0.982357
      9          6           0        3.059202   -2.465125    0.559432
     10          8           0        2.152054   -3.511174    0.183456
     11          1           0        2.804373   -4.269739    0.176135
     12          6           0        2.830744   -0.990301    0.272817
     13          8           0        1.811916   -0.441645    1.122889
     14          6           0        1.135645    0.461522    0.235813
     15          8           0       -0.179497    0.493597    0.809398
     16          6           0       -1.333290    0.061655    0.074034
     17          6           0       -1.955136   -1.305302    0.307626
     18          8           0       -0.961994   -2.320955    0.101786
     19          1           0       -0.230361   -2.016725    0.712567
     20          6           0       -3.156754   -1.441707   -0.613327
     21          8           0       -3.520627   -2.826271   -0.513579
     22          1           0       -2.801375   -3.343390   -0.976595
     23          6           0       -1.946777    2.555865    0.282777
     24          8           0       -2.740956    3.695793    0.646492
     25          1           0       -2.716488    3.725835    1.645608
     26          6           0       -2.371580    1.106568    0.447142
     27          8           0       -3.561203    0.862190   -0.316895
     28          6           0       -4.137213   -0.425301   -0.051084
     29          8           0       -5.394624   -0.436991   -0.742831
     30          1           0       -6.068226   -0.035443   -0.189098
     31          1           0       -4.277362   -0.569622    0.999834
     32          1           0       -2.888304   -1.192364   -1.618644
     33          1           0       -2.293575   -1.358953    1.321273
     34          1           0       -1.118564    0.155836   -0.969960
     35          1           0       -2.615344    0.960587    1.478727
     36          1           0       -1.714088    2.678351   -0.754408
     37          1           0       -1.026431    2.655279    0.819415
     38          1           0        5.823704   -0.500971   -0.475931
     39          1           0        3.185252   -2.546653    1.618849
     40          1           0        4.000275   -2.712754    0.114504
     41          1           0        2.347130   -1.024195   -0.681053
     42          1           0        4.443909    0.218000    0.937087
     43          1           0        3.174450    1.089594   -1.576547
     44          1           0        2.063216    2.269074    0.890902
     45          1           0        1.045835   -0.035513   -0.707474
 ---------------------------------------------------------------------
 Rotational constants (GHZ):      0.3754909      0.1537702      0.1151979
 Standard basis: 6-31+G(2d,p) (6D, 7F)
 There are   685 symmetry adapted basis functions of A   symmetry.
 Integral buffers will be    131072 words long.
 Raffenetti 2 integral format.
 Two-electron integral symmetry is turned on.
   685 basis functions,  1028 primitive gaussians,   685 cartesian basis functions
    91 alpha electrons       91 beta electrons
       nuclear repulsion energy      2283.4734159196 Hartrees.
 NAtoms=   45 NActive=   45 NUniq=   45 SFac= 1.00D+00 NAtFMM=   50 NAOKFM=F Big=F
 One-electron integrals computed using PRISM.
 NBasis=   685 RedAO= T  NBF=   685
 NBsUse=   685 1.00D-06 NBFU=   685
 Harris functional with IExCor=  402 diagonalized for initial guess.
 ExpMin= 4.38D-02 ExpMax= 5.48D+03 ExpMxC= 8.25D+02 IAcc=2 IRadAn=         0 AccDes= 0.00D+00
 HarFok:  IExCor=  402 AccDes= 0.00D+00 IRadAn=         0 IDoV= 1
 ScaDFX=  1.000000  1.000000  1.000000  1.000000
 FoFCou: FMM=F IPFlag=           0 FMFlag=      100000 FMFlg1=           0
         NFxFlg=           0 DoJE=T BraDBF=F KetDBF=T FulRan=T
         Omega=  0.000000  0.000000  1.000000  0.000000  0.000000 ICntrl=     500 IOpCl=  0
         NMat0=    1 NMatS0=    1 NMatT0=    0 NMatD0=    1 NMtDS0=    0 NMtDT0=    0
         I1Cent=           4 NGrid=           0.
 Petite list used in FoFCou.
 Initial guess orbital symmetries:
       Occupied  (A) (A) (A) (A) (A) (A) (A) (A) (A) (A) (A) (A)
                 (A) (A) (A) (A) (A) (A) (A) (A) (A) (A) (A) (A)
                 (A) (A) (A) (A) (A) (A) (A) (A) (A) (A) (A) (A)
                 (A) (A) (A) (A) (A) (A) (A) (A) (A) (A) (A) (A)
                 (A) (A) (A) (A) (A) (A) (A) (A) (A) (A) (A) (A)
                 (A) (A) (A) (A) (A) (A) (A) (A) (A) (A) (A) (A)
                 (A) (A) (A) (A) (A) (A) (A) (A) (A) (A) (A) (A)
                 (A) (A) (A) (A) (A) (A) (A)
       Virtual   (A) (A) (A) (A) (A) (A) (A) (A) (A) (A) (A) (A)
                 (A) (A) (A) (A) (A) (A) (A) (A) (A) (A) (A) (A)
                 (A) (A) (A) (A) (A) (A) (A) (A) (A) (A) (A) (A)
                 (A) (A) (A) (A) (A) (A) (A) (A) (A) (A) (A) (A)
                 (A) (A) (A) (A) (A) (A) (A) (A) (A) (A) (A) (A)
                 (A) (A) (A) (A) (A) (A) (A) (A) (A) (A) (A) (A)
                 (A) (A) (A) (A) (A) (A) (A) (A) (A) (A) (A) (A)
                 (A) (A) (A) (A) (A) (A) (A) (A) (A) (A) (A) (A)
                 (A) (A) (A) (A) (A) (A) (A) (A) (A) (A) (A) (A)
                 (A) (A) (A) (A) (A) (A) (A) (A) (A) (A) (A) (A)
                 (A) (A) (A) (A) (A) (A) (A) (A) (A) (A) (A) (A)
                 (A) (A) (A) (A) (A) (A) (A) (A) (A) (A) (A) (A)
                 (A) (A) (A) (A) (A) (A) (A) (A) (A) (A) (A) (A)
                 (A) (A) (A) (A) (A) (A) (A) (A) (A) (A) (A) (A)
                 (A) (A) (A) (A) (A) (A) (A) (A) (A) (A) (A) (A)
                 (A) (A) (A) (A) (A) (A) (A) (A) (A) (A) (A) (A)
                 (A) (A) (A) (A) (A) (A) (A) (A) (A) (A) (A) (A)
                 (A) (A) (A) (A) (A) (A) (A) (A) (A) (A) (A) (A)
                 (A) (A) (A) (A) (A) (A) (A) (A) (A) (A) (A) (A)
                 (A) (A) (A) (A) (A) (A) (A) (A) (A) (A) (A) (A)
                 (A) (A) (A) (A) (A) (A) (A) (A) (A) (A) (A) (A)
                 (A) (A) (A) (A) (A) (A) (A) (A) (A) (A) (A) (A)
                 (A) (A) (A) (A) (A) (A) (A) (A) (A) (A) (A) (A)
                 (A) (A) (A) (A) (A) (A) (A) (A) (A) (A) (A) (A)
                 (A) (A) (A) (A) (A) (A) (A) (A) (A) (A) (A) (A)
                 (A) (A) (A) (A) (A) (A) (A) (A) (A) (A) (A) (A)
                 (A) (A) (A) (A) (A) (A) (A) (A) (A) (A) (A) (A)
                 (A) (A) (A) (A) (A) (A) (A) (A) (A) (A) (A) (A)
                 (A) (A) (A) (A) (A) (A) (A) (A) (A) (A) (A) (A)
                 (A) (A) (A) (A) (A) (A) (A) (A) (A) (A) (A) (A)
                 (A) (A) (A) (A) (A) (A) (A) (A) (A) (A) (A) (A)
                 (A) (A) (A) (A) (A) (A) (A) (A) (A) (A) (A) (A)
                 (A) (A) (A) (A) (A) (A) (A) (A) (A) (A) (A) (A)
                 (A) (A) (A) (A) (A) (A) (A) (A) (A) (A) (A) (A)
                 (A) (A) (A) (A) (A) (A) (A) (A) (A) (A) (A) (A)
                 (A) (A) (A) (A) (A) (A) (A) (A) (A) (A) (A) (A)
                 (A) (A) (A) (A) (A) (A) (A) (A) (A) (A) (A) (A)
                 (A) (A) (A) (A) (A) (A) (A) (A) (A) (A) (A) (A)
                 (A) (A) (A) (A) (A) (A) (A) (A) (A) (A) (A) (A)
                 (A) (A) (A) (A) (A) (A) (A) (A) (A) (A) (A) (A)
                 (A) (A) (A) (A) (A) (A) (A) (A) (A) (A) (A) (A)
                 (A) (A) (A) (A) (A) (A) (A) (A) (A) (A) (A) (A)
                 (A) (A) (A) (A) (A) (A) (A) (A) (A) (A) (A) (A)
                 (A) (A) (A) (A) (A) (A) (A) (A) (A) (A) (A) (A)
                 (A) (A) (A) (A) (A) (A) (A) (A) (A) (A) (A) (A)
                 (A) (A) (A) (A) (A) (A) (A) (A) (A) (A) (A) (A)
                 (A) (A) (A) (A) (A) (A) (A) (A) (A) (A) (A) (A)
                 (A) (A) (A) (A) (A) (A) (A) (A) (A) (A) (A) (A)
                 (A) (A) (A) (A) (A) (A) (A) (A) (A) (A) (A) (A)
                 (A) (A) (A) (A) (A) (A)
 The electronic state of the initial guess is 1-A.
 Requested convergence on RMS density matrix=1.00D-08 within 128 cycles.
 Requested convergence on MAX density matrix=1.00D-06.
 Requested convergence on             energy=1.00D-06.
 No special actions if energy rises.
 SCF Done:  E(RB3LYP) =  -1297.93368278     A.U. after   13 cycles
             Convg  =    0.6327D-08             -V/T =  2.0062
 Range of M.O.s used for correlation:     1   685
 NBasis=   685 NAE=    91 NBE=    91 NFC=     0 NFV=     0
 NROrb=    685 NOA=    91 NOB=    91 NVA=   594 NVB=   594

 **** Warning!!: The largest alpha MO coefficient is  0.67572636D+02

          Differentiating once with respect to electric field.
                with respect to dipole field.
          Electric field/nuclear overlap derivatives assumed to be zero.
          There are     3 degrees of freedom in the 1st order CPHF.  IDoFFX=0.
      3 vectors produced by pass  0 Test12= 1.80D-12 3.33D-08 XBig12= 1.20D+02 1.00D+00.
 AX will form     3 AO Fock derivatives at one time.
      3 vectors produced by pass  1 Test12= 1.80D-12 3.33D-08 XBig12= 2.77D+01 3.92D-01.
      3 vectors produced by pass  2 Test12= 1.80D-12 3.33D-08 XBig12= 1.12D+01 2.46D-01.
      3 vectors produced by pass  3 Test12= 1.80D-12 3.33D-08 XBig12= 1.19D+00 8.50D-02.
      3 vectors produced by pass  4 Test12= 1.80D-12 3.33D-08 XBig12= 3.04D-01 3.68D-02.
      3 vectors produced by pass  5 Test12= 1.80D-12 3.33D-08 XBig12= 6.70D-02 1.50D-02.
      3 vectors produced by pass  6 Test12= 1.80D-12 3.33D-08 XBig12= 2.17D-02 1.29D-02.
      3 vectors produced by pass  7 Test12= 1.80D-12 3.33D-08 XBig12= 3.89D-03 7.04D-03.
      3 vectors produced by pass  8 Test12= 1.80D-12 3.33D-08 XBig12= 9.76D-04 2.19D-03.
      3 vectors produced by pass  9 Test12= 1.80D-12 3.33D-08 XBig12= 2.63D-04 1.46D-03.
      3 vectors produced by pass 10 Test12= 1.80D-12 3.33D-08 XBig12= 9.16D-05 7.02D-04.
      3 vectors produced by pass 11 Test12= 1.80D-12 3.33D-08 XBig12= 2.03D-05 4.79D-04.
      3 vectors produced by pass 12 Test12= 1.80D-12 3.33D-08 XBig12= 2.75D-06 1.76D-04.
      3 vectors produced by pass 13 Test12= 1.80D-12 3.33D-08 XBig12= 4.58D-07 4.74D-05.
      3 vectors produced by pass 14 Test12= 1.80D-12 3.33D-08 XBig12= 1.50D-07 4.12D-05.
      3 vectors produced by pass 15 Test12= 1.80D-12 3.33D-08 XBig12= 2.16D-08 1.21D-05.
      3 vectors produced by pass 16 Test12= 1.80D-12 3.33D-08 XBig12= 3.08D-09 5.36D-06.
      3 vectors produced by pass 17 Test12= 1.80D-12 3.33D-08 XBig12= 4.21D-10 2.11D-06.
      3 vectors produced by pass 18 Test12= 1.80D-12 3.33D-08 XBig12= 2.74D-11 3.75D-07.
      3 vectors produced by pass 19 Test12= 1.80D-12 3.33D-08 XBig12= 1.00D-11 2.12D-07.
      3 vectors produced by pass 20 Test12= 1.80D-12 3.33D-08 XBig12= 1.09D-11 2.25D-07.
      2 vectors produced by pass 21 Test12= 1.80D-12 3.33D-08 XBig12= 2.94D-12 1.24D-07.
      1 vectors produced by pass 22 Test12= 1.80D-12 3.33D-08 XBig12= 4.24D-13 3.74D-08.
 Inverted reduced A of dimension    66 with in-core refinement.
 End of Minotr Frequency-dependent properties file   721 does not exist.
 End of Minotr Frequency-dependent properties file   722 does not exist.
 Symmetrizing basis deriv contribution to polar:
 IMax=3 JMax=2 DiffMx= 0.00D+00
 G2DrvN: will do    16 centers at a time, making    3 passes doing MaxLOS=2.
 Calling FoFCou, ICntrl=  3107 FMM=F I1Cent=   0 AccDes= 0.00D+00.
 Calling FoFCou, ICntrl=  3107 FMM=F I1Cent=   0 AccDes= 0.00D+00.
 Calling FoFCou, ICntrl=  3107 FMM=F I1Cent=   0 AccDes= 0.00D+00.
 FoFDir/FoFCou used for L=0 through L=2.
 End of G2Drv Frequency-dependent properties file   721 does not exist.
 End of G2Drv Frequency-dependent properties file   722 does not exist.
          IDoAtm=111111111111111111111111111111111111111111111
          Differentiating once with respect to electric field.
                with respect to dipole field.
          Differentiating once with respect to nuclear coordinates.
          There are   138 degrees of freedom in the 1st order CPHF.  IDoFFX=5.
 Will reuse    3 saved solutions.
    135 vectors produced by pass  0 Test12= 5.41D-14 1.00D-09 XBig12= 1.77D-01 7.05D-02.
 AX will form    45 AO Fock derivatives at one time.
    135 vectors produced by pass  1 Test12= 5.41D-14 1.00D-09 XBig12= 1.75D-02 1.33D-02.
    132 vectors produced by pass  2 Test12= 5.41D-14 1.00D-09 XBig12= 1.98D-04 1.53D-03.
    132 vectors produced by pass  3 Test12= 5.41D-14 1.00D-09 XBig12= 7.82D-07 8.09D-05.
    132 vectors produced by pass  4 Test12= 5.41D-14 1.00D-09 XBig12= 1.58D-09 2.62D-06.
    132 vectors produced by pass  5 Test12= 5.41D-14 1.00D-09 XBig12= 3.98D-12 1.03D-07.
     80 vectors produced by pass  6 Test12= 5.41D-14 1.00D-09 XBig12= 2.15D-13 2.81D-08.
      1 vectors produced by pass  7 Test12= 5.41D-14 1.00D-09 XBig12= 4.23D-16 1.12D-09.
 Inverted reduced A of dimension   879 with in-core refinement.
 Isotropic polarizability for W=    0.000000      189.73 Bohr**3.
 End of Minotr Frequency-dependent properties file   721 does not exist.
 End of Minotr Frequency-dependent properties file   722 does not exist.

 **********************************************************************

            Population analysis using the SCF density.

 **********************************************************************

 Orbital symmetries:
       Occupied  (A) (A) (A) (A) (A) (A) (A) (A) (A) (A) (A) (A)
                 (A) (A) (A) (A) (A) (A) (A) (A) (A) (A) (A) (A)
                 (A) (A) (A) (A) (A) (A) (A) (A) (A) (A) (A) (A)
                 (A) (A) (A) (A) (A) (A) (A) (A) (A) (A) (A) (A)
                 (A) (A) (A) (A) (A) (A) (A) (A) (A) (A) (A) (A)
                 (A) (A) (A) (A) (A) (A) (A) (A) (A) (A) (A) (A)
                 (A) (A) (A) (A) (A) (A) (A) (A) (A) (A) (A) (A)
                 (A) (A) (A) (A) (A) (A) (A)
       Virtual   (A) (A) (A) (A) (A) (A) (A) (A) (A) (A) (A) (A)
                 (A) (A) (A) (A) (A) (A) (A) (A) (A) (A) (A) (A)
                 (A) (A) (A) (A) (A) (A) (A) (A) (A) (A) (A) (A)
                 (A) (A) (A) (A) (A) (A) (A) (A) (A) (A) (A) (A)
                 (A) (A) (A) (A) (A) (A) (A) (A) (A) (A) (A) (A)
                 (A) (A) (A) (A) (A) (A) (A) (A) (A) (A) (A) (A)
                 (A) (A) (A) (A) (A) (A) (A) (A) (A) (A) (A) (A)
                 (A) (A) (A) (A) (A) (A) (A) (A) (A) (A) (A) (A)
                 (A) (A) (A) (A) (A) (A) (A) (A) (A) (A) (A) (A)
                 (A) (A) (A) (A) (A) (A) (A) (A) (A) (A) (A) (A)
                 (A) (A) (A) (A) (A) (A) (A) (A) (A) (A) (A) (A)
                 (A) (A) (A) (A) (A) (A) (A) (A) (A) (A) (A) (A)
                 (A) (A) (A) (A) (A) (A) (A) (A) (A) (A) (A) (A)
                 (A) (A) (A) (A) (A) (A) (A) (A) (A) (A) (A) (A)
                 (A) (A) (A) (A) (A) (A) (A) (A) (A) (A) (A) (A)
                 (A) (A) (A) (A) (A) (A) (A) (A) (A) (A) (A) (A)
                 (A) (A) (A) (A) (A) (A) (A) (A) (A) (A) (A) (A)
                 (A) (A) (A) (A) (A) (A) (A) (A) (A) (A) (A) (A)
                 (A) (A) (A) (A) (A) (A) (A) (A) (A) (A) (A) (A)
                 (A) (A) (A) (A) (A) (A) (A) (A) (A) (A) (A) (A)
                 (A) (A) (A) (A) (A) (A) (A) (A) (A) (A) (A) (A)
                 (A) (A) (A) (A) (A) (A) (A) (A) (A) (A) (A) (A)
                 (A) (A) (A) (A) (A) (A) (A) (A) (A) (A) (A) (A)
                 (A) (A) (A) (A) (A) (A) (A) (A) (A) (A) (A) (A)
                 (A) (A) (A) (A) (A) (A) (A) (A) (A) (A) (A) (A)
                 (A) (A) (A) (A) (A) (A) (A) (A) (A) (A) (A) (A)
                 (A) (A) (A) (A) (A) (A) (A) (A) (A) (A) (A) (A)
                 (A) (A) (A) (A) (A) (A) (A) (A) (A) (A) (A) (A)
                 (A) (A) (A) (A) (A) (A) (A) (A) (A) (A) (A) (A)
                 (A) (A) (A) (A) (A) (A) (A) (A) (A) (A) (A) (A)
                 (A) (A) (A) (A) (A) (A) (A) (A) (A) (A) (A) (A)
                 (A) (A) (A) (A) (A) (A) (A) (A) (A) (A) (A) (A)
                 (A) (A) (A) (A) (A) (A) (A) (A) (A) (A) (A) (A)
                 (A) (A) (A) (A) (A) (A) (A) (A) (A) (A) (A) (A)
                 (A) (A) (A) (A) (A) (A) (A) (A) (A) (A) (A) (A)
                 (A) (A) (A) (A) (A) (A) (A) (A) (A) (A) (A) (A)
                 (A) (A) (A) (A) (A) (A) (A) (A) (A) (A) (A) (A)
                 (A) (A) (A) (A) (A) (A) (A) (A) (A) (A) (A) (A)
                 (A) (A) (A) (A) (A) (A) (A) (A) (A) (A) (A) (A)
                 (A) (A) (A) (A) (A) (A) (A) (A) (A) (A) (A) (A)
                 (A) (A) (A) (A) (A) (A) (A) (A) (A) (A) (A) (A)
                 (A) (A) (A) (A) (A) (A) (A) (A) (A) (A) (A) (A)
                 (A) (A) (A) (A) (A) (A) (A) (A) (A) (A) (A) (A)
                 (A) (A) (A) (A) (A) (A) (A) (A) (A) (A) (A) (A)
                 (A) (A) (A) (A) (A) (A) (A) (A) (A) (A) (A) (A)
                 (A) (A) (A) (A) (A) (A) (A) (A) (A) (A) (A) (A)
                 (A) (A) (A) (A) (A) (A) (A) (A) (A) (A) (A) (A)
                 (A) (A) (A) (A) (A) (A) (A) (A) (A) (A) (A) (A)
                 (A) (A) (A) (A) (A) (A) (A) (A) (A) (A) (A) (A)
                 (A) (A) (A) (A) (A) (A)
 The electronic state is 1-A.
 Alpha  occ. eigenvalues --  -19.20487 -19.18718 -19.18629 -19.17790 -19.17187
 Alpha  occ. eigenvalues --  -19.17002 -19.15668 -19.15664 -19.15596 -19.15325
 Alpha  occ. eigenvalues --  -19.14825 -10.30824 -10.29313 -10.27777 -10.27130
 Alpha  occ. eigenvalues --  -10.26434 -10.25745 -10.24850 -10.24549 -10.24283
 Alpha  occ. eigenvalues --  -10.23991 -10.23850 -10.21964  -1.10272  -1.08336
 Alpha  occ. eigenvalues --   -1.07190  -1.05976  -1.04536  -1.04225  -1.03713
 Alpha  occ. eigenvalues --   -1.02960  -1.01599  -1.00772  -1.00454  -0.82316
 Alpha  occ. eigenvalues --   -0.81747  -0.79125  -0.77833  -0.72360  -0.69764
 Alpha  occ. eigenvalues --   -0.67678  -0.64726  -0.63097  -0.62145  -0.61147
 Alpha  occ. eigenvalues --   -0.60919  -0.57864  -0.56735  -0.54656  -0.53785
 Alpha  occ. eigenvalues --   -0.53456  -0.53260  -0.52860  -0.52384  -0.50449
 Alpha  occ. eigenvalues --   -0.50203  -0.49689  -0.49070  -0.48430  -0.47641
 Alpha  occ. eigenvalues --   -0.46024  -0.45090  -0.44641  -0.43958  -0.43770
 Alpha  occ. eigenvalues --   -0.42961  -0.42538  -0.41435  -0.40764  -0.39509
 Alpha  occ. eigenvalues --   -0.38762  -0.38340  -0.37602  -0.36914  -0.36659
 Alpha  occ. eigenvalues --   -0.35973  -0.35077  -0.34717  -0.33652  -0.33228
 Alpha  occ. eigenvalues --   -0.32463  -0.31525  -0.31431  -0.30815  -0.30645
 Alpha  occ. eigenvalues --   -0.29491  -0.28913  -0.28495  -0.27883  -0.26875
 Alpha  occ. eigenvalues --   -0.25860
 Alpha virt. eigenvalues --   -0.03882  -0.01787  -0.01011  -0.00688   0.00480
 Alpha virt. eigenvalues --    0.01035   0.01185   0.01657   0.02313   0.02832
 Alpha virt. eigenvalues --    0.03544   0.04113   0.04547   0.04950   0.05632
 Alpha virt. eigenvalues --    0.06202   0.06687   0.06814   0.07872   0.08096
 Alpha virt. eigenvalues --    0.08551   0.08878   0.09495   0.09630   0.10054
 Alpha virt. eigenvalues --    0.10220   0.10656   0.10917   0.11326   0.11670
 Alpha virt. eigenvalues --    0.12211   0.12484   0.12746   0.12882   0.13244
 Alpha virt. eigenvalues --    0.13664   0.13833   0.14085   0.14433   0.14753
 Alpha virt. eigenvalues --    0.15096   0.15743   0.15918   0.16106   0.16266
 Alpha virt. eigenvalues --    0.16621   0.17176   0.17905   0.18000   0.18450
 Alpha virt. eigenvalues --    0.18634   0.18921   0.19276   0.19681   0.20028
 Alpha virt. eigenvalues --    0.20199   0.20556   0.20668   0.20844   0.21155
 Alpha virt. eigenvalues --    0.21531   0.21625   0.22460   0.22734   0.22879
 Alpha virt. eigenvalues --    0.23535   0.23613   0.23984   0.24045   0.24616
 Alpha virt. eigenvalues --    0.25165   0.25331   0.25574   0.25790   0.25926
 Alpha virt. eigenvalues --    0.26115   0.26322   0.26446   0.26911   0.27282
 Alpha virt. eigenvalues --    0.27672   0.27726   0.28427   0.28877   0.28942
 Alpha virt. eigenvalues --    0.29124   0.29602   0.29886   0.30387   0.30876
 Alpha virt. eigenvalues --    0.31153   0.31385   0.31825   0.32044   0.32271
 Alpha virt. eigenvalues --    0.32618   0.33007   0.33114   0.33238   0.33715
 Alpha virt. eigenvalues --    0.34149   0.34545   0.34665   0.35221   0.35657
 Alpha virt. eigenvalues --    0.35931   0.36357   0.36603   0.36816   0.37401
 Alpha virt. eigenvalues --    0.37886   0.38039   0.38463   0.38696   0.38921
 Alpha virt. eigenvalues --    0.39334   0.40090   0.40152   0.40535   0.41313
 Alpha virt. eigenvalues --    0.41437   0.41891   0.42044   0.42544   0.42640
 Alpha virt. eigenvalues --    0.43559   0.43782   0.44877   0.45276   0.45847
 Alpha virt. eigenvalues --    0.46155   0.46658   0.47290   0.47891   0.49182
 Alpha virt. eigenvalues --    0.50273   0.51148   0.54522   0.55871   0.58516
 Alpha virt. eigenvalues --    0.60016   0.60229   0.60775   0.61248   0.62387
 Alpha virt. eigenvalues --    0.63274   0.63580   0.65152   0.65605   0.66786
 Alpha virt. eigenvalues --    0.67839   0.68417   0.68960   0.69325   0.70307
 Alpha virt. eigenvalues --    0.71443   0.72011   0.73156   0.73352   0.73732
 Alpha virt. eigenvalues --    0.74005   0.74609   0.74897   0.75667   0.76814
 Alpha virt. eigenvalues --    0.77861   0.78621   0.79488   0.80038   0.80636
 Alpha virt. eigenvalues --    0.81328   0.82814   0.83125   0.84705   0.85608
 Alpha virt. eigenvalues --    0.85941   0.87520   0.88299   0.88751   0.89105
 Alpha virt. eigenvalues --    0.89555   0.90168   0.90195   0.90736   0.91658
 Alpha virt. eigenvalues --    0.91950   0.92205   0.92791   0.93625   0.94464
 Alpha virt. eigenvalues --    0.94920   0.95244   0.95574   0.95774   0.96411
 Alpha virt. eigenvalues --    0.96547   0.97441   0.97721   0.98271   0.98790
 Alpha virt. eigenvalues --    0.99732   1.00113   1.00904   1.00991   1.02375
 Alpha virt. eigenvalues --    1.02513   1.03586   1.04115   1.04864   1.04951
 Alpha virt. eigenvalues --    1.06333   1.06777   1.07296   1.07749   1.08054
 Alpha virt. eigenvalues --    1.08888   1.09464   1.09804   1.10462   1.11642
 Alpha virt. eigenvalues --    1.12011   1.12421   1.12842   1.13214   1.13729
 Alpha virt. eigenvalues --    1.13852   1.14657   1.15161   1.15561   1.16640
 Alpha virt. eigenvalues --    1.16897   1.17648   1.18319   1.18567   1.19857
 Alpha virt. eigenvalues --    1.19970   1.20824   1.21112   1.21840   1.22297
 Alpha virt. eigenvalues --    1.23204   1.23600   1.23924   1.24174   1.24972
 Alpha virt. eigenvalues --    1.25340   1.25692   1.25911   1.26655   1.26977
 Alpha virt. eigenvalues --    1.27618   1.28229   1.28501   1.29639   1.30039
 Alpha virt. eigenvalues --    1.30484   1.31135   1.32007   1.33225   1.33864
 Alpha virt. eigenvalues --    1.34410   1.35498   1.35857   1.36562   1.37804
 Alpha virt. eigenvalues --    1.38096   1.38709   1.39090   1.39475   1.40268
 Alpha virt. eigenvalues --    1.40472   1.41212   1.42214   1.42671   1.43484
 Alpha virt. eigenvalues --    1.43593   1.44044   1.45417   1.46242   1.46929
 Alpha virt. eigenvalues --    1.47917   1.48451   1.49601   1.50724   1.51781
 Alpha virt. eigenvalues --    1.52567   1.53796   1.54549   1.54632   1.55316
 Alpha virt. eigenvalues --    1.56380   1.57449   1.58490   1.59787   1.60672
 Alpha virt. eigenvalues --    1.61721   1.62921   1.63219   1.64694   1.65870
 Alpha virt. eigenvalues --    1.66627   1.67625   1.67992   1.69174   1.69275
 Alpha virt. eigenvalues --    1.70149   1.71761   1.72972   1.73828   1.74299
 Alpha virt. eigenvalues --    1.75534   1.77527   1.78113   1.78815   1.79168
 Alpha virt. eigenvalues --    1.81126   1.81479   1.82263   1.83937   1.85139
 Alpha virt. eigenvalues --    1.85598   1.87116   1.88116   1.88852   1.90009
 Alpha virt. eigenvalues --    1.91147   1.92094   1.92541   1.94160   1.95091
 Alpha virt. eigenvalues --    1.95408   1.96030   1.98147   1.98550   1.99122
 Alpha virt. eigenvalues --    2.00306   2.01498   2.02174   2.03380   2.04267
 Alpha virt. eigenvalues --    2.05546   2.07739   2.08546   2.09777   2.11268
 Alpha virt. eigenvalues --    2.11718   2.14257   2.14489   2.16276   2.18812
 Alpha virt. eigenvalues --    2.19226   2.22337   2.23555   2.24913   2.25141
 Alpha virt. eigenvalues --    2.26014   2.27654   2.28522   2.29677   2.30876
 Alpha virt. eigenvalues --    2.31686   2.31913   2.34013   2.35880   2.36854
 Alpha virt. eigenvalues --    2.38257   2.41202   2.43532   2.46756   2.50257
 Alpha virt. eigenvalues --    2.51361   2.53733   2.54956   2.56155   2.56837
 Alpha virt. eigenvalues --    2.59363   2.59698   2.60156   2.61935   2.62165
 Alpha virt. eigenvalues --    2.64427   2.65326   2.67438   2.68998   2.70589
 Alpha virt. eigenvalues --    2.71967   2.73915   2.74546   2.76961   2.77509
 Alpha virt. eigenvalues --    2.78676   2.80795   2.81529   2.82003   2.83104
 Alpha virt. eigenvalues --    2.85487   2.86208   2.88570   2.90466   2.91214
 Alpha virt. eigenvalues --    2.91850   2.92981   2.95092   2.96010   2.97080
 Alpha virt. eigenvalues --    2.97400   2.98507   2.99237   3.00782   3.02131
 Alpha virt. eigenvalues --    3.02771   3.03713   3.04488   3.04972   3.05178
 Alpha virt. eigenvalues --    3.05945   3.06328   3.07557   3.08031   3.08899
 Alpha virt. eigenvalues --    3.10096   3.10412   3.11197   3.12530   3.13098
 Alpha virt. eigenvalues --    3.14058   3.16000   3.16907   3.18302   3.19418
 Alpha virt. eigenvalues --    3.22207   3.23950   3.26901   3.71381   3.80718
 Alpha virt. eigenvalues --    3.88116   4.00729   4.08991   4.10565   4.12131
 Alpha virt. eigenvalues --    4.12739   4.13452   4.14791   4.14994   4.15915
 Alpha virt. eigenvalues --    4.17131   4.18188   4.18502   4.20022   4.20654
 Alpha virt. eigenvalues --    4.22870   4.24670   4.24840   4.26389   4.26504
 Alpha virt. eigenvalues --    4.26667   4.28081   4.28126   4.28542   4.29294
 Alpha virt. eigenvalues --    4.29979   4.30683   4.30814   4.31140   4.31458
 Alpha virt. eigenvalues --    4.32226   4.33516   4.33898   4.34242   4.34866
 Alpha virt. eigenvalues --    4.36046   4.36268   4.36726   4.37141   4.38309
 Alpha virt. eigenvalues --    4.39454   4.40262   4.40483   4.41887   4.42176
 Alpha virt. eigenvalues --    4.43604   4.44430   4.46010   4.47149   4.47833
 Alpha virt. eigenvalues --    4.50105   4.51246   4.51804   4.52892   4.53488
 Alpha virt. eigenvalues --    4.55037   4.55668   4.56105   4.56775   4.57555
 Alpha virt. eigenvalues --    4.59842   4.61417   4.61835   4.63153   4.63314
 Alpha virt. eigenvalues --    4.64832   4.65665   4.66434   4.66680   4.67444
 Alpha virt. eigenvalues --    4.68080   4.68496   4.69055   4.69542   4.69926
 Alpha virt. eigenvalues --    4.70988   4.71653   4.72305   4.73522   4.74032
 Alpha virt. eigenvalues --    4.75311   4.75391   4.76345   4.77636   4.77679
 Alpha virt. eigenvalues --    4.78111   4.79695   4.80553   4.81461   4.82104
 Alpha virt. eigenvalues --    4.82246   4.83232   4.83923   4.85208   4.85564
 Alpha virt. eigenvalues --    4.86175   4.88213   4.89028   4.89896   4.90460
 Alpha virt. eigenvalues --    4.92135   4.93298   4.94310   4.95619   4.96588
 Alpha virt. eigenvalues --    4.98577   4.99741   5.01838   5.02362   5.05236
 Alpha virt. eigenvalues --    5.08264   5.11965   5.12593   5.14669   5.17079
 Alpha virt. eigenvalues --    5.19713   5.25850   5.28159   5.32237   5.40181
 Alpha virt. eigenvalues --    5.47418   6.03725   6.13222   6.28560   6.65435
 Alpha virt. eigenvalues --    6.67821   6.74087   6.76283   6.79499   6.81716
 Alpha virt. eigenvalues --    6.84168   6.87902   6.92223   6.94670   6.95976
 Alpha virt. eigenvalues --    7.05378  11.82389  11.88024  12.05097  12.08239
 Alpha virt. eigenvalues --   12.31543  12.43767  12.65192  12.77882  12.86388
 Alpha virt. eigenvalues --   12.96564  13.05214  13.11538  13.18581  13.25110
 Alpha virt. eigenvalues --   13.28754  13.32049  13.36691  13.42781  13.45726
 Alpha virt. eigenvalues --   13.53147  13.57023  13.66843  13.80839
          Condensed to atoms (all electrons):
              1          2          3          4          5          6
     1  O    8.195237   0.270390   0.019084  -0.019616   0.021095  -0.028039
     2  C    0.270390   9.042482  -1.304199   0.119104  -0.011408  -0.953366
     3  C    0.019084  -1.304199   7.130968  -0.061661  -0.013669  -0.421932
     4  O   -0.019616   0.119104  -0.061661   8.272748   0.233039   0.106734
     5  H    0.021095  -0.011408  -0.013669   0.233039   0.446972  -0.024400
     6  C   -0.028039  -0.953366  -0.421932   0.106734  -0.024400   9.158144
     7  O   -0.000160   0.022715  -0.013641  -0.004710   0.000035   0.206177
     8  H   -0.000016   0.002492  -0.017807   0.004169  -0.000178  -0.023394
     9  C   -0.037195  -1.062816   0.060496   0.000349  -0.003643   0.397515
    10  O   -0.000751   0.027755   0.001133   0.000041  -0.000001   0.000472
    11  H    0.000042  -0.012734   0.001356   0.000001   0.000000  -0.000026
    12  C   -0.108439  -1.712737   0.223266  -0.033939   0.021336   0.571432
    13  O    0.003281   0.032586  -0.026614  -0.004748   0.000144   0.003357
    14  C   -0.012759   1.368778  -0.231838  -0.012305   0.007955  -2.352460
    15  O   -0.000017   0.014756  -0.019158   0.000200   0.000017  -0.010040
    16  C    0.003270   0.208303   0.051818  -0.002258   0.000066  -0.622459
    17  C   -0.000683  -0.029468   0.042160  -0.000079   0.000043   0.018119
    18  O    0.000033  -0.008638  -0.001320   0.000007   0.000000   0.010546
    19  H   -0.000013   0.000422   0.001188   0.000001   0.000000   0.000740
    20  C    0.000045  -0.001496   0.006216  -0.000011   0.000001  -0.086848
    21  O    0.000000   0.000026  -0.000112   0.000000   0.000000   0.000141
    22  H    0.000000   0.000046  -0.000024   0.000000   0.000000  -0.000006
    23  C    0.000045   0.026479  -0.085969   0.000589  -0.000082  -0.197721
    24  O    0.000000  -0.000193  -0.000111   0.000001   0.000000  -0.008884
    25  H    0.000000   0.000007  -0.000302   0.000000   0.000000   0.001197
    26  C    0.000041  -0.111830   0.114189  -0.000467   0.000072   0.025914
    27  O    0.000000  -0.000034  -0.000153   0.000000   0.000000   0.003058
    28  C   -0.000006   0.001954  -0.000594   0.000000   0.000000   0.030809
    29  O    0.000000  -0.000013  -0.000029   0.000000   0.000000   0.000227
    30  H    0.000000   0.000000   0.000000   0.000000   0.000000   0.000008
    31  H    0.000000   0.000001  -0.000020   0.000000   0.000000   0.000057
    32  H    0.000000   0.000054  -0.000003   0.000000   0.000000  -0.001035
    33  H    0.000000  -0.000057   0.000227   0.000000   0.000000   0.001386
    34  H   -0.000001  -0.004422   0.004240   0.000000   0.000000   0.017928
    35  H    0.000000  -0.000100  -0.001552   0.000000   0.000000   0.009206
    36  H    0.000000  -0.000040  -0.007826  -0.000004   0.000000   0.010015
    37  H    0.000000   0.000746   0.007746  -0.000007   0.000000  -0.012125
    38  H    0.264245   0.034260  -0.035348   0.000154  -0.001318  -0.003168
    39  H   -0.000978  -0.005782  -0.006090   0.000022   0.000000  -0.003495
    40  H    0.000606   0.032005  -0.003673  -0.000080  -0.000002   0.001749
    41  H   -0.002015   0.091769  -0.075354   0.000474  -0.000012  -0.076608
    42  H   -0.029715   0.540535  -0.144014  -0.006118  -0.001663   0.005118
    43  H   -0.004547   0.080130   0.322482  -0.029039  -0.005323  -0.157924
    44  H   -0.000175  -0.042497  -0.046934  -0.000990  -0.000108   0.423756
    45  H    0.000259  -0.140800   0.002272  -0.000314   0.000006   0.048682
              7          8          9         10         11         12
     1  O   -0.000160  -0.000016  -0.037195  -0.000751   0.000042  -0.108439
     2  C    0.022715   0.002492  -1.062816   0.027755  -0.012734  -1.712737
     3  C   -0.013641  -0.017807   0.060496   0.001133   0.001356   0.223266
     4  O   -0.004710   0.004169   0.000349   0.000041   0.000001  -0.033939
     5  H    0.000035  -0.000178  -0.003643  -0.000001   0.000000   0.021336
     6  C    0.206177  -0.023394   0.397515   0.000472  -0.000026   0.571432
     7  O    8.193720   0.237182  -0.001000   0.000006   0.000000  -0.022471
     8  H    0.237182   0.419854  -0.000085   0.000000   0.000000  -0.002928
     9  C   -0.001000  -0.000085   8.469051   0.061652  -0.016126  -1.186909
    10  O    0.000006   0.000000   0.061652   8.231954   0.228397   0.025473
    11  H    0.000000   0.000000  -0.016126   0.228397   0.448537   0.025204
    12  C   -0.022471  -0.002928  -1.186909   0.025473   0.025204   9.408544
    13  O    0.002732  -0.000493  -0.124131   0.009534  -0.000203   0.053974
    14  C   -0.058595   0.034834  -1.005440  -0.013247  -0.000757  -1.510924
    15  O   -0.001935   0.001143  -0.008630  -0.001707   0.000020  -0.027757
    16  C    0.008569   0.001638  -0.211837   0.008949  -0.000798  -0.142838
    17  C    0.009045  -0.000685  -0.019072  -0.004861   0.000161  -0.162655
    18  O    0.000034  -0.000003   0.012577   0.002718   0.000463  -0.011259
    19  H   -0.000057   0.000000   0.005274   0.002617  -0.000062  -0.009872
    20  C   -0.000143  -0.000105  -0.023655   0.000150  -0.000104   0.003544
    21  O    0.000005   0.000000   0.000083   0.000015   0.000000   0.001205
    22  H   -0.000001   0.000000  -0.000204   0.000007   0.000000  -0.000015
    23  C   -0.041474   0.001697  -0.011148   0.000027  -0.000004  -0.014268
    24  O    0.001745  -0.000058  -0.000046   0.000000   0.000000  -0.001007
    25  H    0.000063   0.000000  -0.000004   0.000000   0.000000  -0.000150
    26  C    0.010218  -0.000664   0.016720   0.000378  -0.000027   0.057959
    27  O   -0.000158   0.000007   0.000171  -0.000002   0.000000   0.001011
    28  C    0.000717   0.000056   0.003973   0.000281  -0.000002   0.002134
    29  O    0.000004   0.000000   0.000049   0.000000   0.000000   0.000085
    30  H    0.000000   0.000000   0.000000   0.000000   0.000000  -0.000001
    31  H    0.000003   0.000000   0.000022   0.000000   0.000000   0.000128
    32  H    0.000018   0.000000  -0.000332   0.000009   0.000000   0.001517
    33  H   -0.000015   0.000000  -0.000964   0.000013   0.000000   0.001512
    34  H   -0.000889  -0.000001   0.000752   0.000026   0.000000   0.005995
    35  H    0.000256   0.000001   0.000629   0.000000   0.000000   0.001622
    36  H   -0.000951   0.000053   0.000213   0.000000   0.000000   0.002893
    37  H   -0.000313   0.000008   0.000133   0.000000   0.000000   0.003653
    38  H   -0.000010   0.000000   0.012808   0.000109   0.000001  -0.010445
    39  H    0.000003   0.000000   0.630215  -0.060693   0.000257  -0.255800
    40  H   -0.000003   0.000000   0.451642  -0.030217  -0.014677  -0.111325
    41  H    0.000541   0.000016   0.040577  -0.006584  -0.000069   0.114085
    42  H    0.000114   0.000007  -0.064545  -0.000521   0.000004  -0.118412
    43  H    0.001527  -0.000428  -0.004075   0.000040   0.000000  -0.026388
    44  H   -0.035249  -0.007026   0.014057   0.000007   0.000000   0.094346
    45  H    0.000288  -0.000279   0.065177  -0.000073   0.000002   0.145768
             13         14         15         16         17         18
     1  O    0.003281  -0.012759  -0.000017   0.003270  -0.000683   0.000033
     2  C    0.032586   1.368778   0.014756   0.208303  -0.029468  -0.008638
     3  C   -0.026614  -0.231838  -0.019158   0.051818   0.042160  -0.001320
     4  O   -0.004748  -0.012305   0.000200  -0.002258  -0.000079   0.000007
     5  H    0.000144   0.007955   0.000017   0.000066   0.000043   0.000000
     6  C    0.003357  -2.352460  -0.010040  -0.622459   0.018119   0.010546
     7  O    0.002732  -0.058595  -0.001935   0.008569   0.009045   0.000034
     8  H   -0.000493   0.034834   0.001143   0.001638  -0.000685  -0.000003
     9  C   -0.124131  -1.005440  -0.008630  -0.211837  -0.019072   0.012577
    10  O    0.009534  -0.013247  -0.001707   0.008949  -0.004861   0.002718
    11  H   -0.000203  -0.000757   0.000020  -0.000798   0.000161   0.000463
    12  C    0.053974  -1.510924  -0.027757  -0.142838  -0.162655  -0.011259
    13  O    8.098489   0.303175  -0.018166   0.033661  -0.016127  -0.001310
    14  C    0.303175   9.466940   0.293851   0.026977  -0.054308   0.031352
    15  O   -0.018166   0.293851   8.263580   0.047704  -0.046564  -0.012466
    16  C    0.033661   0.026977   0.047704  12.630806  -1.893528  -0.175738
    17  C   -0.016127  -0.054308  -0.046564  -1.893528   7.646150   0.234872
    18  O   -0.001310   0.031352  -0.012466  -0.175738   0.234872   8.213449
    19  H    0.007222   0.020979   0.013921  -0.051048   0.053065   0.239208
    20  C   -0.003654  -0.259940  -0.027434  -2.139628   0.646705   0.006475
    21  O    0.000005  -0.000896   0.000223   0.076401  -0.158143  -0.009560
    22  H   -0.000014   0.001221   0.000059  -0.033235  -0.029017   0.008879
    23  C    0.005885   0.074980  -0.136669   0.071857  -0.249792   0.016136
    24  O   -0.000060  -0.001057  -0.002126   0.012909   0.008093   0.000007
    25  H   -0.000017  -0.004145  -0.000474   0.014361   0.003952   0.000001
    26  C   -0.006568  -0.728788   0.038743  -3.665442   0.366801   0.029244
    27  O    0.000147   0.000137  -0.003197   0.018760  -0.022366  -0.000528
    28  C    0.000882   0.103834   0.023048   1.157216  -0.357944  -0.027995
    29  O    0.000007   0.002234   0.000156  -0.003928  -0.005230   0.000121
    30  H    0.000000   0.000005  -0.000004   0.003477   0.004576  -0.000012
    31  H    0.000011   0.003010   0.000614   0.085348  -0.060368   0.001493
    32  H    0.000014  -0.008396   0.000251   0.146404  -0.205221   0.008067
    33  H   -0.000347  -0.009808  -0.001673  -0.147081   0.326881  -0.020798
    34  H   -0.001566  -0.004126  -0.021899   0.118061  -0.016387  -0.000304
    35  H   -0.000416   0.055422  -0.002744   0.098259  -0.060761   0.000515
    36  H   -0.000014   0.035577   0.001069   0.111603  -0.011327   0.000076
    37  H    0.000548   0.032912  -0.010907  -0.004037  -0.009103  -0.000058
    38  H   -0.000491  -0.001908   0.000007  -0.000057  -0.000003   0.000000
    39  H   -0.007695   0.009547  -0.000048   0.001910  -0.000621   0.000213
    40  H    0.002430  -0.011959  -0.000094  -0.001035   0.000049  -0.000125
    41  H   -0.051843   0.140070   0.004877   0.029437   0.000205  -0.001186
    42  H   -0.000158   0.084278  -0.000235   0.001042   0.000038  -0.000001
    43  H    0.000102   0.073635  -0.000271  -0.002684   0.001304   0.000014
    44  H    0.003768  -0.117758  -0.007135  -0.019721   0.001652   0.000008
    45  H   -0.029536   0.168443  -0.031250  -0.052578   0.006740  -0.002010
             19         20         21         22         23         24
     1  O   -0.000013   0.000045   0.000000   0.000000   0.000045   0.000000
     2  C    0.000422  -0.001496   0.000026   0.000046   0.026479  -0.000193
     3  C    0.001188   0.006216  -0.000112  -0.000024  -0.085969  -0.000111
     4  O    0.000001  -0.000011   0.000000   0.000000   0.000589   0.000001
     5  H    0.000000   0.000001   0.000000   0.000000  -0.000082   0.000000
     6  C    0.000740  -0.086848   0.000141  -0.000006  -0.197721  -0.008884
     7  O   -0.000057  -0.000143   0.000005  -0.000001  -0.041474   0.001745
     8  H    0.000000  -0.000105   0.000000   0.000000   0.001697  -0.000058
     9  C    0.005274  -0.023655   0.000083  -0.000204  -0.011148  -0.000046
    10  O    0.002617   0.000150   0.000015   0.000007   0.000027   0.000000
    11  H   -0.000062  -0.000104   0.000000   0.000000  -0.000004   0.000000
    12  C   -0.009872   0.003544   0.001205  -0.000015  -0.014268  -0.001007
    13  O    0.007222  -0.003654   0.000005  -0.000014   0.005885  -0.000060
    14  C    0.020979  -0.259940  -0.000896   0.001221   0.074980  -0.001057
    15  O    0.013921  -0.027434   0.000223   0.000059  -0.136669  -0.002126
    16  C   -0.051048  -2.139628   0.076401  -0.033235   0.071857   0.012909
    17  C    0.053065   0.646705  -0.158143  -0.029017  -0.249792   0.008093
    18  O    0.239208   0.006475  -0.009560   0.008879   0.016136   0.000007
    19  H    0.397614  -0.018557   0.001561  -0.000169  -0.004697   0.000000
    20  C   -0.018557   6.871506   0.202146   0.055660   0.224512  -0.009896
    21  O    0.001561   0.202146   8.191379   0.242863  -0.003405  -0.000019
    22  H   -0.000169   0.055660   0.242863   0.411917   0.000597   0.000000
    23  C   -0.004697   0.224512  -0.003405   0.000597   6.799663   0.096441
    24  O    0.000000  -0.009896  -0.000019   0.000000   0.096441   8.196676
    25  H    0.000000  -0.001366   0.000000   0.000000   0.026600   0.232465
    26  C   -0.018610   1.223325  -0.006841   0.004878  -1.107876   0.036319
    27  O   -0.000055  -0.077606   0.001776  -0.000079  -0.073756   0.003825
    28  C    0.009012  -0.584940  -0.026088  -0.003849  -0.245075   0.013073
    29  O   -0.000003  -0.065157   0.003779  -0.000685   0.007838   0.000199
    30  H    0.000000   0.008441  -0.000775   0.000017  -0.001531   0.000018
    31  H   -0.000002  -0.147090   0.007327  -0.000247   0.004126  -0.000167
    32  H   -0.000039   0.296331  -0.017722  -0.006832   0.008960  -0.000040
    33  H   -0.004673   0.002062   0.001544   0.000119   0.013833   0.000042
    34  H    0.000095   0.042053   0.000468   0.000018  -0.023076   0.000200
    35  H    0.000025  -0.066892   0.000439  -0.000002   0.031185  -0.003760
    36  H    0.000000  -0.013647   0.000021   0.000000   0.554815  -0.055353
    37  H    0.000003  -0.002286  -0.000006   0.000000   0.381885  -0.032855
    38  H    0.000000  -0.000001   0.000000   0.000000  -0.000003   0.000000
    39  H    0.000014  -0.000061   0.000000   0.000000   0.000041   0.000000
    40  H    0.000027  -0.000002   0.000000   0.000000   0.000001   0.000000
    41  H    0.000097   0.000348   0.000003   0.000000   0.001616  -0.000001
    42  H    0.000000   0.000019   0.000000   0.000000   0.000305   0.000000
    43  H    0.000000   0.000067   0.000000   0.000000   0.000568   0.000000
    44  H    0.000000   0.000238   0.000000   0.000000   0.002541   0.000028
    45  H   -0.000828   0.006203   0.000075  -0.000001  -0.002859   0.000027
             25         26         27         28         29         30
     1  O    0.000000   0.000041   0.000000  -0.000006   0.000000   0.000000
     2  C    0.000007  -0.111830  -0.000034   0.001954  -0.000013   0.000000
     3  C   -0.000302   0.114189  -0.000153  -0.000594  -0.000029   0.000000
     4  O    0.000000  -0.000467   0.000000   0.000000   0.000000   0.000000
     5  H    0.000000   0.000072   0.000000   0.000000   0.000000   0.000000
     6  C    0.001197   0.025914   0.003058   0.030809   0.000227   0.000008
     7  O    0.000063   0.010218  -0.000158   0.000717   0.000004   0.000000
     8  H    0.000000  -0.000664   0.000007   0.000056   0.000000   0.000000
     9  C   -0.000004   0.016720   0.000171   0.003973   0.000049   0.000000
    10  O    0.000000   0.000378  -0.000002   0.000281   0.000000   0.000000
    11  H    0.000000  -0.000027   0.000000  -0.000002   0.000000   0.000000
    12  C   -0.000150   0.057959   0.001011   0.002134   0.000085  -0.000001
    13  O   -0.000017  -0.006568   0.000147   0.000882   0.000007   0.000000
    14  C   -0.004145  -0.728788   0.000137   0.103834   0.002234   0.000005
    15  O   -0.000474   0.038743  -0.003197   0.023048   0.000156  -0.000004
    16  C    0.014361  -3.665442   0.018760   1.157216  -0.003928   0.003477
    17  C    0.003952   0.366801  -0.022366  -0.357944  -0.005230   0.004576
    18  O    0.000001   0.029244  -0.000528  -0.027995   0.000121  -0.000012
    19  H    0.000000  -0.018610  -0.000055   0.009012  -0.000003   0.000000
    20  C   -0.001366   1.223325  -0.077606  -0.584940  -0.065157   0.008441
    21  O    0.000000  -0.006841   0.001776  -0.026088   0.003779  -0.000775
    22  H    0.000000   0.004878  -0.000079  -0.003849  -0.000685   0.000017
    23  C    0.026600  -1.107876  -0.073756  -0.245075   0.007838  -0.001531
    24  O    0.232465   0.036319   0.003825   0.013073   0.000199   0.000018
    25  H    0.462639  -0.043948  -0.001113  -0.001748   0.000027   0.000000
    26  C   -0.043948  10.417593   0.227243  -0.840470  -0.010071  -0.011637
    27  O   -0.001113   0.227243   8.157994   0.153206  -0.038600   0.001396
    28  C   -0.001748  -0.840470   0.153206   5.566466   0.268190  -0.005457
    29  O    0.000027  -0.010071  -0.038600   0.268190   8.113959   0.254047
    30  H    0.000000  -0.011637   0.001396  -0.005457   0.254047   0.432840
    31  H   -0.000001   0.003363  -0.051615   0.434361  -0.017315  -0.008398
    32  H    0.000000   0.016903  -0.005603   0.016846   0.003301  -0.000101
    33  H   -0.000001   0.107119   0.003888  -0.037934   0.001110   0.000005
    34  H   -0.000002   0.131495   0.002435  -0.001339  -0.000350   0.000003
    35  H    0.001769   0.142543  -0.036597   0.061911   0.000338   0.000005
    36  H    0.007010  -0.327815   0.002440   0.001427   0.000207   0.000000
    37  H   -0.009878  -0.041847   0.001063   0.007063  -0.000034   0.000000
    38  H    0.000000   0.000002   0.000000   0.000000   0.000000   0.000000
    39  H    0.000000   0.000024   0.000000  -0.000002   0.000000   0.000000
    40  H    0.000000  -0.000078   0.000000   0.000002   0.000000   0.000000
    41  H    0.000000  -0.002170  -0.000002  -0.000020   0.000000   0.000000
    42  H    0.000000  -0.000558   0.000000  -0.000001   0.000000   0.000000
    43  H    0.000000  -0.002280   0.000000   0.000003   0.000000   0.000000
    44  H    0.000000  -0.002658   0.000009  -0.000133   0.000000   0.000000
    45  H    0.000000   0.050514   0.000271  -0.000884  -0.000002   0.000000
             31         32         33         34         35         36
     1  O    0.000000   0.000000   0.000000  -0.000001   0.000000   0.000000
     2  C    0.000001   0.000054  -0.000057  -0.004422  -0.000100  -0.000040
     3  C   -0.000020  -0.000003   0.000227   0.004240  -0.001552  -0.007826
     4  O    0.000000   0.000000   0.000000   0.000000   0.000000  -0.000004
     5  H    0.000000   0.000000   0.000000   0.000000   0.000000   0.000000
     6  C    0.000057  -0.001035   0.001386   0.017928   0.009206   0.010015
     7  O    0.000003   0.000018  -0.000015  -0.000889   0.000256  -0.000951
     8  H    0.000000   0.000000   0.000000  -0.000001   0.000001   0.000053
     9  C    0.000022  -0.000332  -0.000964   0.000752   0.000629   0.000213
    10  O    0.000000   0.000009   0.000013   0.000026   0.000000   0.000000
    11  H    0.000000   0.000000   0.000000   0.000000   0.000000   0.000000
    12  C    0.000128   0.001517   0.001512   0.005995   0.001622   0.002893
    13  O    0.000011   0.000014  -0.000347  -0.001566  -0.000416  -0.000014
    14  C    0.003010  -0.008396  -0.009808  -0.004126   0.055422   0.035577
    15  O    0.000614   0.000251  -0.001673  -0.021899  -0.002744   0.001069
    16  C    0.085348   0.146404  -0.147081   0.118061   0.098259   0.111603
    17  C   -0.060368  -0.205221   0.326881  -0.016387  -0.060761  -0.011327
    18  O    0.001493   0.008067  -0.020798  -0.000304   0.000515   0.000076
    19  H   -0.000002  -0.000039  -0.004673   0.000095   0.000025   0.000000
    20  C   -0.147090   0.296331   0.002062   0.042053  -0.066892  -0.013647
    21  O    0.007327  -0.017722   0.001544   0.000468   0.000439   0.000021
    22  H   -0.000247  -0.006832   0.000119   0.000018  -0.000002   0.000000
    23  C    0.004126   0.008960   0.013833  -0.023076   0.031185   0.554815
    24  O   -0.000167  -0.000040   0.000042   0.000200  -0.003760  -0.055353
    25  H   -0.000001   0.000000  -0.000001  -0.000002   0.001769   0.007010
    26  C    0.003363   0.016903   0.107119   0.131495   0.142543  -0.327815
    27  O   -0.051615  -0.005603   0.003888   0.002435  -0.036597   0.002440
    28  C    0.434361   0.016846  -0.037934  -0.001339   0.061911   0.001427
    29  O   -0.017315   0.003301   0.001110  -0.000350   0.000338   0.000207
    30  H   -0.008398  -0.000101   0.000005   0.000003   0.000005   0.000000
    31  H    0.611612   0.005141   0.003065  -0.000086   0.003700  -0.000002
    32  H    0.005141   0.602438   0.005693   0.001671  -0.000137  -0.000041
    33  H    0.003065   0.005693   0.629388   0.006315   0.003043  -0.000003
    34  H   -0.000086   0.001671   0.006315   0.613315   0.006395   0.003126
    35  H    0.003700  -0.000137   0.003043   0.006395   0.652586   0.006678
    36  H   -0.000002  -0.000041  -0.000003   0.003126   0.006678   0.554031
    37  H    0.000002   0.000000  -0.000018   0.000083  -0.001629  -0.031943
    38  H    0.000000   0.000000   0.000000   0.000000   0.000000   0.000000
    39  H    0.000000   0.000000   0.000000   0.000000   0.000000   0.000000
    40  H    0.000000   0.000000   0.000000   0.000000   0.000000   0.000000
    41  H    0.000000   0.000000  -0.000003  -0.000100   0.000000  -0.000001
    42  H    0.000000   0.000000   0.000000   0.000000   0.000000   0.000000
    43  H    0.000000   0.000000   0.000000  -0.000008   0.000000   0.000000
    44  H    0.000000   0.000000   0.000000  -0.000014  -0.000003  -0.000004
    45  H    0.000000   0.000006   0.000015   0.007769   0.000006   0.000033
             37         38         39         40         41         42
     1  O    0.000000   0.264245  -0.000978   0.000606  -0.002015  -0.029715
     2  C    0.000746   0.034260  -0.005782   0.032005   0.091769   0.540535
     3  C    0.007746  -0.035348  -0.006090  -0.003673  -0.075354  -0.144014
     4  O   -0.000007   0.000154   0.000022  -0.000080   0.000474  -0.006118
     5  H    0.000000  -0.001318   0.000000  -0.000002  -0.000012  -0.001663
     6  C   -0.012125  -0.003168  -0.003495   0.001749  -0.076608   0.005118
     7  O   -0.000313  -0.000010   0.000003  -0.000003   0.000541   0.000114
     8  H    0.000008   0.000000   0.000000   0.000000   0.000016   0.000007
     9  C    0.000133   0.012808   0.630215   0.451642   0.040577  -0.064545
    10  O    0.000000   0.000109  -0.060693  -0.030217  -0.006584  -0.000521
    11  H    0.000000   0.000001   0.000257  -0.014677  -0.000069   0.000004
    12  C    0.003653  -0.010445  -0.255800  -0.111325   0.114085  -0.118412
    13  O    0.000548  -0.000491  -0.007695   0.002430  -0.051843  -0.000158
    14  C    0.032912  -0.001908   0.009547  -0.011959   0.140070   0.084278
    15  O   -0.010907   0.000007  -0.000048  -0.000094   0.004877  -0.000235
    16  C   -0.004037  -0.000057   0.001910  -0.001035   0.029437   0.001042
    17  C   -0.009103  -0.000003  -0.000621   0.000049   0.000205   0.000038
    18  O   -0.000058   0.000000   0.000213  -0.000125  -0.001186  -0.000001
    19  H    0.000003   0.000000   0.000014   0.000027   0.000097   0.000000
    20  C   -0.002286  -0.000001  -0.000061  -0.000002   0.000348   0.000019
    21  O   -0.000006   0.000000   0.000000   0.000000   0.000003   0.000000
    22  H    0.000000   0.000000   0.000000   0.000000   0.000000   0.000000
    23  C    0.381885  -0.000003   0.000041   0.000001   0.001616   0.000305
    24  O   -0.032855   0.000000   0.000000   0.000000  -0.000001   0.000000
    25  H   -0.009878   0.000000   0.000000   0.000000   0.000000   0.000000
    26  C   -0.041847   0.000002   0.000024  -0.000078  -0.002170  -0.000558
    27  O    0.001063   0.000000   0.000000   0.000000  -0.000002   0.000000
    28  C    0.007063   0.000000  -0.000002   0.000002  -0.000020  -0.000001
    29  O   -0.000034   0.000000   0.000000   0.000000   0.000000   0.000000
    30  H    0.000000   0.000000   0.000000   0.000000   0.000000   0.000000
    31  H    0.000002   0.000000   0.000000   0.000000   0.000000   0.000000
    32  H    0.000000   0.000000   0.000000   0.000000   0.000000   0.000000
    33  H   -0.000018   0.000000   0.000000   0.000000  -0.000003   0.000000
    34  H    0.000083   0.000000   0.000000   0.000000  -0.000100   0.000000
    35  H   -0.001629   0.000000   0.000000   0.000000   0.000000   0.000000
    36  H   -0.031943   0.000000   0.000000   0.000000  -0.000001   0.000000
    37  H    0.573115   0.000000   0.000000   0.000000  -0.000001   0.000000
    38  H    0.000000   0.413531   0.000029  -0.000350  -0.000088  -0.012388
    39  H    0.000000   0.000029   0.591259  -0.046293   0.007541   0.001153
    40  H    0.000000  -0.000350  -0.046293   0.589852  -0.000262   0.000036
    41  H   -0.000001  -0.000088   0.007541  -0.000262   0.664351   0.007775
    42  H    0.000000  -0.012388   0.001153   0.000036   0.007775   0.595412
    43  H    0.000000  -0.000054  -0.000005  -0.000022   0.002576   0.005384
    44  H    0.000118   0.000005  -0.000002   0.000000  -0.000103   0.000194
    45  H    0.000016  -0.000001  -0.000037  -0.000059   0.002969  -0.000105
             43         44         45
     1  O   -0.004547  -0.000175   0.000259
     2  C    0.080130  -0.042497  -0.140800
     3  C    0.322482  -0.046934   0.002272
     4  O   -0.029039  -0.000990  -0.000314
     5  H   -0.005323  -0.000108   0.000006
     6  C   -0.157924   0.423756   0.048682
     7  O    0.001527  -0.035249   0.000288
     8  H   -0.000428  -0.007026  -0.000279
     9  C   -0.004075   0.014057   0.065177
    10  O    0.000040   0.000007  -0.000073
    11  H    0.000000   0.000000   0.000002
    12  C   -0.026388   0.094346   0.145768
    13  O    0.000102   0.003768  -0.029536
    14  C    0.073635  -0.117758   0.168443
    15  O   -0.000271  -0.007135  -0.031250
    16  C   -0.002684  -0.019721  -0.052578
    17  C    0.001304   0.001652   0.006740
    18  O    0.000014   0.000008  -0.002010
    19  H    0.000000   0.000000  -0.000828
    20  C    0.000067   0.000238   0.006203
    21  O    0.000000   0.000000   0.000075
    22  H    0.000000   0.000000  -0.000001
[...]
 781,0.00097811,-0.00001421,-0.00031756,-0.00015567,0.00017247,0.000047
 04,0.00010335,-0.00002218,0.00000050,-0.00003407,-0.00000682,-0.000003
 49,-0.00001010,0.00001684,-0.00000494,0.00001464,-0.00001460,0.0000050
 0,0.00000144,-0.00000227,0.00000235,-0.00000126,0.00000383,-0.00000305
 ,0.00000358,-0.00000306,0.00000263,-0.00000359,-0.00001226,-0.00000662
 ,-0.00000524,0.00001144,0.00000886,0.00000426,-0.00000307,-0.00000181,
 0.00000249,0.00000011,0.00000090,-0.00000882,0.00000585,0.00000037,0.0
 0000243,-0.00000506,-0.00000213,-0.00000818,0.00000138,0.00000069,0.00
 000615,-0.00000087,0.00000052,-0.00000137,0.00000165,-0.00000013,0.000
 00082,0.00000183,-0.00000186,-0.00000129,0.00000395,-0.00000045,0.0000
 0447,0.00000396,-0.00000487,0.00000052,0.00000322,-0.00000123,0.000003
 89,0.00000329,-0.00000162,-0.00000075,-0.00000239,-0.00000047,-0.00000
 251,0.00035832,0.00015719,0.00033802,-0.00004085,-0.00049088,0.0000812
 8,-0.00015339,0.00002314,0.00002034,0.00055438,-0.00058249,-0.00002584
 ,0.32199051,-0.00314200,0.00192900,-0.00057423,0.03702537,-0.04844748,
 -0.01587772,0.02715044,-0.00954255,-0.01486480,0.00021311,0.00339623,-
 0.00088229,0.00123842,-0.00098537,0.00023303,0.00088894,0.00007603,0.0
 0085957,-0.00058397,-0.00038832,-0.00073521,0.00015585,0.00006620,0.00
 002123,-0.00023803,0.00221999,-0.00009403,0.00020876,-0.00029852,-0.00
 013824,0.00000033,-0.00008890,-0.00003293,-0.02484747,0.00357069,0.014
 01431,0.00091319,0.00065377,-0.00204961,-0.00006276,-0.00042048,0.0000
 5106,0.00022329,0.00005633,-0.00007600,-0.00005372,0.00002586,-0.00001
 058,-0.00001509,-0.00005161,-0.00005615,0.00004634,0.00000491,0.000079
 09,-0.00007144,0.00001783,-0.00003931,0.00000076,0.00000113,0.00000590
 ,0.00000645,0.00001120,0.00000307,0.00000219,0.00000133,-0.00000832,0.
 00001365,0.,0.00001911,-0.00001313,-0.00000029,-0.00002079,0.00000175,
 -0.00000054,0.00000026,0.00000500,-0.00000859,-0.00000260,0.00000783,0
 .00001705,-0.00001728,-0.00000996,-0.00002097,0.00000608,0.00000396,0.
 00000550,-0.00000138,-0.00000037,-0.00000069,0.00000158,-0.00000013,0.
 00000224,-0.00000001,-0.00000009,-0.00000161,-0.00000181,0.00000885,0.
 00000704,0.00000982,0.00000017,-0.00000906,-0.00000056,-0.00000029,0.0
 0000566,-0.00000232,-0.00001449,0.00000468,0.00001220,0.00001817,-0.00
 000667,0.00000236,-0.00033498,0.00117099,0.00019239,0.00030761,-0.0002
 2193,-0.00000835,-0.00017079,-0.00013873,-0.00022893,-0.00104333,-0.00
 264661,0.00403130,-0.03728189,0.05484164,-0.03878839,0.00112157,-0.001
 17906,0.12393034,-0.02099088,-0.10124531,0.01626505,-0.00185497,-0.006
 20697,-0.00173467,0.00362553,0.00131290,-0.00013377,0.00001734,0.00036
 811,0.00045299,0.00020844,0.00051726,-0.00038308,-0.00019559,-0.000306
 17,0.00008279,0.00004306,-0.00000203,-0.00042705,-0.00146002,0.0001891
 9,-0.00000211,0.00021908,0.00004302,-0.00006025,0.00005574,-0.00001897
 ,0.02356029,-0.00079697,-0.01207372,-0.00135463,-0.00040286,0.00252060
 ,0.00045244,-0.00069531,0.00001881,-0.00009135,0.00012614,-0.00018755,
 -0.00003090,-0.00001361,0.00010398,0.00004371,0.00002924,0.00005017,-0
 .00005906,0.00001328,-0.00012270,0.00009510,-0.00003747,0.00005076,-0.
 00002291,-0.00000798,0.00001485,0.00002093,0.00002212,-0.00003121,-0.0
 0001419,-0.00000919,0.00001682,0.00003399,0.00003386,0.00001579,-0.000
 03578,-0.00003552,-0.00002902,0.00000973,0.00000556,-0.00000218,0.0000
 0817,0.00000294,0.00004013,-0.00000222,0.00000220,-0.00004511,0.000005
 46,-0.00000310,0.00005511,0.00000688,-0.00000586,-0.00004330,0.0000016
 8,-0.00000206,0.00000712,-0.00000138,0.00000062,-0.00000259,-0.0000045
 4,0.00000349,0.00000342,-0.00001669,-0.00000265,-0.00001842,-0.0000106
 7,0.00001173,0.00000909,-0.00000865,0.00000335,-0.00001011,-0.00000917
 ,0.00000405,0.00000742,0.00001476,0.00000010,0.00000089,-0.00200390,0.
 00060685,0.00437278,-0.00008418,0.00059800,0.00010979,0.00010276,0.000
 35365,0.00012307,0.00031277,0.00376579,-0.00354985,-0.11898305,0.01827
 636,0.11615004,0.00159280,-0.00019340,-0.00025025,-0.00330408,0.001134
 75,-0.00008627,-0.32332764,0.08987954,0.00744558,-0.01598155,-0.006531
 97,0.01333183,0.00008222,-0.00086356,-0.00026593,-0.01717511,0.0056980
 4,-0.00248821,0.00319732,0.00005169,0.00223431,-0.00049509,-0.00018591
 ,-0.00018956,0.00013429,0.00018267,-0.00021565,0.00000179,0.00002722,0
 .00005511,0.00000636,0.00002540,-0.00000797,-0.00022090,0.00061186,0.0
 0024929,0.00099727,-0.00011216,0.00015774,-0.00166236,-0.00161152,0.00
 044382,0.00054247,0.00021800,-0.00037929,-0.00016515,0.00014732,-0.000
 00745,0.00002740,-0.00003891,-0.00007107,0.00003015,-0.00000980,0.0000
 4399,-0.00003007,0.00000815,-0.00001212,-0.00001148,0.00002702,0.00000
 249,0.00001212,-0.00000132,0.00000099,-0.00000204,0.00000566,-0.000007
 02,-0.00005480,-0.00000109,0.00001915,0.00003632,0.00001137,0.00000326
 ,-0.00000541,-0.00000501,0.00001548,0.00000663,-0.00000323,-0.00000325
 ,0.00001504,-0.00000253,-0.00000290,-0.00000737,-0.00000540,-0.0000150
 5,0.00000216,0.00000136,0.00001217,-0.00000140,0.00000096,-0.00000290,
 0.00000264,-0.00000056,0.00000184,0.00000598,-0.00000326,-0.00000352,0
 .00000529,-0.00000710,0.00001101,0.00003459,-0.00001541,-0.00001976,0.
 00000914,-0.00000633,0.00001317,0.00002240,-0.00000948,-0.00001749,-0.
 00001214,0.00001728,0.00000822,0.00017924,-0.00039674,-0.00031157,-0.0
 0003203,-0.00009543,0.00001631,0.00001338,-0.00001145,0.00001197,0.000
 44293,0.00031854,-0.00047303,0.00044022,-0.00036740,-0.00052865,0.3541
 5085,-0.00137462,0.00297578,0.00238186,0.03322346,-0.01427802,-0.00518
 917,0.09334361,-0.06892037,-0.00539924,-0.03190857,0.00153511,0.012729
 13,0.00000746,0.00005410,-0.00126511,-0.00320443,0.00259097,-0.0032000
 5,-0.00088726,0.00036417,0.00062854,-0.00049377,-0.00012095,-0.0001273
 4,-0.00043580,0.00010757,0.00030895,-0.00013601,-0.00019312,-0.0000116
 5,-0.00000040,-0.00003071,0.00002421,0.00193664,0.00199765,-0.00207659
 ,-0.00054542,-0.00036406,0.00046138,0.00061188,-0.00053419,-0.00040733
 ,-0.00003615,0.00012358,-0.00016502,-0.00001500,0.00003374,0.00002679,
 0.00001151,-0.00001769,-0.00001824,-0.00001882,0.00001957,0.00000650,0
 .00002151,-0.00001063,-0.00002922,0.00000302,0.00000232,0.00000620,-0.
 00000001,0.00000541,-0.00000446,0.00000369,-0.00000315,0.00000085,-0.0
 0001489,0.00001678,0.00000616,0.00000297,-0.00000867,-0.00000154,0.000
 00098,-0.00000036,0.00000213,0.00000318,0.00000848,0.00000398,-0.00000
 259,-0.00000675,-0.00000400,0.00000295,0.00000477,0.00000510,-0.000000
 72,-0.00000176,-0.00000216,0.00000016,0.00000055,0.00000022,-0.0000012
 0,-0.00000090,-0.00000083,-0.00000176,0.00000234,0.00000170,-0.0000025
 7,0.00000116,-0.00000236,0.00000060,0.00000693,0.00000630,-0.00000221,
 -0.00000337,-0.00000241,0.00000739,-0.00000076,-0.00000707,-0.00000032
 ,0.00000566,-0.00000261,0.00002810,0.00041257,0.00037877,-0.00002437,0
 .00022459,0.00002695,0.00001759,-0.00001451,-0.00000879,-0.00088878,-0
 .00005663,0.00084172,-0.00032494,-0.00466920,-0.00255522,-0.08830256,0
 .07895119,0.00045399,0.00123045,0.00121197,0.01295109,-0.00934811,-0.0
 0058570,0.00485301,-0.00534747,-0.04039311,0.03082071,0.00511455,-0.01
 169590,0.00181184,0.00001878,0.00056928,-0.03361254,0.00717237,-0.0035
 9062,0.00187952,0.00117878,0.00340656,-0.00038220,-0.00027464,-0.00019
 573,-0.00015612,-0.00006190,0.00025879,-0.00003252,-0.00011456,-0.0000
 1725,0.00000046,-0.00002158,0.00001872,-0.00042447,0.00002031,-0.00105
 081,0.00007730,0.00062855,-0.00037398,-0.00166620,-0.00166677,0.001806
 91,0.00060183,0.00013378,-0.00063124,-0.00018294,0.00015082,0.00010947
 ,0.00005662,-0.00004815,-0.00006365,0.00002109,0.00001206,0.00000573,-
 0.00002576,-0.00002411,0.00000574,-0.00002841,0.00002361,0.00001297,0.
 00002746,0.00001857,-0.00001817,-0.00000864,-0.00000077,0.00000014,-0.
 00006114,0.00005576,0.00007435,0.00000807,-0.00003153,-0.00003897,0.00
 000537,0.00000194,0.00002285,0.00001615,-0.00000971,0.00002608,0.00002
 373,0.00000934,-0.00005202,-0.00000706,-0.00001737,0.00002857,0.000009
 60,-0.00000085,-0.00002142,-0.00000030,-0.00000035,0.00000329,0.000001
 70,0.00000062,0.00000048,0.00000319,-0.00000046,-0.00000167,-0.0000009
 2,-0.00000655,0.00000570,0.00004226,-0.00000684,-0.00003133,0.00000400
 ,-0.00000635,0.00000918,0.00002494,-0.00001070,-0.00002252,0.00000909,
 0.00002926,0.00001550,0.00013953,0.00018696,0.00005871,0.00001452,0.00
 005192,-0.00003716,0.00001208,0.00002029,0.00001813,-0.00031916,0.0003
 9079,0.00024723,0.00040349,-0.00163921,-0.00111845,-0.01644160,0.00262
 739,0.05700688,0.00017275,-0.00020856,-0.00053506,-0.00092626,0.001148
 46,0.00007894,-0.01438268,-0.00501734,-0.00020948,0.00202762,0.0005424
 7,0.00139985,0.00040871,-0.00011281,0.00043532,-0.34887860,-0.04789893
 ,0.01656139,-0.01130301,0.00828339,0.00669442,0.00020902,0.00037431,0.
 00074056,0.00003952,0.00000976,0.00004403,0.00001890,-0.00001605,-0.00
 000177,-0.00000592,0.00000333,-0.00000026,-0.00011521,0.00008317,-0.00
 014727,0.00140820,-0.00067861,-0.00044191,-0.00623227,-0.00163905,0.00
 069571,0.00074887,-0.00009541,0.00030975,-0.00003792,0.00004498,0.0000
 5302,0.00004798,-0.00000062,-0.00002038,0.00002604,-0.00002066,-0.0000
 0128,-0.00002473,-0.00000377,0.00001215,-0.00001620,0.00002589,-0.0000
 0239,0.00001317,-0.00000507,-0.00000405,-0.00000606,0.00000504,-0.0000
 0156,-0.00017405,0.00006388,0.00014739,0.00004943,-0.00003466,-0.00006
 928,0.00000259,-0.00000365,0.00004496,-0.00001114,-0.00005713,0.000009
 26,0.00003268,0.00002023,-0.00001852,-0.00000591,-0.00000272,-0.000004
 67,0.00000680,-0.00000241,-0.00000068,-0.00000143,0.00000149,-0.000000
 38,0.00000334,-0.00000131,0.00000180,0.00000606,-0.00000220,-0.0000011
 4,0.00000067,-0.00001365,0.00001109,0.00004718,0.00001245,-0.00010936,
 0.00000799,-0.00001467,0.00001846,0.00006447,-0.00002021,-0.00006671,0
 .00003429,0.00004000,0.00002412,-0.00008914,-0.00014721,-0.00002931,0.
 00000589,-0.00003211,-0.00000989,0.00000440,0.00002630,0.00001544,0.00
 013366,0.00009914,0.00005300,0.00021168,-0.00029682,-0.00022449,-0.000
 21056,-0.00062078,-0.00154945,0.37596710,0.00013469,0.00010389,0.00010
 168,0.00019870,-0.00025811,0.00035072,-0.00393658,0.00238278,0.0032070
 1,0.00086519,0.00020726,-0.00053014,-0.00002582,-0.00000371,-0.0000159
 8,-0.05128669,-0.05098860,0.00529877,0.03559379,-0.00780412,-0.0124365
 1,0.00158657,0.00206789,-0.00072621,0.00008190,0.00014969,0.00013434,-
 0.00001675,-0.00006719,-0.00002030,0.00000637,0.00000068,0.00000209,-0
 .00034189,0.00018098,-0.00034733,0.00162258,0.00216918,0.00001784,-0.0
 3281984,-0.00520969,0.00083457,0.00221625,0.00131725,-0.00068471,0.000
 00341,0.00035624,-0.00007244,0.00002525,-0.00008999,-0.00021716,0.0000
 8256,-0.00010816,0.00018125,-0.00011905,0.00010904,-0.00002228,0.00000
 815,0.00002240,0.00000647,0.00000729,0.00001833,0.00001246,0.00001221,
 0.00000442,-0.00002043,0.00009126,-0.00004282,0.00006778,-0.00006270,0
 .00001084,-0.00004374,-0.00000564,0.00000912,-0.00001563,-0.00005259,-
 0.00006707,-0.00000796,0.00001935,0.00005270,0.00000973,-0.00002107,-0
 .00003879,-0.00001483,0.00000419,0.00001464,0.00001595,-0.00000163,-0.
 00000207,0.00000102,-0.00000060,0.00000506,0.00000053,0.00000514,-0.00
 000568,-0.00000622,0.00001619,-0.00000729,0.00003017,0.00010541,-0.000
 11196,-0.00006586,0.00001754,0.00003127,0.00001207,-0.00005515,0.00002
 272,0.00007912,0.00004831,0.00003632,0.00001814,0.00002822,0.00003961,
 0.00000674,0.00000249,-0.00007366,-0.00001058,0.00000136,0.00001843,0.
 00000339,0.00039934,0.00018122,0.00020299,-0.00007081,-0.00000135,-0.0
 0019500,0.00003268,-0.00003904,-0.00088966,0.04636738,0.06019055,0.000
 24752,-0.00042381,-0.00102400,-0.00096952,0.00145591,0.00057536,-0.033
 21817,-0.00646226,-0.00082945,0.00186635,-0.00015773,0.00343029,0.0000
 1882,-0.00033066,0.00065517,0.01703153,0.00504345,-0.04282017,0.021644
 38,-0.00733641,-0.00468092,-0.00057455,0.00088329,-0.00003991,-0.00010
 188,0.00007262,0.00002427,-0.00001499,-0.00006569,0.00002161,-0.000003
 54,0.00000375,0.00001077,-0.00032001,-0.00019206,-0.00029672,-0.001101
 80,-0.00071043,0.00014829,0.02188210,0.00500210,-0.00075196,-0.0011458
 6,-0.00131469,0.00163389,0.00034870,-0.00033982,-0.00023157,-0.0001028
 3,0.00007888,0.00016388,-0.00005598,0.00005174,-0.00007408,0.00006794,
 -0.00003485,0.00001502,0.00002699,-0.00004488,-0.00001173,-0.00003896,
 -0.00002743,0.00001707,0.00000522,-0.00000337,0.00000618,0.00021238,-0
 .00018097,-0.00026406,-0.00004159,0.00005815,0.00012741,-0.00001164,0.
 00000480,-0.00008373,-0.00002478,0.00010839,-0.00000857,-0.00007608,-0
 .00008457,0.00009296,0.00002555,0.00006151,-0.00003480,-0.00002272,-0.
 00000819,0.00003405,0.00000158,0.00000045,-0.00000675,-0.00000248,-0.0
 0000359,-0.00000078,-0.00000807,0.00000175,0.00000433,-0.00000820,0.00
 002259,-0.00002330,-0.00018784,0.00004899,0.00003554,-0.00001998,0.000
 01397,-0.00003817,-0.00006729,0.00002395,0.00007278,0.00000536,-0.0000
 5310,-0.00018816,-0.00007578,-0.00026764,-0.00011210,0.00001930,-0.000
 00517,-0.00000211,0.00000332,0.00001309,-0.00000658,-0.00005402,0.0000
 2126,-0.00020908,0.00016148,-0.00033512,-0.00018630,-0.00206122,-0.000
 38968,-0.00492387,-0.02417981,0.00281739,0.05110119,0.00011316,0.00003
 116,0.00021883,-0.00010154,-0.00000865,0.00065082,-0.00054252,-0.00001
 078,-0.00065443,0.00034508,-0.00005115,-0.00009233,0.00000801,-0.00001
 528,0.00011718,-0.01141888,-0.00252798,0.00264979,0.00125936,-0.000442
 39,-0.00074889,0.00040743,0.00000128,-0.00018204,0.00189008,0.00001751
 ,-0.00022750,-0.00025250,-0.00008437,0.00015979,0.00006334,0.00001655,
 0.00000792,0.00096089,-0.00481561,-0.00807296,-0.01814903,0.01162448,0
 .00849421,-0.34122028,-0.03299089,0.01822416,-0.01310086,0.00158351,-0
 .01120656,0.00057979,-0.00029737,0.00320365,0.00049145,-0.00020041,-0.
 00052854,0.00027465,-0.00042376,0.00036651,-0.00050679,0.00025904,0.00
 002761,-0.00004214,0.00016341,0.00007367,0.00009381,0.00008154,-0.0000
 6489,-0.00000323,0.00000373,-0.00003332,-0.00011659,0.00007017,0.00005
 720,0.00004260,-0.00004246,-0.00004711,0.00000202,0.00001067,0.0000394
 6,0.00036505,-0.00017287,0.00010417,0.00003854,-0.00003111,-0.00025749
 ,-0.00004961,-0.00009175,0.00004844,0.00002596,0.00001850,-0.00002154,
 -0.00000263,-0.00000045,0.00000505,0.00000438,0.00000752,0.00000089,0.
 00001929,-0.00000654,-0.00001147,-0.00003197,-0.00012767,0.00016195,0.
 00134178,-0.00044113,-0.00100453,0.00009114,0.00008865,0.00029350,0.00
 004785,-0.00006266,-0.00004925,0.00003782,0.00012670,-0.00001646,0.000
 04706,-0.00000108,0.00003372,-0.00013753,-0.00070505,-0.00017590,0.000
 04885,0.00018074,0.00002794,0.00329268,-0.00176811,-0.00149554,0.00000
 207,0.00010775,-0.00038408,0.00070816,0.00001728,0.00062679,0.00072205
 ,-0.00076695,0.00092107,0.37235177,0.00004010,0.00027020,-0.00014736,-
 0.00085975,-0.00021878,0.00042496,-0.00116509,0.00065300,-0.00045621,0
 .00044414,0.00003284,-0.00005285,0.00011024,-0.00000229,0.00005381,-0.
 03310389,-0.00559865,0.00606072,0.00145304,0.00285594,-0.00078101,0.00
 005273,0.00075650,0.00008858,0.00077299,-0.00029596,-0.00026237,-0.000
 25896,-0.00004244,0.00018978,0.00000171,0.00002548,0.00003952,0.009014
 28,-0.00279048,-0.00128644,0.02941783,-0.01135716,-0.01645441,-0.04321
 310,-0.04802302,0.00745139,0.00656221,0.00481190,0.00425640,-0.0000284
 4,0.00040204,-0.00023355,0.00033209,0.00031948,0.00049175,-0.00019633,
 0.00015131,-0.00070883,0.00045646,-0.00074364,0.00032834,-0.00003137,0
 .00005184,-0.00002353,0.00002293,-0.00005350,-0.00005683,-0.00004368,-
 0.00000838,0.00004316,-0.00008112,0.00007013,-0.00003734,0.00003017,0.
 00001421,0.00001378,-0.00000325,-0.00000898,0.00001578,0.00001055,-0.0
 0008366,-0.00010571,-0.00002138,-0.00002316,0.00005777,0.00004532,0.00
 008192,-0.00001295,-0.00000981,-0.00002453,-0.00001284,0.00000177,0.00
 000049,-0.00000371,0.00000410,-0.00000815,-0.00000075,0.00001080,0.000
 00058,0.00000109,-0.00006438,-0.00008717,-0.00004767,0.00013337,-0.000
 15906,-0.00001904,0.00000189,0.00000846,0.00000883,-0.00000825,-0.0000
 2370,0.00000650,-0.00001001,-0.00004152,0.00005341,-0.00000415,0.00001
 602,-0.00001814,-0.00027470,-0.00001249,-0.00000366,-0.00005438,0.0000
 2970,0.00002123,-0.00124304,-0.00077901,-0.00338517,-0.00009659,-0.000
 13586,0.00011422,0.00038200,-0.00017015,0.00045073,-0.00020528,-0.0047
 8317,0.00298413,0.03167626,0.06492291,-0.00000980,0.00001204,-0.000141
 38,-0.00081407,0.00038993,0.00001940,0.00135893,0.00005698,0.00005083,
 -0.00045566,-0.00037510,0.00025860,-0.00002676,-0.00000328,-0.00001252
 ,0.01863735,0.00623813,0.00138575,-0.00105777,-0.00014120,0.00032642,-
 0.00008006,-0.00018457,-0.00004695,0.00041615,-0.00032815,-0.00071200,
 -0.00012614,0.00011435,0.00014300,0.00001771,0.00002981,-0.00001244,0.
 00890145,-0.00724001,-0.00343317,0.00978499,-0.00798040,-0.00673249,0.
 01915310,0.00766005,-0.03890470,-0.03876560,0.00274672,-0.02184397,-0.
 00602292,0.00024054,0.00306883,-0.00007293,0.00006356,-0.00049236,0.00
 016296,-0.00021391,0.00035526,-0.00025180,0.00032896,-0.00017692,0.000
 01443,0.00003673,-0.00001940,0.00002365,0.00001002,0.00004094,0.000021
 41,0.00002066,-0.00002450,-0.00008811,0.00000607,0.00017402,0.00000983
 ,-0.00006824,-0.00011836,0.00001868,0.00002373,0.00002340,-0.00001341,
 -0.00016456,0.00009380,0.00023082,-0.00002787,-0.00029671,-0.00009573,
 -0.00017005,0.00003406,0.00004079,0.00003132,-0.00001948,-0.00000364,-
 0.00000050,0.00001025,0.00000451,0.00001186,0.00001118,0.00004535,-0.0
 0001108,-0.00004052,0.00007812,-0.00012937,0.00008184,0.00138915,-0.00
 068252,-0.00017868,0.00029483,-0.00004701,0.00012137,0.00003624,-0.000
 05560,-0.00002493,0.00008700,0.00013183,-0.00012232,-0.00003293,0.0000
 0043,-0.00002878,-0.00018961,0.00001899,-0.00004966,-0.00001630,-0.000
 14034,-0.00004226,-0.00134362,-0.00436851,-0.00425771,-0.00008353,-0.0
 0012096,0.00027791,-0.00021599,0.00039527,-0.00005967,0.00027844,0.002
 93074,-0.00132117,-0.01123950,0.00095450,0.07263620\\0.00096507,-0.012
 08982,-0.01322306,-0.01442628,0.03707510,-0.02204123,-0.00143773,-0.02
 723705,0.03615559,0.01657187,-0.00382851,0.02266254,-0.01837641,-0.022
 61341,-0.01660887,-0.00610281,0.02693964,-0.02280038,-0.01646979,-0.01
 607719,0.04147031,0.01602206,0.01333588,-0.02335262,-0.02494439,0.0033
 8918,0.02479143,0.01000168,0.00295453,0.01870353,-0.00208141,-0.015927
 95,-0.03333134,0.03740850,0.03606037,-0.02227822,0.01602251,-0.0228465
 1,0.02312248,-0.01576622,0.03432391,-0.05174668,-0.00919403,-0.0027592
 5,0.02011762,-0.01444525,-0.03385358,0.00281465,-0.00252608,-0.0092366
 2,0.04035930,-0.02169983,-0.00988192,0.01023301,0.02577063,0.00894840,
 -0.01343754,-0.00745181,0.03779998,0.01273075,0.01954147,-0.00302281,0
 .00278009,-0.02139152,-0.00778056,-0.02213630,0.00456506,-0.01121155,0
 .01403894,-0.02376163,0.03272547,-0.00977920,0.02744798,-0.01465160,-0
 .00370485,0.00068052,-0.01241530,-0.03454980,-0.00508072,0.00821386,-0
 .00232991,0.03655973,-0.02974800,-0.02878717,-0.00352623,0.01247923,0.
 02505923,-0.00415188,-0.00183596,-0.00021973,-0.01627079,0.00866024,-0
 .00493315,0.01366675,-0.01190550,-0.00073039,-0.01468214,0.01196487,-0
 .00736318,0.01664541,-0.00820546,0.00572816,-0.01968967,0.01374845,-0.
 00541210,0.01262712,-0.01338886,0.00250329,-0.00427196,0.00316379,0.01
 523840,-0.00169420,0.00241509,0.00117690,-0.02057510,0.01000966,0.0043
 0066,0.00591804,-0.00420377,0.01846674,0.02500506,-0.00082981,-0.00134
 593,-0.01711266,-0.00018373,0.00688996,0.02204523,-0.00325391,-0.00457
 712,-0.01839580,-0.00255177,0.00248894,0.01806164,-0.00266727,-0.00714
 374\\\@


 IT CANNOT BE MY BEAUTY, FOR I HAVE NONE; AND IT CANNOT BE MY WIT,
 FOR HE HAS NOT ENOUGH TO KNOW THAT I HAVE ANY.
 -- CATHARINE SEDLEY, PUZZLED ABOUT WHY SHE WAS MISTRESS TO JAMES II
 Job cpu time:  1 days  8 hours 16 minutes 31.6 seconds.
 File lengths (MBytes):  RWF=   1769 Int=      0 D2E=      0 Chk=     28 Scr=      1
 Normal termination of Gaussian 09 at Sun Apr  3 01:11:23 2016.
Gaussian '09 finished on node012 at Sun Apr  3 01:11:23 EDT 2016.
