Gaussian '09 started on node005 at Tue Mar 29 18:47:56 EDT 2016.
 Entering Gaussian System, Link 0=/usr/local/gaussian/g09/g09
 Initial command:
 /usr/local/gaussian/g09/l1.exe /home/srmcgrat/thesis/gaussian/cellobiose/493K/10000ps/1/2dp/gaussian16969/Gau-17005.inp -scrdir=/home/srmcgrat/thesis/gaussian/cellobiose/493K/10000ps/1/2dp/gaussian16969/
 Entering Link 1 = /usr/local/gaussian/g09/l1.exe PID=     17007.
  
 Copyright (c) 1988,1990,1992,1993,1995,1998,2003,2009,2010,
            Gaussian, Inc.  All Rights Reserved.
  
 This is part of the Gaussian(R) 09 program.  It is based on
 the Gaussian(R) 03 system (copyright 2003, Gaussian, Inc.),
 the Gaussian(R) 98 system (copyright 1998, Gaussian, Inc.),
 the Gaussian(R) 94 system (copyright 1995, Gaussian, Inc.),
 the Gaussian 92(TM) system (copyright 1992, Gaussian, Inc.),
 the Gaussian 90(TM) system (copyright 1990, Gaussian, Inc.),
 the Gaussian 88(TM) system (copyright 1988, Gaussian, Inc.),
 the Gaussian 86(TM) system (copyright 1986, Carnegie Mellon
 University), and the Gaussian 82(TM) system (copyright 1983,
 Carnegie Mellon University). Gaussian is a federally registered
 trademark of Gaussian, Inc.
  
 This software contains proprietary and confidential information,
 including trade secrets, belonging to Gaussian, Inc.
  
 This software is provided under written license and may be
 used, copied, transmitted, or stored only in accord with that
 written license.
  
 The following legend is applicable only to US Government
 contracts under FAR:
  
                    RESTRICTED RIGHTS LEGEND
  
 Use, reproduction and disclosure by the US Government is
 subject to restrictions as set forth in subparagraphs (a)
 and (c) of the Commercial Computer Software - Restricted
 Rights clause in FAR 52.227-19.
  
 Gaussian, Inc.
 340 Quinnipiac St., Bldg. 40, Wallingford CT 06492
  
  
 ---------------------------------------------------------------
 Warning -- This program may not be used in any manner that
 competes with the business of Gaussian, Inc. or will provide
 assistance to any competitor of Gaussian, Inc.  The licensee
 of this program is prohibited from giving any competitor of
 Gaussian, Inc. access to this program.  By using this program,
 the user acknowledges that Gaussian, Inc. is engaged in the
 business of creating and licensing software in the field of
 computational chemistry and represents and warrants to the
 licensee that it is not a competitor of Gaussian, Inc. and that
 it will not use this program in any manner prohibited above.
 ---------------------------------------------------------------
  

 Cite this work as:
 Gaussian 09, Revision B.01,
 M. J. Frisch, G. W. Trucks, H. B. Schlegel, G. E. Scuseria, 
 M. A. Robb, J. R. Cheeseman, G. Scalmani, V. Barone, B. Mennucci, 
 G. A. Petersson, H. Nakatsuji, M. Caricato, X. Li, H. P. Hratchian, 
 A. F. Izmaylov, J. Bloino, G. Zheng, J. L. Sonnenberg, M. Hada, 
 M. Ehara, K. Toyota, R. Fukuda, J. Hasegawa, M. Ishida, T. Nakajima, 
 Y. Honda, O. Kitao, H. Nakai, T. Vreven, J. A. Montgomery, Jr., 
 J. E. Peralta, F. Ogliaro, M. Bearpark, J. J. Heyd, E. Brothers, 
 K. N. Kudin, V. N. Staroverov, T. Keith, R. Kobayashi, J. Normand, 
 K. Raghavachari, A. Rendell, J. C. Burant, S. S. Iyengar, J. Tomasi, 
 M. Cossi, N. Rega, J. M. Millam, M. Klene, J. E. Knox, J. B. Cross, 
 V. Bakken, C. Adamo, J. Jaramillo, R. Gomperts, R. E. Stratmann, 
 O. Yazyev, A. J. Austin, R. Cammi, C. Pomelli, J. W. Ochterski, 
 R. L. Martin, K. Morokuma, V. G. Zakrzewski, G. A. Voth, 
 P. Salvador, J. J. Dannenberg, S. Dapprich, A. D. Daniels, 
 O. Farkas, J. B. Foresman, J. V. Ortiz, J. Cioslowski, 
 and D. J. Fox, Gaussian, Inc., Wallingford CT, 2010.
 
 ******************************************
 Gaussian 09:  EM64L-G09RevB.01 12-Aug-2010
                29-Mar-2016 
 ******************************************
 -------------------------------------------------
 # freq=raman b3lyp/6-31+g(2d,p) geom=connectivity
 -------------------------------------------------
 1/10=4,30=1,38=1,57=2/1,3;
 2/12=2,17=6,18=5,40=1/2;
 3/5=1,6=6,7=112,11=2,16=1,25=1,30=1,71=2,74=-5/1,2,3;
 4//1;
 5/5=2,38=5,98=1/2;
 8/6=4,10=90,11=11/1;
 10/13=10,15=4/2;
 11/6=3,8=1,9=11,15=111,16=1/1,2,10;
 10/6=1/2;
 6/7=2,8=2,9=2,10=2,18=1,28=1/1;
 7/8=1,10=1,25=1/1,2,3,16;
 1/10=4,30=1/3;
 99//99;
 -------------------
 493 10000/10000.com
 -------------------
 Symbolic Z-matrix:
 Charge =  0 Multiplicity = 1
 O                     7.567     7.707     12.162 
 C                     8.23      8.135     13.36 
 C                     7.481     9.293     13.999 
 O                     7.416     10.279    12.959 
 H                     7.161     9.74      12.156 
 C                     8.041     9.841     15.301 
 O                     7.335     10.993    15.785 
 H                     7.684     11.26     16.684 
 C                     8.76      5.734     14.064 
 O                     7.966     4.993     13.126 
 H                     8.123     4.03      13.344 
 C                     8.172     7.081     14.453 
 O                     8.803     7.546     15.655 
 C                     8.117     8.657     16.251 
 O                     8.81      8.84      17.494 
 C                     8.109     8.403     18.667 
 C                     8.62      7.115     19.291 
 O                     8.568     6.146     18.234 
 H                     8.903     6.556     17.386 
 C                     7.873     6.712     20.552 
 O                     8.177     5.412     21.077 
 H                     7.712     5.33      21.959 
 C                     7.401     10.712    19.55 
 O                     7.751     11.456    18.374 
 H                     7.722     12.427    18.614 
 C                     8.163     9.42      19.795 
 O                     7.68      9.032     21.089 
 C                     8.211     7.789     21.57 
 O                     7.478     7.581     22.786 
 H                     8.09265   7.45667   23.51287 
 H                     9.26414   7.85246   21.74826 
 H                     6.82316   6.75518   20.34982 
 H                     9.64709   7.26102   19.55302 
 H                     7.08293   8.25709   18.40092 
 H                     9.19293   9.68389   19.91545 
 H                     7.54918   11.34754   20.39796 
 H                     6.35948   10.47393   19.49118 
 H                     8.87515   5.14556   14.95022 
 H                     9.72687   5.897     13.63564 
 H                     7.13874   6.92      14.67962 
 H                     8.22174   7.4708    11.50085 
 H                     9.24355   8.40974   13.15473 
 H                     6.48252   8.96218   14.19519 
 H                     9.04603   10.1521   15.10599 
 H                     7.11636   8.34976   16.47287 
 

 GradGradGradGradGradGradGradGradGradGradGradGradGradGradGradGradGradGrad
 Berny optimization.
 Initialization pass.
 Trust Radius=3.00D-01 FncErr=1.00D-07 GrdErr=1.00D-07
 Number of steps in this run=      2 maximum allowed number of steps=      2.
 GradGradGradGradGradGradGradGradGradGradGradGradGradGradGradGradGradGrad

                          Input orientation:                          
 ---------------------------------------------------------------------
 Center     Atomic      Atomic             Coordinates (Angstroms)
 Number     Number       Type             X           Y           Z
 ---------------------------------------------------------------------
      1          8           0        7.567000    7.707000   12.162000
      2          6           0        8.230000    8.135000   13.360000
      3          6           0        7.481000    9.293000   13.999000
      4          8           0        7.416000   10.279000   12.959000
      5          1           0        7.161000    9.740000   12.156000
      6          6           0        8.041000    9.841000   15.301000
      7          8           0        7.335000   10.993000   15.785000
      8          1           0        7.684000   11.260000   16.684000
      9          6           0        8.760000    5.734000   14.064000
     10          8           0        7.966000    4.993000   13.126000
     11          1           0        8.123000    4.030000   13.344000
     12          6           0        8.172000    7.081000   14.453000
     13          8           0        8.803000    7.546000   15.655000
     14          6           0        8.117000    8.657000   16.251000
     15          8           0        8.810000    8.840000   17.494000
     16          6           0        8.109000    8.403000   18.667000
     17          6           0        8.620000    7.115000   19.291000
     18          8           0        8.568000    6.146000   18.234000
     19          1           0        8.903000    6.556000   17.386000
     20          6           0        7.873000    6.712000   20.552000
     21          8           0        8.177000    5.412000   21.077000
     22          1           0        7.712000    5.330000   21.959000
     23          6           0        7.401000   10.712000   19.550000
     24          8           0        7.751000   11.456000   18.374000
     25          1           0        7.722000   12.427000   18.614000
     26          6           0        8.163000    9.420000   19.795000
     27          8           0        7.680000    9.032000   21.089000
     28          6           0        8.211000    7.789000   21.570000
     29          8           0        7.478000    7.581000   22.786000
     30          1           0        8.092652    7.456667   23.512873
     31          1           0        9.264137    7.852463   21.748256
     32          1           0        6.823162    6.755182   20.349824
     33          1           0        9.647093    7.261024   19.553024
     34          1           0        7.082935    8.257087   18.400917
     35          1           0        9.192929    9.683890   19.915450
     36          1           0        7.549181   11.347540   20.397957
     37          1           0        6.359481   10.473925   19.491184
     38          1           0        8.875151    5.145561   14.950217
     39          1           0        9.726869    5.896996   13.635635
     40          1           0        7.138742    6.920002   14.679620
     41          1           0        8.221743    7.470796   11.500850
     42          1           0        9.243550    8.409739   13.154731
     43          1           0        6.482518    8.962180   14.195192
     44          1           0        9.046031   10.152105   15.105995
     45          1           0        7.116360    8.349765   16.472867
 ---------------------------------------------------------------------
                    Distance matrix (angstroms):
                    1          2          3          4          5
     1  O    0.000000
     2  C    1.434558   0.000000
     3  C    2.428448   1.519962   0.000000
     4  O    2.696886   2.328118   1.434580   0.000000
     5  H    2.073152   2.273412   1.923242   1.000177   0.000000
     6  C    3.825174   2.591069   1.519575   2.463216   3.267358
     7  O    4.896708   3.853546   2.470043   2.915927   3.843166
     8  H    5.752042   4.594858   3.334595   3.861322   4.804863
     9  C    2.988910   2.557600   3.782400   4.866661   4.716492
    10  O    2.907627   3.161743   4.414448   5.317159   4.911510
    11  H    3.902126   4.106425   5.342318   6.300641   5.911082
    12  C    2.450833   1.519516   2.361470   3.609817   3.656311
    13  O    3.708728   2.437678   2.746275   4.081847   4.444412
    14  C    4.233783   2.939921   2.424973   3.736248   4.342332
    15  O    5.590971   4.233601   3.766494   4.957840   5.658926
    16  C    6.564541   5.315140   4.793403   6.048214   6.714119
    17  C    7.230623   6.030693   5.834918   7.180163   7.741287
    18  O    6.348851   5.275058   5.387059   6.799590   7.199901
    19  H    5.513608   4.376625   4.580941   5.972456   6.365950
    20  C    8.454334   7.340112   7.053867   8.401547   8.953689
    21  O    9.225852   8.183497   8.102139   9.495722   9.967351
    22  H   10.082280   9.059754   8.894961  10.275223  10.763387
    23  C    7.977476   6.756054   5.730058   6.605225   7.461476
    24  O    7.257947   6.033132   4.887954   5.551556   6.477367
    25  H    7.995669   6.803223   5.583750   6.056944   7.017154
    26  C    7.845526   6.562388   5.837368   6.930136   7.711078
    27  O    9.025504   7.800292   7.097593   8.229314   8.976030
    28  C    9.430372   8.217310   7.753384   8.998969   9.671210
    29  O   10.625120   9.472164   8.952224  10.190828  10.851667
    30  H   11.365795  10.176435   9.708759  10.945668  11.621538
    31  H    9.736413   8.456483   8.081193   9.303478   9.999867
    32  H    8.276456   7.262281   6.870680   8.209326   8.727086
    33  H    7.691093   6.412919   6.298259   7.587299   8.187914
    34  H    6.281799   5.171219   4.539653   5.814940   6.419043
    35  H    8.165031   6.804426   6.171538   7.204431   8.021281
    36  H    9.004712   7.766387   6.721044   7.516488   8.406231
    37  H    7.926596   6.823550   5.728567   6.619944   7.415255
    38  H    4.005793   3.446992   4.477691   5.696162   5.644008
    39  H    3.180055   2.706521   4.087641   4.999991   4.851978
    40  H    2.672299   2.099634   2.492289   3.784214   3.784382
    41  H    0.960000   1.974253   3.179604   3.265185   2.589147
    42  H    2.071274   1.070000   2.144649   2.621523   2.665346
    43  H    2.624014   2.106055   1.070000   2.033119   2.285530
    44  H    4.102825   2.789824   2.100671   2.698646   3.525002
    45  H    4.381758   3.313044   2.672578   4.019826   4.535426
                    6          7          8          9         10
     6  C    0.000000
     7  O    1.435199   0.000000
     8  H    2.013380   1.000645   0.000000
     9  C    4.349089   5.713978   6.209577   0.000000
    10  O    5.314071   6.593060   7.212085   1.435047   0.000000
    11  H    6.132234   7.420431   7.976291   1.956473   0.999771
    12  C    2.890305   4.216460   4.762305   1.520353   2.482561
    13  O    2.443969   3.748831   4.013078   2.411737   3.689745
    14  C    1.519912   2.507105   2.674058   3.706797   4.818021
    15  O    2.530338   3.119570   2.789333   4.627595   5.881426
    16  C    3.660932   3.951342   3.503621   5.360501   6.507782
    17  C    4.866869   5.383507   4.985335   5.408169   6.552696
    18  O    4.746919   5.568779   5.416360   4.194700   5.271003
    19  H    3.985159   4.970794   4.909825   3.425174   4.633415
    20  C    6.114889   6.429673   5.973395   6.620982   7.622932
    21  O    7.279884   7.737040   7.330798   7.044554   7.964828
    22  H    8.048995   8.386297   7.936706   7.974493   8.843075
    23  C    4.384318   3.776048   2.931612   7.531505   8.619395
    24  O    3.483627   2.662770   1.702646   7.234325   8.328151
    25  H    4.214870   3.195210   2.255711   8.159424   9.243486
    26  C    4.515325   4.386344   3.646006   6.840129   8.007041
    27  O    5.855403   5.665418   4.936398   7.835421   8.933347
    28  C    6.598482   6.670773   6.016524   7.801568   8.898246
    29  O    7.838992   7.789493   7.128245   9.007120  10.012567
    30  H    8.551173   8.532274   7.827250   9.627779  10.675805
    31  H    6.856927   7.010347   6.305143   7.986853   9.176327
    32  H    6.041194   6.249696   5.871345   6.656256   7.522965
    33  H    5.226425   5.785449   5.298759   5.766118   7.019732
    34  H    3.610562   3.793650   3.510921   5.290309   6.265686
    35  H    4.758652   4.714476   3.899135   7.073085   8.343047
    36  H    5.337651   4.631516   3.717434   8.549674   9.666193
    37  H    4.559139   3.867412   3.201960   7.594980   8.552018
    38  H    4.781841   6.104217   6.466159   1.070000   2.043917
    39  H    4.601170   6.025783   6.498281   1.070000   2.043917
    40  H    3.119682   4.224890   4.811489   2.100968   2.609871
    41  H    4.482374   5.616598   6.443002   3.142598   2.974221
    42  H    2.846244   4.151399   4.797074   2.867084   3.647885
    43  H    2.103332   2.716330   3.594121   3.952883   4.370158
    44  H    1.070000   2.023803   2.360648   4.548320   5.630560
    45  H    2.109980   2.740011   2.972585   3.917451   4.815733
                   11         12         13         14         15
    11  H    0.000000
    12  C    3.246673   0.000000
    13  O    4.262086   1.434988   0.000000
    14  C    5.464413   2.391570   1.435316   0.000000
    15  O    6.389880   3.570547   2.248645   1.434847   0.000000
    16  C    6.888952   4.416950   3.207527   2.429328   1.434677
    17  C    6.717964   4.858817   3.666026   3.445631   2.498186
    18  O    5.346736   3.914972   2.943886   3.231224   2.804247
    19  H    4.829787   3.067976   1.996612   2.514005   2.288442
    20  C    7.694861   6.117464   5.053817   4.726644   3.841577
    21  O    7.855707   6.831029   5.860368   5.815832   4.998976
    22  H    8.722221   7.721246   6.770624   6.619231   5.784629
    23  C    9.147942   6.305395   5.211543   3.952098   3.117178
    24  O    8.976901   5.890001   4.877270   3.532065   2.956237
    25  H    9.921860   6.789414   5.809338   4.466844   3.912124
    26  C    8.406492   5.831635   4.589235   3.625496   2.459595
    27  O    9.230454   6.934332   5.744361   4.872149   3.773299
    28  C    9.044606   7.152236   5.949516   5.390178   4.251726
    29  O   10.108263   8.376785   7.253138   6.653745   5.600408
    30  H   10.730747   9.068005   7.890420   7.360447   6.217317
    31  H    9.302953   7.416783   6.118360   5.673008   4.390918
    32  H    7.628746   6.057892   5.156212   4.700137   4.055826
    33  H    7.163404   5.312114   3.998537   3.897858   2.726439
    34  H    6.672512   4.260903   3.317278   2.418960   2.035937
    35  H    8.734711   6.136424   4.782683   3.954785   2.592722
    36  H   10.180077   7.343962   6.206401   4.975809   4.038612
    37  H    9.078659   6.338807   5.409237   4.109609   3.558581
    38  H    2.095266   2.118388   2.502805   3.820606   4.485973
    39  H    2.478532   2.118388   2.765969   4.129096   4.938512
    40  H    3.332380   1.070000   2.028052   2.538383   3.794764
    41  H    3.904617   2.978188   4.195292   4.897140   6.175647
    42  H    4.524773   2.144591   2.681692   3.304109   4.382048
    43  H    5.267078   2.541585   3.085651   2.644053   4.039089
    44  H    6.437140   3.259143   2.674370   2.099875   2.734940
    45  H    5.428029   2.608449   2.039534   1.070000   2.037513
                   16         17         18         19         20
    16  C    0.000000
    17  C    1.519685   0.000000
    18  O    2.343548   1.434892   0.000000
    19  H    2.383864   2.005391   0.999714   0.000000
    20  C    2.543305   1.520046   2.485258   3.332985   0.000000
    21  O    3.841719   2.507240   2.962142   3.931831   1.434587
    22  H    4.520863   3.336003   3.908224   4.881996   1.978761
    23  C    2.571465   3.806764   4.893067   4.920491   4.150517
    24  O    3.087851   4.521098   5.374308   5.129644   5.221504
    25  H    4.042914   5.429740   6.349100   6.113214   6.036545
    26  C    1.519733   2.403308   3.649633   3.814889   2.826732
    27  O    2.538851   2.791289   4.155546   4.619363   2.389146
    28  C    2.968974   2.411514   3.735745   4.416448   1.520032
    29  O    4.247353   3.706258   4.895715   5.678138   2.429391
    30  H    4.937438   4.268377   5.459881   6.245513   3.060971
    31  H    3.336401   2.645160   3.968200   4.565141   2.160311
    32  H    2.683390   2.116413   2.809319   3.626245   1.070000
    33  H    2.110658   1.070000   2.036552   2.397233   2.108741
    34  H    1.070000   2.111677   2.586498   2.690054   2.763812
    35  H    2.091461   2.705066   3.966671   4.033097   3.313539
    36  H    3.461203   4.504043   5.725096   5.819241   4.649389
    37  H    2.833519   4.053689   5.018865   5.123615   4.191438
    38  H    5.001237   4.773488   3.446513   2.814810   5.902374
    39  H    5.849119   5.889978   4.748678   3.895932   7.206744
    40  H    4.363471   4.847368   3.908385   3.251092   5.921760
    41  H    7.227408   7.808434   6.870974   5.994661   9.089594
    42  H    5.627820   6.302298   5.601772   4.632058   7.712348
    43  H    4.791158   5.826505   5.347156   4.672226   6.885184
    44  H    4.076537   5.188427   5.105076   4.260382   6.547465
    45  H    2.408814   3.424536   3.172606   2.691373   4.460280
                   21         22         23         24         25
    21  O    0.000000
    22  H    1.000436   0.000000
    23  C    5.569911   5.904738   0.000000
    24  O    6.634578   7.098001   1.434926   0.000000
    25  H    7.448733   7.845797   1.979990   1.000641   0.000000
    26  C    4.208062   4.649129   1.519846   2.516800   3.260566
    27  O    3.653978   3.802989   2.295378   3.640335   4.201597
    28  C    2.427825   2.539095   3.644232   4.885991   5.521603
    29  O    2.848481   2.409499   4.503419   5.878426   6.399128
    30  H    3.181391   2.661227   5.174934   6.520691   6.988601
    31  H    2.754689   2.969236   4.059626   5.163397   5.755704
    32  H    2.041029   2.326075   4.077993   5.182901   5.999210
    33  H    2.811151   3.641725   4.117545   4.752167   5.592411
    34  H    4.056220   4.650109   2.729130   3.268039   4.223977
    35  H    4.542065   5.032456   2.097992   2.756011   3.373730
    36  H    6.007154   6.218855   1.070000   2.036884   2.092272
    37  H    5.607252   5.863394   1.070000   2.036884   2.537796
    38  H    6.172186   7.107038   7.369964   7.266887   8.232400
    39  H    7.616510   8.582516   7.973308   7.566947   8.452489
    40  H    6.654211   7.473025   6.178077   5.882056   6.793126
    41  H    9.795065  10.687177   8.715953   7.958872   8.683928
    42  H    8.537348   9.452280   7.042362   6.224803   6.946734
    43  H    7.926811   8.659161   5.707841   5.028978   5.750405
    44  H    7.673116   8.485046   4.771666   3.749281   4.385693
    45  H    5.563583   6.290582   3.889720   3.696724   4.644900
                   26         27         28         29         30
    26  C    0.000000
    27  O    1.434667   0.000000
    28  C    2.411035   1.434702   0.000000
    29  O    3.577321   2.241877   1.434994   0.000000
    30  H    4.205021   2.920123   1.974641   0.960000   0.000000
    31  H    2.735851   2.082166   1.070000   2.083480   2.154740
    32  H    3.033851   2.542529   2.117476   2.654382   3.479736
    33  H    2.631019   3.060234   2.531663   3.906339   4.258517
    34  H    2.112433   2.860553   3.396281   4.454450   5.271839
    35  H    1.070000   2.022655   2.700431   3.950087   4.371794
    36  H    2.110863   2.419996   3.804589   4.460341   5.013677
    37  H    2.110863   2.525061   3.867612   4.525032   5.318055
    38  H    6.499993   7.363250   7.158938   8.323635   8.903516
    39  H    7.266018   8.340897   8.296486   9.571962  10.132278
    40  H    5.784998   6.770055   7.027249   8.140357   8.900803
    41  H    8.520315   9.729515  10.074183  11.310169  12.012725
    42  H    6.803042   8.110766   8.501072   9.826765  10.465372
    43  H    5.864424   6.997387   7.664972   8.757889   9.574877
    44  H    4.827265   6.238351   6.932886   8.249350   8.879747
    45  H    3.643820   4.700193   5.243420   6.370041   7.163270
                   31         32         33         34         35
    31  H    0.000000
    32  H    3.019602   0.000000
    33  H    2.305536   2.977475   0.000000
    34  H    4.015724   2.474155   2.982348   0.000000
    35  H    2.591983   3.792336   2.491566   2.963385   0.000000
    36  H    4.120673   4.649643   4.670628   3.708969   2.387981
    37  H    4.517019   3.844648   4.597277   2.574187   2.971966
    38  H    7.327480   5.996440   5.124150   4.980057   6.734312
    39  H    8.357786   7.365347   6.073090   5.938715   7.352669
    40  H    7.439919   5.681370   5.491647   3.954613   6.266792
    41  H   10.307356   8.987351   8.180045   7.037476   8.754798
    42  H    8.611599   7.769504   6.513105   5.675740   6.879923
    43  H    8.125125   6.547242   6.450956   4.306482   6.370914
    44  H    7.032464   6.631589   5.338136   4.278008   4.834425
    45  H    5.717515   4.202315   4.132473   1.930565   4.235966
                   36         37         38         39         40
    36  H    0.000000
    37  H    1.732289   0.000000
    38  H    8.360659   7.439116   0.000000
    39  H    8.954315   8.159353   1.737297   0.000000
    40  H    7.243682   6.032311   2.497394   2.972348   0.000000
    41  H    9.728309   8.736833   4.210913   3.049518   3.403064
    42  H    7.997867   7.261498   3.743574   2.603602   2.995801
    43  H    6.730677   5.508907   4.567421   4.498252   2.199043
    44  H    5.628009   5.152767   5.011880   4.553180   3.777041
    45  H    4.957854   3.767647   3.959638   4.569543   2.293569
                   41         42         43         44         45
    41  H    0.000000
    42  H    2.158941   0.000000
    43  H    3.536751   3.001841   0.000000
    44  H    4.567925   2.623410   2.969357   0.000000
    45  H    5.168696   3.941898   2.442256   2.973281   0.000000
 Stoichiometry    C12H22O11
 Framework group  C1[X(C12H22O11)]
 Deg. of freedom   129
 Full point group                 C1      NOp   1
 Largest Abelian subgroup         C1      NOp   1
 Largest concise Abelian subgroup C1      NOp   1
                         Standard orientation:                         
 ---------------------------------------------------------------------
 Center     Atomic      Atomic             Coordinates (Angstroms)
 Number     Number       Type             X           Y           Z
 ---------------------------------------------------------------------
      1          8           0        5.027762   -0.413881   -0.519083
      2          6           0        3.828256   -0.086537    0.196450
      3          6           0        3.186626    1.163764   -0.382640
      4          8           0        4.224054    2.151728   -0.307185
      5          1           0        5.028621    1.656041   -0.634783
      6          6           0        1.882862    1.624151    0.247718
      7          8           0        1.396223    2.862851   -0.289499
      8          1           0        0.496321    3.075770    0.092774
      9          6           0        3.130300   -2.540020    0.382444
     10          8           0        4.070710   -3.159459   -0.507099
     11          1           0        3.855166   -4.135521   -0.487460
     12          6           0        2.738078   -1.124638   -0.010403
     13          8           0        1.534493   -0.756167    0.678654
     14          6           0        0.935951    0.438841    0.155360
     15          8           0       -0.307925    0.519288    0.866056
     16          6           0       -1.479364    0.182371    0.109408
     17          6           0       -2.100250   -1.166326    0.433379
     18          8           0       -1.040663   -2.115667    0.246452
     19          1           0       -0.193942   -1.754771    0.636640
     20          6           0       -3.359753   -1.463327   -0.364106
     21          8           0       -3.881489   -2.794507   -0.246670
     22          1           0       -4.763003   -2.812453   -0.719411
     23          6           0       -2.368058    2.565810   -0.267257
     24          8           0       -1.194229    3.256097    0.185117
     25          1           0       -1.436778    4.220895    0.292899
     26          6           0       -2.610079    1.178772    0.305006
     27          8           0       -3.902772    0.859366   -0.229028
     28          6           0       -4.380789   -0.447233    0.121214
     29          8           0       -5.595815   -0.553035   -0.634912
     30          1           0       -6.322709   -0.764518   -0.044572
     31          1           0       -4.559815   -0.533140    1.172627
     32          1           0       -3.157091   -1.272242   -1.397215
     33          1           0       -2.363247   -1.167040    1.470554
     34          1           0       -1.212309    0.183061   -0.926730
     35          1           0       -2.731815    1.294710    1.361717
     36          1           0       -3.217776    3.172002   -0.031863
     37          1           0       -2.308017    2.476907   -1.331865
     38          1           0        2.245576   -3.141056    0.412763
     39          1           0        3.557679   -2.513701    1.363033
     40          1           0        2.512476   -1.139120   -1.056249
     41          1           0        5.689159   -0.738244    0.096499
     42          1           0        4.032217    0.043273    1.238778
     43          1           0        2.991881    0.976333   -1.417939
     44          1           0        2.076469    1.791138    1.286723
     45          1           0        0.715469    0.274998   -0.878779
 ---------------------------------------------------------------------
 Rotational constants (GHZ):      0.4134188      0.1431593      0.1096822
 Standard basis: 6-31+G(2d,p) (6D, 7F)
 There are   685 symmetry adapted basis functions of A   symmetry.
 Integral buffers will be    131072 words long.
 Raffenetti 2 integral format.
 Two-electron integral symmetry is turned on.
   685 basis functions,  1028 primitive gaussians,   685 cartesian basis functions
    91 alpha electrons       91 beta electrons
       nuclear repulsion energy      2283.6724448268 Hartrees.
 NAtoms=   45 NActive=   45 NUniq=   45 SFac= 1.00D+00 NAtFMM=   50 NAOKFM=F Big=F
 One-electron integrals computed using PRISM.
 NBasis=   685 RedAO= T  NBF=   685
 NBsUse=   685 1.00D-06 NBFU=   685
 Harris functional with IExCor=  402 diagonalized for initial guess.
 ExpMin= 4.38D-02 ExpMax= 5.48D+03 ExpMxC= 8.25D+02 IAcc=2 IRadAn=         0 AccDes= 0.00D+00
 HarFok:  IExCor=  402 AccDes= 0.00D+00 IRadAn=         0 IDoV= 1
 ScaDFX=  1.000000  1.000000  1.000000  1.000000
 FoFCou: FMM=F IPFlag=           0 FMFlag=      100000 FMFlg1=           0
         NFxFlg=           0 DoJE=T BraDBF=F KetDBF=T FulRan=T
         Omega=  0.000000  0.000000  1.000000  0.000000  0.000000 ICntrl=     500 IOpCl=  0
         NMat0=    1 NMatS0=    1 NMatT0=    0 NMatD0=    1 NMtDS0=    0 NMtDT0=    0
         I1Cent=           4 NGrid=           0.
 Petite list used in FoFCou.
 Initial guess orbital symmetries:
       Occupied  (A) (A) (A) (A) (A) (A) (A) (A) (A) (A) (A) (A)
                 (A) (A) (A) (A) (A) (A) (A) (A) (A) (A) (A) (A)
                 (A) (A) (A) (A) (A) (A) (A) (A) (A) (A) (A) (A)
                 (A) (A) (A) (A) (A) (A) (A) (A) (A) (A) (A) (A)
                 (A) (A) (A) (A) (A) (A) (A) (A) (A) (A) (A) (A)
                 (A) (A) (A) (A) (A) (A) (A) (A) (A) (A) (A) (A)
                 (A) (A) (A) (A) (A) (A) (A) (A) (A) (A) (A) (A)
                 (A) (A) (A) (A) (A) (A) (A)
       Virtual   (A) (A) (A) (A) (A) (A) (A) (A) (A) (A) (A) (A)
                 (A) (A) (A) (A) (A) (A) (A) (A) (A) (A) (A) (A)
                 (A) (A) (A) (A) (A) (A) (A) (A) (A) (A) (A) (A)
                 (A) (A) (A) (A) (A) (A) (A) (A) (A) (A) (A) (A)
                 (A) (A) (A) (A) (A) (A) (A) (A) (A) (A) (A) (A)
                 (A) (A) (A) (A) (A) (A) (A) (A) (A) (A) (A) (A)
                 (A) (A) (A) (A) (A) (A) (A) (A) (A) (A) (A) (A)
                 (A) (A) (A) (A) (A) (A) (A) (A) (A) (A) (A) (A)
                 (A) (A) (A) (A) (A) (A) (A) (A) (A) (A) (A) (A)
                 (A) (A) (A) (A) (A) (A) (A) (A) (A) (A) (A) (A)
                 (A) (A) (A) (A) (A) (A) (A) (A) (A) (A) (A) (A)
                 (A) (A) (A) (A) (A) (A) (A) (A) (A) (A) (A) (A)
                 (A) (A) (A) (A) (A) (A) (A) (A) (A) (A) (A) (A)
                 (A) (A) (A) (A) (A) (A) (A) (A) (A) (A) (A) (A)
                 (A) (A) (A) (A) (A) (A) (A) (A) (A) (A) (A) (A)
                 (A) (A) (A) (A) (A) (A) (A) (A) (A) (A) (A) (A)
                 (A) (A) (A) (A) (A) (A) (A) (A) (A) (A) (A) (A)
                 (A) (A) (A) (A) (A) (A) (A) (A) (A) (A) (A) (A)
                 (A) (A) (A) (A) (A) (A) (A) (A) (A) (A) (A) (A)
                 (A) (A) (A) (A) (A) (A) (A) (A) (A) (A) (A) (A)
                 (A) (A) (A) (A) (A) (A) (A) (A) (A) (A) (A) (A)
                 (A) (A) (A) (A) (A) (A) (A) (A) (A) (A) (A) (A)
                 (A) (A) (A) (A) (A) (A) (A) (A) (A) (A) (A) (A)
                 (A) (A) (A) (A) (A) (A) (A) (A) (A) (A) (A) (A)
                 (A) (A) (A) (A) (A) (A) (A) (A) (A) (A) (A) (A)
                 (A) (A) (A) (A) (A) (A) (A) (A) (A) (A) (A) (A)
                 (A) (A) (A) (A) (A) (A) (A) (A) (A) (A) (A) (A)
                 (A) (A) (A) (A) (A) (A) (A) (A) (A) (A) (A) (A)
                 (A) (A) (A) (A) (A) (A) (A) (A) (A) (A) (A) (A)
                 (A) (A) (A) (A) (A) (A) (A) (A) (A) (A) (A) (A)
                 (A) (A) (A) (A) (A) (A) (A) (A) (A) (A) (A) (A)
                 (A) (A) (A) (A) (A) (A) (A) (A) (A) (A) (A) (A)
                 (A) (A) (A) (A) (A) (A) (A) (A) (A) (A) (A) (A)
                 (A) (A) (A) (A) (A) (A) (A) (A) (A) (A) (A) (A)
                 (A) (A) (A) (A) (A) (A) (A) (A) (A) (A) (A) (A)
                 (A) (A) (A) (A) (A) (A) (A) (A) (A) (A) (A) (A)
                 (A) (A) (A) (A) (A) (A) (A) (A) (A) (A) (A) (A)
                 (A) (A) (A) (A) (A) (A) (A) (A) (A) (A) (A) (A)
                 (A) (A) (A) (A) (A) (A) (A) (A) (A) (A) (A) (A)
                 (A) (A) (A) (A) (A) (A) (A) (A) (A) (A) (A) (A)
                 (A) (A) (A) (A) (A) (A) (A) (A) (A) (A) (A) (A)
                 (A) (A) (A) (A) (A) (A) (A) (A) (A) (A) (A) (A)
                 (A) (A) (A) (A) (A) (A) (A) (A) (A) (A) (A) (A)
                 (A) (A) (A) (A) (A) (A) (A) (A) (A) (A) (A) (A)
                 (A) (A) (A) (A) (A) (A) (A) (A) (A) (A) (A) (A)
                 (A) (A) (A) (A) (A) (A) (A) (A) (A) (A) (A) (A)
                 (A) (A) (A) (A) (A) (A) (A) (A) (A) (A) (A) (A)
                 (A) (A) (A) (A) (A) (A) (A) (A) (A) (A) (A) (A)
                 (A) (A) (A) (A) (A) (A) (A) (A) (A) (A) (A) (A)
                 (A) (A) (A) (A) (A) (A)
 The electronic state of the initial guess is 1-A.
 Requested convergence on RMS density matrix=1.00D-08 within 128 cycles.
 Requested convergence on MAX density matrix=1.00D-06.
 Requested convergence on             energy=1.00D-06.
 No special actions if energy rises.
 SCF Done:  E(RB3LYP) =  -1297.98785575     A.U. after   13 cycles
             Convg  =    0.4921D-08             -V/T =  2.0064
 Range of M.O.s used for correlation:     1   685
 NBasis=   685 NAE=    91 NBE=    91 NFC=     0 NFV=     0
 NROrb=    685 NOA=    91 NOB=    91 NVA=   594 NVB=   594

 **** Warning!!: The largest alpha MO coefficient is  0.76098535D+02

          Differentiating once with respect to electric field.
                with respect to dipole field.
          Electric field/nuclear overlap derivatives assumed to be zero.
          There are     3 degrees of freedom in the 1st order CPHF.  IDoFFX=0.
      3 vectors produced by pass  0 Test12= 1.80D-12 3.33D-08 XBig12= 1.24D+02 1.12D+00.
 AX will form     3 AO Fock derivatives at one time.
      3 vectors produced by pass  1 Test12= 1.80D-12 3.33D-08 XBig12= 2.41D+01 3.90D-01.
      3 vectors produced by pass  2 Test12= 1.80D-12 3.33D-08 XBig12= 9.92D+00 1.83D-01.
      3 vectors produced by pass  3 Test12= 1.80D-12 3.33D-08 XBig12= 1.11D+00 9.24D-02.
      3 vectors produced by pass  4 Test12= 1.80D-12 3.33D-08 XBig12= 2.80D-01 3.86D-02.
      3 vectors produced by pass  5 Test12= 1.80D-12 3.33D-08 XBig12= 7.11D-02 1.69D-02.
      3 vectors produced by pass  6 Test12= 1.80D-12 3.33D-08 XBig12= 2.22D-02 1.67D-02.
      3 vectors produced by pass  7 Test12= 1.80D-12 3.33D-08 XBig12= 3.77D-03 6.62D-03.
      3 vectors produced by pass  8 Test12= 1.80D-12 3.33D-08 XBig12= 6.27D-04 1.87D-03.
      3 vectors produced by pass  9 Test12= 1.80D-12 3.33D-08 XBig12= 1.91D-04 1.25D-03.
      3 vectors produced by pass 10 Test12= 1.80D-12 3.33D-08 XBig12= 4.95D-05 5.47D-04.
      3 vectors produced by pass 11 Test12= 1.80D-12 3.33D-08 XBig12= 1.38D-05 2.92D-04.
      3 vectors produced by pass 12 Test12= 1.80D-12 3.33D-08 XBig12= 1.37D-06 1.35D-04.
      3 vectors produced by pass 13 Test12= 1.80D-12 3.33D-08 XBig12= 5.23D-07 7.51D-05.
      3 vectors produced by pass 14 Test12= 1.80D-12 3.33D-08 XBig12= 6.34D-08 2.61D-05.
      3 vectors produced by pass 15 Test12= 1.80D-12 3.33D-08 XBig12= 1.99D-08 1.34D-05.
      3 vectors produced by pass 16 Test12= 1.80D-12 3.33D-08 XBig12= 2.69D-09 3.80D-06.
      3 vectors produced by pass 17 Test12= 1.80D-12 3.33D-08 XBig12= 3.09D-10 1.52D-06.
      3 vectors produced by pass 18 Test12= 1.80D-12 3.33D-08 XBig12= 7.11D-11 6.02D-07.
      3 vectors produced by pass 19 Test12= 1.80D-12 3.33D-08 XBig12= 1.91D-11 2.91D-07.
      2 vectors produced by pass 20 Test12= 1.80D-12 3.33D-08 XBig12= 4.95D-12 1.77D-07.
      2 vectors produced by pass 21 Test12= 1.80D-12 3.33D-08 XBig12= 1.49D-12 9.41D-08.
 Inverted reduced A of dimension    64 with in-core refinement.
 End of Minotr Frequency-dependent properties file   721 does not exist.
 End of Minotr Frequency-dependent properties file   722 does not exist.
 Symmetrizing basis deriv contribution to polar:
 IMax=3 JMax=2 DiffMx= 0.00D+00
 G2DrvN: will do    16 centers at a time, making    3 passes doing MaxLOS=2.
 Calling FoFCou, ICntrl=  3107 FMM=F I1Cent=   0 AccDes= 0.00D+00.
 Calling FoFCou, ICntrl=  3107 FMM=F I1Cent=   0 AccDes= 0.00D+00.
 Calling FoFCou, ICntrl=  3107 FMM=F I1Cent=   0 AccDes= 0.00D+00.
 FoFDir/FoFCou used for L=0 through L=2.
 End of G2Drv Frequency-dependent properties file   721 does not exist.
 End of G2Drv Frequency-dependent properties file   722 does not exist.
          IDoAtm=111111111111111111111111111111111111111111111
          Differentiating once with respect to electric field.
                with respect to dipole field.
          Differentiating once with respect to nuclear coordinates.
          There are   138 degrees of freedom in the 1st order CPHF.  IDoFFX=5.
 Will reuse    3 saved solutions.
    135 vectors produced by pass  0 Test12= 5.41D-14 1.00D-09 XBig12= 1.75D-01 7.98D-02.
 AX will form    45 AO Fock derivatives at one time.
    135 vectors produced by pass  1 Test12= 5.41D-14 1.00D-09 XBig12= 1.70D-02 1.30D-02.
    132 vectors produced by pass  2 Test12= 5.41D-14 1.00D-09 XBig12= 1.48D-04 1.40D-03.
    132 vectors produced by pass  3 Test12= 5.41D-14 1.00D-09 XBig12= 7.56D-07 7.81D-05.
    132 vectors produced by pass  4 Test12= 5.41D-14 1.00D-09 XBig12= 1.86D-09 3.63D-06.
