Gaussian '09 started on node012 at Thu Jan 21 04:56:12 EST 2016.
 Entering Gaussian System, Link 0=/usr/local/gaussian/g09/g09
 Initial command:
 /usr/local/gaussian/g09/l1.exe /home/srmcgrat/thesis/gaussian/cellobiose/400/10000/gaussian28474/Gau-28510.inp -scrdir=/home/srmcgrat/thesis/gaussian/cellobiose/400/10000/gaussian28474/
 Entering Link 1 = /usr/local/gaussian/g09/l1.exe PID=     28512.
  
 Copyright (c) 1988,1990,1992,1993,1995,1998,2003,2009,2010,
            Gaussian, Inc.  All Rights Reserved.
  
 This is part of the Gaussian(R) 09 program.  It is based on
 the Gaussian(R) 03 system (copyright 2003, Gaussian, Inc.),
 the Gaussian(R) 98 system (copyright 1998, Gaussian, Inc.),
 the Gaussian(R) 94 system (copyright 1995, Gaussian, Inc.),
 the Gaussian 92(TM) system (copyright 1992, Gaussian, Inc.),
 the Gaussian 90(TM) system (copyright 1990, Gaussian, Inc.),
 the Gaussian 88(TM) system (copyright 1988, Gaussian, Inc.),
 the Gaussian 86(TM) system (copyright 1986, Carnegie Mellon
 University), and the Gaussian 82(TM) system (copyright 1983,
 Carnegie Mellon University). Gaussian is a federally registered
 trademark of Gaussian, Inc.
  
 This software contains proprietary and confidential information,
 including trade secrets, belonging to Gaussian, Inc.
  
 This software is provided under written license and may be
 used, copied, transmitted, or stored only in accord with that
 written license.
  
 The following legend is applicable only to US Government
 contracts under FAR:
  
                    RESTRICTED RIGHTS LEGEND
  
 Use, reproduction and disclosure by the US Government is
 subject to restrictions as set forth in subparagraphs (a)
 and (c) of the Commercial Computer Software - Restricted
 Rights clause in FAR 52.227-19.
  
 Gaussian, Inc.
 340 Quinnipiac St., Bldg. 40, Wallingford CT 06492
  
  
 ---------------------------------------------------------------
 Warning -- This program may not be used in any manner that
 competes with the business of Gaussian, Inc. or will provide
 assistance to any competitor of Gaussian, Inc.  The licensee
 of this program is prohibited from giving any competitor of
 Gaussian, Inc. access to this program.  By using this program,
 the user acknowledges that Gaussian, Inc. is engaged in the
 business of creating and licensing software in the field of
 computational chemistry and represents and warrants to the
 licensee that it is not a competitor of Gaussian, Inc. and that
 it will not use this program in any manner prohibited above.
 ---------------------------------------------------------------
  

 Cite this work as:
 Gaussian 09, Revision B.01,
 M. J. Frisch, G. W. Trucks, H. B. Schlegel, G. E. Scuseria, 
 M. A. Robb, J. R. Cheeseman, G. Scalmani, V. Barone, B. Mennucci, 
 G. A. Petersson, H. Nakatsuji, M. Caricato, X. Li, H. P. Hratchian, 
 A. F. Izmaylov, J. Bloino, G. Zheng, J. L. Sonnenberg, M. Hada, 
 M. Ehara, K. Toyota, R. Fukuda, J. Hasegawa, M. Ishida, T. Nakajima, 
 Y. Honda, O. Kitao, H. Nakai, T. Vreven, J. A. Montgomery, Jr., 
 J. E. Peralta, F. Ogliaro, M. Bearpark, J. J. Heyd, E. Brothers, 
 K. N. Kudin, V. N. Staroverov, T. Keith, R. Kobayashi, J. Normand, 
 K. Raghavachari, A. Rendell, J. C. Burant, S. S. Iyengar, J. Tomasi, 
 M. Cossi, N. Rega, J. M. Millam, M. Klene, J. E. Knox, J. B. Cross, 
 V. Bakken, C. Adamo, J. Jaramillo, R. Gomperts, R. E. Stratmann, 
 O. Yazyev, A. J. Austin, R. Cammi, C. Pomelli, J. W. Ochterski, 
 R. L. Martin, K. Morokuma, V. G. Zakrzewski, G. A. Voth, 
 P. Salvador, J. J. Dannenberg, S. Dapprich, A. D. Daniels, 
 O. Farkas, J. B. Foresman, J. V. Ortiz, J. Cioslowski, 
 and D. J. Fox, Gaussian, Inc., Wallingford CT, 2010.
 
 ******************************************
 Gaussian 09:  EM64L-G09RevB.01 12-Aug-2010
                21-Jan-2016 
 ******************************************
 ------------------------------------------------
 # freq=raman b3lyp/6-31+g(d,p) geom=connectivity
 ------------------------------------------------
 1/10=4,30=1,38=1,57=2/1,3;
 2/12=2,17=6,18=5,40=1/2;
 3/5=1,6=6,7=111,11=2,16=1,25=1,30=1,71=2,74=-5/1,2,3;
 4//1;
 5/5=2,38=5,98=1/2;
 8/6=4,10=90,11=11/1;
 10/13=10,15=4/2;
 11/6=3,8=1,9=11,15=111,16=1/1,2,10;
 10/6=1/2;
 6/7=2,8=2,9=2,10=2,18=1,28=1/1;
 7/8=1,10=1,25=1/1,2,3,16;
 1/10=4,30=1/3;
 99//99;
 -------------
 400 10000.com
 -------------
 Symbolic Z-matrix:
 Charge =  0 Multiplicity = 1
 O                     9.427     7.764     12.014 
 C                     10.131    7.75      13.264 
 C                     10.209    9.215     13.661 
 O                     10.957    10.047    12.762 
 H                     10.738    9.811     11.815 
 C                     10.591    9.481     15.108 
 O                     10.112    10.693    15.709 
 H                     10.552    10.832    16.597 
 C                     9.333     5.529     14.034 
 O                     9.177     4.883     12.763 
 H                     9.087     3.907     12.965 
 C                     9.338     7.019     14.335 
 O                     10.027    7.109     15.591 
 C                     9.919     8.472     16.026 
 O                     10.899    8.39      17.071 
 C                     10.414    8.137     18.397 
 C                     10.971    6.818     18.907 
 O                     10.706    5.757     17.978 
 H                     10.771    6.266     17.119 
 C                     10.284    6.411     20.201 
 O                     10.831    5.152     20.617 
 H                     10.404    4.961     21.501 
 C                     10.639    10.539    19.12 
 O                     11.497    11.227    18.198 
 H                     11.27     12.201    18.179 
 C                     10.92     9.087     19.47 
 O                     10.224    8.862     20.705 
 C                     10.447    7.537     21.209 
 O                     9.631     7.501     22.389 
 H                     10.1936   7.47728   23.16651 
 H                     11.46438   7.49968   21.5383 
 H                     9.24027   6.27934   20.00556 
 H                     12.02527   6.90588   19.0673 
 H                     9.34432   8.11116   18.40147 
 H                     11.97067   8.94531   19.61463 
 H                     10.6469   11.09339   20.03515 
 H                     9.64619   10.58354   18.72346 
 H                     10.05861   7.7721    11.29109 
 H                     8.94747   8.7556    16.37329 
 H                     11.65336   9.4181    15.21907 
 H                     9.20173   9.56662   13.57929 
 H                     11.10852   7.32964   13.15154 
 H                     8.34179   7.40191   14.41148 
 H                     8.55239   5.12681   14.64538 
 H                     10.26561   5.16774   14.4143 
 

 GradGradGradGradGradGradGradGradGradGradGradGradGradGradGradGradGradGrad
 Berny optimization.
 Initialization pass.
 Trust Radius=3.00D-01 FncErr=1.00D-07 GrdErr=1.00D-07
 Number of steps in this run=      2 maximum allowed number of steps=      2.
 GradGradGradGradGradGradGradGradGradGradGradGradGradGradGradGradGradGrad

                          Input orientation:                          
 ---------------------------------------------------------------------
 Center     Atomic      Atomic             Coordinates (Angstroms)
 Number     Number       Type             X           Y           Z
 ---------------------------------------------------------------------
      1          8           0        9.427000    7.764000   12.014000
      2          6           0       10.131000    7.750000   13.264000
      3          6           0       10.209000    9.215000   13.661000
      4          8           0       10.957000   10.047000   12.762000
      5          1           0       10.738000    9.811000   11.815000
      6          6           0       10.591000    9.481000   15.108000
      7          8           0       10.112000   10.693000   15.709000
      8          1           0       10.552000   10.832000   16.597000
      9          6           0        9.333000    5.529000   14.034000
     10          8           0        9.177000    4.883000   12.763000
     11          1           0        9.087000    3.907000   12.965000
     12          6           0        9.338000    7.019000   14.335000
     13          8           0       10.027000    7.109000   15.591000
     14          6           0        9.919000    8.472000   16.026000
     15          8           0       10.899000    8.390000   17.071000
     16          6           0       10.414000    8.137000   18.397000
     17          6           0       10.971000    6.818000   18.907000
     18          8           0       10.706000    5.757000   17.978000
     19          1           0       10.771000    6.266000   17.119000
     20          6           0       10.284000    6.411000   20.201000
     21          8           0       10.831000    5.152000   20.617000
     22          1           0       10.404000    4.961000   21.501000
     23          6           0       10.639000   10.539000   19.120000
     24          8           0       11.497000   11.227000   18.198000
     25          1           0       11.270000   12.201000   18.179000
     26          6           0       10.920000    9.087000   19.470000
     27          8           0       10.224000    8.862000   20.705000
     28          6           0       10.447000    7.537000   21.209000
     29          8           0        9.631000    7.501000   22.389000
     30          1           0       10.193597    7.477279   23.166510
     31          1           0       11.464382    7.499677   21.538304
     32          1           0        9.240272    6.279340   20.005556
     33          1           0       12.025268    6.905884   19.067298
     34          1           0        9.344322    8.111155   18.401473
     35          1           0       11.970669    8.945307   19.614632
     36          1           0       10.646899   11.093386   20.035147
     37          1           0        9.646191   10.583544   18.723457
     38          1           0       10.058612    7.772097   11.291088
     39          1           0        8.947475    8.755602   16.373288
     40          1           0       11.653360    9.418102   15.219066
     41          1           0        9.201734    9.566623   13.579289
     42          1           0       11.108522    7.329639   13.151540
     43          1           0        8.341791    7.401907   14.411484
     44          1           0        8.552388    5.126807   14.645381
     45          1           0       10.265611    5.167740   14.414299
 ---------------------------------------------------------------------
                    Distance matrix (angstroms):
                    1          2          3          4          5
     1  O    0.000000
     2  C    1.434682   0.000000
     3  C    2.330136   1.519841   0.000000
     4  O    2.848244   2.492085   1.435245   0.000000
     5  H    2.438961   2.591480   2.010665   1.000233   0.000000
     6  C    3.725026   2.570661   1.520029   2.440907   3.312757
     7  O    4.764587   3.826178   2.527488   3.133074   4.041415
     8  H    5.628689   4.559041   3.369337   3.935413   4.893318
     9  C    3.014044   2.482447   3.806981   4.966657   5.023297
    10  O    2.987250   3.062810   4.542868   5.462170   5.255531
    11  H    3.987035   3.993493   5.469750   6.421659   6.237429
    12  C    2.439260   1.519951   2.456691   3.776807   4.013186
    13  O    3.685642   2.415911   2.862387   4.183298   4.697287
    14  C    4.103593   2.862669   2.495871   3.769849   4.494019
    15  O    5.303952   3.936073   3.575587   4.616979   5.447082
    16  C    6.469620   5.155342   4.861461   5.974628   6.799263
    17  C    7.126872   5.780802   5.817798   6.941733   7.701221
    18  O    6.421307   5.150191   5.553491   6.758236   7.376890
    19  H    5.487382   4.180058   4.579324   5.771829   6.379697
    20  C    8.342184   7.066704   7.116154   8.307355   9.060415
    21  O    9.099746   7.829828   8.079653   9.256237   9.959424
    22  H    9.940549   8.700645   8.921891  10.126368  10.837557
    23  C    7.724300   6.506099   5.633698   6.384932   7.341853
    24  O    7.383707   6.188687   5.127520   5.588747   6.582084
    25  H    7.816063   6.727997   5.518536   5.837943   6.818770
    26  C    7.718246   6.397228   5.853750   6.776447   7.691315
    27  O    8.796266   7.524206   7.052855   8.064289   8.955272
    28  C    9.254186   7.954134   7.735931   8.826778   9.669695
    29  O   10.380338   9.142080   8.913465  10.045871  10.879845
    30  H   11.182502   9.906462   9.663055  10.744304  11.601698
    31  H    9.743364   8.384788   8.159058   9.152584  10.020603
    32  H    8.130440   6.957357   7.057615   8.343352   9.044392
    33  H    7.565472   6.162714   6.152959   7.124927   7.917864
    34  H    6.397434   5.209887   4.943503   6.176721   6.943589
    35  H    8.101564   6.718904   6.214656   7.014258   7.943750
    36  H    8.769935   7.569202   6.659567   7.354574   8.320074
    37  H    7.281118   6.170063   5.274290   6.127403   7.036735
    38  H    0.960000   1.974363   2.778681   2.854097   2.212053
    39  H    4.496289   3.475577   3.026384   4.329815   5.009774
    40  H    4.238535   2.987043   2.134243   2.630133   3.546818
    41  H    2.397983   2.064718   1.070000   1.994914   2.352137
    42  H    2.076098   1.070000   2.150180   2.749318   2.842671
    43  H    2.656448   2.153870   2.708690   4.068984   4.276362
    44  H    3.826734   3.358775   4.519589   5.791164   5.893184
    45  H    3.633906   2.830084   4.117157   5.197624   5.342225
                    6          7          8          9         10
     6  C    0.000000
     7  O    1.435126   0.000000
     8  H    2.010931   1.000732   0.000000
     9  C    4.284197   5.484466   6.014710   0.000000
    10  O    5.351638   6.580976   7.209770   1.434257   0.000000
    11  H    6.158242   7.391208   7.955707   1.958101   1.000740
    12  C    2.868620   3.998153   4.596674   1.520107   2.656991
    13  O    2.485512   3.586949   3.892093   2.324282   3.697994
    14  C    1.520654   2.251795   2.509249   3.601765   4.907001
    15  O    2.266829   2.788946   2.511663   4.456573   5.815771
    16  C    3.557413   3.721516   3.243774   5.196729   6.622737
    17  C    4.654930   5.097128   4.650146   5.300065   6.686658
    18  O    4.703010   5.464915   5.261796   4.182374   5.504357
    19  H    3.796412   4.692623   4.600957   3.482562   4.840275
    20  C    5.954645   6.208315   5.710156   6.301921   7.673596
    21  O    7.010487   7.436942   6.964240   6.761806   8.030778
    22  H    7.831719   8.154039   7.651128   7.564771   8.824073
    23  C    4.149435   3.454905   2.541446   7.257626   8.633610
    24  O    3.662984   2.898017   1.900592   7.381666   8.669946
    25  H    4.158183   3.117038   2.211879   8.090030   9.341672
    26  C    4.392098   4.168599   3.381505   6.687902   8.105277
    27  O    5.643072   5.322135   4.567729   7.510327   8.944496
    28  C    6.404848   6.350005   5.669091   7.533504   8.943799
    29  O    7.606245   7.419072   6.744707   8.589739   9.985986
    30  H    8.313387   8.121698   7.385192   9.377588  10.770180
    31  H    6.785075   6.782848   6.029370   8.046175   9.438489
    32  H    6.005094   6.220989   5.836574   6.019227   7.376204
    33  H    4.936029   5.411193   4.866958   5.871814   7.207556
    34  H    3.778577   3.808499   3.481035   5.073704   6.499335
    35  H    4.743436   4.665088   3.831232   7.054921   8.441077
    36  H    5.184563   4.377439   3.449374   8.288696   9.675413
    37  H    3.896126   3.052197   2.324659   6.901993   8.260955
    38  H    4.215756   5.296458   6.144846   3.616844   3.360155
    39  H    2.197346   2.356036   2.633624   4.003980   5.299425
    40  H    1.070000   2.059415   2.260709   4.681192   5.721168
    41  H    2.067450   2.575457   3.539912   4.065266   4.754289
    42  H    2.953628   4.341181   4.944436   2.678342   3.141303
    43  H    3.141131   3.955816   4.628936   2.152387   3.124094
    44  H    4.830005   5.877600   6.352676   1.070000   1.998234
    45  H    4.380789   5.677002   6.077010   1.070000   1.998234
                   11         12         13         14         15
    11  H    0.000000
    12  C    3.409464   0.000000
    13  O    4.246443   1.435394   0.000000
    14  C    5.558882   2.303964   1.434802   0.000000
    15  O    6.343490   3.435412   2.142836   1.434974   0.000000
    16  C    7.011452   4.348281   3.013335   2.445177   1.434402
    17  C    6.879734   4.859040   3.460011   3.484621   2.418112
    18  O    5.583353   4.090907   2.826077   3.435244   2.791521
    19  H    5.065220   3.220428   1.897095   2.605185   2.128395
    20  C    7.750001   5.972816   4.669620   4.670286   3.753873
    21  O    7.946362   6.721478   5.453159   5.738591   4.802435
    22  H    8.701075   7.531486   6.299534   6.522114   5.623875
    23  C    9.180204   6.081055   4.959162   3.789951   2.980638
    24  O    9.315299   6.106661   5.090705   3.846777   3.110675
    25  H   10.037018   6.735138   5.845619   4.512876   3.986104
    26  C    8.515123   5.757393   4.444837   3.638868   2.498290
    27  O    9.260259   6.690183   5.409696   4.705121   3.726173
    28  C    9.109887   6.982126   5.649912   5.293061   4.249112
    29  O   10.100720   8.073728   6.820798   6.443101   5.538887
    30  H   10.864725   8.884685   7.586286   7.214690   6.203700
    31  H    9.594832   7.525964   6.130996   5.806816   4.590113
    32  H    7.431078   5.719428   4.560217   4.594050   3.977170
    33  H    7.407075   5.443238   4.014844   4.017285   2.730620
    34  H    6.877235   4.210587   3.060902   2.470493   2.065172
    35  H    8.827100   6.206136   4.831096   4.160726   2.815476
    36  H   10.201196   7.127798   6.000837   4.845076   4.019704
    37  H    8.834521   5.662112   4.693587   3.436468   3.018572
    38  H    4.322613   3.217427   4.350855   4.788397   5.873281
    39  H    5.928308   2.706088   2.118643   1.070000   2.104499
    40  H    6.483769   3.449370   2.848742   2.134070   2.248491
    41  H    5.694018   2.660836   3.281456   2.774719   4.056747
    42  H    3.979423   2.152167   2.677561   3.313981   4.065763
    43  H    3.855130   1.070000   2.077735   2.497869   3.819512
    44  H    2.144159   2.072177   2.645329   3.868340   4.694533
    45  H    2.253676   2.072177   2.282554   3.692676   4.224003
                   16         17         18         19         20
    16  C    0.000000
    17  C    1.519905   0.000000
    18  O    2.434179   1.434917   0.000000
    19  H    2.293769   1.881927   1.000593   0.000000
    20  C    2.500078   1.520544   2.355319   3.123607   0.000000
    21  O    3.743329   2.391497   2.710345   3.671594   1.434345
    22  H    4.440934   3.240181   3.624410   4.586899   1.951128
    23  C    2.518523   3.741849   4.916928   4.720165   4.281935
    24  O    3.280334   4.496514   5.531273   5.128629   5.355113
    25  H    4.158889   5.440227   6.471757   6.049531   6.211665
    26  C    1.519824   2.338361   3.655237   3.675247   2.846021
    27  O    2.426642   2.822897   4.160514   4.460697   2.503002
    28  C    2.875488   2.467943   3.697951   4.295174   1.520036
    29  O    4.117481   3.792943   4.863546   5.531521   2.530188
    30  H    4.819962   4.379775   5.490223   6.194592   3.152677
    31  H    3.373021   2.762584   4.035818   4.640364   2.089713
    32  H    2.723232   2.119528   2.555813   3.267340   1.070000
    33  H    2.135680   1.070000   2.060818   2.403852   2.135932
    34  H    1.070000   2.138666   2.752371   2.661718   2.647985
    35  H    2.135230   2.454693   3.800428   3.853060   3.100224
    36  H    3.387917   4.433585   5.719472   5.641185   4.699355
    37  H    2.584895   3.996014   4.997442   4.741377   4.472142
    38  H    7.124144   7.729480   7.013880   6.061384   9.016092
    39  H    2.574641   3.777387   3.828724   3.174815   4.683464
    40  H    3.643693   4.563661   4.681119   3.784713   5.978083
    41  H    5.169502   6.250579   6.010383   5.087854   7.414601
    42  H    5.352480   5.779793   5.092144   4.121406   7.156718
    43  H    4.551786   5.240549   4.584238   3.810772   6.186483
    44  H    5.157665   5.183745   4.017653   3.512661   5.959239
    45  H    4.969953   4.837902   3.638837   2.962601   5.918779
                   21         22         23         24         25
    21  O    0.000000
    22  H    1.000133   0.000000
    23  C    5.594430   6.069470   0.000000
    24  O    6.572727   7.167092   1.435128   0.000000
    25  H    7.471611   8.012692   2.011439   1.000283   0.000000
    26  C    4.099726   4.627644   1.519791   2.555487   3.389126
    27  O    3.760358   3.985451   2.344521   3.674072   4.315520
    28  C    2.487196   2.592853   3.662347   4.876958   5.622377
    29  O    3.177701   2.799584   4.575136   5.910120   6.519235
    30  H    3.509018   3.024873   5.093796   6.359666   6.953232
    31  H    2.600300   2.751487   3.970760   5.005160   5.781448
    32  H    2.043324   2.308383   4.570050   5.730569   6.520902
    33  H    2.627539   3.511978   3.888965   4.439233   5.421970
    34  H    3.984391   4.544609   2.843748   3.792613   4.525987
    35  H    4.085678   4.678412   2.134914   2.727147   3.626502
    36  H    5.972647   6.309824   1.070000   2.028703   2.249521
    37  H    5.872899   6.316804   1.070000   2.028703   2.355707
    38  H    9.717722  10.595464   8.323729   7.855619   8.278042
    39  H    5.877304   6.543233   3.685945   3.992175   4.530506
    40  H    6.929184   7.803163   4.183614   3.488640   4.080772
    41  H    8.465978   9.241792   5.806094   5.418265   5.689904
    42  H    7.781531   8.707484   6.792861   6.388043   7.002256
    43  H    7.054550   7.776373   6.106443   6.238941   6.767561
    44  H    6.391631   7.103202   7.325844   7.648803   8.361584
    45  H    6.228436   7.091067   7.150768   7.248955   8.040430
                   26         27         28         29         30
    26  C    0.000000
    27  O    1.435363   0.000000
    28  C    2.377046   1.435051   0.000000
    29  O    3.563352   2.244956   1.435114   0.000000
    30  H    4.096712   2.824430   1.974747   0.960000   0.000000
    31  H    2.663424   2.022095   1.070000   2.021132   2.065539
    32  H    3.315307   2.850803   2.118060   2.706645   3.512195
    33  H    2.478115   3.122983   2.734251   4.137679   4.526042
    34  H    2.139343   2.577565   3.070467   4.044113   4.881460
    35  H    1.070000   2.060751   2.616659   3.906045   4.234256
    36  H    2.102275   2.367832   3.750436   4.413378   4.804908
    37  H    2.102275   2.687767   4.012561   4.789417   5.448785
    38  H    8.328599   9.478237   9.928297  11.109455  11.879847
    39  H    3.686503   4.517141   5.207464   6.183043   7.023873
    40  H    4.326417   5.696297   6.393212   7.692410   8.310209
    41  H    6.154913   7.233069   7.992656   9.058812   9.862249
    42  H    6.561005   7.757916   8.087229   9.356447  10.057758
    43  H    5.922439   6.729259   7.117330   8.081624   8.949042
    44  H    6.675752   7.311972   7.244286   8.170914   8.990435
    45  H    6.430314   7.295356   7.198212   8.333228   9.052091
                   31         32         33         34         35
    31  H    0.000000
    32  H    2.963984   0.000000
    33  H    2.602509   3.004844   0.000000
    34  H    3.835136   2.437100   3.013881   0.000000
    35  H    2.459001   3.836048   2.112298   3.010858   0.000000
    36  H    3.980264   5.015427   4.513514   3.641332   2.558015
    37  H    4.554055   4.509404   4.393565   2.511475   2.980136
    38  H   10.346778   8.879186   8.067682   7.154211   8.620543
    39  H    5.881289   4.405789   4.489093   2.164794   4.436440
    40  H    6.606726   6.211708   4.610688   4.143366   4.432293
    41  H    8.528643   7.218354   6.720872   5.039065   6.669213
    42  H    8.396032   7.181297   6.001348   5.593296   6.717532
    43  H    7.781497   5.775905   5.957403   4.174699   6.528675
    44  H    7.850007   5.525667   5.897402   4.862275   7.138560
    45  H    7.591207   5.792161   5.269529   5.040836   6.649865
                   36         37         38         39         40
    36  H    0.000000
    37  H    1.726814   0.000000
    38  H    9.372065   7.957036   0.000000
    39  H    4.665028   3.058246   5.294399   0.000000
    40  H    5.197517   4.203301   4.547698   3.015451   0.000000
    41  H    6.789522   5.262522   3.031571   2.920417   2.953201
    42  H    7.858939   6.616084   2.181596   4.133177   2.988844
    43  H    7.110986   5.515196   3.580696   2.459272   3.960268
    44  H    8.308827   6.899499   4.529629   4.038553   5.325443
    45  H    8.176344   6.948630   4.071851   4.295099   4.543025
                   41         42         43         44         45
    41  H    0.000000
    42  H    2.970338   0.000000
    43  H    2.473469   3.040967   0.000000
    44  H    4.611959   3.690237   2.296767   0.000000
    45  H    4.602092   2.641754   2.948321   1.729222   0.000000
 Stoichiometry    C12H22O11
 Framework group  C1[X(C12H22O11)]
 Deg. of freedom   129
 Full point group                 C1      NOp   1
 Largest Abelian subgroup         C1      NOp   1
 Largest concise Abelian subgroup C1      NOp   1
                         Standard orientation:                         
 ---------------------------------------------------------------------
 Center     Atomic      Atomic             Coordinates (Angstroms)
 Number     Number       Type             X           Y           Z
 ---------------------------------------------------------------------
      1          8           0       -4.966072   -0.289964    0.411653
      2          6           0       -3.662331   -0.200366   -0.180414
      3          6           0       -3.263553    1.252294    0.021261
      4          8           0       -4.099794    2.208203   -0.647221
      5          1           0       -5.061075    1.949868   -0.548897
      6          6           0       -1.790620    1.561699   -0.191397
      7          8           0       -1.233820    2.669290    0.531653
      8          1           0       -0.312927    2.869702    0.195118
      9          6           0       -2.955645   -2.532437    0.293493
     10          8           0       -4.233717   -3.180639    0.234679
     11          1           0       -4.037616   -4.160204    0.175720
     12          6           0       -2.658607   -1.066243    0.563256
     13          8           0       -1.350355   -0.876704    0.003873
     14          6           0       -0.928789    0.443810    0.374256
     15          8           0        0.193522    0.514980   -0.517092
     16          6           0        1.475660    0.168944    0.025025
     17          6           0        2.032748   -1.043963   -0.702036
     18          8           0        1.087475   -2.123502   -0.695550
     19          1           0        0.235599   -1.600867   -0.743995
     20          6           0        3.266712   -1.575275    0.010070
     21          8           0        3.729162   -2.729618   -0.704758
     22          1           0        4.575437   -2.999688   -0.245251
     23          6           0        2.209324    2.566140    0.266162
     24          8           0        1.359542    3.398784   -0.536437
     25          1           0        1.319728    4.321160   -0.151464
     26          6           0        2.584534    1.177751   -0.225121
     27          8           0        3.758548    0.825034    0.521570
     28          6           0        4.282174   -0.449660    0.121145
     29          8           0        5.391072   -0.635520    1.012972
     30          1           0        6.212309   -0.573702    0.519668
     31          1           0        4.694197   -0.319877   -0.857780
     32          1           0        2.986306   -1.877609    0.997423
     33          1           0        2.279094   -0.782610   -1.709959
     34          1           0        1.392116   -0.035745    1.071936
     35          1           0        2.815488    1.212365   -1.269325
     36          1           0        3.120766    3.103355    0.426082
     37          1           0        1.732297    2.448371    1.216675
     38          1           0       -5.634550   -0.167802   -0.266442
     39          1           0       -0.663298    0.556635    1.404637
     40          1           0       -1.592333    1.676337   -1.236596
     41          1           0       -3.428699    1.431169    1.063197
     42          1           0       -3.692991   -0.449731   -1.220500
     43          1           0       -2.665255   -0.856513    1.612479
     44          1           0       -2.409698   -3.066762    1.042718
     45          1           0       -2.499050   -2.736783   -0.652374
 ---------------------------------------------------------------------
 Rotational constants (GHZ):      0.4047028      0.1488659      0.1135203
 Standard basis: 6-31+G(d,p) (6D, 7F)
 There are   547 symmetry adapted basis functions of A   symmetry.
 Integral buffers will be    131072 words long.
 Raffenetti 2 integral format.
 Two-electron integral symmetry is turned on.
   547 basis functions,   890 primitive gaussians,   547 cartesian basis functions
    91 alpha electrons       91 beta electrons
       nuclear repulsion energy      2298.4771509711 Hartrees.
 NAtoms=   45 NActive=   45 NUniq=   45 SFac= 1.00D+00 NAtFMM=   50 NAOKFM=F Big=F
 One-electron integrals computed using PRISM.
 NBasis=   547 RedAO= T  NBF=   547
 NBsUse=   547 1.00D-06 NBFU=   547
 Harris functional with IExCor=  402 diagonalized for initial guess.
 ExpMin= 4.38D-02 ExpMax= 5.48D+03 ExpMxC= 8.25D+02 IAcc=2 IRadAn=         0 AccDes= 0.00D+00
 HarFok:  IExCor=  402 AccDes= 0.00D+00 IRadAn=         0 IDoV= 1
 ScaDFX=  1.000000  1.000000  1.000000  1.000000
 FoFCou: FMM=F IPFlag=           0 FMFlag=      100000 FMFlg1=           0
         NFxFlg=           0 DoJE=T BraDBF=F KetDBF=T FulRan=T
         Omega=  0.000000  0.000000  1.000000  0.000000  0.000000 ICntrl=     500 IOpCl=  0
         NMat0=    1 NMatS0=    1 NMatT0=    0 NMatD0=    1 NMtDS0=    0 NMtDT0=    0
         I1Cent=           4 NGrid=           0.
 Petite list used in FoFCou.
 Initial guess orbital symmetries:
       Occupied  (A) (A) (A) (A) (A) (A) (A) (A) (A) (A) (A) (A)
                 (A) (A) (A) (A) (A) (A) (A) (A) (A) (A) (A) (A)
                 (A) (A) (A) (A) (A) (A) (A) (A) (A) (A) (A) (A)
                 (A) (A) (A) (A) (A) (A) (A) (A) (A) (A) (A) (A)
                 (A) (A) (A) (A) (A) (A) (A) (A) (A) (A) (A) (A)
                 (A) (A) (A) (A) (A) (A) (A) (A) (A) (A) (A) (A)
                 (A) (A) (A) (A) (A) (A) (A) (A) (A) (A) (A) (A)
                 (A) (A) (A) (A) (A) (A) (A)
       Virtual   (A) (A) (A) (A) (A) (A) (A) (A) (A) (A) (A) (A)
                 (A) (A) (A) (A) (A) (A) (A) (A) (A) (A) (A) (A)
                 (A) (A) (A) (A) (A) (A) (A) (A) (A) (A) (A) (A)
                 (A) (A) (A) (A) (A) (A) (A) (A) (A) (A) (A) (A)
                 (A) (A) (A) (A) (A) (A) (A) (A) (A) (A) (A) (A)
                 (A) (A) (A) (A) (A) (A) (A) (A) (A) (A) (A) (A)
                 (A) (A) (A) (A) (A) (A) (A) (A) (A) (A) (A) (A)
                 (A) (A) (A) (A) (A) (A) (A) (A) (A) (A) (A) (A)
                 (A) (A) (A) (A) (A) (A) (A) (A) (A) (A) (A) (A)
                 (A) (A) (A) (A) (A) (A) (A) (A) (A) (A) (A) (A)
                 (A) (A) (A) (A) (A) (A) (A) (A) (A) (A) (A) (A)
                 (A) (A) (A) (A) (A) (A) (A) (A) (A) (A) (A) (A)
                 (A) (A) (A) (A) (A) (A) (A) (A) (A) (A) (A) (A)
                 (A) (A) (A) (A) (A) (A) (A) (A) (A) (A) (A) (A)
                 (A) (A) (A) (A) (A) (A) (A) (A) (A) (A) (A) (A)
                 (A) (A) (A) (A) (A) (A) (A) (A) (A) (A) (A) (A)
                 (A) (A) (A) (A) (A) (A) (A) (A) (A) (A) (A) (A)
                 (A) (A) (A) (A) (A) (A) (A) (A) (A) (A) (A) (A)
                 (A) (A) (A) (A) (A) (A) (A) (A) (A) (A) (A) (A)
                 (A) (A) (A) (A) (A) (A) (A) (A) (A) (A) (A) (A)
                 (A) (A) (A) (A) (A) (A) (A) (A) (A) (A) (A) (A)
                 (A) (A) (A) (A) (A) (A) (A) (A) (A) (A) (A) (A)
                 (A) (A) (A) (A) (A) (A) (A) (A) (A) (A) (A) (A)
                 (A) (A) (A) (A) (A) (A) (A) (A) (A) (A) (A) (A)
                 (A) (A) (A) (A) (A) (A) (A) (A) (A) (A) (A) (A)
                 (A) (A) (A) (A) (A) (A) (A) (A) (A) (A) (A) (A)
                 (A) (A) (A) (A) (A) (A) (A) (A) (A) (A) (A) (A)
                 (A) (A) (A) (A) (A) (A) (A) (A) (A) (A) (A) (A)
                 (A) (A) (A) (A) (A) (A) (A) (A) (A) (A) (A) (A)
                 (A) (A) (A) (A) (A) (A) (A) (A) (A) (A) (A) (A)
                 (A) (A) (A) (A) (A) (A) (A) (A) (A) (A) (A) (A)
                 (A) (A) (A) (A) (A) (A) (A) (A) (A) (A) (A) (A)
                 (A) (A) (A) (A) (A) (A) (A) (A) (A) (A) (A) (A)
                 (A) (A) (A) (A) (A) (A) (A) (A) (A) (A) (A) (A)
                 (A) (A) (A) (A) (A) (A) (A) (A) (A) (A) (A) (A)
                 (A) (A) (A) (A) (A) (A) (A) (A) (A) (A) (A) (A)
                 (A) (A) (A) (A) (A) (A) (A) (A) (A) (A) (A) (A)
                 (A) (A) (A) (A) (A) (A) (A) (A) (A) (A) (A) (A)
 The electronic state of the initial guess is 1-A.
 Requested convergence on RMS density matrix=1.00D-08 within 128 cycles.
 Requested convergence on MAX density matrix=1.00D-06.
 Requested convergence on             energy=1.00D-06.
 No special actions if energy rises.
 SCF Done:  E(RB3LYP) =  -1297.90989846     A.U. after   13 cycles
             Convg  =    0.6583D-08             -V/T =  2.0085
 Range of M.O.s used for correlation:     1   547
 NBasis=   547 NAE=    91 NBE=    91 NFC=     0 NFV=     0
 NROrb=    547 NOA=    91 NOB=    91 NVA=   456 NVB=   456

 **** Warning!!: The largest alpha MO coefficient is  0.83487944D+02

          Differentiating once with respect to electric field.
                with respect to dipole field.
          Electric field/nuclear overlap derivatives assumed to be zero.
          There are     3 degrees of freedom in the 1st order CPHF.  IDoFFX=0.
      3 vectors produced by pass  0 Test12= 1.38D-12 3.33D-08 XBig12= 1.19D+02 1.28D+00.
 AX will form     3 AO Fock derivatives at one time.
      3 vectors produced by pass  1 Test12= 1.38D-12 3.33D-08 XBig12= 2.41D+01 3.92D-01.
      3 vectors produced by pass  2 Test12= 1.38D-12 3.33D-08 XBig12= 9.91D+00 2.30D-01.
      3 vectors produced by pass  3 Test12= 1.38D-12 3.33D-08 XBig12= 1.14D+00 8.67D-02.
      3 vectors produced by pass  4 Test12= 1.38D-12 3.33D-08 XBig12= 4.27D-01 6.88D-02.
      3 vectors produced by pass  5 Test12= 1.38D-12 3.33D-08 XBig12= 6.97D-02 2.34D-02.
      3 vectors produced by pass  6 Test12= 1.38D-12 3.33D-08 XBig12= 2.49D-02 1.82D-02.
      3 vectors produced by pass  7 Test12= 1.38D-12 3.33D-08 XBig12= 2.51D-03 9.28D-03.
      3 vectors produced by pass  8 Test12= 1.38D-12 3.33D-08 XBig12= 6.97D-04 4.00D-03.
      3 vectors produced by pass  9 Test12= 1.38D-12 3.33D-08 XBig12= 1.22D-04 1.95D-03.
      3 vectors produced by pass 10 Test12= 1.38D-12 3.33D-08 XBig12= 4.38D-05 1.04D-03.
      3 vectors produced by pass 11 Test12= 1.38D-12 3.33D-08 XBig12= 6.99D-06 5.34D-04.
      3 vectors produced by pass 12 Test12= 1.38D-12 3.33D-08 XBig12= 9.67D-07 1.56D-04.
      3 vectors produced by pass 13 Test12= 1.38D-12 3.33D-08 XBig12= 2.58D-07 6.80D-05.
      3 vectors produced by pass 14 Test12= 1.38D-12 3.33D-08 XBig12= 2.76D-08 1.80D-05.
      3 vectors produced by pass 15 Test12= 1.38D-12 3.33D-08 XBig12= 6.77D-09 1.20D-05.
      3 vectors produced by pass 16 Test12= 1.38D-12 3.33D-08 XBig12= 6.33D-10 3.01D-06.
      3 vectors produced by pass 17 Test12= 1.38D-12 3.33D-08 XBig12= 5.89D-11 7.52D-07.
      3 vectors produced by pass 18 Test12= 1.38D-12 3.33D-08 XBig12= 3.18D-11 4.46D-07.
      3 vectors produced by pass 19 Test12= 1.38D-12 3.33D-08 XBig12= 8.21D-12 1.84D-07.
      3 vectors produced by pass 20 Test12= 1.38D-12 3.33D-08 XBig12= 4.49D-12 1.93D-07.
      1 vectors produced by pass 21 Test12= 1.38D-12 3.33D-08 XBig12= 1.43D-12 1.22D-07.
 Inverted reduced A of dimension    64 with in-core refinement.
 End of Minotr Frequency-dependent properties file   721 does not exist.
 End of Minotr Frequency-dependent properties file   722 does not exist.
 Symmetrizing basis deriv contribution to polar:
 IMax=3 JMax=2 DiffMx= 0.00D+00
 G2DrvN: will do    23 centers at a time, making    2 passes doing MaxLOS=2.
 Calling FoFCou, ICntrl=  3107 FMM=F I1Cent=   0 AccDes= 0.00D+00.
 Calling FoFCou, ICntrl=  3107 FMM=F I1Cent=   0 AccDes= 0.00D+00.
 FoFDir/FoFCou used for L=0 through L=2.
 End of G2Drv Frequency-dependent properties file   721 does not exist.
 End of G2Drv Frequency-dependent properties file   722 does not exist.
          IDoAtm=111111111111111111111111111111111111111111111
          Differentiating once with respect to electric field.
                with respect to dipole field.
          Differentiating once with respect to nuclear coordinates.
          There are   138 degrees of freedom in the 1st order CPHF.  IDoFFX=5.
 Will reuse    3 saved solutions.
    135 vectors produced by pass  0 Test12= 4.15D-14 1.00D-09 XBig12= 2.28D-01 7.06D-02.
 AX will form    68 AO Fock derivatives at one time.
    135 vectors produced by pass  1 Test12= 4.15D-14 1.00D-09 XBig12= 2.48D-02 1.54D-02.
    132 vectors produced by pass  2 Test12= 4.15D-14 1.00D-09 XBig12= 3.19D-04 2.27D-03.
    132 vectors produced by pass  3 Test12= 4.15D-14 1.00D-09 XBig12= 1.38D-06 8.71D-05.
    132 vectors produced by pass  4 Test12= 4.15D-14 1.00D-09 XBig12= 2.61D-09 3.34D-06.
    132 vectors produced by pass  5 Test12= 4.15D-14 1.00D-09 XBig12= 7.90D-12 2.11D-07.
     77 vectors produced by pass  6 Test12= 4.15D-14 1.00D-09 XBig12= 3.10D-13 3.22D-08.
 Inverted reduced A of dimension   875 with in-core refinement.
 Isotropic polarizability for W=    0.000000      186.33 Bohr**3.
 End of Minotr Frequency-dependent properties file   721 does not exist.
 End of Minotr Frequency-dependent properties file   722 does not exist.

 **********************************************************************

            Population analysis using the SCF density.

 **********************************************************************

 Orbital symmetries:
       Occupied  (A) (A) (A) (A) (A) (A) (A) (A) (A) (A) (A) (A)
                 (A) (A) (A) (A) (A) (A) (A) (A) (A) (A) (A) (A)
                 (A) (A) (A) (A) (A) (A) (A) (A) (A) (A) (A) (A)
                 (A) (A) (A) (A) (A) (A) (A) (A) (A) (A) (A) (A)
                 (A) (A) (A) (A) (A) (A) (A) (A) (A) (A) (A) (A)
                 (A) (A) (A) (A) (A) (A) (A) (A) (A) (A) (A) (A)
                 (A) (A) (A) (A) (A) (A) (A) (A) (A) (A) (A) (A)
                 (A) (A) (A) (A) (A) (A) (A)
       Virtual   (A) (A) (A) (A) (A) (A) (A) (A) (A) (A) (A) (A)
                 (A) (A) (A) (A) (A) (A) (A) (A) (A) (A) (A) (A)
                 (A) (A) (A) (A) (A) (A) (A) (A) (A) (A) (A) (A)
                 (A) (A) (A) (A) (A) (A) (A) (A) (A) (A) (A) (A)
                 (A) (A) (A) (A) (A) (A) (A) (A) (A) (A) (A) (A)
                 (A) (A) (A) (A) (A) (A) (A) (A) (A) (A) (A) (A)
                 (A) (A) (A) (A) (A) (A) (A) (A) (A) (A) (A) (A)
                 (A) (A) (A) (A) (A) (A) (A) (A) (A) (A) (A) (A)
                 (A) (A) (A) (A) (A) (A) (A) (A) (A) (A) (A) (A)
                 (A) (A) (A) (A) (A) (A) (A) (A) (A) (A) (A) (A)
                 (A) (A) (A) (A) (A) (A) (A) (A) (A) (A) (A) (A)
                 (A) (A) (A) (A) (A) (A) (A) (A) (A) (A) (A) (A)
                 (A) (A) (A) (A) (A) (A) (A) (A) (A) (A) (A) (A)
                 (A) (A) (A) (A) (A) (A) (A) (A) (A) (A) (A) (A)
                 (A) (A) (A) (A) (A) (A) (A) (A) (A) (A) (A) (A)
                 (A) (A) (A) (A) (A) (A) (A) (A) (A) (A) (A) (A)
                 (A) (A) (A) (A) (A) (A) (A) (A) (A) (A) (A) (A)
                 (A) (A) (A) (A) (A) (A) (A) (A) (A) (A) (A) (A)
                 (A) (A) (A) (A) (A) (A) (A) (A) (A) (A) (A) (A)
                 (A) (A) (A) (A) (A) (A) (A) (A) (A) (A) (A) (A)
                 (A) (A) (A) (A) (A) (A) (A) (A) (A) (A) (A) (A)
                 (A) (A) (A) (A) (A) (A) (A) (A) (A) (A) (A) (A)
                 (A) (A) (A) (A) (A) (A) (A) (A) (A) (A) (A) (A)
                 (A) (A) (A) (A) (A) (A) (A) (A) (A) (A) (A) (A)
                 (A) (A) (A) (A) (A) (A) (A) (A) (A) (A) (A) (A)
                 (A) (A) (A) (A) (A) (A) (A) (A) (A) (A) (A) (A)
                 (A) (A) (A) (A) (A) (A) (A) (A) (A) (A) (A) (A)
                 (A) (A) (A) (A) (A) (A) (A) (A) (A) (A) (A) (A)
                 (A) (A) (A) (A) (A) (A) (A) (A) (A) (A) (A) (A)
                 (A) (A) (A) (A) (A) (A) (A) (A) (A) (A) (A) (A)
                 (A) (A) (A) (A) (A) (A) (A) (A) (A) (A) (A) (A)
                 (A) (A) (A) (A) (A) (A) (A) (A) (A) (A) (A) (A)
                 (A) (A) (A) (A) (A) (A) (A) (A) (A) (A) (A) (A)
                 (A) (A) (A) (A) (A) (A) (A) (A) (A) (A) (A) (A)
                 (A) (A) (A) (A) (A) (A) (A) (A) (A) (A) (A) (A)
                 (A) (A) (A) (A) (A) (A) (A) (A) (A) (A) (A) (A)
                 (A) (A) (A) (A) (A) (A) (A) (A) (A) (A) (A) (A)
                 (A) (A) (A) (A) (A) (A) (A) (A) (A) (A) (A) (A)
 The electronic state is 1-A.
 Alpha  occ. eigenvalues --  -19.19764 -19.19583 -19.19240 -19.19111 -19.18887
 Alpha  occ. eigenvalues --  -19.17794 -19.17653 -19.16681 -19.16616 -19.15461
 Alpha  occ. eigenvalues --  -19.14321 -10.31157 -10.31128 -10.26541 -10.26540
 Alpha  occ. eigenvalues --  -10.25988 -10.25820 -10.25489 -10.25438 -10.25049
 Alpha  occ. eigenvalues --  -10.24524 -10.24377 -10.23913  -1.11278  -1.09469
 Alpha  occ. eigenvalues --   -1.05750  -1.05327  -1.04401  -1.03855  -1.03248
 Alpha  occ. eigenvalues --   -1.02473  -1.02318  -1.01333  -1.00485  -0.82838
 Alpha  occ. eigenvalues --   -0.80813  -0.79534  -0.78427  -0.72126  -0.70111
 Alpha  occ. eigenvalues --   -0.67605  -0.65231  -0.63226  -0.62710  -0.61738
 Alpha  occ. eigenvalues --   -0.60695  -0.56615  -0.56370  -0.55203  -0.55008
 Alpha  occ. eigenvalues --   -0.53878  -0.53816  -0.53546  -0.51725  -0.51455
 Alpha  occ. eigenvalues --   -0.50631  -0.50484  -0.49312  -0.48788  -0.46815
 Alpha  occ. eigenvalues --   -0.46537  -0.45228  -0.44545  -0.43607  -0.43397
 Alpha  occ. eigenvalues --   -0.42555  -0.41915  -0.41731  -0.40675  -0.39761
 Alpha  occ. eigenvalues --   -0.39391  -0.38148  -0.37030  -0.36915  -0.36209
 Alpha  occ. eigenvalues --   -0.36120  -0.35721  -0.34358  -0.34083  -0.33703
 Alpha  occ. eigenvalues --   -0.33080  -0.31825  -0.31427  -0.30775  -0.29811
 Alpha  occ. eigenvalues --   -0.29386  -0.28722  -0.28382  -0.28074  -0.27002
 Alpha  occ. eigenvalues --   -0.26415
 Alpha virt. eigenvalues --   -0.02113  -0.02053  -0.02018  -0.00755   0.00012
 Alpha virt. eigenvalues --    0.00647   0.01915   0.02363   0.03094   0.03565
 Alpha virt. eigenvalues --    0.03831   0.04213   0.04347   0.05333   0.05771
 Alpha virt. eigenvalues --    0.06066   0.06310   0.06735   0.07797   0.08212
 Alpha virt. eigenvalues --    0.08540   0.08885   0.09249   0.09626   0.10036
 Alpha virt. eigenvalues --    0.10398   0.11047   0.11128   0.11649   0.11968
 Alpha virt. eigenvalues --    0.12350   0.12625   0.12949   0.13726   0.13852
 Alpha virt. eigenvalues --    0.14024   0.14284   0.14501   0.14911   0.15289
 Alpha virt. eigenvalues --    0.15616   0.15909   0.16013   0.16711   0.16929
 Alpha virt. eigenvalues --    0.16980   0.17570   0.17671   0.18085   0.18354
 Alpha virt. eigenvalues --    0.18551   0.18855   0.19548   0.19776   0.20056
 Alpha virt. eigenvalues --    0.20232   0.20489   0.20911   0.21080   0.21507
 Alpha virt. eigenvalues --    0.21760   0.22224   0.22351   0.22835   0.23113
 Alpha virt. eigenvalues --    0.23568   0.23639   0.23979   0.24285   0.24468
 Alpha virt. eigenvalues --    0.24720   0.25348   0.25623   0.25701   0.26051
 Alpha virt. eigenvalues --    0.26128   0.26758   0.27196   0.27240   0.27608
 Alpha virt. eigenvalues --    0.28073   0.28211   0.28665   0.28717   0.28815
 Alpha virt. eigenvalues --    0.29168   0.29349   0.29937   0.29977   0.30899
 Alpha virt. eigenvalues --    0.31125   0.31345   0.31738   0.32107   0.32328
 Alpha virt. eigenvalues --    0.32619   0.32793   0.33039   0.33993   0.34267
 Alpha virt. eigenvalues --    0.34463   0.34701   0.34929   0.35255   0.36144
 Alpha virt. eigenvalues --    0.36489   0.36569   0.36857   0.37240   0.37567
 Alpha virt. eigenvalues --    0.37957   0.38251   0.38672   0.38909   0.39816
 Alpha virt. eigenvalues --    0.40073   0.40337   0.40706   0.41513   0.41997
 Alpha virt. eigenvalues --    0.42635   0.42971   0.43250   0.43378   0.43806
 Alpha virt. eigenvalues --    0.44897   0.44931   0.45810   0.46233   0.46831
 Alpha virt. eigenvalues --    0.47275   0.48367   0.49321   0.49926   0.51420
 Alpha virt. eigenvalues --    0.52179   0.52934   0.56340   0.63009   0.64186
 Alpha virt. eigenvalues --    0.65833   0.67627   0.68676   0.69346   0.69640
 Alpha virt. eigenvalues --    0.70765   0.71699   0.73149   0.74091   0.74544
 Alpha virt. eigenvalues --    0.75087   0.76155   0.77688   0.78593   0.79179
 Alpha virt. eigenvalues --    0.79561   0.81158   0.81676   0.81902   0.83737
 Alpha virt. eigenvalues --    0.84656   0.85889   0.86569   0.88336   0.89225
 Alpha virt. eigenvalues --    0.91079   0.91660   0.92729   0.93915   0.94316
 Alpha virt. eigenvalues --    0.96538   0.96822   0.97464   0.99343   0.99920
 Alpha virt. eigenvalues --    1.00793   1.01629   1.02150   1.03602   1.03824
 Alpha virt. eigenvalues --    1.04363   1.04778   1.05062   1.06660   1.07154
 Alpha virt. eigenvalues --    1.08043   1.08903   1.09471   1.10471   1.11132
 Alpha virt. eigenvalues --    1.12225   1.13082   1.14057   1.14414   1.15735
 Alpha virt. eigenvalues --    1.16094   1.16515   1.18360   1.19935   1.22066
 Alpha virt. eigenvalues --    1.22129   1.22647   1.22888   1.24605   1.25175
 Alpha virt. eigenvalues --    1.26037   1.26494   1.26825   1.28034   1.29089
 Alpha virt. eigenvalues --    1.29629   1.29940   1.30141   1.30668   1.31467
 Alpha virt. eigenvalues --    1.32682   1.33113   1.33549   1.33854   1.34459
 Alpha virt. eigenvalues --    1.35220   1.35513   1.35960   1.37840   1.38072
 Alpha virt. eigenvalues --    1.38853   1.39806   1.40625   1.41831   1.42628
 Alpha virt. eigenvalues --    1.44467   1.45801   1.46396   1.47429   1.47649
 Alpha virt. eigenvalues --    1.48640   1.49454   1.50956   1.51559   1.52026
 Alpha virt. eigenvalues --    1.53308   1.55231   1.55957   1.56188   1.57193
 Alpha virt. eigenvalues --    1.58598   1.58839   1.59488   1.59741   1.61370
 Alpha virt. eigenvalues --    1.61901   1.63280   1.64040   1.64260   1.64630
 Alpha virt. eigenvalues --    1.65875   1.66252   1.66800   1.68848   1.69085
 Alpha virt. eigenvalues --    1.70068   1.71070   1.71627   1.72522   1.73188
 Alpha virt. eigenvalues --    1.74109   1.74439   1.75101   1.77189   1.77848
 Alpha virt. eigenvalues --    1.78245   1.80123   1.80877   1.81745   1.82443
 Alpha virt. eigenvalues --    1.84002   1.84379   1.85296   1.86821   1.87045
 Alpha virt. eigenvalues --    1.87667   1.88727   1.90200   1.91488   1.91982
 Alpha virt. eigenvalues --    1.92217   1.93854   1.94509   1.95053   1.95743
 Alpha virt. eigenvalues --    1.96193   1.96500   1.97359   1.98415   1.99490
 Alpha virt. eigenvalues --    1.99909   2.00839   2.01583   2.02259   2.02685
 Alpha virt. eigenvalues --    2.04041   2.04917   2.05613   2.06329   2.07168
 Alpha virt. eigenvalues --    2.08215   2.09533   2.10255   2.10846   2.11107
 Alpha virt. eigenvalues --    2.12972   2.13388   2.16090   2.16756   2.18465
 Alpha virt. eigenvalues --    2.18648   2.20291   2.21058   2.21884   2.22576
 Alpha virt. eigenvalues --    2.23311   2.23498   2.25379   2.26367   2.27678
 Alpha virt. eigenvalues --    2.28996   2.30703   2.31744   2.33097   2.34890
 Alpha virt. eigenvalues --    2.35424   2.36558   2.37648   2.39158   2.40789
 Alpha virt. eigenvalues --    2.41112   2.41818   2.42507   2.43811   2.44888
 Alpha virt. eigenvalues --    2.45550   2.47070   2.47789   2.48275   2.49832
 Alpha virt. eigenvalues --    2.50424   2.51398   2.52468   2.54689   2.55037
 Alpha virt. eigenvalues --    2.57641   2.58236   2.58861   2.60206   2.60946
 Alpha virt. eigenvalues --    2.61351   2.62004   2.62489   2.63689   2.64868
 Alpha virt. eigenvalues --    2.65605   2.66713   2.67672   2.69103   2.70587
 Alpha virt. eigenvalues --    2.70680   2.72230   2.73525   2.74188   2.74952
 Alpha virt. eigenvalues --    2.75547   2.77596   2.78877   2.79474   2.81107
 Alpha virt. eigenvalues --    2.81352   2.82698   2.83767   2.84477   2.85751
 Alpha virt. eigenvalues --    2.86028   2.87298   2.87706   2.88625   2.88871
 Alpha virt. eigenvalues --    2.89421   2.90318   2.91127   2.92615   2.93838
 Alpha virt. eigenvalues --    2.95835   2.96455   2.97071   2.98356   3.00467
 Alpha virt. eigenvalues --    3.01386   3.02686   3.02941   3.03737   3.04875
 Alpha virt. eigenvalues --    3.07576   3.08449   3.09010   3.10359   3.13766
 Alpha virt. eigenvalues --    3.16208   3.18411   3.25681   3.26223   3.29129
 Alpha virt. eigenvalues --    3.32261   3.37832   3.38474   3.39047   3.41609
 Alpha virt. eigenvalues --    3.43705   3.46052   3.47212   3.47630   3.48116
 Alpha virt. eigenvalues --    3.48401   3.50301   3.51262   3.51725   3.52984
 Alpha virt. eigenvalues --    3.55193   3.55924   3.58648   3.61101   3.62936
 Alpha virt. eigenvalues --    3.64435   3.67914   3.71635   4.28720   4.32435
 Alpha virt. eigenvalues --    4.34123   4.36044   4.36427   4.40894   4.45035
 Alpha virt. eigenvalues --    4.49776   4.50117   4.52642   4.54507   4.56132
 Alpha virt. eigenvalues --    4.58437   4.61266   4.64797   4.65503   4.74575
 Alpha virt. eigenvalues --    4.78762   4.82936   4.88107   4.89398   4.90420
 Alpha virt. eigenvalues --    4.97795
          Condensed to atoms (all electrons):
              1          2          3          4          5          6
     1  O    8.287302   0.168559   0.006882  -0.021346   0.030140   0.064464
     2  C    0.168559   9.113359  -2.507267   0.014596  -0.032516  -1.743405
     3  C    0.006882  -2.507267  10.633717   0.116001  -0.018472  -0.880673
     4  O   -0.021346   0.014596   0.116001   8.291162   0.184579  -0.081964
     5  H    0.030140  -0.032516  -0.018472   0.184579   0.460123   0.034921
     6  C    0.064464  -1.743405  -0.880673  -0.081964   0.034921  10.650482
     7  O   -0.000774   0.055385  -0.119429   0.005652  -0.000584   0.215232
     8  H    0.000043  -0.013384   0.028617  -0.000319   0.000011   0.019989
     9  C   -0.022634   0.017696  -0.157673   0.011874   0.000738   0.168375
    10  O   -0.013108   0.000726   0.017057   0.000147   0.000079  -0.010885
    11  H    0.000538  -0.009699  -0.003753   0.000000   0.000000  -0.000235
    12  C   -0.153254  -0.558592  -0.606059   0.015386   0.026986   0.283475
    13  O    0.005478  -0.071173   0.026429  -0.002632   0.000280  -0.128042
    14  C   -0.010657   0.570797   0.396052   0.038868  -0.012711  -3.141349
    15  O    0.000924  -0.039864   0.006796   0.000524   0.000108   0.105788
    16  C    0.000398   0.270156  -0.805308  -0.000465   0.001225   0.048608
    17  C    0.001142  -0.041290   0.092117   0.000059   0.000043   0.082895
    18  O    0.000023   0.010871  -0.003709  -0.000014   0.000000   0.020420
    19  H    0.000013  -0.014590   0.011894   0.000012   0.000000  -0.009183
    20  C    0.000048  -0.006505   0.000147  -0.000138   0.000001   0.082532
    21  O    0.000000   0.000053  -0.000020   0.000000   0.000000  -0.000321
    22  H    0.000000   0.000001   0.000004   0.000000   0.000000  -0.000039
    23  C    0.000099   0.019868  -0.080040  -0.000349   0.000035  -0.069140
    24  O   -0.000002   0.001474  -0.013791   0.000023  -0.000004  -0.011404
    25  H    0.000000   0.000026   0.000063  -0.000002   0.000000  -0.007515
    26  C   -0.000471   0.025702   0.022650   0.001551  -0.000061  -0.057419
    27  O    0.000000   0.000072   0.000992   0.000002   0.000000   0.001739
    28  C   -0.000002  -0.000682  -0.000586   0.000008   0.000000  -0.027627
    29  O    0.000000   0.000003   0.000051   0.000000   0.000000  -0.000388
    30  H    0.000000   0.000000   0.000000   0.000000   0.000000   0.000001
    31  H    0.000000  -0.000004   0.000019   0.000000   0.000000  -0.000030
    32  H    0.000000  -0.000006   0.000167   0.000000   0.000000  -0.000160
    33  H    0.000000   0.001084  -0.000120   0.000000   0.000000   0.005730
    34  H   -0.000003  -0.000404   0.004701  -0.000003   0.000000   0.013753
    35  H    0.000000  -0.000073   0.001019   0.000000   0.000000   0.003449
    36  H    0.000000   0.000039  -0.000399   0.000000   0.000000  -0.000313
    37  H    0.000000  -0.000274   0.002313   0.000002   0.000000   0.007057
    38  H    0.235154   0.082265  -0.106599   0.003416   0.000322   0.001606
    39  H   -0.000058   0.032758  -0.044945  -0.000703   0.000004   0.024681
    40  H   -0.000854   0.078066  -0.211993   0.000954  -0.000045   0.412788
    41  H   -0.020309   0.158338   0.217989  -0.055238  -0.004424  -0.176953
    42  H   -0.044381   0.421626  -0.094881  -0.000061  -0.000512   0.014872
    43  H    0.004759   0.026201  -0.029311  -0.000475  -0.000019  -0.014398
    44  H   -0.000136   0.001040  -0.005616   0.000023   0.000000   0.000362
    45  H    0.001907  -0.007657   0.012478  -0.000039  -0.000001   0.017808
              7          8          9         10         11         12
     1  O   -0.000774   0.000043  -0.022634  -0.013108   0.000538  -0.153254
     2  C    0.055385  -0.013384   0.017696   0.000726  -0.009699  -0.558592
     3  C   -0.119429   0.028617  -0.157673   0.017057  -0.003753  -0.606059
     4  O    0.005652  -0.000319   0.011874   0.000147   0.000000   0.015386
     5  H   -0.000584   0.000011   0.000738   0.000079   0.000000   0.026986
     6  C    0.215232   0.019989   0.168375  -0.010885  -0.000235   0.283475
     7  O    8.280504   0.190752  -0.003818  -0.000004   0.000000   0.008453
     8  H    0.190752   0.356577   0.001276   0.000000   0.000000   0.006567
     9  C   -0.003818   0.001276   7.113247   0.122397  -0.015925  -1.761629
    10  O   -0.000004   0.000000   0.122397   8.355836   0.191868  -0.040910
    11  H    0.000000   0.000000  -0.015925   0.191868   0.446461   0.056817
    12  C    0.008453   0.006567  -1.761629  -0.040910   0.056817   9.812621
    13  O    0.016075  -0.001011   0.031977  -0.003731   0.000173  -0.085055
    14  C   -0.099029   0.012028  -0.316467   0.016124  -0.005128  -0.874005
    15  O   -0.010278   0.019108   0.003903  -0.000155   0.000010   0.061175
    16  C    0.050698  -0.035215  -0.110307  -0.000933   0.000310   0.128997
    17  C    0.009744   0.000542  -0.057908   0.000398  -0.000090  -0.136708
    18  O   -0.000120   0.000007   0.002728   0.000013   0.000014  -0.015146
    19  H   -0.000113  -0.000002   0.002181  -0.000032  -0.000002   0.004260
    20  C    0.003556  -0.000537   0.005560  -0.000067  -0.000013  -0.025403
    21  O   -0.000010   0.000000   0.000053   0.000000   0.000000  -0.000286
    22  H    0.000000   0.000000   0.000000   0.000000   0.000000   0.000052
    23  C    0.011804  -0.023979   0.006777  -0.000029  -0.000001   0.003803
    24  O   -0.021217   0.034221   0.000229   0.000000   0.000000   0.000223
    25  H    0.001709  -0.005960  -0.000007   0.000000   0.000000  -0.000243
    26  C   -0.016839  -0.000947  -0.017179   0.000123   0.000017   0.076897
    27  O    0.000093  -0.000120  -0.000464   0.000000   0.000000   0.000289
    28  C    0.000003   0.000785  -0.004498   0.000001   0.000001   0.011742
    29  O   -0.000007  -0.000001  -0.000020   0.000000   0.000000   0.000095
    30  H    0.000000   0.000000   0.000000   0.000000   0.000000  -0.000001
    31  H    0.000000   0.000000  -0.000009   0.000000   0.000000   0.000026
    32  H    0.000002   0.000000  -0.000187   0.000000   0.000000   0.001094
    33  H   -0.000013   0.000006   0.000007   0.000000   0.000000   0.001508
    34  H   -0.001122   0.000168  -0.001036   0.000001   0.000000  -0.001032
    35  H   -0.000072   0.000051  -0.000018   0.000000   0.000000   0.000164
    36  H   -0.000573   0.000538  -0.000007   0.000000   0.000000  -0.000140
    37  H    0.001933  -0.000002   0.000037   0.000000   0.000000   0.000802
    38  H   -0.000018   0.000000  -0.007868  -0.000949  -0.000004   0.038807
    39  H   -0.010913  -0.001076  -0.004392  -0.000002   0.000000  -0.041778
    40  H   -0.034201  -0.008417   0.008089   0.000004   0.000000  -0.008225
    41  H    0.000996  -0.000067   0.032073   0.000055   0.000000  -0.044172
    42  H   -0.000300   0.000005   0.032614   0.001072  -0.000014  -0.136934
    43  H   -0.000527   0.000006   0.009202   0.004247  -0.000108   0.201877
    44  H   -0.000010   0.000000   0.436405  -0.054321  -0.010024  -0.052321
    45  H   -0.000006   0.000000   0.626019  -0.060535  -0.005458  -0.307371
             13         14         15         16         17         18
     1  O    0.005478  -0.010657   0.000924   0.000398   0.001142   0.000023
     2  C   -0.071173   0.570797  -0.039864   0.270156  -0.041290   0.010871
     3  C    0.026429   0.396052   0.006796  -0.805308   0.092117  -0.003709
     4  O   -0.002632   0.038868   0.000524  -0.000465   0.000059  -0.000014
     5  H    0.000280  -0.012711   0.000108   0.001225   0.000043   0.000000
     6  C   -0.128042  -3.141349   0.105788   0.048608   0.082895   0.020420
     7  O    0.016075  -0.099029  -0.010278   0.050698   0.009744  -0.000120
     8  H   -0.001011   0.012028   0.019108  -0.035215   0.000542   0.000007
     9  C    0.031977  -0.316467   0.003903  -0.110307  -0.057908   0.002728
    10  O   -0.003731   0.016124  -0.000155  -0.000933   0.000398   0.000013
    11  H    0.000173  -0.005128   0.000010   0.000310  -0.000090   0.000014
    12  C   -0.085055  -0.874005   0.061175   0.128997  -0.136708  -0.015146
    13  O    8.544869   0.161990  -0.087896   0.141087  -0.134315   0.032709
    14  C    0.161990  10.568892   0.130796  -0.820733  -0.454172  -0.082890
    15  O   -0.087896   0.130796   8.408788  -0.390345   0.225885  -0.006013
    16  C    0.141087  -0.820733  -0.390345  16.182320  -3.978584  -0.083336
    17  C   -0.134315  -0.454172   0.225885  -3.978584  10.004847   0.407802
    18  O    0.032709  -0.082890  -0.006013  -0.083336   0.407802   8.203986
    19  H   -0.005696   0.025912   0.038075  -0.194727   0.100308   0.178438
    20  C   -0.014692  -0.147482   0.030087  -1.809430  -0.166028  -0.171740
    21  O   -0.000397   0.001159  -0.000628  -0.012403  -0.096631   0.002150
    22  H   -0.000007  -0.000148   0.000044  -0.006162   0.019144  -0.000565
    23  C    0.034319   0.030526  -0.064194   1.103846  -0.898039   0.012227
    24  O   -0.003334   0.080168  -0.014499  -0.073679   0.009936  -0.000149
    25  H    0.000019  -0.001349  -0.000129   0.002883  -0.001429   0.000001
    26  C   -0.040950  -0.654849   0.029241  -4.802466   0.929081  -0.010450
    27  O    0.000342  -0.016311   0.012270  -0.179124  -0.036414   0.001165
    28  C    0.002661   0.029992   0.017570   0.754862   0.252310   0.026449
    29  O    0.000025   0.001287   0.000062  -0.005726   0.046748  -0.000747
    30  H    0.000000   0.000042  -0.000003   0.003147   0.001388  -0.000029
    31  H    0.000019   0.002442  -0.000214   0.085672  -0.018482  -0.000723
    32  H    0.000862   0.003271  -0.001702   0.108973  -0.239772   0.005181
    33  H    0.003917   0.004984  -0.011065   0.126157   0.182868  -0.038522
    34  H   -0.000626  -0.017429  -0.055662   0.310593  -0.007784   0.000232
    35  H   -0.000120   0.018507   0.004381   0.010206  -0.019139   0.000431
    36  H    0.000003  -0.003565   0.000162   0.013587  -0.005894   0.000034
    37  H    0.000380   0.000106   0.003659  -0.030728   0.006020   0.000042
    38  H   -0.000800   0.005607  -0.000011   0.000595  -0.000048   0.000000
    39  H   -0.047507   0.305470  -0.053972   0.033833   0.036040  -0.000420
    40  H    0.010191  -0.027926  -0.020005   0.051486  -0.001386  -0.000036
    41  H    0.007014   0.094499  -0.000717   0.006891  -0.000480   0.000008
    42  H    0.012405   0.041835   0.000176   0.001786   0.000061   0.000051
    43  H   -0.031522   0.084972  -0.001309  -0.000715   0.002370   0.000204
    44  H   -0.007015   0.004707  -0.000327   0.002854  -0.000755  -0.000478
    45  H    0.011354   0.011194   0.000104  -0.007713   0.000172   0.000194
             19         20         21         22         23         24
     1  O    0.000013   0.000048   0.000000   0.000000   0.000099  -0.000002
     2  C   -0.014590  -0.006505   0.000053   0.000001   0.019868   0.001474
     3  C    0.011894   0.000147  -0.000020   0.000004  -0.080040  -0.013791
     4  O    0.000012  -0.000138   0.000000   0.000000  -0.000349   0.000023
     5  H    0.000000   0.000001   0.000000   0.000000   0.000035  -0.000004
     6  C   -0.009183   0.082532  -0.000321  -0.000039  -0.069140  -0.011404
     7  O   -0.000113   0.003556  -0.000010   0.000000   0.011804  -0.021217
     8  H   -0.000002  -0.000537   0.000000   0.000000  -0.023979   0.034221
     9  C    0.002181   0.005560   0.000053   0.000000   0.006777   0.000229
    10  O   -0.000032  -0.000067   0.000000   0.000000  -0.000029   0.000000
    11  H   -0.000002  -0.000013   0.000000   0.000000  -0.000001   0.000000
    12  C    0.004260  -0.025403  -0.000286   0.000052   0.003803   0.000223
    13  O   -0.005696  -0.014692  -0.000397  -0.000007   0.034319  -0.003334
    14  C    0.025912  -0.147482   0.001159  -0.000148   0.030526   0.080168
    15  O    0.038075   0.030087  -0.000628   0.000044  -0.064194  -0.014499
    16  C   -0.194727  -1.809430  -0.012403  -0.006162   1.103846  -0.073679
    17  C    0.100308  -0.166028  -0.096631   0.019144  -0.898039   0.009936
    18  O    0.178438  -0.171740   0.002150  -0.000565   0.012227  -0.000149
    19  H    0.387156   0.040482  -0.001217   0.000016  -0.006699   0.000073
    20  C    0.040482   8.331400   0.258335  -0.007251   0.084112  -0.006869
    21  O   -0.001217   0.258335   8.222587   0.195000   0.006443   0.000003
    22  H    0.000016  -0.007251   0.195000   0.444713  -0.000310   0.000000
    23  C   -0.006699   0.084112   0.006443  -0.000310   6.843745  -0.132170
    24  O    0.000073  -0.006869   0.000003   0.000000  -0.132170   8.440241
    25  H    0.000000   0.000585   0.000000   0.000000   0.028026   0.219914
    26  C    0.042030   0.819371   0.003908   0.000560  -1.689729   0.215025
    27  O    0.000225  -0.120403   0.004909   0.000402  -0.099623   0.002529
    28  C   -0.010282  -1.479177  -0.061620   0.006153  -0.198129   0.013981
    29  O    0.000025  -0.171599  -0.007110   0.012955  -0.006703   0.000096
    30  H    0.000000  -0.001063   0.000285  -0.001061   0.000728   0.000000
    31  H    0.000002  -0.168050   0.004213  -0.001001   0.006346   0.000037
    32  H    0.000106   0.437169  -0.045337  -0.005700   0.017427  -0.000013
    33  H   -0.003808  -0.026329   0.001405  -0.000126   0.038518  -0.000258
    34  H   -0.000251   0.046247  -0.000704   0.000002   0.009378  -0.000286
    35  H    0.000026  -0.026848  -0.000146   0.000006   0.042573   0.003438
    36  H    0.000000   0.002875  -0.000012   0.000000   0.478631  -0.044266
    37  H    0.000002  -0.002088   0.000003   0.000000   0.506351  -0.086723
    38  H    0.000000   0.000001   0.000000   0.000000   0.000007   0.000000
    39  H    0.000347   0.006893  -0.000002   0.000000   0.002400   0.000136
    40  H    0.000028   0.000262   0.000000   0.000000   0.009050   0.002708
    41  H    0.000000  -0.000063   0.000000   0.000000   0.000564   0.000072
    42  H    0.000021  -0.000107   0.000000   0.000000   0.000077   0.000002
    43  H    0.000090   0.000018   0.000000   0.000000   0.000395  -0.000001
    44  H   -0.000061   0.000197  -0.000002   0.000000  -0.000007   0.000000
    45  H    0.000168   0.000241   0.000003   0.000000   0.000092   0.000000
             25         26         27         28         29         30
     1  O    0.000000  -0.000471   0.000000  -0.000002   0.000000   0.000000
     2  C    0.000026   0.025702   0.000072  -0.000682   0.000003   0.000000
     3  C    0.000063   0.022650   0.000992  -0.000586   0.000051   0.000000
     4  O   -0.000002   0.001551   0.000002   0.000008   0.000000   0.000000
     5  H    0.000000  -0.000061   0.000000   0.000000   0.000000   0.000000
     6  C   -0.007515  -0.057419   0.001739  -0.027627  -0.000388   0.000001
     7  O    0.001709  -0.016839   0.000093   0.000003  -0.000007   0.000000
     8  H   -0.005960  -0.000947  -0.000120   0.000785  -0.000001   0.000000
     9  C   -0.000007  -0.017179  -0.000464  -0.004498  -0.000020   0.000000
    10  O    0.000000   0.000123   0.000000   0.000001   0.000000   0.000000
    11  H    0.000000   0.000017   0.000000   0.000001   0.000000   0.000000
    12  C   -0.000243   0.076897   0.000289   0.011742   0.000095  -0.000001
    13  O    0.000019  -0.040950   0.000342   0.002661   0.000025   0.000000
    14  C   -0.001349  -0.654849  -0.016311   0.029992   0.001287   0.000042
    15  O   -0.000129   0.029241   0.012270   0.017570   0.000062  -0.000003
    16  C    0.002883  -4.802466  -0.179124   0.754862  -0.005726   0.003147
    17  C   -0.001429   0.929081  -0.036414   0.252310   0.046748   0.001388
    18  O    0.000001  -0.010450   0.001165   0.026449  -0.000747  -0.000029
    19  H    0.000000   0.042030   0.000225  -0.010282   0.000025   0.000000
    20  C    0.000585   0.819371  -0.120403  -1.479177  -0.171599  -0.001063
    21  O    0.000000   0.003908   0.004909  -0.061620  -0.007110   0.000285
    22  H    0.000000   0.000560   0.000402   0.006153   0.012955  -0.001061
    23  C    0.028026  -1.689729  -0.099623  -0.198129  -0.006703   0.000728
    24  O    0.219914   0.215025   0.002529   0.013981   0.000096   0.000000
    25  H    0.400289  -0.011476  -0.000344  -0.002313   0.000001   0.000000
    26  C   -0.011476  11.765273   0.393685  -0.828133  -0.085035   0.004790
    27  O   -0.000344   0.393685   8.397087   0.095183  -0.079095  -0.002204
    28  C   -0.002313  -0.828133   0.095183   6.446035   0.455521  -0.003574
    29  O    0.000001  -0.085035  -0.079095   0.455521   8.191204   0.242324
    30  H    0.000000   0.004790  -0.002204  -0.003574   0.242324   0.404239
    31  H    0.000000  -0.058138  -0.066351   0.490674  -0.059304  -0.009460
    32  H    0.000000   0.005910   0.005521  -0.053961  -0.003992   0.000004
    33  H    0.000001  -0.038675   0.004210  -0.028968  -0.000498   0.000004
    34  H    0.000002  -0.053201   0.006212  -0.011080  -0.000891   0.000000
    35  H   -0.000044   0.199301  -0.032057   0.034597  -0.001041   0.000012
    36  H   -0.009247  -0.096575  -0.009933  -0.001042  -0.000477  -0.000002
    37  H   -0.002296  -0.145451   0.009136   0.005406   0.000014   0.000000
    38  H    0.000000  -0.000007   0.000000   0.000000   0.000000   0.000000
    39  H    0.000003   0.008067   0.000048  -0.002030  -0.000002   0.000000
    40  H   -0.000003  -0.003302   0.000011  -0.000036   0.000000   0.000000
    41  H    0.000000   0.001052   0.000000  -0.000002   0.000000   0.000000
    42  H    0.000000   0.000441   0.000000   0.000000   0.000000   0.000000
    43  H    0.000000  -0.000237  -0.000001  -0.000076   0.000000   0.000000
    44  H    0.000000  -0.000354   0.000000   0.000047   0.000000   0.000000
    45  H    0.000000  -0.000036   0.000000  -0.000111   0.000000   0.000000
             31         32         33         34         35         36
     1  O    0.000000   0.000000   0.000000  -0.000003   0.000000   0.000000
     2  C   -0.000004  -0.000006   0.001084  -0.000404  -0.000073   0.000039
     3  C    0.000019   0.000167  -0.000120   0.004701   0.001019  -0.000399
     4  O    0.000000   0.000000   0.000000  -0.000003   0.000000   0.000000
     5  H    0.000000   0.000000   0.000000   0.000000   0.000000   0.000000
     6  C   -0.000030  -0.000160   0.005730   0.013753   0.003449  -0.000313
     7  O    0.000000   0.000002  -0.000013  -0.001122  -0.000072  -0.000573
     8  H    0.000000   0.000000   0.000006   0.000168   0.000051   0.000538
     9  C   -0.000009  -0.000187   0.000007  -0.001036  -0.000018  -0.000007
    10  O    0.000000   0.000000   0.000000   0.000001   0.000000   0.000000
    11  H    0.000000   0.000000   0.000000   0.000000   0.000000   0.000000
    12  C    0.000026   0.001094   0.001508  -0.001032   0.000164  -0.000140
    13  O    0.000019   0.000862   0.003917  -0.000626  -0.000120   0.000003
    14  C    0.002442   0.003271   0.004984  -0.017429   0.018507  -0.003565
    15  O   -0.000214  -0.001702  -0.011065  -0.055662   0.004381   0.000162
    16  C    0.085672   0.108973   0.126157   0.310593   0.010206   0.013587
    17  C   -0.018482  -0.239772   0.182868  -0.007784  -0.019139  -0.005894
    18  O   -0.000723   0.005181  -0.038522   0.000232   0.000431   0.000034
    19  H    0.000002   0.000106  -0.003808  -0.000251   0.000026   0.000000
    20  C   -0.168050   0.437169  -0.026329   0.046247  -0.026848   0.002875
    21  O    0.004213  -0.045337   0.001405  -0.000704  -0.000146  -0.000012
    22  H   -0.001001  -0.005700  -0.000126   0.000002   0.000006   0.000000
    23  C    0.006346   0.017427   0.038518   0.009378   0.042573   0.478631
    24  O    0.000037  -0.000013  -0.000258  -0.000286   0.003438  -0.044266
    25  H    0.000000   0.000000   0.000001   0.000002  -0.000044  -0.009247
    26  C   -0.058138   0.005910  -0.038675  -0.053201   0.199301  -0.096575
    27  O   -0.066351   0.005521   0.004210   0.006212  -0.032057  -0.009933
    28  C    0.490674  -0.053961  -0.028968  -0.011080   0.034597  -0.001042
    29  O   -0.059304  -0.003992  -0.000498  -0.000891  -0.001041  -0.000477
    30  H   -0.009460   0.000004   0.000004   0.000000   0.000012  -0.000002
    31  H    0.657058   0.006861   0.003227   0.000029   0.006829  -0.000065
    32  H    0.006861   0.600670   0.006049   0.003071   0.000083   0.000000
    33  H    0.003227   0.006049   0.617975   0.005495   0.003519  -0.000002
    34  H    0.000029   0.003071   0.005495   0.597684   0.005262   0.000071
    35  H    0.006829   0.000083   0.003519   0.005262   0.599483  -0.004344
    36  H   -0.000065   0.000000  -0.000002   0.000071  -0.004344   0.580155
    37  H   -0.000009  -0.000001   0.000003   0.003515   0.006189  -0.046139
    38  H    0.000000   0.000000   0.000000   0.000000   0.000000   0.000000
    39  H    0.000000  -0.000009   0.000004   0.009322   0.000000   0.000005
    40  H    0.000000   0.000000  -0.000009  -0.000005  -0.000009   0.000004
    41  H    0.000000   0.000000   0.000000  -0.000003   0.000000   0.000000
    42  H    0.000000   0.000000   0.000000   0.000000   0.000000   0.000000
    43  H    0.000000   0.000000   0.000000  -0.000022   0.000000   0.000000
    44  H    0.000000   0.000000   0.000000  -0.000001   0.000000   0.000000
    45  H    0.000000   0.000000   0.000000   0.000000   0.000000   0.000000
             37         38         39         40         41         42
     1  O    0.000000   0.235154  -0.000058  -0.000854  -0.020309  -0.044381
     2  C   -0.000274   0.082265   0.032758   0.078066   0.158338   0.421626
     3  C    0.002313  -0.106599  -0.044945  -0.211993   0.217989  -0.094881
     4  O    0.000002   0.003416  -0.000703   0.000954  -0.055238  -0.000061
     5  H    0.000000   0.000322   0.000004  -0.000045  -0.004424  -0.000512
     6  C    0.007057   0.001606   0.024681   0.412788  -0.176953   0.014872
     7  O    0.001933  -0.000018  -0.010913  -0.034201   0.000996  -0.000300
     8  H   -0.000002   0.000000  -0.001076  -0.008417  -0.000067   0.000005
     9  C    0.000037  -0.007868  -0.004392   0.008089   0.032073   0.032614
    10  O    0.000000  -0.000949  -0.000002   0.000004   0.000055   0.001072
    11  H    0.000000  -0.000004   0.000000   0.000000   0.000000  -0.000014
    12  C    0.000802   0.038807  -0.041778  -0.008225  -0.044172  -0.136934
    13  O    0.000380  -0.000800  -0.047507   0.010191   0.007014   0.012405
    14  C    0.000106   0.005607   0.305470  -0.027926   0.094499   0.041835
    15  O    0.003659  -0.000011  -0.053972  -0.020005  -0.000717   0.000176
    16  C   -0.030728   0.000595   0.033833   0.051486   0.006891   0.001786
    17  C    0.006020  -0.000048   0.036040  -0.001386  -0.000480   0.000061
    18  O    0.000042   0.000000  -0.000420  -0.000036   0.000008   0.000051
    19  H    0.000002   0.000000   0.000347   0.000028   0.000000   0.000021
    20  C   -0.002088   0.000001   0.006893   0.000262  -0.000063  -0.000107
    21  O    0.000003   0.000000  -0.000002   0.000000   0.000000   0.000000
    22  H    0.000000   0.000000   0.000000   0.000000   0.000000   0.000000
    23  C    0.506351   0.000007   0.002400   0.009050   0.000564   0.000077
    24  O   -0.086723   0.000000   0.000136   0.002708   0.000072   0.000002
    25  H   -0.002296   0.000000   0.000003  -0.000003   0.000000   0.000000
    26  C   -0.145451  -0.000007   0.008067  -0.003302   0.001052   0.000441
    27  O    0.009136   0.000000   0.000048   0.000011   0.000000   0.000000
    28  C    0.005406   0.000000  -0.002030  -0.000036  -0.000002   0.000000
    29  O    0.000014   0.000000  -0.000002   0.000000   0.000000   0.000000
    30  H    0.000000   0.000000   0.000000   0.000000   0.000000   0.000000
    31  H   -0.000009   0.000000   0.000000   0.000000   0.000000   0.000000
    32  H   -0.000001   0.000000  -0.000009   0.000000   0.000000   0.000000
    33  H    0.000003   0.000000   0.000004  -0.000009   0.000000   0.000000
    34  H    0.003515   0.000000   0.009322  -0.000005  -0.000003   0.000000
    35  H    0.006189   0.000000   0.000000  -0.000009   0.000000   0.000000
    36  H   -0.046139   0.000000   0.000005   0.000004   0.000000   0.000000
    37  H    0.622256   0.000000   0.000181  -0.000047   0.000000   0.000000
    38  H    0.000000   0.402506   0.000000   0.000022   0.000825  -0.010033
    39  H    0.000181   0.000000   0.586310   0.003453   0.000699  -0.000061
    40  H   -0.000047   0.000022   0.003453   0.563697   0.006833   0.001478
    41  H    0.000000   0.000825   0.000699   0.006833   0.620215   0.006311
    42  H    0.000000  -0.010033  -0.000061   0.001478   0.006311   0.597517
    43  H    0.000000  -0.000198   0.003499   0.000013   0.003425   0.005047
    44  H    0.000000  -0.000002   0.000038   0.000001   0.000000   0.000098
    45  H    0.000000  -0.000030  -0.000023  -0.000006  -0.000002   0.002864
             43         44         45
     1  O    0.004759  -0.000136   0.001907
     2  C    0.026201   0.001040  -0.007657
     3  C   -0.029311  -0.005616   0.012478
     4  O   -0.000475   0.000023  -0.000039
     5  H   -0.000019   0.000000  -0.000001
     6  C   -0.014398   0.000362   0.017808
     7  O   -0.000527  -0.000010  -0.000006
     8  H    0.000006   0.000000   0.000000
     9  C    0.009202   0.436405   0.626019
    10  O    0.004247  -0.054321  -0.060535
    11  H   -0.000108  -0.010024  -0.005458
    12  C    0.201877  -0.052321  -0.307371
    13  O   -0.031522  -0.007015   0.011354
    14  C    0.084972   0.004707   0.011194
    15  O   -0.001309  -0.000327   0.000104
    16  C   -0.000715   0.002854  -0.007713
    17  C    0.002370  -0.000755   0.000172
    18  O    0.000204  -0.000478   0.000194
    19  H    0.000090  -0.000061   0.000168
    20  C    0.000018   0.000197   0.000241
    21  O    0.000000  -0.000002   0.000003
    22  H    0.000000   0.000000   0.000000
    23  C    0.000395  -0.000007   0.000092
    24  O   -0.000001   0.000000   0.000000
    25  H    0.000000   0.000000   0.000000
    26  C   -0.000237  -0.000354  -0.000036
    27  O   -0.000001   0.000000   0.000000
    28  C   -0.000076   0.000047  -0.000111
    29  O    0.000000   0.000000   0.000000
    30  H    0.000000   0.000000   0.000000
    31  H    0.000000   0.000000   0.000000
    32  H    0.000000   0.000000   0.000000
    33  H    0.000000   0.000000   0.000000
    34  H   -0.000022  -0.000001   0.000000
    35  H    0.000000   0.000000   0.000000
    36  H    0.000000   0.000000   0.000000
    37  H    0.000000   0.000000   0.000000
    38  H   -0.000198  -0.000002  -0.000030
    39  H    0.003499   0.000038  -0.000023
    40  H    0.000013   0.000001  -0.000006
    41  H    0.003425   0.000000  -0.000002
    42  H    0.005047   0.000098   0.002864
    43  H    0.595656  -0.010934   0.006741
    44  H   -0.010934   0.617210  -0.048803
    45  H    0.006741  -0.048803   0.600363
 Mulliken atomic charges:
              1
     1  O   -0.519884
     2  C   -0.023375
     3  C    0.092492
     4  O   -0.521089
     5  H    0.329753
     6  C    0.080415
     7  O   -0.532614
     8  H    0.419737
     9  C   -0.151410
    10  O   -0.524486
    11  H    0.354241
    12  C    0.107147
    13  O   -0.378058
    14  C    0.043973
    15  O   -0.340645
    16  C   -0.093072
    17  C   -0.116571
    18  O   -0.490292
    19  H    0.414772
    20  C    0.201761
    21  O   -0.473664
    22  H    0.343320
    23  C   -0.029025
    24  O   -0.615863
    25  H    0.388833
    26  C    0.067308
    27  O   -0.293678
    28  C    0.069949
    29  O   -0.527775
    30  H    0.360432
    31  H    0.118383
    32  H    0.148419
    33  H    0.141725
    34  H    0.135810
    35  H    0.144387
    36  H    0.146891
    37  H    0.138353
    38  H    0.355433
    39  H    0.153702
    40  H    0.167367
    41  H    0.144576
    42  H    0.146923
    43  H    0.141131
    44  H    0.128183
    45  H    0.146087
 Sum of Mulliken atomic charges =   0.00000
 Mulliken charges with hydrogens summed into heavy atoms:
              1
     1  O   -0.164451
     2  C    0.123548
     3  C    0.237068
     4  O   -0.191336
     6  C    0.247782
     7  O   -0.112878
     9  C    0.122860
    10  O   -0.170245
    12  C    0.248278
    13  O   -0.378058
    14  C    0.197675
    15  O   -0.340645
    16  C    0.042738
    17  C    0.025153
    18  O   -0.075520
    20  C    0.350179
    21  O   -0.130344
    23  C    0.256219
    24  O   -0.227029
    26  C    0.211695
    27  O   -0.293678
    28  C    0.188332
    29  O   -0.167343
 Sum of Mulliken charges with hydrogens summed into heavy atoms =   0.00000
 APT atomic charges:
              1
     1  O   -0.618730
     2  C    0.376902
     3  C    0.431181
     4  O   -0.641151
     5  H    0.243354
     6  C    0.370300
     7  O   -0.731952
     8  H    0.408724
     9  C    0.470213
    10  O   -0.618231
    11  H    0.252868
    12  C    0.437822
    13  O   -0.792462
    14  C    0.886591
    15  O   -0.835717
    16  C    0.417597
    17  C    0.364482
    18  O   -0.657918
    19  H    0.357267
    20  C    0.369971
    21  O   -0.576007
    22  H    0.245392
    23  C    0.443738
    24  O   -0.677881
    25  H    0.275580
    26  C    0.422824
    27  O   -0.760441
    28  C    0.912575
    29  O   -0.678065
    30  H    0.265744
    31  H   -0.092947
    32  H   -0.041458
    33  H   -0.051025
    34  H   -0.028557
    35  H   -0.043230
    36  H   -0.036813
    37  H   -0.039301
    38  H    0.255241
    39  H   -0.040103
    40  H   -0.008254
    41  H   -0.048293
    42  H   -0.036686
    43  H   -0.046828
    44  H   -0.063465
    45  H   -0.042852
 Sum of APT charges=   0.00000
 APT Atomic charges with hydrogens summed into heavy atoms:
              1
     1  O   -0.363489
     2  C    0.340216
     3  C    0.382888
     4  O   -0.397797
[...]
 00007887,-0.00008660,-0.01617924,0.00737156,0.00221347,0.00236012,-0.0
 0020780,-0.00043808,-0.00019994,-0.00014570,0.00000050,0.00011660,0.00
 001789,0.00010689,-0.00000339,0.00001137,-0.00001072,-0.00000511,0.000
 04036,0.00003501,0.00003693,-0.00005988,-0.00004026,-0.00006268,0.0000
 5941,0.00002914,-0.00000753,0.,-0.00000374,0.00000539,-0.00000912,-0.0
 0000080,-0.00000023,0.00000076,0.00000024,-0.00000558,0.00000542,-0.00
 001012,0.00001495,-0.00000404,0.00001770,-0.00000546,-0.00000057,-0.00
 000531,-0.00000356,-0.00000241,0.00000383,0.00000795,-0.00001236,0.000
 00333,-0.00000738,0.00001957,0.00000313,0.00000514,-0.00000685,-0.0000
 0784,-0.00000060,0.00000132,0.00000093,0.00000261,-0.00000114,0.000000
 79,0.00000305,0.00000099,-0.00000018,0.00000077,-0.00000310,0.00000209
 ,0.00000626,0.00000002,-0.00000689,0.00000411,0.00000015,0.00000379,-0
 .00000017,-0.00000217,-0.00000006,0.00000326,0.,0.00000051,0.00087847,
 -0.00033124,-0.00012412,0.00000317,-0.00010458,-0.00014206,0.00010690,
 0.00006303,0.00022086,0.00063584,-0.00117161,-0.00000260,0.32788394,-0
 .00275016,0.00255738,0.00125728,0.11657007,-0.09665147,-0.01459548,0.0
 3199877,-0.01440594,-0.00691031,-0.00182019,0.00456177,0.00035671,0.00
 040320,-0.00053914,0.00049867,0.00100497,0.00048164,0.00178035,-0.0004
 9370,-0.00030087,-0.00060496,0.00004071,-0.00005361,0.00002905,-0.0009
 1103,0.00111861,-0.00036807,0.00004001,-0.00013466,-0.00001201,0.00001
 248,-0.00002548,-0.00004790,-0.01840023,0.00764445,0.00364403,0.000655
 49,0.00034596,-0.00143229,0.00004315,-0.00084072,-0.00008903,0.0000242
 3,0.00017487,-0.00007532,-0.00004271,0.00003946,-0.00002310,0.00001826
 ,-0.00000869,-0.00002208,-0.00000674,-0.00000263,0.00000853,0.00001517
 ,0.00002853,-0.00002863,-0.00000790,0.00000285,-0.00000120,-0.00000045
 ,0.00000321,-0.00000158,0.00000035,0.00000055,-0.00000007,-0.00000752,
 -0.00002598,0.00003437,-0.00007008,0.00000134,-0.00012245,0.00002015,0
 .00001538,0.00001933,0.00000747,-0.00001560,0.00000967,-0.00000344,0.0
 0001849,-0.00000432,0.00000539,-0.00001548,0.00000674,0.00000003,0.000
 00356,-0.00000286,0.00000067,-0.00000024,0.00000048,-0.00000158,0.0000
 0113,-0.00000098,-0.00000024,-0.00000026,0.00000093,-0.00000115,0.0000
 0031,-0.00000478,-0.00000404,-0.00000659,0.00000764,-0.00000291,0.0000
 0279,-0.00000423,0.00000087,0.00000313,-0.00000576,-0.00000622,-0.0000
 0057,0.00000717,0.00063215,0.00107169,0.00049779,-0.00005502,-0.000024
 24,-0.00004018,-0.00045703,-0.00005087,-0.00052407,-0.00013695,-0.0055
 4022,-0.00166273,-0.12500515,0.10198016,-0.03758303,0.01402152,-0.0114
 9666,0.04218225,-0.01703340,-0.05001367,0.01165926,-0.00299510,0.00028
 757,-0.00144682,0.00026536,0.00087897,-0.00046887,-0.00017666,-0.00005
 911,0.00058474,0.00049262,0.00069308,-0.00018810,-0.00008537,-0.000089
 49,0.00000306,0.00003655,0.00002439,-0.00041947,-0.00099672,0.00091643
 ,0.00007210,0.00029262,0.00009732,0.00004678,0.00000568,0.00009465,0.0
 2093897,-0.00924653,-0.00221768,-0.00077465,0.00015441,0.00216358,0.00
 035291,-0.00043518,-0.00006760,-0.00012017,0.00004136,-0.00026199,-0.0
 0002630,-0.00001730,0.00002408,0.00002098,-0.00002943,-0.00002975,-0.0
 0005954,0.00004487,0.00001183,0.00010069,-0.00003824,-0.00002817,0.000
 00778,-0.00000243,0.00001053,-0.00000925,0.00001450,-0.00001077,0.0000
 0096,-0.00000086,0.00000155,0.00001276,-0.00000151,0.00001393,-0.00003
 116,-0.00000736,-0.00003914,0.00000952,0.00000711,0.00000873,0.0000114
 1,0.00000760,0.00000742,-0.00000923,0.00001262,-0.00002308,0.00000417,
 -0.00001894,0.00001872,0.00000159,0.00000429,-0.00000958,0.00000029,-0
 .00000046,0.00000247,-0.00000320,0.00000113,-0.00000242,-0.00000517,-0
 .00000081,0.00000239,-0.00000669,0.00000066,-0.00000800,-0.00000565,-0
 .00000003,0.00001255,-0.00000580,-0.00000124,-0.00000706,-0.00000208,-
 0.00000083,-0.00000316,-0.00000649,0.00000197,0.00000265,-0.00187797,0
 .00022622,0.00310120,-0.00013940,0.00007946,0.00005530,-0.00018241,-0.
 00005949,-0.00010807,-0.00051682,-0.00230999,-0.00049106,-0.03317293,0
 .01549923,0.05978415,0.00133720,-0.00032355,0.00031355,-0.01710734,0.0
 0723635,0.00267959,-0.00058151,0.00161655,-0.00018812,0.00081229,-0.00
 019211,-0.00015432,-0.00010939,0.00013802,0.00001226,-0.00018306,-0.00
 023832,0.00001036,0.00011955,-0.00018075,0.00001568,0.00000226,0.00000
 476,-0.00005144,0.00385962,-0.00229171,0.00087511,0.00002313,0.0006015
 3,0.00017776,-0.00006253,0.00002952,0.00011010,-0.31766369,0.10535732,
 0.03113446,-0.01484334,0.00254036,-0.01109995,-0.00062776,0.00286869,0
 .00024561,0.00068600,-0.00062714,-0.00021207,-0.00006564,-0.00001927,0
 .00002819,0.00004707,0.00019233,0.00017715,-0.00002882,-0.00003053,-0.
 00035751,0.00013337,-0.00021314,0.00067378,-0.00003377,-0.00003884,-0.
 00000825,0.00000735,0.00000409,-0.00002232,-0.00000086,-0.00000482,-0.
 00000023,-0.00001946,0.00002290,-0.00002514,0.00001849,-0.00002231,0.0
 0002867,-0.00000907,-0.00000143,-0.00000955,0.00003187,0.00000549,0.00
 000664,0.00001277,-0.00002655,-0.00003631,-0.00000982,0.00004279,0.000
 02758,0.00001833,-0.00001517,-0.00004187,0.00000084,0.00000076,0.00000
 506,0.00000210,-0.00000235,-0.00000137,0.00000238,0.00000301,0.0000021
 1,-0.00001185,-0.00002672,-0.00001577,0.00000694,0.00001617,-0.0000309
 2,0.00000595,0.00000020,0.00000646,0.00000082,-0.00000943,0.00000043,0
 .00000632,0.00000036,0.00000495,0.00038987,-0.00000760,-0.00006073,0.0
 0027307,-0.00103152,-0.00063590,0.00010322,0.00012173,0.00009279,0.000
 80403,-0.00094825,0.00003234,-0.00060634,-0.00187371,0.00161377,0.3408
 0089,0.00082139,0.00014344,-0.00093414,-0.01721983,0.00658036,0.002901
 77,-0.00122041,0.00099908,0.00044037,0.00044069,-0.00032820,-0.0002027
 9,-0.00002743,0.00011098,-0.00004471,-0.00001135,-0.00007693,-0.000077
 35,0.00007634,-0.00001900,-0.00005093,-0.00000584,-0.00002027,-0.00003
 411,0.03057047,-0.01385856,-0.00148821,-0.00106000,-0.00046866,-0.0007
 4528,0.00028781,-0.00003364,-0.00017692,0.10511293,-0.08473646,-0.0099
 3164,-0.00308013,0.00241915,-0.00080974,-0.00247905,0.00076379,-0.0008
 0484,-0.00000439,-0.00018793,-0.00003940,0.00007468,-0.00000121,-0.000
 00860,0.,-0.00004740,-0.00005349,-0.00005935,0.00007672,0.00011636,0.0
 0005076,-0.00011136,-0.00007247,0.00003218,0.00000539,0.00000566,-0.00
 001455,0.00000397,0.00000326,0.00000400,0.00000174,0.00000233,-0.00000
 030,0.00000548,-0.00000401,0.00000769,0.00000574,0.00002167,-0.0000043
 9,-0.00000550,-0.00000413,-0.00001260,0.00000231,-0.00001812,-0.000009
 47,-0.00000327,0.00002166,0.00000506,0.00000134,-0.00002127,-0.0000122
 5,0.00000155,0.00002041,0.00000021,-0.00000036,-0.00000238,-0.00000234
 ,-0.00000194,-0.00000037,-0.00000681,0.00000042,0.00000311,0.00000037,
 0.00000254,0.00000328,0.00000190,0.00002128,-0.00000044,-0.00000372,-0
 .00000251,-0.00000146,0.00000310,0.00000237,0.00000417,0.00000435,-0.0
 0000297,-0.00000600,0.00007517,0.00000040,-0.00026992,0.00030539,0.000
 48567,0.00019984,0.00005544,0.00006016,0.00002520,0.00001107,-0.000379
 33,0.00016665,-0.00137983,-0.00155593,0.00206947,-0.11168181,0.0945794
 3,-0.00141377,-0.00011805,0.00176296,0.02340495,-0.00898287,-0.0004841
 3,0.00039936,-0.00144950,0.00007821,-0.00046844,0.00056930,0.00000181,
 0.00013004,-0.00014738,0.00007793,0.00027388,-0.00003782,-0.00068088,0
 .00001294,-0.00038779,0.00026153,-0.00001386,0.00008404,-0.00000680,0.
 00832428,-0.00128450,0.00173708,-0.00048963,0.00031062,0.00008889,-0.0
 0004929,0.00002219,0.00003291,0.03478846,-0.01306701,-0.04816177,-0.03
 869587,0.00938363,-0.01007826,-0.00270634,0.00416513,0.00167043,0.0003
 3522,-0.00086073,-0.00092364,-0.00013989,-0.00009290,0.00030026,0.0001
 0893,0.00017555,0.00012330,-0.00000282,0.00010412,-0.00051871,0.000137
 94,-0.00050881,0.00113015,-0.00007035,-0.00006758,0.00000404,0.0000093
 7,0.00004876,-0.00004925,-0.00000396,-0.00000973,-0.00000218,-0.000004
 64,0.00004544,-0.00001829,-0.00000919,-0.00004952,0.00001708,0.0000034
 7,0.00000483,-0.00000838,0.00005323,0.00002484,0.00003443,0.00000695,-
 0.00000606,-0.00010411,0.00000039,0.00001240,0.00007350,0.00002911,-0.
 00000801,-0.00007771,0.00000319,-0.00000193,0.00001011,-0.00000200,0.0
 0000167,-0.00000542,0.00000272,0.00000117,-0.00000224,-0.00001383,-0.0
 0003235,-0.00002282,0.00003078,0.00000156,-0.00006570,0.00000210,-0.00
 000096,0.00000121,-0.00000210,-0.00001668,-0.00000276,-0.00000173,0.00
 000317,0.00001043,-0.00020590,-0.00019781,0.00045820,0.00066767,-0.000
 42927,-0.00016839,-0.00000291,0.00002543,-0.00007663,-0.00037288,0.000
 39046,0.00024803,0.00194106,0.00278324,-0.00308382,-0.02469356,0.01061
 521,0.05590684,0.00000526,-0.00021136,0.00021864,0.00091078,0.00027156
 ,-0.00029462,0.00030872,0.00016401,0.00007900,-0.00004411,-0.00006323,
 -0.00000683,-0.00000396,0.00007075,-0.00002121,0.00000950,0.00011578,0
 .00020042,0.00000036,-0.00005774,-0.00015663,0.00003175,0.00000456,0.0
 0006842,-0.22154332,-0.08990691,0.12633870,0.01115347,0.00411538,-0.00
 371816,0.00137542,0.00123450,0.00095227,0.00186953,0.00367886,0.000174
 33,0.00025361,-0.00035362,-0.00097853,0.00025913,0.00007265,-0.0000346
 0,-0.00007869,0.00003185,-0.00036268,-0.00009512,-0.00007125,0.0002242
 9,0.00001808,-0.00018240,-0.00021712,0.00026738,0.00028698,0.00021977,
 -0.00030782,-0.00027693,0.00012566,-0.00004969,-0.00001017,0.00000599,
 0.00004329,0.00005546,0.00002455,-0.00001980,-0.00000837,-0.00002109,-
 0.00002537,-0.00003239,0.00006486,0.00000043,0.00002844,-0.00008397,0.
 00000625,0.00000150,0.00001338,-0.00000406,0.00000861,-0.00001222,0.00
 001118,0.00007163,-0.00005342,0.00000845,-0.00010657,-0.00000435,0.000
 00077,0.00003490,0.00002212,-0.00000154,-0.00000544,-0.00000724,0.0000
 0322,0.00001141,0.00000684,0.00001801,-0.00001217,-0.00001977,0.000034
 83,0.00006178,0.00005989,0.00002413,-0.00002174,-0.00002097,-0.0000001
 5,-0.00000171,0.00000211,0.00000034,0.00000846,-0.00000718,-0.00000099
 ,0.00000468,0.00000242,-0.00000140,0.00005432,-0.00005488,-0.00003692,
 -0.00010074,-0.00003399,0.00001025,-0.00000133,-0.00000209,-0.00000367
 ,-0.00009776,-0.00004223,0.00042801,0.00025580,-0.00020761,0.00137559,
 -0.00018751,-0.00088823,0.22469179,0.00030397,0.00068667,0.00014192,0.
 00033370,-0.00737589,-0.00422524,-0.00106905,0.00055160,0.00176197,-0.
 00031915,-0.00146176,0.00028498,-0.00002422,0.00013192,-0.00017097,-0.
 00001920,0.00024944,0.00052354,0.00003657,-0.00006735,-0.00035209,0.00
 005183,-0.00001580,0.00009088,-0.08752607,-0.09063438,0.07103219,0.008
 82394,0.00265211,-0.02035081,0.00109625,0.00187516,-0.00171967,-0.0278
 4766,-0.02178528,0.02135928,0.00141936,0.00200215,0.00014814,0.0000492
 5,-0.00043576,0.00003567,0.00003284,0.00006318,-0.00020674,-0.00009417
 ,0.00000068,0.00008318,-0.00000271,-0.00007188,-0.00008674,0.00009988,
 0.00006516,0.00005560,-0.00008755,-0.00008176,-0.00000361,-0.00004604,
 0.00001388,-0.00000566,0.00002343,0.00000395,0.00000963,-0.00000832,0.
 00000116,-0.00000711,-0.00004002,-0.00004094,0.00005507,-0.00000817,0.
 00002725,-0.00010617,0.00000691,0.00000581,0.00002068,0.00000338,-0.00
 001481,0.00000096,0.00001280,0.00003917,-0.00002785,0.00000075,-0.0000
 4790,0.00000523,0.00000543,0.00001329,0.00000311,-0.00000033,-0.000001
 17,-0.00000210,0.00000308,0.00000575,0.00000313,0.00001267,-0.00000159
 ,-0.00000913,0.00001644,0.00001447,0.00001591,0.00001810,-0.00001727,-
 0.00001955,0.00000382,0.00000131,0.00000404,0.00000302,0.00000566,-0.0
 0000885,0.00000236,0.00000164,0.00000511,0.00003579,-0.00019958,-0.000
 05295,0.00001980,-0.00002590,-0.00001605,-0.00000605,-0.00004105,-0.00
 003600,0.00013522,-0.00007471,-0.00003825,0.00011132,0.00026586,-0.000
 23127,0.00020319,0.00121986,0.00057326,0.09442555,0.10620169,0.0000928
 8,0.00037269,0.00033731,-0.00061593,-0.00034658,-0.00035947,0.00018205
 ,-0.00007595,0.00006743,-0.00002570,-0.00005882,0.00007999,-0.00001180
 ,-0.00002259,-0.00001309,-0.00003440,-0.00000123,0.00003489,-0.0000014
 0,0.00003774,0.00000834,0.00000079,0.00000458,-0.00000518,0.12190208,0
 .06931574,-0.12931564,0.02348388,-0.00296236,-0.04616530,0.00026201,0.
 00126424,0.00028785,0.00119167,-0.00083041,0.00208196,0.00022975,0.000
 45881,0.00122943,0.00020069,-0.00001518,0.00001585,0.00004966,0.000035
 52,0.00013775,0.00003413,0.00001636,-0.00002094,-0.00000406,0.00000125
 ,0.00000316,-0.00000590,-0.00002533,-0.00000617,-0.00003426,0.00002738
 ,-0.00001822,0.00001082,-0.00000121,0.00000103,-0.00000954,-0.00000364
 ,-0.00000261,0.00000535,0.00000131,0.00000394,0.00001025,0.00000463,-0
 .00000534,-0.00000817,-0.00000573,0.00000756,0.00000261,0.00000212,-0.
 00000066,-0.00000047,-0.00000085,0.00000206,-0.00000425,-0.00000580,0.
 00000694,0.00000323,0.00000840,0.00000139,-0.00000235,-0.00000377,-0.0
 0000205,0.00000034,0.00000090,0.00000156,-0.00000178,-0.00000090,-0.00
 000125,-0.00000278,0.00000070,-0.00000100,-0.00000276,-0.00000076,-0.0
 0000013,-0.00000410,0.00000078,0.00000338,-0.00000159,0.00000071,-0.00
 000115,-0.00000071,-0.00000048,0.00000004,-0.00000212,0.00000018,-0.00
 000087,-0.00003352,-0.00024064,-0.00002006,-0.00001722,-0.00000273,-0.
 00002099,-0.00000405,0.00000219,0.00000198,-0.00001795,-0.00004354,-0.
 00001840,0.00003384,-0.00000335,-0.00009438,-0.00042960,-0.00050212,0.
 00049563,-0.13850880,-0.06161608,0.16228971,0.00018587,0.00002323,0.00
 024681,0.00055117,-0.00019335,-0.00009393,0.00019281,-0.00004750,-0.00
 016009,0.00004295,0.00013549,0.00006142,-0.00002565,-0.00003948,0.0000
 1510,0.00004189,-0.00002205,-0.00025070,-0.00002234,-0.00016999,0.0001
 1433,-0.00000096,0.00002136,-0.00000548,-0.28846886,0.09643034,-0.0852
 6577,0.00412181,-0.00511756,-0.00997276,0.00026370,-0.00039978,-0.0008
 7413,-0.00211589,-0.00038276,-0.00003133,0.00129474,-0.00148879,-0.000
 08347,0.00076219,-0.00049649,0.00025188,0.00006105,0.00019086,0.000230
 00,-0.00003882,0.00005737,-0.00006256,0.00004563,0.00024319,0.00020168
 ,-0.00001550,-0.00042689,-0.00036402,0.00007684,0.00050831,0.00019637,
 -0.00003949,-0.00003824,-0.00001663,0.00000022,-0.00001712,-0.00003316
 ,0.00000394,-0.00000274,0.00000703,0.00000409,0.00001799,-0.00003732,-
 0.00000360,-0.00002662,0.00002452,-0.00000154,0.00000665,-0.00000389,0
 .00000548,-0.00001766,0.00004660,0.00000955,-0.00003925,-0.00000132,-0
 .00001367,0.00008238,0.00004664,0.00002483,-0.00002804,-0.00006331,0.0
 0000067,0.00000250,0.00000981,0.00000239,-0.00000505,-0.00000365,0.000
 00123,0.00000429,0.00000775,-0.00002684,-0.00004617,-0.00004135,0.0000
 0352,-0.00000376,0.00000465,0.00000828,0.00000264,0.00000253,-0.000001
 61,-0.00001275,-0.00000121,0.00000076,-0.00000040,0.00000565,-0.000001
 42,-0.00004639,-0.00000327,-0.00013182,-0.00028038,-0.00016849,0.00000
 557,0.00001051,0.00001873,-0.00003938,-0.00014617,0.00001067,0.0002906
 6,0.00030877,-0.00035519,0.00108294,0.00054237,-0.00041483,-0.02090294
 ,0.00980807,-0.00791082,0.30276559,-0.00026971,0.00014003,0.00013185,0
 .00185658,0.00136258,-0.00107298,-0.00007011,0.00002614,0.00015512,-0.
 00029881,-0.00019456,0.00007449,0.00003471,-0.00001223,-0.00004931,0.0
 0010249,0.00010352,0.00009243,-0.00004254,0.00009708,-0.00005620,0.000
 00697,-0.00000719,0.00001595,0.09424284,-0.08345133,0.04323870,-0.0138
 1683,0.00356859,-0.01785577,-0.00109113,0.00074348,-0.00062067,0.03360
 208,-0.02074243,0.00806565,0.00034892,0.00240808,0.00174856,0.00036755
 ,-0.00019914,0.00019389,-0.00023908,0.00002507,-0.00014579,0.00000728,
 -0.00000090,-0.00000227,-0.00001756,-0.00011722,-0.00007927,-0.0000405
 5,0.00008522,0.00014404,0.00006179,-0.00013255,-0.00041510,0.00000309,
 0.00003862,-0.00000082,-0.00000135,-0.00001585,0.00000941,0.00000050,0
 .00000648,0.00000152,0.00000275,-0.00000824,0.00001622,-0.00000873,0.0
 0000768,-0.00001887,0.00000368,-0.00000018,0.00000432,0.00000152,-0.00
 000032,-0.00001118,-0.00000558,0.00000887,0.00000695,0.00000485,-0.000
 02383,-0.00001101,-0.00000756,0.00000597,0.00002086,-0.00000062,0.0000
 0098,-0.00000223,-0.00000065,0.00000141,0.00000086,0.00000042,-0.00000
 127,-0.00000047,0.00000537,0.00001168,0.00000123,-0.00000063,-0.000008
 46,0.00000661,-0.00000326,-0.00000032,-0.00000320,-0.00000016,0.000003
 87,-0.00000040,-0.00000222,0.00000008,-0.00000139,-0.00001457,-0.00018
 042,0.00002638,-0.00022509,0.00019428,0.00010050,-0.00004158,-0.000048
 75,-0.00002765,-0.00021719,0.00024147,0.00003011,-0.00077774,-0.000123
 92,0.00040989,-0.00119910,-0.00565174,-0.00158876,-0.01336010,0.006295
 93,-0.00478620,-0.09890095,0.09554376,0.00023602,0.00019299,0.00025920
 ,-0.00089712,-0.00004633,-0.00007933,0.00015076,0.00002789,0.00000603,
 0.00001810,-0.00003155,0.00002990,-0.00002664,0.00000947,-0.00001455,0
 .00005043,0.00006377,-0.00004918,-0.00002933,-0.00012213,-0.00001588,0
 .00002051,0.00001715,0.00003637,-0.08451684,0.04279999,-0.06973789,-0.
 03531606,-0.00479587,-0.03636256,-0.00059246,0.00102043,-0.00003744,-0
 .00234932,0.00015392,0.00085900,0.00148951,-0.00393416,-0.00034912,0.0
 0051994,-0.00016519,-0.00006428,-0.00019703,0.00014205,-0.00028065,-0.
 00001179,-0.00003735,0.00012491,-0.00002792,-0.00014686,-0.00015261,0.
 00002808,0.00016104,0.00022919,-0.00008600,-0.00029932,-0.00034927,0.0
 0000724,0.00002441,0.00001299,0.00000235,0.00001449,0.00000641,-0.0000
 0234,0.00000140,-0.00000255,-0.00000255,-0.00000689,0.00003216,-0.0000
 0535,0.00000339,-0.00003701,0.00000417,0.00000326,0.00000550,-0.000010
 13,0.00001994,-0.00000757,-0.00000152,0.00002565,-0.00002974,0.0000024
 5,-0.00005569,0.00000614,-0.00000146,0.00001392,0.00001043,-0.00000184
 ,-0.00000014,-0.00000063,-0.00000072,0.00000487,0.00000144,0.00000034,
 -0.00000187,-0.00000557,0.00001576,0.00003051,0.00002669,0.00000173,-0
 .00000149,-0.00000486,-0.00000357,-0.00000290,-0.00000327,-0.00000137,
 0.00000417,-0.00000438,-0.00000321,0.00000354,0.00000106,-0.00006890,-
 0.00005713,-0.00006434,-0.00011777,-0.00014613,-0.00007901,-0.00000046
 ,-0.00000185,0.00001339,0.00002462,-0.00004971,-0.00003665,0.00022790,
 0.00014650,-0.00006879,-0.00019948,-0.00031556,0.00001692,0.01695472,-
 0.00692060,0.00897376,0.10471655,-0.02774602,0.09718563\\0.00433857,0.
 00717626,-0.00435468,0.00807661,-0.03274326,0.00172967,0.00530847,-0.0
 3490523,0.00124692,-0.00860713,0.01282703,0.01937893,-0.00114601,-0.00
 685613,-0.03113493,0.02006984,-0.00304760,-0.00763487,-0.00552081,-0.0
 1770037,0.00564689,-0.00142703,0.00656802,0.02356888,0.00706321,0.0355
 3329,-0.01632885,0.00572759,0.00535378,0.01087352,-0.00295717,-0.03244
 690,0.00558305,-0.01858852,0.02914392,0.03913747,0.03176276,-0.0147520
 5,0.02964609,-0.07773191,0.04025274,-0.01568648,0.01289510,-0.02025292
 ,-0.03454447,-0.02253600,0.01497312,-0.01160447,0.02924437,0.03948016,
 0.01668016,-0.00807188,-0.02756954,0.01969503,0.00289562,0.02706974,-0
 .01201152,0.00136048,-0.00130099,-0.00062385,0.01228455,-0.01161407,-0
 .03469329,-0.01214822,-0.00099503,0.02493555,0.00648938,-0.02046398,-0
 .00709709,-0.00387389,-0.01161664,0.01148677,-0.00565659,0.03039093,-0
 .00622699,0.00829579,-0.03328867,0.01635716,0.00135601,0.01247993,0.01
 855171,-0.00079899,-0.02046364,-0.03558100,0.00323583,0.01782679,0.022
 74908,-0.00349536,-0.00213566,-0.00219049,-0.02296093,0.00159907,-0.00
 530567,0.01962185,0.00199975,0.00623813,-0.02022628,-0.00096732,-0.001
 67318,0.01780870,-0.00148418,-0.00009161,-0.02010019,0.00150422,-0.002
 35118,0.00139998,-0.00654096,-0.01776340,0.02060909,-0.00039863,0.0035
 0544,-0.00242271,0.00637359,0.00338664,0.01631379,-0.00230442,-0.00176
 704,-0.01643242,0.00489570,-0.00251230,0.02371159,-0.00330999,0.001263
 09,-0.01531421,0.01096713,0.00056880,0.01650560,-0.00902910,-0.0006777
 4,0.01071668,0.00710434,-0.01791399,-0.01707520,0.00266779,-0.01245990
 \\\@


 ALL SCIENCE IS EITHER PHYSICS, OR STAMP COLLECTING.
   --ERNEST RUTHERFORD, 1871-1937.
 Job cpu time:  0 days 13 hours  2 minutes 24.9 seconds.
 File lengths (MBytes):  RWF=   1323 Int=      0 D2E=      0 Chk=     19 Scr=      1
 Normal termination of Gaussian 09 at Thu Jan 21 17:58:50 2016.
Gaussian '09 finished on node012 at Thu Jan 21 17:58:50 EST 2016.
