Gaussian '09 started on node020 at Wed Jan 20 15:58:13 EST 2016.
 Entering Gaussian System, Link 0=/usr/local/gaussian/g09/g09
 Initial command:
 /usr/local/gaussian/g09/l1.exe /home/srmcgrat/thesis/gaussian/cellobiose/290/9000/gaussian21780/Gau-21816.inp -scrdir=/home/srmcgrat/thesis/gaussian/cellobiose/290/9000/gaussian21780/
 Entering Link 1 = /usr/local/gaussian/g09/l1.exe PID=     21818.
  
 Copyright (c) 1988,1990,1992,1993,1995,1998,2003,2009,2010,
            Gaussian, Inc.  All Rights Reserved.
  
 This is part of the Gaussian(R) 09 program.  It is based on
 the Gaussian(R) 03 system (copyright 2003, Gaussian, Inc.),
 the Gaussian(R) 98 system (copyright 1998, Gaussian, Inc.),
 the Gaussian(R) 94 system (copyright 1995, Gaussian, Inc.),
 the Gaussian 92(TM) system (copyright 1992, Gaussian, Inc.),
 the Gaussian 90(TM) system (copyright 1990, Gaussian, Inc.),
 the Gaussian 88(TM) system (copyright 1988, Gaussian, Inc.),
 the Gaussian 86(TM) system (copyright 1986, Carnegie Mellon
 University), and the Gaussian 82(TM) system (copyright 1983,
 Carnegie Mellon University). Gaussian is a federally registered
 trademark of Gaussian, Inc.
  
 This software contains proprietary and confidential information,
 including trade secrets, belonging to Gaussian, Inc.
  
 This software is provided under written license and may be
 used, copied, transmitted, or stored only in accord with that
 written license.
  
 The following legend is applicable only to US Government
 contracts under FAR:
  
                    RESTRICTED RIGHTS LEGEND
  
 Use, reproduction and disclosure by the US Government is
 subject to restrictions as set forth in subparagraphs (a)
 and (c) of the Commercial Computer Software - Restricted
 Rights clause in FAR 52.227-19.
  
 Gaussian, Inc.
 340 Quinnipiac St., Bldg. 40, Wallingford CT 06492
  
  
 ---------------------------------------------------------------
 Warning -- This program may not be used in any manner that
 competes with the business of Gaussian, Inc. or will provide
 assistance to any competitor of Gaussian, Inc.  The licensee
 of this program is prohibited from giving any competitor of
 Gaussian, Inc. access to this program.  By using this program,
 the user acknowledges that Gaussian, Inc. is engaged in the
 business of creating and licensing software in the field of
 computational chemistry and represents and warrants to the
 licensee that it is not a competitor of Gaussian, Inc. and that
 it will not use this program in any manner prohibited above.
 ---------------------------------------------------------------
  

 Cite this work as:
 Gaussian 09, Revision B.01,
 M. J. Frisch, G. W. Trucks, H. B. Schlegel, G. E. Scuseria, 
 M. A. Robb, J. R. Cheeseman, G. Scalmani, V. Barone, B. Mennucci, 
 G. A. Petersson, H. Nakatsuji, M. Caricato, X. Li, H. P. Hratchian, 
 A. F. Izmaylov, J. Bloino, G. Zheng, J. L. Sonnenberg, M. Hada, 
 M. Ehara, K. Toyota, R. Fukuda, J. Hasegawa, M. Ishida, T. Nakajima, 
 Y. Honda, O. Kitao, H. Nakai, T. Vreven, J. A. Montgomery, Jr., 
 J. E. Peralta, F. Ogliaro, M. Bearpark, J. J. Heyd, E. Brothers, 
 K. N. Kudin, V. N. Staroverov, T. Keith, R. Kobayashi, J. Normand, 
 K. Raghavachari, A. Rendell, J. C. Burant, S. S. Iyengar, J. Tomasi, 
 M. Cossi, N. Rega, J. M. Millam, M. Klene, J. E. Knox, J. B. Cross, 
 V. Bakken, C. Adamo, J. Jaramillo, R. Gomperts, R. E. Stratmann, 
 O. Yazyev, A. J. Austin, R. Cammi, C. Pomelli, J. W. Ochterski, 
 R. L. Martin, K. Morokuma, V. G. Zakrzewski, G. A. Voth, 
 P. Salvador, J. J. Dannenberg, S. Dapprich, A. D. Daniels, 
 O. Farkas, J. B. Foresman, J. V. Ortiz, J. Cioslowski, 
 and D. J. Fox, Gaussian, Inc., Wallingford CT, 2010.
 
 ******************************************
 Gaussian 09:  EM64L-G09RevB.01 12-Aug-2010
                20-Jan-2016 
 ******************************************
 ------------------------------------------------
 # freq=raman b3lyp/6-31+g(d,p) geom=connectivity
 ------------------------------------------------
 1/10=4,30=1,38=1,57=2/1,3;
 2/12=2,17=6,18=5,40=1/2;
 3/5=1,6=6,7=111,11=2,16=1,25=1,30=1,71=2,74=-5/1,2,3;
 4//1;
 5/5=2,38=5,98=1/2;
 8/6=4,10=90,11=11/1;
 10/13=10,15=4/2;
 11/6=3,8=1,9=11,15=111,16=1/1,2,10;
 10/6=1/2;
 6/7=2,8=2,9=2,10=2,18=1,28=1/1;
 7/8=1,10=1,25=1/1,2,3,16;
 1/10=4,30=1/3;
 99//99;
 ------------
 290 9000.com
 ------------
 Symbolic Z-matrix:
 Charge =  0 Multiplicity = 1
 O                     7.554     7.655     12.348 
 C                     8.065     8.002     13.644 
 C                     7.628     9.391     14.077 
 O                     7.741     10.438    13.102 
 H                     7.347     10.073    12.258 
 C                     8.244     9.753     15.419 
 O                     7.945     10.999    16.065 
 H                     8.246     11.125    17.01 
 C                     8.273     5.549     14.319 
 O                     7.775     4.937     13.121 
 H                     7.9       3.947     13.187 
 C                     7.708     6.921     14.652 
 O                     8.199     7.331     15.936 
 C                     7.894     8.652     16.406 
 O                     8.794     8.77      17.517 
 C                     8.354     8.394     18.83 
 C                     8.708     6.973     19.239 
 O                     8.307     5.974     18.291 
 H                     8.508     6.37      17.395 
 C                     8.255     6.608     20.643 
 O                     8.742     5.343     21.114 
 H                     8.29      5.216     21.996 
 C                     8.411     10.776    19.698 
 O                     8.836     11.5      18.535 
 H                     8.828     12.479    18.74 
 C                     8.82      9.331     19.932 
 O                     8.308     8.942     21.215 
 C                     8.745     7.644     21.641 
 O                     8.20556   7.35694   22.93387 
 H                     8.28593   7.49434   11.74794 
 H                     9.13208   8.01943   13.56702 
 H                     6.57831   9.30412   14.26544 
 H                     6.64198   6.84483   14.70404 
 H                     8.06174   4.89474   15.13889 
 H                     9.33528   5.64011   14.22871 
 H                     6.87559   8.72441   16.72616 
 H                     9.30509   9.72678   15.28369 
 H                     7.2855    8.44874   18.81566 
 H                     9.88842   9.28973   19.9729 
 H                     8.74476   11.33334   20.54822 
 H                     7.34126   10.79918   19.70281 
 H                     9.7772    6.93825   19.26135 
 H                     7.18531   6.59168   20.6631 
 H                     9.81386   7.62199   21.68529 
 H                     8.92308   7.21869   23.55649 
 

 GradGradGradGradGradGradGradGradGradGradGradGradGradGradGradGradGradGrad
 Berny optimization.
 Initialization pass.
 Trust Radius=3.00D-01 FncErr=1.00D-07 GrdErr=1.00D-07
 Number of steps in this run=      2 maximum allowed number of steps=      2.
 GradGradGradGradGradGradGradGradGradGradGradGradGradGradGradGradGradGrad

                          Input orientation:                          
 ---------------------------------------------------------------------
 Center     Atomic      Atomic             Coordinates (Angstroms)
 Number     Number       Type             X           Y           Z
 ---------------------------------------------------------------------
      1          8           0        7.554000    7.655000   12.348000
      2          6           0        8.065000    8.002000   13.644000
      3          6           0        7.628000    9.391000   14.077000
      4          8           0        7.741000   10.438000   13.102000
      5          1           0        7.347000   10.073000   12.258000
      6          6           0        8.244000    9.753000   15.419000
      7          8           0        7.945000   10.999000   16.065000
      8          1           0        8.246000   11.125000   17.010000
      9          6           0        8.273000    5.549000   14.319000
     10          8           0        7.775000    4.937000   13.121000
     11          1           0        7.900000    3.947000   13.187000
     12          6           0        7.708000    6.921000   14.652000
     13          8           0        8.199000    7.331000   15.936000
     14          6           0        7.894000    8.652000   16.406000
     15          8           0        8.794000    8.770000   17.517000
     16          6           0        8.354000    8.394000   18.830000
     17          6           0        8.708000    6.973000   19.239000
     18          8           0        8.307000    5.974000   18.291000
     19          1           0        8.508000    6.370000   17.395000
     20          6           0        8.255000    6.608000   20.643000
     21          8           0        8.742000    5.343000   21.114000
     22          1           0        8.290000    5.216000   21.996000
     23          6           0        8.411000   10.776000   19.698000
     24          8           0        8.836000   11.500000   18.535000
     25          1           0        8.828000   12.479000   18.740000
     26          6           0        8.820000    9.331000   19.932000
     27          8           0        8.308000    8.942000   21.215000
     28          6           0        8.745000    7.644000   21.641000
     29          8           0        8.205561    7.356937   22.933865
     30          1           0        8.285926    7.494336   11.747940
     31          1           0        9.132085    8.019428   13.567016
     32          1           0        6.578313    9.304125   14.265439
     33          1           0        6.641985    6.844825   14.704043
     34          1           0        8.061737    4.894744   15.138888
     35          1           0        9.335284    5.640110   14.228713
     36          1           0        6.875591    8.724409   16.726156
     37          1           0        9.305085    9.726780   15.283685
     38          1           0        7.285497    8.448741   18.815663
     39          1           0        9.888421    9.289735   19.972901
     40          1           0        8.744755   11.333339   20.548224
     41          1           0        7.341262   10.799183   19.702813
     42          1           0        9.777202    6.938253   19.261355
     43          1           0        7.185313    6.591676   20.663104
     44          1           0        9.813856    7.621993   21.685292
     45          1           0        8.923075    7.218691   23.556490
 ---------------------------------------------------------------------
                    Distance matrix (angstroms):
                    1          2          3          4          5
     1  O    0.000000
     2  C    1.435669   0.000000
     3  C    2.451247   1.519138   0.000000
     4  O    2.889390   2.516513   1.435132   0.000000
     5  H    2.428513   2.593369   1.962867   1.000398   0.000000
     6  C    3.782690   2.499733   1.520350   2.467939   3.301353
     7  O    5.015108   3.854562   2.576489   3.022533   3.963373
     8  H    5.852692   4.595198   3.462827   3.999932   4.949385
     9  C    2.972716   2.552665   3.903275   5.066205   5.056854
    10  O    2.834412   3.122796   4.557813   5.501138   5.225557
    11  H    3.817447   4.084005   5.522972   6.493503   6.220669
    12  C    2.422992   1.520551   2.537307   3.843550   3.974501
    13  O    3.659883   2.391958   2.832935   4.230221   4.666064
    14  C    4.192490   2.842602   2.457869   3.758939   4.418637
    15  O    5.431334   4.015146   3.684942   4.835624   5.607914
    16  C    6.572857   5.208818   4.910407   6.112584   6.857425
    17  C    7.020165   5.725060   5.801669   7.113655   7.758652
    18  O    6.221898   5.076018   5.467607   6.868287   7.356663
    19  H    5.294672   4.114569   4.572742   5.963788   6.438082
    20  C    8.390151   7.139001   7.158951   8.473475   9.118054
    21  O    9.143273   7.957984   8.194307   9.547417  10.136452
    22  H    9.978693   8.807288   8.976605  10.328307  10.922836
    23  C    8.031039   6.668261   5.841828   6.638551   7.548503
    24  O    7.396385   6.062370   5.077490   5.643081   6.607131
    25  H    8.108743   6.826047   5.720080   6.093791   7.070963
    26  C    7.869485   6.471106   5.975407   7.002756   7.849240
    27  O    8.991584   7.633000   7.184361   8.269237   9.079126
    28  C    9.369015   8.033839   7.843073   9.040408   9.792606
    29  O   10.610085   9.313295   9.105770  10.313794  11.049354
    30  H    0.960000   1.975240   3.074853   3.285663   2.791281
    31  H    2.027106   1.070000   2.098467   2.828577   3.019472
    32  H    2.710747   2.071703   1.070000   1.997775   2.282950
    33  H    2.653129   2.118423   2.801502   4.084762   4.111117
    34  H    3.958013   3.448151   4.640265   5.914345   5.968644
    35  H    3.281743   2.744820   4.123956   5.179862   5.242852
    36  H    4.557645   3.381753   2.833459   4.101199   4.690985
    37  H    3.997101   2.683514   2.093192   2.777039   3.620599
    38  H    6.521717   5.249124   4.843562   6.067173   6.756105
    39  H    8.140086   6.711045   6.315173   7.289665   8.160394
    40  H    9.065967   7.695986   6.848107   7.566730   8.501176
    41  H    8.001526   6.712469   5.806459   6.622762   7.480148
    42  H    7.297317   5.968071   6.124751   7.371024   8.048571
    43  H    8.390920   7.213230   7.170004   8.501370   9.098986
    44  H    9.606928   8.238038   8.111317   9.268200  10.048216
    45  H   11.300220   9.980347   9.811059  11.002618  11.759548
                    6          7          8          9         10
     6  C    0.000000
     7  O    1.435003   0.000000
     8  H    2.100873   0.999751   0.000000
     9  C    4.345625   5.732242   6.191445   0.000000
    10  O    5.356736   6.741208   7.323763   1.434487   0.000000
    11  H    6.229751   7.616798   8.139946   1.996737   1.000040
    12  C    2.982584   4.322363   4.850075   1.520690   2.506932
    13  O    2.476974   3.679046   3.943364   2.407424   3.719575
    14  C    1.519497   2.372191   2.569912   3.758699   4.960505
    15  O    2.381259   2.792409   2.470502   4.568751   5.920732
    16  C    3.673405   3.820802   3.283660   5.333827   6.699162
    17  C    4.747220   5.183157   4.735081   5.140370   6.515037
    18  O    4.746914   5.507880   5.308247   3.994817   5.299745
    19  H    3.926698   4.849073   4.777750   3.192341   4.567040
    20  C    6.097649   6.350989   5.796728   6.412081   7.720306
    21  O    7.220050   7.623513   7.107767   6.814281   8.061512
    22  H    7.990207   8.290891   7.731650   7.684238   8.894307
    23  C    4.402756   3.669547   2.715579   7.501614   8.817899
    24  O    3.621040   2.673160   1.677602   7.314781   8.573802
    25  H    4.336032   3.182093   2.272650   8.238821   9.463812
    26  C    4.569139   4.301341   3.476492   6.790324   8.172453
    27  O    5.852814   5.557474   4.738286   7.685603   9.046378
    28  C    6.588791   6.556508   5.814854   7.630432   8.992172
    29  O    7.887699   7.779063   7.020834   8.802788  10.116017
    30  H    4.310453   5.570988   6.393168   3.224104   2.947254
    31  H    2.687715   4.065334   4.720578   2.721492   3.397348
    32  H    2.075260   2.824687   3.691799   4.120169   4.670501
    33  H    3.396336   4.561493   5.119590   2.118403   2.725719
    34  H    4.869737   6.175213   6.507773   1.070000   2.038597
    35  H    4.418546   5.832885   6.245488   1.070000   2.038597
    36  H    2.153880   2.598947   2.778745   4.222603   5.305710
    37  H    1.070000   2.019611   2.461066   4.410177   5.473606
    38  H    3.762598   3.808532   3.368285   5.440923   6.708288
    39  H    4.863821   4.687234   3.852860   6.969167   8.388170
    40  H    5.390470   4.566256   3.579273   8.513775   9.849733
    41  H    4.501165   3.692981   2.859362   7.577467   8.824601
    42  H    5.003719   5.483002   4.994200   5.349721   6.761493
    43  H    6.214130   6.414374   5.917876   6.520575   7.743967
    44  H    6.802356   6.817953   6.048767   7.806010   9.203978
    45  H    8.550006   8.448064   7.653379   9.409659  10.743540
                   11         12         13         14         15
    11  H    0.000000
    12  C    3.320808   0.000000
    13  O    4.370110   1.434516   0.000000
    14  C    5.700791   2.471330   1.434910   0.000000
    15  O    6.542894   3.578606   2.219078   1.434658   0.000000
    16  C    7.198984   4.476911   3.086945   2.480714   1.434902
    17  C    6.814414   4.695026   3.361109   3.392274   2.490359
    18  O    5.506832   3.807615   2.720136   3.300830   2.941745
    19  H    4.893655   2.909923   1.774171   2.561765   2.420058
    20  C    7.924575   6.024057   4.762532   4.718096   3.838833
    21  O    8.092905   6.731767   5.573031   5.816687   4.968445
    22  H    8.908476   7.561751   6.419120   6.573508   5.739893
    23  C    9.449311   6.388846   5.105449   3.951700   2.987890
    24  O    9.301882   6.108790   4.953901   3.678466   2.913930
    25  H   10.222134   6.989815   5.895758   4.578847   3.905581
    26  C    8.679221   5.909572   4.511503   3.708260   2.479440
    27  O    9.463893   6.893287   5.520421   4.835491   3.733763
    28  C    9.265633   7.102409   5.739609   5.398656   4.275237
    29  O   10.330654   8.308243   6.997916   6.662378   5.628982
    30  H    3.847522   3.016003   4.192145   4.815736   5.930220
    31  H    4.271664   2.100417   2.637549   3.161144   4.034852
    32  H    5.622159   2.665503   3.051331   2.595823   3.970794
    33  H    3.504485   1.070000   2.044109   2.780302   4.031153
    34  H    2.175832   2.113742   2.567016   3.968713   4.605349
    35  H    2.451902   2.113742   2.658022   3.986146   4.571874
    36  H    6.033132   2.871814   2.077823   1.070000   2.075525
    37  H    6.306838   3.289698   2.718217   2.099025   2.482807
    38  H    7.233612   4.455176   3.221225   2.493605   2.016262
    39  H    8.862680   6.219094   4.794514   4.136086   2.738491
    40  H   10.462277   7.437006   6.131001   5.007133   3.970069
    41  H    9.472086   6.378520   5.191617   3.973020   3.317500
    42  H    7.026327   5.052529   3.701751   3.825759   2.713809
    43  H    7.962237   6.042767   4.890774   4.782270   4.151017
    44  H    9.454596   7.375176   5.978862   5.711189   4.442148
    45  H   10.921400   8.991939   7.655636   7.364976   6.236879
                   16         17         18         19         20
    16  C    0.000000
    17  C    1.520473   0.000000
    18  O    2.479744   1.434401   0.000000
    19  H    2.485863   1.950370   1.000016   0.000000
    20  C    2.546874   1.519753   2.436507   3.266521   0.000000
    21  O    3.830901   2.484689   2.925186   3.865287   1.435003
    22  H    4.486350   3.295880   3.781782   4.748520   1.941520
    23  C    2.535862   3.842096   5.004964   4.972530   4.276632
    24  O    3.156990   4.583201   5.556622   5.265366   5.358441
    25  H    4.113393   5.529868   6.541259   6.263490   6.198256
    26  C    1.519713   2.460276   3.771671   3.911679   2.870449
    27  O    2.447579   2.818073   4.166389   4.609510   2.403653
    28  C    2.935490   2.494236   3.768719   4.439342   1.519671
    29  O    4.235474   3.748584   4.845513   5.634229   2.410687
    30  H    7.139300   7.521032   6.717403   5.762181   8.939163
    31  H    5.333359   5.783274   5.213498   4.214683   7.268490
    32  H    4.981627   5.891181   5.503020   4.703927   7.124159
    33  H    4.728050   4.985046   4.049305   3.308885   6.158662
    34  H    5.094558   4.641952   3.340772   2.732320   5.767828
    35  H    5.451484   5.222362   4.203692   3.352986   6.576238
    36  H    2.592493   3.569249   3.473099   2.941998   4.660861
    37  H    3.906049   4.856370   4.911566   4.044869   6.289016
    38  H    1.070000   2.092974   2.728201   2.798922   2.769011
    39  H    2.112585   2.701716   4.040270   4.132311   3.210732
    40  H    3.427053   4.552798   5.831741   5.885032   4.751596
    41  H    2.751790   4.089349   5.119400   5.128834   4.391456
    42  H    2.081050   1.070000   2.008200   2.327459   2.082092
    43  H    2.823911   2.119447   2.695660   3.532583   1.070000
    44  H    3.298464   2.761966   4.062969   4.656109   2.131804
    45  H    4.903560   4.329820   5.445566   6.233500   3.050851
                   21         22         23         24         25
    21  O    0.000000
    22  H    0.999178   0.000000
    23  C    5.624243   6.017395   0.000000
    24  O    6.675981   7.194810   1.434354   0.000000
    25  H    7.521022   7.977603   1.997964   1.000265   0.000000
    26  C    4.160211   4.634029   1.519889   2.580005   3.366130
    27  O    3.626480   3.807015   2.382321   3.742265   4.348148
    28  C    2.360580   2.495643   3.700842   4.952197   5.639141
    29  O    2.766879   2.338874   4.712008   6.075561   6.649170
    30  H    9.620776  10.498265   8.601652   7.900134   8.604047
    31  H    8.017007   8.922784   6.760741   6.073130   6.836667
    32  H    8.202124   8.910904   5.919280   5.305485   5.929808
    33  H    6.910361   7.651252   6.597208   6.415652   7.267155
    34  H    6.030394   6.868427   7.449608   7.467427   8.430665
    35  H    6.917184   7.848773   7.559416   7.289150   8.208500
    36  H    5.845561   6.486967   3.924075   3.849549   4.686621
    37  H    7.316226   8.150626   4.624546   3.733015   4.443921
    38  H    4.129089   4.644802   2.731558   3.434095   4.316020
    39  H    4.265338   4.821120   2.113606   2.839088   3.579937
    40  H    6.016998   6.302753   1.070000   2.022170   2.142229
    41  H    5.807189   6.109889   1.070000   2.022170   2.441144
    42  H    2.654952   3.557557   4.097007   4.714127   5.645589
    43  H    2.045916   2.211205   4.465681   5.598682   6.407600
    44  H    2.582452   2.864870   3.983101   5.091117   5.765169
    45  H    3.084925   2.616617   5.273008   6.599435   7.132914
                   26         27         28         29         30
    26  C    0.000000
    27  O    1.435115   0.000000
    28  C    2.402556   1.434311   0.000000
    29  O    3.644949   2.340388   1.430000   0.000000
    30  H    8.404606   9.577131   9.904836  11.187058   0.000000
    31  H    6.506200   7.747381   8.091971   9.435846   2.073824
    32  H    6.093914   7.170728   7.864442   9.032225   3.539644
    33  H    6.185172   7.040335   7.292649   8.392676   3.444263
    34  H    6.574896   7.304797   7.092441   8.175864   4.278629
    35  H    6.812905   7.795255   7.701040   8.944465   3.270098
    36  H    3.798172   4.716870   5.368208   6.494186   5.318342
    37  H    4.690286   6.065522   6.713205   8.083957   4.303950
    38  H    2.092674   2.654361   3.280287   4.358686   7.201698
    39  H    1.070000   2.039966   2.607376   3.915997   8.569798
    40  H    2.096367   2.520684   3.847776   4.668381   9.612152
    41  H    2.096367   2.582716   3.960079   4.799559   8.665703
    42  H    2.662938   3.160741   2.688165   4.016551   7.680139
    43  H    3.272707   2.662525   2.120445   2.604397   9.028084
    44  H    2.642439   2.056987   1.070000   2.053242  10.054940
    45  H    4.196356   2.971647   1.970203   0.960000  11.828939
                   31         32         33         34         35
    31  H    0.000000
    32  H    2.942786   0.000000
    33  H    2.978778   2.498916   0.000000
    34  H    3.657879   4.733509   2.451042   0.000000
    35  H    2.477961   4.585548   2.988501   1.733756   0.000000
    36  H    3.945748   2.545500   2.770623   4.311925   4.669070
    37  H    2.427330   2.941216   3.966580   4.991539   4.220753
    38  H    5.580546   4.683624   4.460054   5.172245   5.755880
    39  H    6.574275   6.597890   6.654157   6.783834   6.827989
    40  H    7.737525   6.948710   7.663084   8.436998   8.526301
    41  H    6.970085   5.690547   6.411992   7.497393   7.781898
    42  H    5.831862   6.386659   5.532396   4.910548   5.216124
    43  H    7.495523   6.975381   5.989132   5.845054   6.850492
    44  H    8.156541   8.267558   7.707308   7.305013   7.730295
    45  H   10.023694   9.806659   9.149260   8.774888   9.469386
                   36         37         38         39         40
    36  H    0.000000
    37  H    2.997985   0.000000
    38  H    2.147104   4.264621   0.000000
    39  H    4.465209   4.745528   2.970132   0.000000
    40  H    4.990841   5.532664   3.667711   2.411490   0.000000
    41  H    3.658145   4.953316   2.512911   2.973113   1.723321
    42  H    4.246991   4.880639   2.947678   2.459296   4.694546
    43  H    4.488211   6.577269   2.621405   3.881069   4.992837
    44  H    5.868709   6.757924   3.912912   2.391486   4.026163
    45  H    7.287855   8.653077   5.164312   4.250085   5.100175
                   41         42         43         44         45
    41  H    0.000000
    42  H    4.586444   0.000000
    43  H    4.318518   2.966969   0.000000
    44  H    4.487592   2.518792   3.002609   0.000000
    45  H    5.492985   4.388207   3.432877   2.111285   0.000000
 Stoichiometry    C12H22O11
 Framework group  C1[X(C12H22O11)]
 Deg. of freedom   129
 Full point group                 C1      NOp   1
 Largest Abelian subgroup         C1      NOp   1
 Largest concise Abelian subgroup C1      NOp   1
                         Standard orientation:                         
 ---------------------------------------------------------------------
 Center     Atomic      Atomic             Coordinates (Angstroms)
 Number     Number       Type             X           Y           Z
 ---------------------------------------------------------------------
      1          8           0        5.016031   -0.496233   -0.225145
      2          6           0        3.679839   -0.141005    0.161573
      3          6           0        3.293427    1.244739   -0.326462
      4          8           0        4.257516    2.290345   -0.134513
      5          1           0        5.132829    1.919394   -0.445995
      6          6           0        1.901858    1.616109    0.160450
      7          8           0        1.290211    2.860743   -0.208340
      8          1           0        0.322036    2.992050    0.003550
      9          6           0        2.980296   -2.590153    0.330122
     10          8           0        4.216809   -3.209995   -0.050117
     11          1           0        4.136272   -4.198557    0.077709
     12          6           0        2.705135   -1.222910   -0.276040
     13          8           0        1.382940   -0.804911    0.091265
     14          6           0        0.947356    0.514220   -0.268078
     15          8           0       -0.241042    0.643798    0.525121
     16          6           0       -1.509462    0.266810   -0.029799
     17          6           0       -1.954003   -1.149631    0.298705
     18          8           0       -0.976640   -2.154878   -0.004187
     19          1           0       -0.101492   -1.759181    0.274333
     20          6           0       -3.311811   -1.515518   -0.277607
     21          8           0       -3.829750   -2.774512    0.176165
     22          1           0       -4.667041   -2.903711   -0.353560
     23          6           0       -2.370943    2.651424   -0.075253
     24          8           0       -1.249335    3.376624    0.447673
     25          1           0       -1.449416    4.356010    0.411610
     26          6           0       -2.646344    1.211083    0.324288
     27          8           0       -3.878336    0.820316   -0.299452
     28          6           0       -4.346995   -0.472277    0.108972
     29          8           0       -5.585949   -0.761356   -0.543964
     30          1           0        5.545939   -0.651240    0.560201
     31          1           0        3.658765   -0.113340    1.231008
     32          1           0        3.201685    1.148080   -1.388131
     33          1           0        2.750747   -1.309371   -1.341565
     34          1           0        2.181003   -3.244384    0.050815
     35          1           0        2.973159   -2.488891    1.395296
     36          1           0        0.722126    0.577473   -1.312190
     37          1           0        1.939271    1.599923    1.229673
     38          1           0       -1.397077    0.311068   -1.092960
     39          1           0       -2.785128    1.180366    1.384805
     40          1           0       -3.246279    3.214130    0.173842
     41          1           0       -2.277621    2.664161   -1.141099
     42          1           0       -2.074369   -1.173868    1.361637
     43          1           0       -3.233855   -1.542247   -1.344429
     44          1           0       -4.489130   -0.483724    1.169427
     45          1           0       -6.272176   -0.891018    0.114732
 ---------------------------------------------------------------------
 Rotational constants (GHZ):      0.4027038      0.1457089      0.1091048
 Standard basis: 6-31+G(d,p) (6D, 7F)
 There are   547 symmetry adapted basis functions of A   symmetry.
 Integral buffers will be    131072 words long.
 Raffenetti 2 integral format.
 Two-electron integral symmetry is turned on.
   547 basis functions,   890 primitive gaussians,   547 cartesian basis functions
    91 alpha electrons       91 beta electrons
       nuclear repulsion energy      2282.4387191763 Hartrees.
 NAtoms=   45 NActive=   45 NUniq=   45 SFac= 1.00D+00 NAtFMM=   50 NAOKFM=F Big=F
 One-electron integrals computed using PRISM.
 NBasis=   547 RedAO= T  NBF=   547
 NBsUse=   547 1.00D-06 NBFU=   547
 Harris functional with IExCor=  402 diagonalized for initial guess.
 ExpMin= 4.38D-02 ExpMax= 5.48D+03 ExpMxC= 8.25D+02 IAcc=2 IRadAn=         0 AccDes= 0.00D+00
 HarFok:  IExCor=  402 AccDes= 0.00D+00 IRadAn=         0 IDoV= 1
 ScaDFX=  1.000000  1.000000  1.000000  1.000000
 FoFCou: FMM=F IPFlag=           0 FMFlag=      100000 FMFlg1=           0
         NFxFlg=           0 DoJE=T BraDBF=F KetDBF=T FulRan=T
         Omega=  0.000000  0.000000  1.000000  0.000000  0.000000 ICntrl=     500 IOpCl=  0
         NMat0=    1 NMatS0=    1 NMatT0=    0 NMatD0=    1 NMtDS0=    0 NMtDT0=    0
         I1Cent=           4 NGrid=           0.
 Petite list used in FoFCou.
 Initial guess orbital symmetries:
       Occupied  (A) (A) (A) (A) (A) (A) (A) (A) (A) (A) (A) (A)
                 (A) (A) (A) (A) (A) (A) (A) (A) (A) (A) (A) (A)
                 (A) (A) (A) (A) (A) (A) (A) (A) (A) (A) (A) (A)
                 (A) (A) (A) (A) (A) (A) (A) (A) (A) (A) (A) (A)
                 (A) (A) (A) (A) (A) (A) (A) (A) (A) (A) (A) (A)
                 (A) (A) (A) (A) (A) (A) (A) (A) (A) (A) (A) (A)
                 (A) (A) (A) (A) (A) (A) (A) (A) (A) (A) (A) (A)
                 (A) (A) (A) (A) (A) (A) (A)
       Virtual   (A) (A) (A) (A) (A) (A) (A) (A) (A) (A) (A) (A)
                 (A) (A) (A) (A) (A) (A) (A) (A) (A) (A) (A) (A)
                 (A) (A) (A) (A) (A) (A) (A) (A) (A) (A) (A) (A)
                 (A) (A) (A) (A) (A) (A) (A) (A) (A) (A) (A) (A)
                 (A) (A) (A) (A) (A) (A) (A) (A) (A) (A) (A) (A)
                 (A) (A) (A) (A) (A) (A) (A) (A) (A) (A) (A) (A)
                 (A) (A) (A) (A) (A) (A) (A) (A) (A) (A) (A) (A)
                 (A) (A) (A) (A) (A) (A) (A) (A) (A) (A) (A) (A)
                 (A) (A) (A) (A) (A) (A) (A) (A) (A) (A) (A) (A)
                 (A) (A) (A) (A) (A) (A) (A) (A) (A) (A) (A) (A)
                 (A) (A) (A) (A) (A) (A) (A) (A) (A) (A) (A) (A)
                 (A) (A) (A) (A) (A) (A) (A) (A) (A) (A) (A) (A)
                 (A) (A) (A) (A) (A) (A) (A) (A) (A) (A) (A) (A)
                 (A) (A) (A) (A) (A) (A) (A) (A) (A) (A) (A) (A)
                 (A) (A) (A) (A) (A) (A) (A) (A) (A) (A) (A) (A)
                 (A) (A) (A) (A) (A) (A) (A) (A) (A) (A) (A) (A)
                 (A) (A) (A) (A) (A) (A) (A) (A) (A) (A) (A) (A)
                 (A) (A) (A) (A) (A) (A) (A) (A) (A) (A) (A) (A)
                 (A) (A) (A) (A) (A) (A) (A) (A) (A) (A) (A) (A)
                 (A) (A) (A) (A) (A) (A) (A) (A) (A) (A) (A) (A)
                 (A) (A) (A) (A) (A) (A) (A) (A) (A) (A) (A) (A)
                 (A) (A) (A) (A) (A) (A) (A) (A) (A) (A) (A) (A)
                 (A) (A) (A) (A) (A) (A) (A) (A) (A) (A) (A) (A)
                 (A) (A) (A) (A) (A) (A) (A) (A) (A) (A) (A) (A)
                 (A) (A) (A) (A) (A) (A) (A) (A) (A) (A) (A) (A)
                 (A) (A) (A) (A) (A) (A) (A) (A) (A) (A) (A) (A)
                 (A) (A) (A) (A) (A) (A) (A) (A) (A) (A) (A) (A)
                 (A) (A) (A) (A) (A) (A) (A) (A) (A) (A) (A) (A)
                 (A) (A) (A) (A) (A) (A) (A) (A) (A) (A) (A) (A)
                 (A) (A) (A) (A) (A) (A) (A) (A) (A) (A) (A) (A)
                 (A) (A) (A) (A) (A) (A) (A) (A) (A) (A) (A) (A)
                 (A) (A) (A) (A) (A) (A) (A) (A) (A) (A) (A) (A)
                 (A) (A) (A) (A) (A) (A) (A) (A) (A) (A) (A) (A)
                 (A) (A) (A) (A) (A) (A) (A) (A) (A) (A) (A) (A)
                 (A) (A) (A) (A) (A) (A) (A) (A) (A) (A) (A) (A)
                 (A) (A) (A) (A) (A) (A) (A) (A) (A) (A) (A) (A)
                 (A) (A) (A) (A) (A) (A) (A) (A) (A) (A) (A) (A)
                 (A) (A) (A) (A) (A) (A) (A) (A) (A) (A) (A) (A)
 The electronic state of the initial guess is 1-A.
 Requested convergence on RMS density matrix=1.00D-08 within 128 cycles.
 Requested convergence on MAX density matrix=1.00D-06.
 Requested convergence on             energy=1.00D-06.
 No special actions if energy rises.
 SCF Done:  E(RB3LYP) =  -1297.94358798     A.U. after   14 cycles
             Convg  =    0.2397D-08             -V/T =  2.0088
 Range of M.O.s used for correlation:     1   547
 NBasis=   547 NAE=    91 NBE=    91 NFC=     0 NFV=     0
 NROrb=    547 NOA=    91 NOB=    91 NVA=   456 NVB=   456

 **** Warning!!: The largest alpha MO coefficient is  0.80213426D+02

          Differentiating once with respect to electric field.
                with respect to dipole field.
          Electric field/nuclear overlap derivatives assumed to be zero.
          There are     3 degrees of freedom in the 1st order CPHF.  IDoFFX=0.
      3 vectors produced by pass  0 Test12= 1.38D-12 3.33D-08 XBig12= 1.20D+02 1.25D+00.
 AX will form     3 AO Fock derivatives at one time.
      3 vectors produced by pass  1 Test12= 1.38D-12 3.33D-08 XBig12= 2.09D+01 3.68D-01.
      3 vectors produced by pass  2 Test12= 1.38D-12 3.33D-08 XBig12= 8.60D+00 1.95D-01.
      3 vectors produced by pass  3 Test12= 1.38D-12 3.33D-08 XBig12= 8.00D-01 8.90D-02.
      3 vectors produced by pass  4 Test12= 1.38D-12 3.33D-08 XBig12= 2.19D-01 3.98D-02.
      3 vectors produced by pass  5 Test12= 1.38D-12 3.33D-08 XBig12= 5.44D-02 1.73D-02.
      3 vectors produced by pass  6 Test12= 1.38D-12 3.33D-08 XBig12= 1.52D-02 1.29D-02.
      3 vectors produced by pass  7 Test12= 1.38D-12 3.33D-08 XBig12= 1.82D-03 6.22D-03.
      3 vectors produced by pass  8 Test12= 1.38D-12 3.33D-08 XBig12= 3.95D-04 1.81D-03.
      3 vectors produced by pass  9 Test12= 1.38D-12 3.33D-08 XBig12= 1.16D-04 1.04D-03.
      3 vectors produced by pass 10 Test12= 1.38D-12 3.33D-08 XBig12= 2.40D-05 3.23D-04.
      3 vectors produced by pass 11 Test12= 1.38D-12 3.33D-08 XBig12= 5.64D-06 2.53D-04.
      3 vectors produced by pass 12 Test12= 1.38D-12 3.33D-08 XBig12= 5.61D-07 7.01D-05.
      3 vectors produced by pass 13 Test12= 1.38D-12 3.33D-08 XBig12= 1.47D-07 3.23D-05.
      3 vectors produced by pass 14 Test12= 1.38D-12 3.33D-08 XBig12= 3.02D-08 1.38D-05.
      3 vectors produced by pass 15 Test12= 1.38D-12 3.33D-08 XBig12= 1.04D-08 1.19D-05.
      3 vectors produced by pass 16 Test12= 1.38D-12 3.33D-08 XBig12= 9.38D-10 2.26D-06.
      3 vectors produced by pass 17 Test12= 1.38D-12 3.33D-08 XBig12= 1.39D-10 9.16D-07.
      3 vectors produced by pass 18 Test12= 1.38D-12 3.33D-08 XBig12= 2.06D-11 3.74D-07.
      3 vectors produced by pass 19 Test12= 1.38D-12 3.33D-08 XBig12= 4.44D-12 1.77D-07.
      2 vectors produced by pass 20 Test12= 1.38D-12 3.33D-08 XBig12= 1.89D-12 9.57D-08.
      1 vectors produced by pass 21 Test12= 1.38D-12 3.33D-08 XBig12= 6.32D-13 5.64D-08.
 Inverted reduced A of dimension    63 with in-core refinement.
 End of Minotr Frequency-dependent properties file   721 does not exist.
 End of Minotr Frequency-dependent properties file   722 does not exist.
 Symmetrizing basis deriv contribution to polar:
 IMax=3 JMax=2 DiffMx= 0.00D+00
 G2DrvN: will do    23 centers at a time, making    2 passes doing MaxLOS=2.
 Calling FoFCou, ICntrl=  3107 FMM=F I1Cent=   0 AccDes= 0.00D+00.
 Calling FoFCou, ICntrl=  3107 FMM=F I1Cent=   0 AccDes= 0.00D+00.
 FoFDir/FoFCou used for L=0 through L=2.
 End of G2Drv Frequency-dependent properties file   721 does not exist.
 End of G2Drv Frequency-dependent properties file   722 does not exist.
          IDoAtm=111111111111111111111111111111111111111111111
          Differentiating once with respect to electric field.
                with respect to dipole field.
          Differentiating once with respect to nuclear coordinates.
          There are   138 degrees of freedom in the 1st order CPHF.  IDoFFX=5.
 Will reuse    3 saved solutions.
    135 vectors produced by pass  0 Test12= 4.15D-14 1.00D-09 XBig12= 2.18D-01 6.99D-02.
 AX will form    68 AO Fock derivatives at one time.
    135 vectors produced by pass  1 Test12= 4.15D-14 1.00D-09 XBig12= 3.61D-02 1.70D-02.
    132 vectors produced by pass  2 Test12= 4.15D-14 1.00D-09 XBig12= 2.17D-04 1.98D-03.
    132 vectors produced by pass  3 Test12= 4.15D-14 1.00D-09 XBig12= 7.27D-07 1.10D-04.
    132 vectors produced by pass  4 Test12= 4.15D-14 1.00D-09 XBig12= 1.34D-09 3.19D-06.
    132 vectors produced by pass  5 Test12= 4.15D-14 1.00D-09 XBig12= 3.19D-12 1.37D-07.
     78 vectors produced by pass  6 Test12= 4.15D-14 1.00D-09 XBig12= 1.49D-13 3.02D-08.
      1 vectors produced by pass  7 Test12= 4.15D-14 1.00D-09 XBig12= 2.21D-16 1.11D-09.
 Inverted reduced A of dimension   877 with in-core refinement.
 Isotropic polarizability for W=    0.000000      188.53 Bohr**3.
 End of Minotr Frequency-dependent properties file   721 does not exist.
 End of Minotr Frequency-dependent properties file   722 does not exist.

 **********************************************************************

            Population analysis using the SCF density.

 **********************************************************************

 Orbital symmetries:
       Occupied  (A) (A) (A) (A) (A) (A) (A) (A) (A) (A) (A) (A)
                 (A) (A) (A) (A) (A) (A) (A) (A) (A) (A) (A) (A)
                 (A) (A) (A) (A) (A) (A) (A) (A) (A) (A) (A) (A)
                 (A) (A) (A) (A) (A) (A) (A) (A) (A) (A) (A) (A)
                 (A) (A) (A) (A) (A) (A) (A) (A) (A) (A) (A) (A)
                 (A) (A) (A) (A) (A) (A) (A) (A) (A) (A) (A) (A)
                 (A) (A) (A) (A) (A) (A) (A) (A) (A) (A) (A) (A)
                 (A) (A) (A) (A) (A) (A) (A)
       Virtual   (A) (A) (A) (A) (A) (A) (A) (A) (A) (A) (A) (A)
                 (A) (A) (A) (A) (A) (A) (A) (A) (A) (A) (A) (A)
                 (A) (A) (A) (A) (A) (A) (A) (A) (A) (A) (A) (A)
                 (A) (A) (A) (A) (A) (A) (A) (A) (A) (A) (A) (A)
                 (A) (A) (A) (A) (A) (A) (A) (A) (A) (A) (A) (A)
                 (A) (A) (A) (A) (A) (A) (A) (A) (A) (A) (A) (A)
                 (A) (A) (A) (A) (A) (A) (A) (A) (A) (A) (A) (A)
                 (A) (A) (A) (A) (A) (A) (A) (A) (A) (A) (A) (A)
                 (A) (A) (A) (A) (A) (A) (A) (A) (A) (A) (A) (A)
                 (A) (A) (A) (A) (A) (A) (A) (A) (A) (A) (A) (A)
                 (A) (A) (A) (A) (A) (A) (A) (A) (A) (A) (A) (A)
                 (A) (A) (A) (A) (A) (A) (A) (A) (A) (A) (A) (A)
                 (A) (A) (A) (A) (A) (A) (A) (A) (A) (A) (A) (A)
                 (A) (A) (A) (A) (A) (A) (A) (A) (A) (A) (A) (A)
                 (A) (A) (A) (A) (A) (A) (A) (A) (A) (A) (A) (A)
                 (A) (A) (A) (A) (A) (A) (A) (A) (A) (A) (A) (A)
                 (A) (A) (A) (A) (A) (A) (A) (A) (A) (A) (A) (A)
                 (A) (A) (A) (A) (A) (A) (A) (A) (A) (A) (A) (A)
                 (A) (A) (A) (A) (A) (A) (A) (A) (A) (A) (A) (A)
                 (A) (A) (A) (A) (A) (A) (A) (A) (A) (A) (A) (A)
                 (A) (A) (A) (A) (A) (A) (A) (A) (A) (A) (A) (A)
                 (A) (A) (A) (A) (A) (A) (A) (A) (A) (A) (A) (A)
                 (A) (A) (A) (A) (A) (A) (A) (A) (A) (A) (A) (A)
                 (A) (A) (A) (A) (A) (A) (A) (A) (A) (A) (A) (A)
                 (A) (A) (A) (A) (A) (A) (A) (A) (A) (A) (A) (A)
                 (A) (A) (A) (A) (A) (A) (A) (A) (A) (A) (A) (A)
                 (A) (A) (A) (A) (A) (A) (A) (A) (A) (A) (A) (A)
                 (A) (A) (A) (A) (A) (A) (A) (A) (A) (A) (A) (A)
                 (A) (A) (A) (A) (A) (A) (A) (A) (A) (A) (A) (A)
                 (A) (A) (A) (A) (A) (A) (A) (A) (A) (A) (A) (A)
                 (A) (A) (A) (A) (A) (A) (A) (A) (A) (A) (A) (A)
                 (A) (A) (A) (A) (A) (A) (A) (A) (A) (A) (A) (A)
                 (A) (A) (A) (A) (A) (A) (A) (A) (A) (A) (A) (A)
                 (A) (A) (A) (A) (A) (A) (A) (A) (A) (A) (A) (A)
                 (A) (A) (A) (A) (A) (A) (A) (A) (A) (A) (A) (A)
                 (A) (A) (A) (A) (A) (A) (A) (A) (A) (A) (A) (A)
                 (A) (A) (A) (A) (A) (A) (A) (A) (A) (A) (A) (A)
                 (A) (A) (A) (A) (A) (A) (A) (A) (A) (A) (A) (A)
 The electronic state is 1-A.
 Alpha  occ. eigenvalues --  -19.20289 -19.19688 -19.19288 -19.19168 -19.18949
 Alpha  occ. eigenvalues --  -19.17546 -19.17278 -19.16710 -19.16289 -19.14340
 Alpha  occ. eigenvalues --  -19.13515 -10.31321 -10.31304 -10.27128 -10.26243
 Alpha  occ. eigenvalues --  -10.26126 -10.26036 -10.25671 -10.25012 -10.24945
 Alpha  occ. eigenvalues --  -10.24902 -10.24883 -10.24563  -1.10171  -1.09464
 Alpha  occ. eigenvalues --   -1.06096  -1.05181  -1.04400  -1.03719  -1.02906
 Alpha  occ. eigenvalues --   -1.02749  -1.01876  -1.00567  -0.99472  -0.82617
 Alpha  occ. eigenvalues --   -0.80784  -0.79681  -0.78824  -0.72281  -0.70322
 Alpha  occ. eigenvalues --   -0.67548  -0.64859  -0.63294  -0.63159  -0.61410
 Alpha  occ. eigenvalues --   -0.60328  -0.56636  -0.56388  -0.55614  -0.54977
 Alpha  occ. eigenvalues --   -0.54347  -0.53569  -0.53107  -0.51970  -0.51256
 Alpha  occ. eigenvalues --   -0.50827  -0.50114  -0.49999  -0.49001  -0.46997
 Alpha  occ. eigenvalues --   -0.46417  -0.45528  -0.44884  -0.44024  -0.43619
 Alpha  occ. eigenvalues --   -0.42717  -0.41796  -0.41553  -0.40308  -0.39324
 Alpha  occ. eigenvalues --   -0.38783  -0.38054  -0.37772  -0.36382  -0.35694
 Alpha  occ. eigenvalues --   -0.35022  -0.34948  -0.34770  -0.33855  -0.33348
 Alpha  occ. eigenvalues --   -0.32499  -0.31650  -0.31048  -0.30294  -0.29996
 Alpha  occ. eigenvalues --   -0.29235  -0.28978  -0.27961  -0.27346  -0.26581
 Alpha  occ. eigenvalues --   -0.26354
 Alpha virt. eigenvalues --   -0.02340  -0.01917  -0.01849  -0.00083   0.00334
 Alpha virt. eigenvalues --    0.01091   0.01881   0.02034   0.03076   0.03253
 Alpha virt. eigenvalues --    0.03718   0.04412   0.04706   0.05384   0.05551
 Alpha virt. eigenvalues --    0.06367   0.06598   0.07157   0.07646   0.08161
 Alpha virt. eigenvalues --    0.08664   0.08841   0.09073   0.09840   0.09983
 Alpha virt. eigenvalues --    0.10546   0.11017   0.11207   0.11743   0.12201
 Alpha virt. eigenvalues --    0.12699   0.12778   0.13256   0.13431   0.13810
 Alpha virt. eigenvalues --    0.13971   0.14274   0.14685   0.14884   0.15250
 Alpha virt. eigenvalues --    0.15486   0.16531   0.16786   0.17044   0.17333
 Alpha virt. eigenvalues --    0.17502   0.17623   0.17748   0.18298   0.18709
 Alpha virt. eigenvalues --    0.18850   0.19007   0.19517   0.19838   0.20086
 Alpha virt. eigenvalues --    0.20474   0.20860   0.21206   0.21545   0.21758
 Alpha virt. eigenvalues --    0.22174   0.22589   0.22764   0.22966   0.23380
 Alpha virt. eigenvalues --    0.23682   0.24000   0.24067   0.24471   0.24886
 Alpha virt. eigenvalues --    0.25141   0.25312   0.25862   0.25930   0.26108
 Alpha virt. eigenvalues --    0.26351   0.26635   0.26952   0.27057   0.27437
 Alpha virt. eigenvalues --    0.27670   0.27893   0.28095   0.28756   0.28805
 Alpha virt. eigenvalues --    0.29023   0.29381   0.29884   0.30289   0.30644
 Alpha virt. eigenvalues --    0.31011   0.31462   0.31804   0.32020   0.32384
 Alpha virt. eigenvalues --    0.32699   0.32959   0.33214   0.33703   0.33797
 Alpha virt. eigenvalues --    0.34176   0.34404   0.34776   0.35136   0.35716
 Alpha virt. eigenvalues --    0.36059   0.36419   0.36833   0.37248   0.37837
 Alpha virt. eigenvalues --    0.38037   0.38277   0.38459   0.39384   0.39614
 Alpha virt. eigenvalues --    0.40047   0.40548   0.40890   0.41107   0.41569
 Alpha virt. eigenvalues --    0.41951   0.42779   0.43019   0.43634   0.44162
 Alpha virt. eigenvalues --    0.44587   0.45705   0.46321   0.46638   0.47050
 Alpha virt. eigenvalues --    0.48078   0.48406   0.48590   0.49758   0.50497
 Alpha virt. eigenvalues --    0.50985   0.51434   0.56066   0.62665   0.62793
 Alpha virt. eigenvalues --    0.63785   0.66200   0.67618   0.68662   0.69909
 Alpha virt. eigenvalues --    0.70185   0.70849   0.71482   0.72497   0.73452
 Alpha virt. eigenvalues --    0.74783   0.75880   0.76542   0.77683   0.78878
 Alpha virt. eigenvalues --    0.79115   0.79637   0.81133   0.81971   0.82820
 Alpha virt. eigenvalues --    0.85050   0.85922   0.87946   0.88166   0.89395
 Alpha virt. eigenvalues --    0.90883   0.91996   0.92863   0.93744   0.95403
 Alpha virt. eigenvalues --    0.96553   0.97174   0.97303   0.99736   1.01605
 Alpha virt. eigenvalues --    1.01812   1.02207   1.02910   1.03608   1.04305
 Alpha virt. eigenvalues --    1.04614   1.05982   1.06596   1.07044   1.07374
 Alpha virt. eigenvalues --    1.07734   1.08386   1.09240   1.09678   1.10362
 Alpha virt. eigenvalues --    1.11695   1.12474   1.13604   1.14755   1.15817
 Alpha virt. eigenvalues --    1.16893   1.17291   1.19962   1.20431   1.20928
 Alpha virt. eigenvalues --    1.22495   1.23642   1.23877   1.24830   1.25274
 Alpha virt. eigenvalues --    1.26189   1.26698   1.26951   1.27966   1.28592
 Alpha virt. eigenvalues --    1.28941   1.29210   1.30061   1.30502   1.31231
 Alpha virt. eigenvalues --    1.31878   1.32780   1.33193   1.34143   1.34186
 Alpha virt. eigenvalues --    1.34921   1.36049   1.37146   1.37830   1.38819
 Alpha virt. eigenvalues --    1.39061   1.39635   1.41469   1.42487   1.43411
 Alpha virt. eigenvalues --    1.43911   1.45418   1.46056   1.46594   1.47846
 Alpha virt. eigenvalues --    1.49151   1.49510   1.50757   1.51787   1.53235
 Alpha virt. eigenvalues --    1.53620   1.54684   1.57067   1.57577   1.58491
 Alpha virt. eigenvalues --    1.58764   1.59078   1.59599   1.60179   1.61090
 Alpha virt. eigenvalues --    1.62071   1.63642   1.63967   1.64672   1.65025
 Alpha virt. eigenvalues --    1.66590   1.66828   1.67308   1.68683   1.69540
 Alpha virt. eigenvalues --    1.69904   1.71639   1.72230   1.73318   1.73690
 Alpha virt. eigenvalues --    1.74750   1.75842   1.76225   1.77045   1.77457
 Alpha virt. eigenvalues --    1.78083   1.78351   1.79844   1.80382   1.83042
 Alpha virt. eigenvalues --    1.83217   1.83732   1.84720   1.85667   1.86669
 Alpha virt. eigenvalues --    1.87122   1.87548   1.88776   1.89839   1.90727
 Alpha virt. eigenvalues --    1.92160   1.93145   1.93536   1.93686   1.94107
 Alpha virt. eigenvalues --    1.95106   1.95843   1.96408   1.97228   1.97720
 Alpha virt. eigenvalues --    1.98752   1.99107   1.99733   2.00256   2.00773
 Alpha virt. eigenvalues --    2.02660   2.04346   2.05050   2.05569   2.06925
 Alpha virt. eigenvalues --    2.07115   2.08391   2.09471   2.10803   2.11268
 Alpha virt. eigenvalues --    2.12184   2.12643   2.13652   2.14450   2.14810
 Alpha virt. eigenvalues --    2.16760   2.16987   2.17838   2.18601   2.19312
 Alpha virt. eigenvalues --    2.21285   2.21934   2.23090   2.25826   2.27279
 Alpha virt. eigenvalues --    2.29567   2.30712   2.32101   2.33676   2.34259
 Alpha virt. eigenvalues --    2.35215   2.35770   2.36919   2.37896   2.38340
 Alpha virt. eigenvalues --    2.40416   2.41095   2.42297   2.43134   2.45179
 Alpha virt. eigenvalues --    2.46201   2.46535   2.47256   2.48242   2.49955
 Alpha virt. eigenvalues --    2.50310   2.51491   2.53169   2.53930   2.54598
 Alpha virt. eigenvalues --    2.55432   2.57524   2.58872   2.59746   2.60505
 Alpha virt. eigenvalues --    2.61518   2.62091   2.62328   2.63709   2.64116
 Alpha virt. eigenvalues --    2.64436   2.66235   2.66884   2.68461   2.69907
 Alpha virt. eigenvalues --    2.70980   2.71623   2.73120   2.74280   2.75678
 Alpha virt. eigenvalues --    2.76522   2.77249   2.77758   2.78335   2.80939
 Alpha virt. eigenvalues --    2.82010   2.82549   2.83185   2.84582   2.85770
 Alpha virt. eigenvalues --    2.86577   2.87379   2.88206   2.88834   2.89312
 Alpha virt. eigenvalues --    2.89929   2.91159   2.92020   2.92413   2.94553
 Alpha virt. eigenvalues --    2.95221   2.96204   2.97610   2.99780   3.00395
 Alpha virt. eigenvalues --    3.01851   3.03172   3.04009   3.04948   3.07484
 Alpha virt. eigenvalues --    3.08180   3.08849   3.11333   3.12754   3.15113
 Alpha virt. eigenvalues --    3.17732   3.20009   3.22075   3.23645   3.29961
 Alpha virt. eigenvalues --    3.31669   3.35974   3.37219   3.38270   3.40967
 Alpha virt. eigenvalues --    3.42636   3.44368   3.45561   3.46436   3.48905
 Alpha virt. eigenvalues --    3.49196   3.49901   3.52442   3.52760   3.53974
 Alpha virt. eigenvalues --    3.55835   3.57114   3.61070   3.62003   3.66449
 Alpha virt. eigenvalues --    3.67237   3.71110   3.72825   4.28824   4.31476
 Alpha virt. eigenvalues --    4.34649   4.38548   4.41984   4.43341   4.46055
 Alpha virt. eigenvalues --    4.47230   4.49314   4.51049   4.53180   4.55834
 Alpha virt. eigenvalues --    4.56561   4.57651   4.61230   4.64076   4.67616
 Alpha virt. eigenvalues --    4.75309   4.82506   4.83472   4.86224   4.88047
 Alpha virt. eigenvalues --    4.91027
          Condensed to atoms (all electrons):
              1          2          3          4          5          6
     1  O    8.256572   0.402968  -0.170707  -0.004875   0.025946   0.057206
     2  C    0.402968   8.582426  -1.153660  -0.079914  -0.116625  -2.061838
     3  C   -0.170707  -1.153660   9.894352   0.316230   0.049007  -0.126539
     4  O   -0.004875  -0.079914   0.316230   8.197832   0.199659  -0.147163
     5  H    0.025946  -0.116625   0.049007   0.199659   0.421966   0.054356
     6  C    0.057206  -2.061838  -0.126539  -0.147163   0.054356   9.902982
     7  O   -0.001113   0.015706  -0.173164   0.014382  -0.001006   0.368413
     8  H    0.000010  -0.004361   0.033590  -0.000614   0.000004  -0.010662
     9  C    0.032802   0.203104  -0.079272   0.003572  -0.004294   0.130305
    10  O   -0.014547   0.052852   0.009824   0.000115  -0.000031  -0.010266
    11  H    0.001630  -0.016382  -0.001493   0.000001   0.000000  -0.000006
    12  C   -0.297001  -1.271804  -0.965713   0.035350   0.013788   0.236588
    13  O    0.006308  -0.056551   0.013880   0.000031  -0.000225  -0.120068
    14  C    0.030965   0.816078  -0.706470  -0.011897   0.005668  -2.066958
    15  O    0.000138  -0.040681   0.045293  -0.000457   0.000071   0.121800
    16  C    0.002424   0.101485  -0.466450  -0.000828   0.001256  -0.191287
    17  C    0.001017  -0.047807  -0.056204   0.000620   0.000060   0.099301
    18  O    0.000025   0.011772  -0.001097  -0.000017   0.000000   0.000206
    19  H   -0.000036  -0.006938   0.004156   0.000000   0.000000   0.007440
    20  C    0.000067   0.001338  -0.002333  -0.000074   0.000002   0.068600
    21  O    0.000000  -0.000020  -0.000050   0.000000   0.000000  -0.000220
    22  H    0.000000   0.000000   0.000001   0.000000   0.000000  -0.000026
    23  C    0.000091   0.007008  -0.015900  -0.000115   0.000004  -0.116549
    24  O   -0.000002   0.002558  -0.003252  -0.000059  -0.000003  -0.017230
    25  H    0.000000   0.000024   0.000756   0.000000   0.000000  -0.001705
    26  C   -0.000168   0.041415  -0.130803   0.000801   0.000003  -0.186429
    27  O    0.000000  -0.000248   0.000295   0.000001   0.000000   0.005026
    28  C    0.000000  -0.001319   0.001050   0.000010   0.000000   0.004860
    29  O    0.000000   0.000003   0.000031   0.000000   0.000000  -0.000332
    30  H    0.243822   0.034754  -0.005908   0.000151  -0.001910   0.000554
    31  H   -0.049167   0.437836  -0.123106   0.003694  -0.000206  -0.019360
    32  H   -0.000880   0.086652   0.147452  -0.047237  -0.005827  -0.208113
    33  H    0.007381   0.008558  -0.051858  -0.000081   0.000010  -0.008724
    34  H   -0.000134  -0.006085  -0.005267   0.000015   0.000000   0.001206
    35  H    0.003727  -0.006472   0.002861  -0.000007   0.000000   0.013126
    36  H   -0.000042   0.025292  -0.057919  -0.000080   0.000003  -0.081445
    37  H   -0.001022   0.094135  -0.260307   0.005376  -0.000178   0.301617
    38  H   -0.000001  -0.000937   0.003526   0.000002   0.000000   0.013523
    39  H    0.000000  -0.000221   0.001255   0.000000   0.000000   0.002762
    40  H    0.000000  -0.000009   0.000054   0.000000   0.000000   0.000848
    41  H    0.000000  -0.000004   0.000213   0.000001   0.000000   0.000557
    42  H    0.000000   0.000534   0.000678   0.000000   0.000000   0.003377
    43  H    0.000000   0.000053   0.000045   0.000000   0.000000   0.000071
    44  H    0.000000  -0.000008   0.000023   0.000000   0.000000   0.000044
    45  H    0.000000   0.000000   0.000000   0.000000   0.000000   0.000004
              7          8          9         10         11         12
     1  O   -0.001113   0.000010   0.032802  -0.014547   0.001630  -0.297001
     2  C    0.015706  -0.004361   0.203104   0.052852  -0.016382  -1.271804
     3  C   -0.173164   0.033590  -0.079272   0.009824  -0.001493  -0.965713
     4  O    0.014382  -0.000614   0.003572   0.000115   0.000001   0.035350
     5  H   -0.001006   0.000004  -0.004294  -0.000031   0.000000   0.013788
     6  C    0.368413  -0.010662   0.130305  -0.010266  -0.000006   0.236588
     7  O    8.267091   0.219763  -0.000153   0.000027   0.000000   0.035031
     8  H    0.219763   0.319450  -0.000144   0.000000   0.000000  -0.003649
     9  C   -0.000153  -0.000144   6.982978   0.034145   0.019830  -2.044128
    10  O    0.000027   0.000000   0.034145   8.372351   0.185818   0.005924
    11  H    0.000000   0.000000   0.019830   0.185818   0.437891   0.024505
    12  C    0.035031  -0.003649  -2.044128   0.005924   0.024505  10.893143
    13  O    0.013157   0.000930   0.077866   0.000399  -0.000302  -0.211813
    14  C   -0.124429  -0.036534  -0.246379   0.013067  -0.003061  -0.533377
    15  O   -0.006060   0.019986  -0.008166  -0.000121   0.000005   0.025110
    16  C    0.026396   0.019232  -0.183136  -0.002250  -0.000010   0.252665
    17  C    0.002345   0.000847   0.028987   0.000276  -0.000005  -0.169505
    18  O   -0.000124  -0.000011   0.012684  -0.000093   0.000004  -0.042745
    19  H   -0.000056  -0.000006  -0.004628  -0.000029  -0.000004   0.016759
    20  C    0.002936   0.001477   0.010831   0.000198   0.000006  -0.029753
    21  O   -0.000004   0.000000   0.000082   0.000000   0.000000   0.000014
    22  H    0.000000   0.000000   0.000008   0.000000   0.000000   0.000002
    23  C    0.016879   0.033161  -0.002999  -0.000015   0.000000  -0.004876
    24  O   -0.026624  -0.012385   0.000432   0.000000   0.000000   0.003681
    25  H    0.002165  -0.001112  -0.000010   0.000000   0.000000  -0.000193
    26  C   -0.014965  -0.048329   0.004560   0.000026   0.000004   0.062678
    27  O    0.000111   0.000070  -0.000062   0.000000   0.000000  -0.000193
    28  C   -0.000355  -0.000424  -0.001373  -0.000003   0.000000   0.001728
    29  O   -0.000002   0.000000  -0.000001   0.000000   0.000000   0.000033
    30  H   -0.000013   0.000000  -0.014549   0.000190  -0.000057  -0.001448
    31  H    0.000526   0.000001   0.022352   0.000368   0.000007  -0.122310
    32  H    0.007241  -0.000078   0.026573   0.000169   0.000001   0.038318
    33  H    0.000084   0.000001   0.060463   0.007044  -0.000163   0.197795
    34  H   -0.000010   0.000000   0.387990  -0.038228  -0.012372  -0.010361
    35  H   -0.000003   0.000000   0.612028  -0.066876  -0.001320  -0.276531
    36  H    0.002576  -0.000877   0.009034   0.000075   0.000000   0.001879
    37  H   -0.051152  -0.002799   0.015069   0.000047   0.000000   0.025199
    38  H   -0.000429   0.000130   0.000236   0.000001   0.000000  -0.001919
    39  H   -0.000003   0.000024   0.000080   0.000000   0.000000   0.000126
    40  H   -0.000583   0.000309  -0.000003   0.000000   0.000000   0.000002
    41  H    0.001278   0.000537   0.000006   0.000000   0.000000   0.000097
    42  H    0.000003   0.000003  -0.000530   0.000000   0.000000   0.000110
    43  H    0.000001   0.000000  -0.000084   0.000000   0.000000   0.000460
    44  H    0.000000   0.000000   0.000004   0.000000   0.000000   0.000033
    45  H    0.000000   0.000000   0.000000   0.000000   0.000000   0.000000
             13         14         15         16         17         18
     1  O    0.006308   0.030965   0.000138   0.002424   0.001017   0.000025
     2  C   -0.056551   0.816078  -0.040681   0.101485  -0.047807   0.011772
     3  C    0.013880  -0.706470   0.045293  -0.466450  -0.056204  -0.001097
     4  O    0.000031  -0.011897  -0.000457  -0.000828   0.000620  -0.000017
     5  H   -0.000225   0.005668   0.000071   0.001256   0.000060   0.000000
     6  C   -0.120068  -2.066958   0.121800  -0.191287   0.099301   0.000206
     7  O    0.013157  -0.124429  -0.006060   0.026396   0.002345  -0.000124
     8  H    0.000930  -0.036534   0.019986   0.019232   0.000847  -0.000011
     9  C    0.077866  -0.246379  -0.008166  -0.183136   0.028987   0.012684
    10  O    0.000399   0.013067  -0.000121  -0.002250   0.000276  -0.000093
    11  H   -0.000302  -0.003061   0.000005  -0.000010  -0.000005   0.000004
    12  C   -0.211813  -0.533377   0.025110   0.252665  -0.169505  -0.042745
    13  O    8.584416   0.156124  -0.054267   0.103566  -0.079573   0.024659
    14  C    0.156124   9.746745   0.034728  -0.824388  -0.242330  -0.047651
    15  O   -0.054267   0.034728   8.352420  -0.016955   0.039390  -0.005135
    16  C    0.103566  -0.824388  -0.016955  14.051562  -3.069005  -0.128857
    17  C   -0.079573  -0.242330   0.039390  -3.069005   9.108702   0.387445
    18  O    0.024659  -0.047651  -0.005135  -0.128857   0.387445   8.216737
    19  H    0.017256  -0.002944   0.016709  -0.113396   0.070086   0.180639
    20  C   -0.017635  -0.192215   0.052684  -1.621026  -0.460941  -0.103560
    21  O   -0.000127  -0.000972  -0.000194   0.015041  -0.172728   0.009441
    22  H   -0.000006   0.000078   0.000039  -0.017020   0.042812  -0.000691
    23  C    0.025210  -0.191049  -0.018924   0.170724  -0.287953   0.006173
    24  O   -0.001587   0.082303  -0.015555   0.018711  -0.000331   0.000161
    25  H    0.000036  -0.007980   0.002017  -0.009965  -0.000829   0.000000
    26  C   -0.009203  -0.877037  -0.073321  -3.670283   0.538437   0.049453
    27  O    0.000313  -0.005698   0.009496  -0.063826   0.002118   0.001166
    28  C   -0.000137   0.041679   0.012051   0.863455   0.138954  -0.003028
    29  O    0.000036  -0.001777   0.000118  -0.025865   0.036378  -0.000220
    30  H   -0.000910   0.000768  -0.000020   0.000267  -0.000100   0.000000
    31  H    0.016613   0.055342  -0.000877  -0.003544   0.002336   0.000095
    32  H    0.012216   0.114783  -0.000875   0.005152   0.001328   0.000093
    33  H   -0.034510   0.059787  -0.002251  -0.006824   0.005914   0.000377
    34  H   -0.001502   0.002522  -0.000108   0.005294  -0.000083  -0.000926
    35  H    0.008326  -0.001038  -0.000549  -0.006467   0.002441   0.000205
    36  H   -0.055713   0.394330  -0.069608   0.009528   0.030568  -0.000602
    37  H    0.020490   0.056629  -0.017913   0.015155   0.005071   0.000114
    38  H   -0.002504   0.033737  -0.069110   0.382598  -0.017771  -0.000839
    39  H   -0.000522   0.049706   0.004733   0.101798  -0.039635  -0.000195
    40  H    0.000004   0.002768   0.000418   0.021144  -0.003619   0.000029
    41  H    0.000037   0.002577   0.002537   0.026751   0.003515   0.000001
    42  H    0.002096   0.041765  -0.013519   0.134160   0.299675  -0.051048
    43  H    0.000416   0.003091  -0.001381   0.135121  -0.177623   0.004052
    44  H    0.000012   0.005903   0.000076   0.131512  -0.035945  -0.000622
    45  H    0.000000   0.000181  -0.000001  -0.001132   0.003701  -0.000023
             19         20         21         22         23         24
     1  O   -0.000036   0.000067   0.000000   0.000000   0.000091  -0.000002
     2  C   -0.006938   0.001338  -0.000020   0.000000   0.007008   0.002558
     3  C    0.004156  -0.002333  -0.000050   0.000001  -0.015900  -0.003252
     4  O    0.000000  -0.000074   0.000000   0.000000  -0.000115  -0.000059
     5  H    0.000000   0.000002   0.000000   0.000000   0.000004  -0.000003
     6  C    0.007440   0.068600  -0.000220  -0.000026  -0.116549  -0.017230
     7  O   -0.000056   0.002936  -0.000004   0.000000   0.016879  -0.026624
     8  H   -0.000006   0.001477   0.000000   0.000000   0.033161  -0.012385
     9  C   -0.004628   0.010831   0.000082   0.000008  -0.002999   0.000432
    10  O   -0.000029   0.000198   0.000000   0.000000  -0.000015   0.000000
    11  H   -0.000004   0.000006   0.000000   0.000000   0.000000   0.000000
    12  C    0.016759  -0.029753   0.000014   0.000002  -0.004876   0.003681
    13  O    0.017256  -0.017635  -0.000127  -0.000006   0.025210  -0.001587
    14  C   -0.002944  -0.192215  -0.000972   0.000078  -0.191049   0.082303
    15  O    0.016709   0.052684  -0.000194   0.000039  -0.018924  -0.015555
    16  C   -0.113396  -1.621026   0.015041  -0.017020   0.170724   0.018711
    17  C    0.070086  -0.460941  -0.172728   0.042812  -0.287953  -0.000331
    18  O    0.180639  -0.103560   0.009441  -0.000691   0.006173   0.000161
    19  H    0.367663   0.026964  -0.000620   0.000014  -0.005323   0.000002
    20  C    0.026964   9.162854   0.277702   0.003009   0.124465  -0.007617
    21  O   -0.000620   0.277702   8.219472   0.206777   0.000310   0.000032
    22  H    0.000014   0.003009   0.206777   0.423558  -0.000448   0.000000
    23  C   -0.005323   0.124465   0.000310  -0.000448   6.503447  -0.111946
    24  O    0.000002  -0.007617   0.000032   0.000000  -0.111946   8.535119
    25  H    0.000000   0.000535   0.000000   0.000000   0.020760   0.201215
    26  C    0.010595   0.492085   0.031138  -0.000288  -0.947692   0.070962
    27  O    0.000064  -0.228833   0.006551  -0.000086  -0.079038   0.001511
    28  C   -0.001761  -1.427583  -0.068436  -0.023464  -0.113313   0.007687
    29  O    0.000019  -0.217012   0.006306   0.021600  -0.002029   0.000061
    30  H    0.000000   0.000000   0.000000   0.000000   0.000004   0.000000
    31  H   -0.000010   0.000107   0.000000   0.000000   0.000113   0.000014
    32  H    0.000001   0.000060   0.000000   0.000000   0.000702   0.000132
    33  H    0.000172   0.000916   0.000000   0.000000   0.000185   0.000003
    34  H    0.000797  -0.001469  -0.000002   0.000000   0.000019   0.000000
    35  H   -0.000022   0.000381   0.000000   0.000000  -0.000004   0.000000
    36  H    0.000309   0.010676   0.000001   0.000000   0.006491   0.000584
    37  H   -0.000001   0.000475   0.000000   0.000000   0.004490   0.000860
    38  H   -0.000370   0.014357  -0.000583   0.000008   0.014965  -0.000639
    39  H    0.000018  -0.032679   0.000070   0.000004  -0.000996   0.005618
    40  H    0.000000   0.000957  -0.000005   0.000000   0.435083  -0.040129
    41  H    0.000001   0.000286  -0.000012   0.000000   0.570559  -0.076045
    42  H   -0.005942  -0.143726   0.001083  -0.000180   0.020825  -0.000001
    43  H   -0.000081   0.326528  -0.038966  -0.008948   0.013011   0.000003
    44  H    0.000003  -0.145010   0.003928  -0.000305  -0.003209   0.000036
    45  H    0.000000   0.008875  -0.003541  -0.002697   0.000153  -0.000001
             25         26         27         28         29         30
     1  O    0.000000  -0.000168   0.000000   0.000000   0.000000   0.243822
     2  C    0.000024   0.041415  -0.000248  -0.001319   0.000003   0.034754
     3  C    0.000756  -0.130803   0.000295   0.001050   0.000031  -0.005908
     4  O    0.000000   0.000801   0.000001   0.000010   0.000000   0.000151
     5  H    0.000000   0.000003   0.000000   0.000000   0.000000  -0.001910
     6  C   -0.001705  -0.186429   0.005026   0.004860  -0.000332   0.000554
     7  O    0.002165  -0.014965   0.000111  -0.000355  -0.000002  -0.000013
     8  H   -0.001112  -0.048329   0.000070  -0.000424   0.000000   0.000000
     9  C   -0.000010   0.004560  -0.000062  -0.001373  -0.000001  -0.014549
    10  O    0.000000   0.000026   0.000000  -0.000003   0.000000   0.000190
    11  H    0.000000   0.000004   0.000000   0.000000   0.000000  -0.000057
    12  C   -0.000193   0.062678  -0.000193   0.001728   0.000033  -0.001448
    13  O    0.000036  -0.009203   0.000313  -0.000137   0.000036  -0.000910
    14  C   -0.007980  -0.877037  -0.005698   0.041679  -0.001777   0.000768
    15  O    0.002017  -0.073321   0.009496   0.012051   0.000118  -0.000020
    16  C   -0.009965  -3.670283  -0.063826   0.863455  -0.025865   0.000267
    17  C   -0.000829   0.538437   0.002118   0.138954   0.036378  -0.000100
    18  O    0.000000   0.049453   0.001166  -0.003028  -0.000220   0.000000
    19  H    0.000000   0.010595   0.000064  -0.001761   0.000019   0.000000
    20  C    0.000535   0.492085  -0.228833  -1.427583  -0.217012   0.000000
    21  O    0.000000   0.031138   0.006551  -0.068436   0.006306   0.000000
    22  H    0.000000  -0.000288  -0.000086  -0.023464   0.021600   0.000000
    23  C    0.020760  -0.947692  -0.079038  -0.113313  -0.002029   0.000004
    24  O    0.201215   0.070962   0.001511   0.007687   0.000061   0.000000
    25  H    0.399576   0.015280  -0.000311  -0.001843   0.000002   0.000000
    26  C    0.015280  11.876565   0.299176  -0.961989  -0.038686  -0.000007
    27  O   -0.000311   0.299176   8.340292   0.148213  -0.028794   0.000000
    28  C   -0.001843  -0.961989   0.148213   6.180923   0.402936   0.000000
    29  O    0.000002  -0.038686  -0.028794   0.402936   8.252641   0.000000
    30  H    0.000000  -0.000007   0.000000   0.000000   0.000000   0.384568
    31  H    0.000000  -0.000032   0.000000  -0.000013   0.000000  -0.012066
    32  H    0.000000   0.000728   0.000000  -0.000026   0.000000  -0.000030
    33  H    0.000000  -0.000176   0.000000  -0.000068   0.000000  -0.000040
    34  H    0.000000   0.000022   0.000000   0.000056   0.000000  -0.000011
    35  H    0.000000  -0.000105   0.000000  -0.000017   0.000000  -0.000097
    36  H    0.000010   0.003598   0.000063  -0.001120  -0.000002   0.000002
    37  H   -0.000003   0.001887  -0.000005  -0.000171   0.000000   0.000035
    38  H   -0.000004  -0.171740   0.004234   0.010850  -0.000564   0.000000
    39  H   -0.000165   0.134607  -0.044884   0.048465  -0.000994   0.000000
    40  H   -0.011341  -0.079299  -0.002111   0.001966  -0.000126   0.000000
    41  H   -0.001289  -0.262773   0.009126   0.008538  -0.000100   0.000000
    42  H    0.000000  -0.098215   0.002755   0.011241  -0.000407   0.000000
    43  H    0.000000  -0.027796   0.006032   0.005148  -0.001274   0.000000
    44  H    0.000000  -0.090967  -0.063085   0.484257  -0.056017   0.000000
    45  H    0.000000   0.008412  -0.002000  -0.010027   0.233519   0.000000
             31         32         33         34         35         36
     1  O   -0.049167  -0.000880   0.007381  -0.000134   0.003727  -0.000042
     2  C    0.437836   0.086652   0.008558  -0.006085  -0.006472   0.025292
     3  C   -0.123106   0.147452  -0.051858  -0.005267   0.002861  -0.057919
     4  O    0.003694  -0.047237  -0.000081   0.000015  -0.000007  -0.000080
     5  H   -0.000206  -0.005827   0.000010   0.000000   0.000000   0.000003
     6  C   -0.019360  -0.208113  -0.008724   0.001206   0.013126  -0.081445
     7  O    0.000526   0.007241   0.000084  -0.000010  -0.000003   0.002576
     8  H    0.000001  -0.000078   0.000001   0.000000   0.000000  -0.000877
     9  C    0.022352   0.026573   0.060463   0.387990   0.612028   0.009034
    10  O    0.000368   0.000169   0.007044  -0.038228  -0.066876   0.000075
    11  H    0.000007   0.000001  -0.000163  -0.012372  -0.001320   0.000000
    12  C   -0.122310   0.038318   0.197795  -0.010361  -0.276531   0.001879
    13  O    0.016613   0.012216  -0.034510  -0.001502   0.008326  -0.055713
    14  C    0.055342   0.114783   0.059787   0.002522  -0.001038   0.394330
    15  O   -0.000877  -0.000875  -0.002251  -0.000108  -0.000549  -0.069608
    16  C   -0.003544   0.005152  -0.006824   0.005294  -0.006467   0.009528
    17  C    0.002336   0.001328   0.005914  -0.000083   0.002441   0.030568
    18  O    0.000095   0.000093   0.000377  -0.000926   0.000205  -0.000602
    19  H   -0.000010   0.000001   0.000172   0.000797  -0.000022   0.000309
    20  C    0.000107   0.000060   0.000916  -0.001469   0.000381   0.010676
    21  O    0.000000   0.000000   0.000000  -0.000002   0.000000   0.000001
    22  H    0.000000   0.000000   0.000000   0.000000   0.000000   0.000000
    23  C    0.000113   0.000702   0.000185   0.000019  -0.000004   0.006491
    24  O    0.000014   0.000132   0.000003   0.000000   0.000000   0.000584
    25  H    0.000000   0.000000   0.000000   0.000000   0.000000   0.000010
    26  C   -0.000032   0.000728  -0.000176   0.000022  -0.000105   0.003598
    27  O    0.000000   0.000000   0.000000   0.000000   0.000000   0.000063
    28  C   -0.000013  -0.000026  -0.000068   0.000056  -0.000017  -0.001120
    29  O    0.000000   0.000000   0.000000   0.000000   0.000000  -0.000002
    30  H   -0.012066  -0.000030  -0.000040  -0.000011  -0.000097   0.000002
    31  H    0.637972   0.008678   0.006692   0.000053   0.005506   0.000063
    32  H    0.008678   0.677317   0.004598   0.000003   0.000005   0.004602
    33  H    0.006692   0.004598   0.602895  -0.007608   0.006712   0.003519
    34  H    0.000053   0.000003  -0.007608   0.591250  -0.050070  -0.000018
    35  H    0.005506   0.000005   0.006712  -0.050070   0.619551  -0.000002
    36  H    0.000063   0.004602   0.003519  -0.000018  -0.000002   0.616319
    37  H    0.006168   0.008989   0.000000   0.000002  -0.000030   0.005621
    38  H    0.000000  -0.000004   0.000003   0.000000   0.000000   0.011593
    39  H    0.000000   0.000000   0.000000   0.000000   0.000000  -0.000006
    40  H    0.000000   0.000000   0.000000   0.000000   0.000000   0.000001
    41  H    0.000000   0.000000   0.000000   0.000000   0.000000   0.000011
    42  H    0.000000   0.000000   0.000000   0.000000   0.000000  -0.000016
    43  H    0.000000   0.000000   0.000000   0.000000   0.000000  -0.000012
    44  H    0.000000   0.000000   0.000000   0.000000   0.000000   0.000000
    45  H    0.000000   0.000000   0.000000   0.000000   0.000000   0.000000
             37         38         39         40         41         42
     1  O   -0.001022  -0.000001   0.000000   0.000000   0.000000   0.000000
     2  C    0.094135  -0.000937  -0.000221  -0.000009  -0.000004   0.000534
     3  C   -0.260307   0.003526   0.001255   0.000054   0.000213   0.000678
     4  O    0.005376   0.000002   0.000000   0.000000   0.000001   0.000000
     5  H   -0.000178   0.000000   0.000000   0.000000   0.000000   0.000000
     6  C    0.301617   0.013523   0.002762   0.000848   0.000557   0.003377
     7  O   -0.051152  -0.000429  -0.000003  -0.000583   0.001278   0.000003
     8  H   -0.002799   0.000130   0.000024   0.000309   0.000537   0.000003
     9  C    0.015069   0.000236   0.000080  -0.000003   0.000006  -0.000530
    10  O    0.000047   0.000001   0.000000   0.000000   0.000000   0.000000
    11  H    0.000000   0.000000   0.000000   0.000000   0.000000   0.000000
    12  C    0.025199  -0.001919   0.000126   0.000002   0.000097   0.000110
    13  O    0.020490  -0.002504  -0.000522   0.000004   0.000037   0.002096
    14  C    0.056629   0.033737   0.049706   0.002768   0.002577   0.041765
    15  O   -0.017913  -0.069110   0.004733   0.000418   0.002537  -0.013519
    16  C    0.015155   0.382598   0.101798   0.021144   0.026751   0.134160
    17  C    0.005071  -0.017771  -0.039635  -0.003619   0.003515   0.299675
    18  O    0.000114  -0.000839  -0.000195   0.000029   0.000001  -0.051048
    19  H   -0.000001  -0.000370   0.000018   0.000000   0.000001  -0.005942
    20  C    0.000475   0.014357  -0.032679   0.000957   0.000286  -0.143726
    21  O    0.000000  -0.000583   0.000070  -0.000005  -0.000012   0.001083
    22  H    0.000000   0.000008   0.000004   0.000000   0.000000  -0.000180
    23  C    0.004490   0.014965  -0.000996   0.435083   0.570559   0.020825
    24  O    0.000860  -0.000639   0.005618  -0.040129  -0.076045  -0.000001
    25  H   -0.000003  -0.000004  -0.000165  -0.011341  -0.001289   0.000000
    26  C    0.001887  -0.171740   0.134607  -0.079299  -0.262773  -0.098215
    27  O   -0.000005   0.004234  -0.044884  -0.002111   0.009126   0.002755
    28  C   -0.000171   0.010850   0.048465   0.001966   0.008538   0.011241
    29  O    0.000000  -0.000564  -0.000994  -0.000126  -0.000100  -0.000407
    30  H    0.000035   0.000000   0.000000   0.000000   0.000000   0.000000
    31  H    0.006168   0.000000   0.000000   0.000000   0.000000   0.000000
    32  H    0.008989  -0.000004   0.000000   0.000000   0.000000   0.000000
    33  H    0.000000   0.000003   0.000000   0.000000   0.000000   0.000000
    34  H    0.000002   0.000000   0.000000   0.000000   0.000000   0.000000
    35  H   -0.000030   0.000000   0.000000   0.000000   0.000000   0.000000
    36  H    0.005621   0.011593  -0.000006   0.000001   0.000011  -0.000016
    37  H    0.629106   0.000004  -0.000007   0.000000  -0.000004  -0.000006
    38  H    0.000004   0.633858   0.007085   0.000048   0.005224   0.007752
    39  H   -0.000007   0.007085   0.615226  -0.007959   0.006797   0.004450
    40  H    0.000000   0.000048  -0.007959   0.585162  -0.042595   0.000007
    41  H   -0.000004   0.005224   0.006797  -0.042595   0.594275   0.000004
    42  H   -0.000006   0.007752   0.004450   0.000007   0.000004   0.643200
    43  H    0.000000   0.003547   0.000072   0.000002  -0.000008   0.007238
    44  H    0.000000   0.000062   0.007530  -0.000034  -0.000003   0.003927
    45  H    0.000000   0.000001   0.000007  -0.000001   0.000000   0.000017
             43         44         45
     1  O    0.000000   0.000000   0.000000
     2  C    0.000053  -0.000008   0.000000
     3  C    0.000045   0.000023   0.000000
     4  O    0.000000   0.000000   0.000000
     5  H    0.000000   0.000000   0.000000
     6  C    0.000071   0.000044   0.000004
     7  O    0.000001   0.000000   0.000000
     8  H    0.000000   0.000000   0.000000
     9  C   -0.000084   0.000004   0.000000
    10  O    0.000000   0.000000   0.000000
    11  H    0.000000   0.000000   0.000000
    12  C    0.000460   0.000033   0.000000
    13  O    0.000416   0.000012   0.000000
    14  C    0.003091   0.005903   0.000181
    15  O   -0.001381   0.000076  -0.000001
    16  C    0.135121   0.131512  -0.001132
    17  C   -0.177623  -0.035945   0.003701
    18  O    0.004052  -0.000622  -0.000023
    19  H   -0.000081   0.000003   0.000000
    20  C    0.326528  -0.145010   0.008875
    21  O   -0.038966   0.003928  -0.003541
    22  H   -0.008948  -0.000305  -0.002697
    23  C    0.013011  -0.003209   0.000153
    24  O    0.000003   0.000036  -0.000001
    25  H    0.000000   0.000000   0.000000
    26  C   -0.027796  -0.090967   0.008412
    27  O    0.006032  -0.063085  -0.002000
    28  C    0.005148   0.484257  -0.010027
    29  O   -0.001274  -0.056017   0.233519
    30  H    0.000000   0.000000   0.000000
    31  H    0.000000   0.000000   0.000000
    32  H    0.000000   0.000000   0.000000
    33  H    0.000000   0.000000   0.000000
    34  H    0.000000   0.000000   0.000000
    35  H    0.000000   0.000000   0.000000
    36  H   -0.000012   0.000000   0.000000
    37  H    0.000000   0.000000   0.000000
    38  H    0.003547   0.000062   0.000001
    39  H    0.000072   0.007530   0.000007
    40  H    0.000002  -0.000034  -0.000001
    41  H   -0.000008  -0.000003   0.000000
    42  H    0.007238   0.003927   0.000017
    43  H    0.597281   0.005489   0.000029
    44  H    0.005489   0.634198  -0.008052
    45  H    0.000029  -0.008052   0.403199
 Mulliken atomic charges:
              1
     1  O   -0.533404
     2  C   -0.054669
     3  C    0.032899
     4  O   -0.484423
     5  H    0.358499
     6  C   -0.019849
     7  O   -0.595864
     8  H    0.472459
     9  C   -0.086112
    10  O   -0.550457
    11  H    0.365476
    12  C    0.116298
    13  O   -0.437242
    14  C    0.372860
    15  O   -0.323770
    16  C   -0.172486
    17  C    0.009663
    18  O   -0.518045
    19  H    0.422497
    20  C    0.042092
    21  O   -0.491467
    22  H    0.356248
    23  C   -0.072456
    24  O   -0.618281
    25  H    0.394372
    26  C    0.047874
    27  O   -0.317442
    28  C    0.242405
    29  O   -0.579481
    30  H    0.372051
    31  H    0.126154
    32  H    0.117279
    33  H    0.139197
    34  H    0.145026
    35  H    0.134739
    36  H    0.130716
    37  H    0.137059
    38  H    0.120069
    39  H    0.137834
    40  H    0.139009
    41  H    0.149904
    42  H    0.128691
    43  H    0.148483
    44  H    0.126217
    45  H    0.369376
 Sum of Mulliken atomic charges =   0.00000
 Mulliken charges with hydrogens summed into heavy atoms:
              1
     1  O   -0.161353
     2  C    0.071485
     3  C    0.150177
     4  O   -0.125924
     6  C    0.117210
     7  O   -0.123405
     9  C    0.193654
    10  O   -0.184980
    12  C    0.255494
    13  O   -0.437242
    14  C    0.503575
    15  O   -0.323770
    16  C   -0.052417
    17  C    0.138355
    18  O   -0.095548
    20  C    0.190575
    21  O   -0.135218
    23  C    0.216457
    24  O   -0.223909
    26  C    0.185708
    27  O   -0.317442
    28  C    0.368622
    29  O   -0.210105
 Sum of Mulliken charges with hydrogens summed into heavy atoms =   0.00000
 APT atomic charges:
              1
     1  O   -0.635276
     2  C    0.395712
     3  C    0.428652
     4  O   -0.625541
     5  H    0.268893
     6  C    0.396503
     7  O   -0.809585
     8  H    0.522182
     9  C    0.470971
    10  O   -0.605496
    11  H    0.249546
    12  C    0.468153
    13  O   -0.882566
    14  C    0.941112
    15  O   -0.866723
    16  C    0.443367
    17  C    0.374405
    18  O   -0.714715
    19  H    0.414650
    20  C    0.379151
    21  O   -0.617408
    22  H    0.267436
    23  C    0.448961
    24  O   -0.672575
    25  H    0.263124
    26  C    0.463854
    27  O   -0.812395
    28  C    0.939908
    29  O   -0.686047
    30  H    0.266333
    31  H   -0.055259
    32  H   -0.072037
    33  H   -0.058363
    34  H   -0.037716
    35  H   -0.054615
    36  H   -0.062735
    37  H   -0.046368
    38  H   -0.045224
    39  H   -0.058860
    40  H   -0.041040
    41  H   -0.033618
    42  H   -0.065656
    43  H   -0.042286
    44  H   -0.074429
    45  H    0.273618
 Sum of APT charges=   0.00000
 APT Atomic charges with hydrogens summed into heavy atoms:
              1
[...]
 130,0.00169238,-0.00021657,-0.00043329,-0.01349136,0.00337913,0.001026
 45,-0.34720151,0.02085576,0.00435940,-0.00900230,-0.01200935,-0.013623
 91,-0.00027189,-0.00106739,0.00102228,-0.01545475,0.00197387,0.0031569
 2,0.00175815,-0.00030996,-0.00030444,0.00023660,0.00003670,-0.00018984
 ,0.00064768,0.00029919,0.00015096,0.00004886,-0.00003174,0.00008230,-0
 .00001194,0.00001003,-0.00000237,-0.00079563,-0.00107280,-0.00071647,0
 .00054323,0.00042043,0.00024379,-0.00153416,-0.00101743,-0.00134334,0.
 00078246,0.00001903,0.00004708,-0.00001233,-0.00000387,0.00001026,0.00
 001453,0.00000303,-0.00001312,0.00001687,-0.00000072,0.00000267,0.0000
 0987,-0.00001524,0.00001095,0.00000572,0.00006543,0.00000109,0.0000236
 1,0.00000837,-0.00002430,0.00007977,-0.00001365,0.00023574,0.00001113,
 0.00002142,-0.00003843,0.00035463,0.00163884,-0.00027062,0.00103092,0.
 00060320,0.00065138,-0.00001332,0.00014883,0.00000533,0.00010360,-0.00
 036042,-0.00001894,0.37919061,-0.00000185,0.00003091,-0.00006053,-0.00
 001966,-0.00005446,0.00002525,0.00001327,-0.00001073,-0.00001850,-0.00
 000935,0.00003725,-0.00001374,0.00000700,-0.00001089,0.00000219,-0.000
 15328,-0.00003011,-0.00002817,-0.00004901,0.00008637,0.00008329,0.0000
 5284,0.00000601,-0.00008730,-0.00002480,-0.00002892,0.00012145,0.00001
 176,-0.00002338,-0.00008799,-0.00001553,0.00001291,0.00001842,0.000035
 98,0.00010515,0.00013184,0.00003761,0.00059613,-0.00036182,0.00015924,
 -0.00022958,-0.00016721,-0.00195685,0.00218673,-0.00128250,0.03710344,
 -0.00828113,0.00062100,0.01949597,-0.03880171,0.00568700,-0.03234079,-
 0.00998985,-0.01610008,-0.00039871,-0.00031934,0.00128532,-0.01019696,
 0.00220871,0.00212597,0.00007514,0.00075556,-0.00116506,0.00009572,0.0
 0009286,-0.00017873,0.00005973,-0.00005260,0.00005490,-0.00005718,-0.0
 0000197,0.00006515,0.00000411,0.00001602,-0.00000832,0.00199270,0.0019
 5270,0.00116706,-0.00041249,-0.00015198,-0.00032338,0.00043397,-0.0001
 6059,-0.00044506,0.00012888,-0.00014450,0.00012368,-0.00000528,-0.0000
 0130,0.00000585,0.00000133,0.00000323,-0.00000394,-0.00000187,0.000000
 41,0.00000010,0.00000066,-0.00002344,0.00000635,-0.00001135,0.00005842
 ,0.00000556,0.00001555,0.00001581,-0.00002300,-0.00024481,-0.00000151,
 -0.00011601,-0.00001407,-0.00001985,0.00004268,0.00159235,-0.00601856,
 0.00179601,-0.00065441,-0.00049456,-0.00042839,-0.00012796,-0.00003362
 ,0.00001152,-0.00027835,0.00010706,-0.00001662,-0.01382342,0.05652051,
 0.00000902,0.00001882,-0.00004279,-0.00003609,-0.00002926,0.00001974,0
 .00000127,-0.00004311,0.00001909,0.00000710,0.00002685,-0.00001093,-0.
 00000021,-0.00000721,0.00000541,-0.00001019,0.00000391,0.00005104,0.00
 004820,0.00003832,0.00000621,-0.00004134,0.00000159,0.00000677,-0.0000
 6350,-0.00004315,0.00009825,0.00003474,-0.00000575,-0.00005821,-0.0000
 1761,0.00000587,0.00001794,-0.00000460,0.00007846,0.00006685,0.0001480
 6,0.00041553,-0.00042633,-0.00035562,-0.00042505,-0.00048721,0.0003674
 8,-0.00148601,0.00153132,-0.01214487,0.00421437,0.00191675,0.00334873,
 0.00638498,-0.04106664,-0.03109274,-0.01488621,-0.01084176,-0.00130215
 ,-0.00051833,0.00111612,0.03678465,-0.00141757,-0.00458474,-0.00211912
 ,-0.00077883,0.00235135,-0.00003243,-0.00051557,0.00039653,0.00010779,
 0.00009897,0.00003892,0.00001332,-0.00001739,0.00000185,0.00000079,-0.
 00000859,-0.00000253,0.00050698,-0.00068408,-0.00032137,-0.00032229,-0
 .00032359,-0.00022004,0.00215683,0.00075932,0.00119396,-0.00056479,0.0
 0009297,0.00001857,-0.00000681,-0.00000154,0.00000177,0.00001236,0.000
 00289,-0.00001322,0.00001026,-0.00000031,0.00000509,0.00001961,-0.0000
 1571,0.00001576,-0.00001162,0.00004765,0.00000451,0.00003237,0.0000128
 1,-0.00003588,0.00016316,0.00000457,0.00001704,0.00001862,0.00002036,-
 0.00003052,-0.00075742,0.00198166,-0.00020244,0.00034672,-0.00008974,0
 .00016399,0.00004602,0.00007434,0.00000176,0.00004131,-0.00008969,-0.0
 0003388,0.00374437,0.00590577,0.05563283,0.00000520,-0.00000595,-0.000
 00605,-0.00000329,0.00000408,0.00000552,-0.00001418,-0.00001053,0.0000
 1190,0.00001047,0.00000210,-0.00000836,-0.00000453,0.00000113,0.000002
 77,0.00001577,0.00000450,0.00002122,0.00002416,-0.00000761,-0.00001477
 ,-0.00001649,0.00000143,0.00001279,-0.00001807,0.00000439,-0.00000389,
 0.00001770,-0.00000187,0.00000331,-0.00000843,0.00000019,0.00000003,-0
 .00002221,0.00000048,0.00001026,0.00004154,-0.00003233,-0.00001481,-0.
 00015562,-0.00000668,0.00003854,0.00045932,-0.00011860,0.00006818,-0.0
 0055188,0.00109198,-0.00025378,-0.01215108,-0.00287595,0.00114904,0.00
 176476,0.00058279,-0.00014760,0.00013728,0.00006735,-0.00010198,-0.358
 03815,-0.01537718,0.00932381,-0.00929851,0.01093671,-0.00528996,0.0004
 0994,0.00089897,0.00032946,-0.00004674,-0.00002799,-0.00001831,0.00004
 582,0.00002736,-0.00003054,-0.00001306,-0.00000444,-0.00000201,-0.0000
 4892,-0.00013312,0.00005515,0.00217095,-0.00043850,0.00045431,-0.01360
 815,-0.00043449,0.00080329,0.00165588,-0.00004301,0.00025134,-0.000002
 61,0.00000214,0.00000097,0.00000586,0.00000116,-0.00000375,0.00000850,
 0.00000046,0.00000014,0.00001068,-0.00000232,0.00000647,-0.00000938,-0
 .00000086,0.00000032,0.00001015,0.00000229,-0.00000723,0.00003183,-0.0
 0001946,0.00001693,0.00000852,0.00000582,-0.00000965,0.00060136,-0.000
 69756,0.00020331,0.00010215,0.00019077,-0.00003417,0.00000981,-0.00001
 661,0.00001172,0.00004564,-0.00004834,0.00000984,0.00021287,-0.0007218
 4,0.00168054,0.38572799,0.00000173,-0.00000262,0.00001645,0.00000035,0
 .00000535,-0.00000920,-0.00000419,0.00000790,-0.00000512,0.00000318,-0
 .00001012,0.00000749,-0.00000172,0.00000241,-0.00000179,-0.00000093,0.
 00000549,-0.00000399,0.00001121,-0.00001355,-0.00000247,-0.00001064,0.
 00000362,-0.00000347,0.00000090,-0.00000015,-0.00002049,-0.00000238,0.
 00000832,0.00002001,0.00000479,-0.00000350,-0.00000445,-0.00000239,-0.
 00001127,-0.00002638,0.00001942,-0.00005079,0.00005209,-0.00002040,0.0
 0006925,0.00000969,0.00019046,-0.00005389,-0.00003132,-0.00092389,0.00
 051553,-0.00018143,-0.00807053,0.00110340,0.00034388,0.00094742,0.0003
 9075,0.00025915,-0.00006237,-0.00004089,-0.00012457,-0.01745013,-0.040
 13281,-0.00185241,0.04148861,-0.01662041,0.00800783,0.00089918,0.00103
 076,-0.00132390,-0.00006361,0.00003668,-0.00003099,0.00002099,-0.00001
 470,-0.00000913,-0.00000274,0.00000314,0.00000319,-0.00031467,-0.00024
 002,0.00021557,0.00117045,0.00226182,0.00021897,-0.02694633,-0.0017158
 1,0.00021876,0.00199100,0.00122965,0.00137565,0.00000094,-0.00000004,-
 0.00000332,0.00000055,-0.00000130,0.00000036,-0.00000022,0.00000034,0.
 00000105,0.00000021,0.00000438,0.00000070,0.00000342,-0.00000839,-0.00
 000002,-0.00000138,-0.00000289,0.00000248,0.00001535,-0.00000498,0.000
 01318,0.00000217,0.00000137,-0.00000342,0.00022538,-0.00012019,0.00019
 712,0.00021268,0.00008511,-0.00003744,0.00000274,-0.00001961,-0.000004
 30,0.00003715,-0.00006016,0.00001943,-0.00021996,-0.00009904,0.0016082
 2,0.00783804,0.05552461,-0.00000536,-0.00000826,-0.00000367,0.00000363
 ,0.00001016,0.00000239,0.00001372,0.00001689,0.00000509,-0.00000657,-0
 .00000550,-0.00001081,0.00000196,0.00000276,-0.00000211,-0.00001967,-0
 .00001585,-0.00002539,-0.00001748,0.00000103,-0.00001228,0.00001085,-0
 .00001192,0.00000645,0.00001651,0.00001852,-0.00001574,-0.00001402,-0.
 00001044,0.00000543,0.00000679,0.00000051,-0.00000621,0.00002323,-0.00
 000740,0.00001013,-0.00000651,-0.00014793,0.00004904,0.00013807,0.0001
 8727,0.00015259,-0.00071184,0.00001854,-0.00036719,0.00124907,-0.00183
 445,0.00129151,0.03562868,0.00381264,-0.00302266,-0.00213546,-0.000020
 56,0.00323663,-0.00013817,0.00030499,0.00018540,0.01140311,-0.00251048
 ,-0.04565586,-0.01219266,0.00825704,0.00025358,-0.00162348,0.00036542,
 0.00078627,0.00005594,0.00001370,0.00007946,-0.00000906,0.00000299,-0.
 00000327,-0.00000578,-0.00000260,0.00000272,0.00028442,0.00019296,-0.0
 0036795,0.00156244,0.00126108,0.00046148,-0.02651950,-0.00427270,-0.00
 051013,0.00132773,0.00078279,0.00251683,0.00000118,0.00000191,0.000000
 62,-0.00000482,-0.00000062,0.00000430,-0.00000508,0.00000095,-0.000000
 61,-0.00001189,0.00000305,-0.00001243,0.00000292,-0.00000905,0.0000012
 2,-0.00000887,-0.00000229,0.00000831,-0.00004476,0.00000893,-0.0000462
 0,-0.00000477,-0.00000724,0.00001021,-0.00072368,0.00056396,-0.0001461
 1,-0.00011991,-0.00001308,-0.00015557,-0.00000885,0.00003362,0.0000078
 1,-0.00000891,0.00002145,0.00000306,0.00198030,0.00170295,-0.00584531,
 -0.00788970,-0.00631653,0.04944684,0.00000368,-0.00000875,-0.00002239,
 -0.00001027,0.00000888,0.00001278,0.00000298,-0.00000317,0.00002035,0.
 00000444,0.00000398,-0.00002512,-0.00000298,0.00000176,0.00000336,-0.0
 0002852,0.00001149,0.00000734,0.00001175,-0.00001940,-0.00006656,0.000
 00516,0.00000752,0.00007591,-0.00001719,0.00001132,0.00000175,0.000010
 05,-0.00001238,-0.00000764,-0.00000531,0.00000191,0.00000047,0.0000042
 4,0.00000543,0.00003046,0.00001411,-0.00006280,-0.00006681,0.00003541,
 0.00007292,0.00010311,0.00000665,-0.00002526,-0.00031355,0.00011231,0.
 00031694,0.00008118,-0.00088745,-0.00020260,0.00097681,0.00059336,0.00
 005910,0.00007918,-0.00001481,0.00000471,-0.00006948,-0.01297096,0.001
 23408,-0.00210158,0.00264093,0.00019177,0.00131976,-0.00029658,0.00012
 672,-0.00000320,0.00059515,-0.00018058,-0.00015283,0.00000877,0.000244
 71,-0.00013614,-0.00002009,-0.00000858,-0.00003615,0.00027948,-0.00066
 357,0.00125393,-0.00774279,0.01185969,-0.00467122,-0.35868276,-0.00548
 444,-0.01649502,-0.00985358,-0.00290277,0.00708035,-0.00000424,0.00000
 219,0.00000335,0.00000447,0.00000016,-0.00000219,0.00000524,0.00000075
 ,0.00000013,0.00000229,-0.00000136,-0.00000207,-0.00000391,-0.00000019
 ,0.00000064,0.00000673,0.00000154,-0.00000418,0.00000790,-0.00000716,-
 0.00000566,0.00000747,-0.00000279,-0.00000401,0.00007399,-0.00015414,0
 .00025720,0.00053347,0.00063411,-0.00141702,-0.00002571,-0.00002948,0.
 00000830,0.00007329,-0.00027556,0.00011708,0.00105020,0.00017874,-0.00
 067849,0.00013046,-0.00105919,-0.00147756,0.38338498,0.00000134,0.0000
 1505,0.00001452,0.00000301,-0.00001743,-0.00000706,-0.00001147,0.00000
 250,-0.00001638,0.00000107,0.00000358,0.00001752,0.00000036,-0.0000024
 8,-0.00000192,0.00002133,-0.00004318,-0.00001595,0.00001080,0.00006227
 ,0.00010882,-0.00003422,-0.00003706,-0.00014811,0.00000012,-0.00001762
 ,0.00001052,0.00000547,0.00001209,-0.00000296,-0.00000416,-0.00000046,
 0.00000377,-0.00001420,0.00000884,-0.00001051,-0.00000587,0.00014653,0
 .00002036,-0.00010941,-0.00009241,-0.00012500,0.00009049,0.00029406,0.
 00034827,-0.00041631,-0.00067931,0.00015707,-0.00090927,0.00008619,0.0
 0132004,0.00043507,-0.00001969,-0.00038227,0.00011866,-0.00011492,0.00
 006793,-0.02351214,0.00078904,-0.00381263,0.00089498,0.00297897,0.0003
 7293,-0.00030964,0.00007856,0.00005325,0.00004454,0.00013723,-0.000065
 34,-0.00018646,-0.00027083,0.00023915,0.00000262,0.00003382,0.00003399
 ,0.00431195,0.00185292,-0.00470260,0.03821809,-0.01772913,0.01203598,-
 0.00459374,-0.04220631,-0.00272556,-0.00715588,0.00379262,0.00455225,0
 .00000139,-0.00000309,-0.00000221,0.00000050,0.00000056,-0.00000066,0.
 00000171,-0.00000057,0.00000096,0.00000407,-0.00000166,0.00000427,0.00
 000074,0.00000754,-0.00000034,0.00000129,0.00000141,-0.00000143,0.0000
 0538,0.00000130,0.00000256,-0.00000410,0.00000610,-0.00000106,-0.00005
 658,-0.00015925,-0.00006245,-0.00163659,0.00025204,0.00026125,0.000046
 36,0.00001114,-0.00001839,-0.00025531,0.00012917,0.00000307,0.00053783
 ,0.00011852,-0.00031753,-0.00089941,-0.00297907,-0.00262868,-0.0038641
 2,0.05324989,-0.00000074,-0.00000176,-0.00002176,-0.00000488,0.0000017
 9,0.00001354,0.00000534,-0.00000435,0.00001629,-0.00000051,0.00000864,
 -0.00001908,0.00000070,-0.00000066,0.00000240,-0.00001251,-0.00000888,
 -0.00000118,0.00000392,0.00000687,-0.00002341,-0.00000126,-0.00000339,
 0.00002585,-0.00000630,0.00000807,0.00001323,0.00000139,-0.00001141,-0
 .00001627,-0.00000167,0.00000252,0.00000295,0.00000716,0.00001120,0.00
 003236,-0.00000098,-0.00001088,-0.00006000,0.00003646,0.00002995,0.000
 05995,0.00002655,0.00005718,-0.00024356,0.00008016,-0.00023331,-0.0001
 7722,-0.00174180,0.00018661,0.00153547,0.00059751,-0.00000208,-0.00013
 920,0.00003852,-0.00000328,0.00004213,-0.02515098,-0.00154421,0.000105
 03,0.00204839,0.00131772,0.00101736,0.00007808,-0.00030406,-0.00031138
 ,0.00000260,0.00008399,0.00002095,0.00006639,0.00008658,-0.00010274,-0
 .00000557,-0.00001042,-0.00000372,-0.00244307,0.00001922,0.00270662,-0
 .00921368,0.00758163,-0.00020062,-0.02398286,-0.00464797,-0.04754551,0
 .04044615,0.00520764,-0.01672781,-0.00000153,0.00000055,0.00000339,0.0
 0000149,0.00000016,-0.00000133,0.00000216,0.00000035,-0.00000020,-0.00
 000020,-0.00000154,-0.00000180,-0.00000079,0.00000379,-0.00000056,0.00
 000214,0.00000017,-0.00000235,0.00000232,-0.00000558,0.00000374,0.0000
 0237,0.00000004,-0.00000312,0.00019833,-0.00001908,0.00010124,0.000816
 41,-0.00018395,0.00004179,0.00000048,-0.00003103,-0.00000214,0.0001283
 9,-0.00005329,-0.00003680,0.00061347,-0.00011953,-0.00039955,-0.000980
 70,-0.00299486,-0.00283833,0.01546793,-0.00416816,0.06023708,-0.000000
 77,0.00000365,0.00002633,0.00000916,-0.00000291,-0.00001408,-0.0000070
 9,0.00000528,-0.00001903,-0.00000041,-0.00000937,0.00002313,0.00000119
 ,0.00000052,-0.00000248,0.00002054,0.00000384,-0.00000239,-0.00000264,
 -0.00000190,0.00003844,-0.00000607,0.00000143,-0.00004543,0.00000926,-
 0.00000920,-0.00001369,-0.00000262,0.00001375,0.00001806,0.00000311,-0
 .00000223,-0.00000248,-0.00001390,-0.00001668,-0.00003951,0.00000757,0
 .00001198,0.00008831,-0.00005353,-0.00002026,-0.00008112,0.00003351,-0
 .00001700,0.00020226,-0.00013779,0.00001049,-0.00014928,0.00071926,0.0
 0048388,0.00014126,-0.00013238,0.00000974,0.00047877,0.00002096,0.0000
 9054,-0.00000897,-0.00153657,-0.00151441,0.00210820,-0.00022021,0.0006
 4269,-0.00012228,-0.00005005,-0.00030902,-0.00030624,-0.00014284,0.000
 14359,0.00018120,-0.00002175,-0.00017553,0.00007153,0.00001995,-0.0000
 0121,0.00003022,0.00077245,-0.00060286,0.00016003,-0.00097181,-0.00106
 902,0.00224392,0.00920160,-0.00265029,0.02164262,-0.33349994,0.0569339
 8,-0.27420725,0.00000325,-0.00000113,-0.00000359,-0.00000180,0.,0.0000
 0105,-0.00000207,-0.00000037,0.00000002,0.00000194,0.00000169,0.000004
 17,0.00000010,-0.00000431,0.00000046,-0.00000277,-0.00000109,0.0000016
 6,0.00000139,0.00000286,0.00000250,-0.00000252,0.00000164,0.00000149,-
 0.00000650,-0.00001418,0.00000970,-0.00005833,0.00003839,-0.00005783,0
 .00000190,-0.00001531,-0.00000579,-0.00000170,0.00000689,-0.00000724,-
 0.00003908,0.00002382,-0.00008841,0.00034669,0.00006935,0.00000383,0.0
 0095818,-0.00078026,0.00287520,0.32478312,0.00000056,-0.00001294,-0.00
 000581,-0.00000139,0.00000625,-0.00000006,0.00000078,0.00000154,0.0000
 0080,0.00000242,-0.00001117,0.00000054,-0.00000184,0.00000384,0.000000
 48,-0.00000034,0.00002841,0.00001708,-0.00000348,-0.00003758,-0.000037
 36,0.00001136,0.00002118,0.00004048,-0.00000066,0.00001146,-0.00000158
 ,-0.00000244,-0.00001128,0.00000011,0.00000111,0.00000308,-0.00000505,
 0.00000743,0.00001523,0.00001321,0.00000094,-0.00002398,-0.00001528,-0
 .00002715,0.00003593,0.00000339,0.00000578,-0.00002503,0.00005596,-0.0
 0010438,-0.00011034,0.00001000,0.00007225,-0.00087541,0.00010631,0.000
 08440,-0.00010779,-0.00046893,-0.00001127,-0.00008404,-0.00004638,-0.0
 0029722,0.00263208,-0.00443631,0.00120175,-0.00036853,0.00158501,-0.00
 191910,-0.00094937,-0.00161377,-0.00023793,0.00022911,0.00038129,0.000
 00242,-0.00019033,-0.00006846,0.00002011,-0.00002153,0.00006937,0.0002
 9063,-0.00110745,0.00012857,-0.00094244,-0.00362530,0.00516811,0.00855
 728,-0.00242649,-0.00071627,0.04444338,-0.00619012,0.05833062,-0.00000
 067,0.00000545,-0.00000058,0.00000023,0.00000033,0.00000009,-0.0000006
 9,0.00000015,0.00000021,-0.00000080,-0.00000032,-0.00000110,-0.0000023
 2,-0.00000118,0.00000246,0.00000094,0.00000071,-0.00000095,0.00000355,
 -0.00000002,0.00000029,0.00000312,-0.00000112,-0.00000135,-0.00000224,
 0.00000690,0.00000385,-0.00012449,-0.00001799,0.00014930,-0.00003625,-
 0.00007639,-0.00001198,0.00000888,0.00000608,0.00000597,0.00003088,0.0
 0007235,-0.00009400,0.00026052,-0.00008368,0.00023951,-0.00001214,0.00
 030255,-0.00025099,-0.05128145,0.01297675,0.00000904,0.00000870,0.0000
 8170,0.00000605,-0.00001341,-0.00005049,-0.00002227,0.00002217,-0.0000
 5889,0.00000955,-0.00003585,0.00007017,-0.00000372,0.00000579,-0.00001
 018,0.00001719,0.00002081,0.00000045,0.00001095,-0.00001970,0.00009030
 ,-0.00002387,0.00001209,-0.00010309,-0.00000445,-0.00003363,-0.0000491
 7,0.00001366,0.00004544,0.00006265,-0.00000182,-0.00001035,-0.00001202
 ,-0.00003853,-0.00003284,-0.00010137,0.00001708,0.00007053,0.00018266,
 -0.00012057,-0.00006829,-0.00024438,0.00009063,-0.00005263,0.00036653,
 -0.00003313,0.00001588,-0.00008472,-0.00052241,-0.00117609,-0.00014435
 ,0.00020744,0.00014063,-0.00013162,-0.00003009,-0.00007119,-0.00016004
 ,0.00267942,0.00212609,-0.00571776,0.00050917,0.00055415,0.00153626,-0
 .00084622,-0.00143908,-0.00036284,0.00013991,0.00020045,-0.00013312,-0
 .00004123,-0.00017686,0.00018197,0.00000892,0.00004062,0.00000891,-0.0
 0024546,0.00028001,-0.00045601,0.00194762,-0.00154852,-0.00085720,-0.0
 3124325,0.00362503,-0.02364175,-0.21878025,0.05595384,-0.23635689,0.00
 000425,-0.00000138,-0.00001574,0.00000111,0.00000056,0.00000125,-0.000
 00103,-0.00000136,0.00000271,0.00000900,0.00000186,0.00000863,-0.00000
 357,-0.00001012,0.00000341,0.00000329,0.00000187,0.00000019,0.00000560
 ,0.00001088,0.00000885,0.00000034,0.00000123,-0.00000294,0.00000293,0.
 00000747,0.00000553,0.00005652,0.00006771,-0.00000646,-0.00001810,0.00
 001104,0.00000764,0.00000023,-0.00003183,0.00001386,0.00020380,0.00004
 655,-0.00007606,0.00034609,0.00039975,0.00052043,0.00085748,-0.0004112
 5,0.00289824,0.24482271,-0.05853680,0.26272472\\0.01220090,-0.01357998
 ,-0.00714106,-0.01652684,0.00426596,0.01891467,0.03423579,-0.02642449,
 -0.00067255,-0.00529627,0.02180492,0.01800669,-0.01088800,-0.00881865,
 -0.02383885,-0.01814133,-0.00959247,-0.02786972,0.02204803,-0.00233306
 ,0.02287372,-0.00498734,0.01632438,0.01719610,-0.00300223,0.00995046,0
 .00331826,0.00415496,0.01816683,0.00035596,0.00298423,-0.03207307,-0.0
 0108874,0.00933258,-0.01322809,0.00815809,-0.00389804,0.00969637,0.008
 91011,-0.03803928,0.01791321,-0.01463489,-0.00169022,-0.00643851,-0.00
 569167,0.02584552,0.01027753,-0.00128187,-0.01640236,0.02883229,0.0171
 2518,0.00202502,-0.01846223,0.00645761,0.00755296,0.01215688,-0.016408
 51,-0.00291568,0.00524404,-0.01150757,0.01014045,0.00166230,-0.0103277
 2,-0.01272169,-0.00223443,0.02508261,0.01364338,-0.01604700,-0.0132592
 0,-0.01324398,-0.01572296,-0.00041047,0.00022162,0.03193469,0.00456754
 ,-0.01375868,-0.00652527,0.01768604,0.00628032,-0.00687953,-0.00121299
 ,0.02031279,-0.00711491,-0.00102204,0.00257013,-0.00611397,0.02058475,
 -0.00210794,0.00275144,0.00100224,-0.02224847,0.00043516,-0.00025107,0
 .02611501,0.00227483,-0.00341641,0.02188423,0.00223964,0.00048119,0.00
 240422,0.00724957,-0.01789393,-0.02126074,-0.00244844,-0.00127532,0.01
 903213,0.00008898,-0.00606023,-0.02223601,0.00322874,0.00184358,0.0228
 7744,-0.00233765,-0.00122916,-0.02314646,0.00096316,-0.00023666,-0.004
 37068,-0.00617216,-0.01691201,0.02071746,0.00053808,-0.00277361,-0.025
 76529,0.00021501,-0.00151547,0.02080508,-0.00157473,-0.00085872,-0.020
 44013,-0.00035921,-0.00098900,-0.00429657,-0.00373369,-0.00278491\\\@


 ... A MOLECULAR SYSTEM ... (PASSES) ... FROM ONE STATE OF EQUILIBRIUM 
 TO ANOTHER ... BY MEANS OF ALL POSSIBLE INTERMEDIATE PATHS, 
 BUT THE PATH MOST ECONOMICAL OF ENERGY WILL BE THE MORE OFTEN TRAVELED.

                      -- HENRY EYRING, 1945
 Job cpu time:  0 days 12 hours 58 minutes 31.8 seconds.
 File lengths (MBytes):  RWF=   1324 Int=      0 D2E=      0 Chk=     19 Scr=      1
 Normal termination of Gaussian 09 at Thu Jan 21 04:58:02 2016.
Gaussian '09 finished on node020 at Thu Jan 21 04:58:02 EST 2016.
