Gaussian '09 started on node019 at Tue Mar  1 03:42:24 EST 2016.
 Entering Gaussian System, Link 0=/usr/local/gaussian/g09/g09
 Initial command:
 /usr/local/gaussian/g09/l1.exe /home/srmcgrat/thesis/gaussian/cellobiose/550/6000/2/gdp/gaussian17212/Gau-17248.inp -scrdir=/home/srmcgrat/thesis/gaussian/cellobiose/550/6000/2/gdp/gaussian17212/
 Entering Link 1 = /usr/local/gaussian/g09/l1.exe PID=     17250.
  
 Copyright (c) 1988,1990,1992,1993,1995,1998,2003,2009,2010,
            Gaussian, Inc.  All Rights Reserved.
  
 This is part of the Gaussian(R) 09 program.  It is based on
 the Gaussian(R) 03 system (copyright 2003, Gaussian, Inc.),
 the Gaussian(R) 98 system (copyright 1998, Gaussian, Inc.),
 the Gaussian(R) 94 system (copyright 1995, Gaussian, Inc.),
 the Gaussian 92(TM) system (copyright 1992, Gaussian, Inc.),
 the Gaussian 90(TM) system (copyright 1990, Gaussian, Inc.),
 the Gaussian 88(TM) system (copyright 1988, Gaussian, Inc.),
 the Gaussian 86(TM) system (copyright 1986, Carnegie Mellon
 University), and the Gaussian 82(TM) system (copyright 1983,
 Carnegie Mellon University). Gaussian is a federally registered
 trademark of Gaussian, Inc.
  
 This software contains proprietary and confidential information,
 including trade secrets, belonging to Gaussian, Inc.
  
 This software is provided under written license and may be
 used, copied, transmitted, or stored only in accord with that
 written license.
  
 The following legend is applicable only to US Government
 contracts under FAR:
  
                    RESTRICTED RIGHTS LEGEND
  
 Use, reproduction and disclosure by the US Government is
 subject to restrictions as set forth in subparagraphs (a)
 and (c) of the Commercial Computer Software - Restricted
 Rights clause in FAR 52.227-19.
  
 Gaussian, Inc.
 340 Quinnipiac St., Bldg. 40, Wallingford CT 06492
  
  
 ---------------------------------------------------------------
 Warning -- This program may not be used in any manner that
 competes with the business of Gaussian, Inc. or will provide
 assistance to any competitor of Gaussian, Inc.  The licensee
 of this program is prohibited from giving any competitor of
 Gaussian, Inc. access to this program.  By using this program,
 the user acknowledges that Gaussian, Inc. is engaged in the
 business of creating and licensing software in the field of
 computational chemistry and represents and warrants to the
 licensee that it is not a competitor of Gaussian, Inc. and that
 it will not use this program in any manner prohibited above.
 ---------------------------------------------------------------
  

 Cite this work as:
 Gaussian 09, Revision B.01,
 M. J. Frisch, G. W. Trucks, H. B. Schlegel, G. E. Scuseria, 
 M. A. Robb, J. R. Cheeseman, G. Scalmani, V. Barone, B. Mennucci, 
 G. A. Petersson, H. Nakatsuji, M. Caricato, X. Li, H. P. Hratchian, 
 A. F. Izmaylov, J. Bloino, G. Zheng, J. L. Sonnenberg, M. Hada, 
 M. Ehara, K. Toyota, R. Fukuda, J. Hasegawa, M. Ishida, T. Nakajima, 
 Y. Honda, O. Kitao, H. Nakai, T. Vreven, J. A. Montgomery, Jr., 
 J. E. Peralta, F. Ogliaro, M. Bearpark, J. J. Heyd, E. Brothers, 
 K. N. Kudin, V. N. Staroverov, T. Keith, R. Kobayashi, J. Normand, 
 K. Raghavachari, A. Rendell, J. C. Burant, S. S. Iyengar, J. Tomasi, 
 M. Cossi, N. Rega, J. M. Millam, M. Klene, J. E. Knox, J. B. Cross, 
 V. Bakken, C. Adamo, J. Jaramillo, R. Gomperts, R. E. Stratmann, 
 O. Yazyev, A. J. Austin, R. Cammi, C. Pomelli, J. W. Ochterski, 
 R. L. Martin, K. Morokuma, V. G. Zakrzewski, G. A. Voth, 
 P. Salvador, J. J. Dannenberg, S. Dapprich, A. D. Daniels, 
 O. Farkas, J. B. Foresman, J. V. Ortiz, J. Cioslowski, 
 and D. J. Fox, Gaussian, Inc., Wallingford CT, 2010.
 
 ******************************************
 Gaussian 09:  EM64L-G09RevB.01 12-Aug-2010
                 1-Mar-2016 
 ******************************************
 ------------------------------------------------
 # freq=raman b3lyp/6-31+g(d,p) geom=connectivity
 ------------------------------------------------
 1/10=4,30=1,38=1,57=2/1,3;
 2/12=2,17=6,18=5,40=1/2;
 3/5=1,6=6,7=111,11=2,16=1,25=1,30=1,71=2,74=-5/1,2,3;
 4//1;
 5/5=2,38=5,98=1/2;
 8/6=4,10=90,11=11/1;
 10/13=10,15=4/2;
 11/6=3,8=1,9=11,15=111,16=1/1,2,10;
 10/6=1/2;
 6/7=2,8=2,9=2,10=2,18=1,28=1/1;
 7/8=1,10=1,25=1/1,2,3,16;
 1/10=4,30=1/3;
 99//99;
 ------------
 550 6000.com
 ------------
 Symbolic Z-matrix:
 Charge =  0 Multiplicity = 1
 O                     9.377     7.109     21.518 
 C                     10.166    7.054     22.715 
 C                     10.107    8.4       23.419 
 O                     10.91     9.297     22.638 
 H                     10.804    9.067     21.671 
 C                     10.904    8.581     24.701 
 O                     10.69     9.802     25.423 
 H                     10.718    10.503    24.71 
 C                     9.684     4.656     23.117 
 O                     9.184     3.652     24.012 
 H                     9.038     2.757     23.589 
 C                     9.812     6.021     23.773 
 O                     10.603    6.174     24.96 
 C                     10.558    7.437     25.641 
 O                     11.101    7.249     26.956 
 C                     10.303    7.366     28.143 
 C                     9.742     5.974     28.382 
 O                     8.859     5.46      27.374 
 H                     9.539     5.383     26.645 
 C                     9.07      5.929     29.744 
 O                     8.699     4.597     30.129 
 H                     7.813     4.348     29.736 
 C                     11.48     9.303     29.163 
 O                     12.169    9.809     30.315 
 H                     12.218    10.8      30.193 
 C                     11.301    7.794     29.206 
 O                     10.626    7.694     30.469 
 C                     10.16     6.359     30.712 
 O                     9.498     6.576     31.966 
 H                     10.15328   6.69563   32.6573 
 H                     10.95671   5.64885   30.78837 
 H                     8.23257   6.59371   29.78613 
 H                     10.57871   5.30849   28.42567 
 H                     9.5243    8.0894    28.01963 
 H                     12.22429   7.25406   29.17595 
 H                     12.03752   9.55987   28.28659 
 H                     10.5159   9.76375   29.1071 
 H                     9.95696   7.14411   20.75379 
 H                     10.64692   4.35263   22.76251 
 H                     9.0187    4.73586   22.28279 
 H                     8.81718   6.26725   24.08057 
 H                     11.18101   6.88217   22.42324 
 H                     9.10415   8.75959   23.51842 
 H                     11.94417   8.51433   24.45914 
 H                     9.5166    7.5929    25.83094 
 

 GradGradGradGradGradGradGradGradGradGradGradGradGradGradGradGradGradGrad
 Berny optimization.
 Initialization pass.
 Trust Radius=3.00D-01 FncErr=1.00D-07 GrdErr=1.00D-07
 Number of steps in this run=      2 maximum allowed number of steps=      2.
 GradGradGradGradGradGradGradGradGradGradGradGradGradGradGradGradGradGrad

                          Input orientation:                          
 ---------------------------------------------------------------------
 Center     Atomic      Atomic             Coordinates (Angstroms)
 Number     Number       Type             X           Y           Z
 ---------------------------------------------------------------------
      1          8           0        9.377000    7.109000   21.518000
      2          6           0       10.166000    7.054000   22.715000
      3          6           0       10.107000    8.400000   23.419000
      4          8           0       10.910000    9.297000   22.638000
      5          1           0       10.804000    9.067000   21.671000
      6          6           0       10.904000    8.581000   24.701000
      7          8           0       10.690000    9.802000   25.423000
      8          1           0       10.718000   10.503000   24.710000
      9          6           0        9.684000    4.656000   23.117000
     10          8           0        9.184000    3.652000   24.012000
     11          1           0        9.038000    2.757000   23.589000
     12          6           0        9.812000    6.021000   23.773000
     13          8           0       10.603000    6.174000   24.960000
     14          6           0       10.558000    7.437000   25.641000
     15          8           0       11.101000    7.249000   26.956000
     16          6           0       10.303000    7.366000   28.143000
     17          6           0        9.742000    5.974000   28.382000
     18          8           0        8.859000    5.460000   27.374000
     19          1           0        9.539000    5.383000   26.645000
     20          6           0        9.070000    5.929000   29.744000
     21          8           0        8.699000    4.597000   30.129000
     22          1           0        7.813000    4.348000   29.736000
     23          6           0       11.480000    9.303000   29.163000
     24          8           0       12.169000    9.809000   30.315000
     25          1           0       12.218000   10.800000   30.193000
     26          6           0       11.301000    7.794000   29.206000
     27          8           0       10.626000    7.694000   30.469000
     28          6           0       10.160000    6.359000   30.712000
     29          8           0        9.498000    6.576000   31.966000
     30          1           0       10.153285    6.695626   32.657297
     31          1           0       10.956715    5.648850   30.788372
     32          1           0        8.232575    6.593714   29.786127
     33          1           0       10.578710    5.308487   28.425674
     34          1           0        9.524297    8.089397   28.019634
     35          1           0       12.224286    7.254056   29.175950
     36          1           0       12.037516    9.559875   28.286592
     37          1           0       10.515903    9.763752   29.107103
     38          1           0        9.956958    7.144114   20.753791
     39          1           0       10.646915    4.352633   22.762510
     40          1           0        9.018701    4.735861   22.282794
     41          1           0        8.817184    6.267254   24.080571
     42          1           0       11.181013    6.882168   22.423241
     43          1           0        9.104151    8.759595   23.518424
     44          1           0       11.944172    8.514334   24.459137
     45          1           0        9.516599    7.592903   25.830943
 ---------------------------------------------------------------------
                    Distance matrix (angstroms):
                    1          2          3          4          5
     1  O    0.000000
     2  C    1.434697   0.000000
     3  C    2.411096   1.520136   0.000000
     4  O    2.896866   2.364427   1.435054   0.000000
     5  H    2.427654   2.355663   1.996548   0.999612   0.000000
     6  C    3.824919   2.611622   1.520360   2.183726   3.070358
     7  O    4.921915   3.893500   2.514261   2.838952   3.825013
     8  H    4.848338   4.022478   2.542167   2.405095   3.362293
     9  C    2.944191   2.478776   3.779903   4.824044   4.775169
    10  O    4.267099   3.770960   4.873098   6.060774   6.117753
    11  H    4.831549   4.527744   5.745878   6.868798   6.827414
    12  C    2.541258   1.520450   2.423217   3.636757   3.831525
    13  O    3.771560   2.450591   2.752412   3.903724   4.384903
    14  C    4.301334   2.976882   2.463342   3.549861   4.298641
    15  O    5.706454   4.347221   3.850092   4.782877   5.596835
    16  C    6.694337   5.438685   4.839809   5.865342   6.710528
    17  C    6.966774   5.784554   5.536251   6.737959   7.465388
    18  O    6.105756   5.094641   5.083614   6.431086   7.022655
    19  H    5.412158   4.316280   4.453312   5.766722   6.317654
    20  C    8.315872   7.202339   6.869267   8.076154   8.833297
    21  O    8.995507   7.947096   7.840241   9.115569   9.795391
    22  H    8.809355   7.883748   7.847651   9.190518   9.811181
    23  C    8.226923   6.954229   5.974452   6.549852   7.526137
    24  O    9.616261   8.328387   7.334299   7.796381   8.782512
    25  H    9.846339   8.611835   7.490220   7.813315   8.810628
    26  C    7.954643   6.630905   5.939886   6.749112   7.657922
    27  O    9.056634   7.793954   7.104245   7.998426   8.906268
    28  C    9.257712   8.027146   7.573397   8.624605   9.459793
    29  O   10.462286   9.287395   8.760654   9.818817  10.672289
    30  H   11.173962   9.948762   9.394315  10.379117  11.258133
    31  H    9.516688   8.232801   7.911921   8.929712   9.738252
    32  H    8.362843   7.345123   6.878695   8.097659   8.864799
    33  H    7.238916   5.985728   5.903113   7.036701   7.733227
    34  H    6.576787   5.442699   4.647780   5.686868   6.549695
    35  H    8.171431   6.783837   6.240077   6.974651   7.850367
    36  H    7.674566   6.389414   5.363362   5.766020   6.747632
    37  H    8.120302   6.951559   5.863578   6.497882   7.474229
    38  H    0.960000   1.974376   2.950102   3.015535   2.292650
    39  H    3.280099   2.744252   4.135658   4.952926   4.841624
    40  H    2.518944   2.622378   3.987640   4.950472   4.724442
    41  H    2.754759   2.074381   2.578741   3.954775   4.194287
    42  H    2.031102   1.070000   2.109230   2.439463   2.341259
    43  H    2.607797   2.163808   1.070000   2.079674   2.529221
    44  H    4.149171   2.887297   2.114275   2.235758   3.062538
    45  H    4.342249   3.228195   2.611024   3.878195   4.597335
                    6          7          8          9         10
     6  C    0.000000
     7  O    1.434546   0.000000
     8  H    1.931000   1.000277   0.000000
     9  C    4.404893   5.728088   6.147700   0.000000
    10  O    5.265754   6.487022   7.055251   1.434936   0.000000
    11  H    6.215905   7.464897   8.004971   2.060655   1.000635
    12  C    2.933811   4.217742   4.667668   1.519850   2.462451
    13  O    2.439535   3.658459   4.337737   2.558424   3.045119
    14  C    1.520543   2.378691   3.208226   3.855958   4.343701
    15  O    2.626415   3.006130   3.972370   4.844529   5.027965
    16  C    3.699296   3.671820   4.668885   5.743513   5.666667
    17  C    4.657945   4.930311   5.911683   5.427772   4.979955
    18  O    4.589945   5.100189   5.998719   4.410112   3.831127
    19  H    3.983662   4.727118   5.598988   3.605043   3.170974
    20  C    5.985692   6.024580   6.998467   6.776035   6.168756
    21  O    7.085017   7.294007   8.265758   7.081091   6.208538
    22  H    7.267998   7.524973   8.460717   6.885250   5.926908
    23  C    4.556589   3.854958   4.674383   7.834178   7.983622
    24  O    5.884319   5.110690   5.831214   9.194555   9.303047
    25  H    6.067341   5.107219   5.692231   9.707712   9.924909
    26  C    4.590425   4.326254   5.281343   7.038299   6.972481
    27  O    5.842420   5.468992   6.408200   8.010538   7.753062
    28  C    6.451584   6.333141   7.314923   7.798129   7.291805
    29  O    7.666622   7.391806   8.340220   9.056809   8.480241
    30  H    8.211021   7.891304   8.830318   9.767168   9.216525
    31  H    6.756951   6.790214   7.782440   7.839356   7.283485
    32  H    6.078185   5.947177   6.872184   7.094972   6.549766
    33  H    4.968737   5.405562   6.388161   5.422938   4.916267
    34  H    3.627477   3.321804   4.266625   5.987449   5.988942
    35  H    4.850682   4.788600   5.724443   7.064972   6.991747
    36  H    3.885810   3.174048   3.927164   7.504113   7.830560
    37  H    4.578566   3.688413   4.463390   7.915967   8.067686
    38  H    4.306041   5.422474   5.245273   3.442379   4.838208
    39  H    4.658639   6.064294   6.451727   1.070000   2.047494
    40  H    4.918045   6.190307   6.483737   1.070000   2.047494
    41  H    3.176972   4.219476   4.685170   2.067844   2.641744
    42  H    2.854987   4.214863   4.307444   2.770952   4.116576
    43  H    2.160981   2.688669   2.657786   4.163755   5.132009
    44  H    1.070000   2.039623   2.349728   4.668667   5.608990
    45  H    2.044013   2.534442   3.341937   4.002363   4.353148
                   11         12         13         14         15
    11  H    0.000000
    12  C    3.359558   0.000000
    13  O    4.000594   1.434594   0.000000
    14  C    5.331370   2.459877   1.435603   0.000000
    15  O    5.980863   3.647053   2.321130   1.435067   0.000000
    16  C    6.601668   4.598587   3.412089   2.515963   1.435083
    17  C    5.815286   4.609771   3.534318   3.212368   2.346483
    18  O    4.654511   3.766979   3.062471   3.130243   2.898587
    19  H    4.060297   2.954650   2.144062   2.503057   2.453267
    20  C    6.924351   6.017630   5.029589   4.617664   3.693278
    21  O    6.802361   6.607971   5.729809   5.627044   4.782325
    22  H    6.466646   6.507864   5.824822   5.817729   5.191834
    23  C    8.937727   6.527316   5.312719   4.091030   3.038652
    24  O   10.235865   7.918469   6.658949   5.483428   4.356272
    25  H   10.881869   8.357277   7.168849   5.897972   4.933098
    26  C    7.876752   5.905772   4.597839   3.659060   2.323688
    27  O    8.615690   6.949672   5.714894   4.835314   3.572789
    28  C    8.060423   6.955938   5.771999   5.199570   3.973049
    29  O    9.217944   8.217778   7.103989   6.470745   5.303078
    30  H    9.949404   8.916408   7.728047   7.066955   5.805960
    31  H    7.992198   7.117887   5.862663   5.463689   4.155524
    32  H    7.333039   6.243419   5.393197   4.827091   4.082509
    33  H    5.681310   4.768951   3.572198   3.505054   2.489642
    34  H    6.949925   4.732330   3.767454   2.674334   2.079321
    35  H    7.847926   6.044123   4.644279   3.912269   2.487966
    36  H    8.794519   6.152160   4.958649   3.700638   2.826248
    37  H    9.040367   6.554108   5.485652   4.174856   3.360590
    38  H    5.303741   3.224597   4.364709   4.932732   6.307712
    39  H    2.411999   2.121702   2.854517   4.219825   5.116687
    40  H    2.371168   2.121702   3.427197   4.576368   5.700061
    41  H    3.551378   1.070000   1.992795   2.614132   3.801017
    42  H    4.792547   2.106574   2.696433   3.324148   4.548283
    43  H    6.003374   2.840028   3.318131   2.892795   4.252791
    44  H    6.507678   3.351665   2.743496   2.116347   2.923412
    45  H    5.351759   2.606391   1.987988   1.070000   1.973410
                   16         17         18         19         20
    16  C    0.000000
    17  C    1.519706   0.000000
    18  O    2.511839   1.435252   0.000000
    19  H    2.599998   1.845985   0.999885   0.000000
    20  C    2.479609   1.519425   2.425156   3.181490   0.000000
    21  O    3.766215   2.456825   2.891435   3.669012   1.435301
    22  H    4.224461   2.863256   2.812420   3.688439   2.019820
    23  C    2.485498   3.835733   4.983855   5.047198   4.186829
    24  O    3.764012   4.932955   6.206398   6.322600   4.998424
    25  H    4.434195   5.718441   6.909793   7.007798   5.817056
    26  C    1.519591   2.534138   3.842804   3.933991   2.957200
    27  O    2.371116   2.845246   4.206194   4.598398   2.462110
    28  C    2.763016   2.398301   3.693649   4.228322   1.519876
    29  O    3.985907   3.642389   4.768673   5.453253   2.353524
    30  H    4.566256   4.355234   5.578097   6.184501   3.201331
    31  H    3.220860   2.715121   4.011734   4.387269   2.174601
    32  H    2.753716   2.152668   2.737895   3.610991   1.070000
    33  H    2.095061   1.070000   2.021479   2.063334   2.097434
    34  H    1.070000   2.157222   2.788044   3.035526   2.801274
    35  H    2.184230   2.903557   4.217916   4.137309   3.468137
    36  H    2.800402   4.258755   5.267330   5.136505   4.910544
    37  H    2.593075   3.935343   4.926587   5.119305   4.147481
    38  H    7.400635   7.720424   6.918737   6.162999   9.115210
    39  H    6.176433   5.918308   5.068406   4.166876   7.328901
    40  H    6.550502   6.265498   5.144926   4.440534   7.556177
    41  H    4.462983   4.409487   3.391177   2.806995   5.679151
    42  H    5.806948   6.196962   5.650161   4.771474   7.678439
    43  H    4.976550   5.640990   5.080639   4.622333   6.838950
    44  H    4.193205   5.166403   5.229118   4.513104   6.547870
    45  H    2.452655   3.029776   2.713436   2.355178   4.275516
                   21         22         23         24         25
    21  O    0.000000
    22  H    1.000723   0.000000
    23  C    5.550996   6.190900   0.000000
    24  O    6.264219   7.009458   1.434525   0.000000
    25  H    7.131947   7.825674   1.961263   0.999683   0.000000
    26  C    4.224114   4.931730   1.520188   2.458359   3.294100
    27  O    3.663378   4.432378   2.241391   2.622554   3.501125
    28  C    2.362002   3.241158   3.578958   4.012006   4.922114
    29  O    2.815921   3.574368   4.384252   4.506920   5.327674
    30  H    3.593252   4.418400   4.557267   4.386634   5.213606
    31  H    2.576516   3.561270   4.033420   4.358964   5.336633
    32  H    2.078937   2.285123   4.274844   5.110109   5.808786
    33  H    2.634548   3.207592   4.160783   5.133537   5.997286
    34  H    4.162616   4.457858   2.569998   3.901306   4.396240
    35  H    4.516181   5.312087   2.179977   2.797897   3.688922
    36  H    6.258617   6.863742   1.070000   2.047875   2.281420
    37  H    5.571421   6.085357   1.070000   2.047875   2.269387
    38  H    9.796162   9.648569   8.814491  10.169143  10.371908
    39  H    7.623599   7.527327   8.134275   9.440804   9.962380
    40  H    7.853944   7.560055   8.617075  10.008869  10.468078
    41  H    6.275923   6.056055   6.491335   7.914969   8.335054
    42  H    8.411962   8.440496   7.167578   8.474805   8.763213
    43  H    7.822472   7.732237   6.148267   7.529144   7.642597
    44  H    7.617349   7.891148   4.792054   6.001487   6.178709
    45  H    5.302565   5.355475   4.228709   5.661544   6.050667
                   26         27         28         29         30
    26  C    0.000000
    27  O    1.435547   0.000000
    28  C    2.372581   1.434723   0.000000
    29  O    3.514532   2.182502   1.434520   0.000000
    30  H    3.799358   2.451296   1.974219   0.960000   0.000000
    31  H    2.687769   2.096189   1.070000   2.091474   2.287820
    32  H    3.345514   2.721292   2.151116   2.520607   3.455883
    33  H    2.703403   3.141352   2.550723   3.912600   4.473453
    34  H    2.156709   2.714678   3.263008   4.226685   4.883250
    35  H    1.070000   2.102391   2.724308   3.959391   4.089091
    36  H    2.122753   3.199496   4.433201   5.375006   5.554936
    37  H    2.122753   2.480072   3.780833   4.401270   4.706247
    38  H    8.583044   9.753732   9.991174  11.235970  11.913570
    39  H    7.334125   8.399711   8.213220   9.537693  10.180377
    40  H    7.905181   8.851439   8.659599   9.868147  10.618770
    41  H    5.896636   6.791130   6.766640   7.920784   8.690736
    42  H    6.844827   8.105637   8.367778   9.694871  10.287221
    43  H    6.173090   7.194583   7.656710   8.734114   9.427601
    44  H    4.844096   6.207172   6.850331   8.129815   8.586315
    45  H    3.823027   4.769964   5.075549   6.218791   6.914447
                   31         32         33         34         35
    31  H    0.000000
    32  H    3.052573   0.000000
    33  H    2.416833   3.001166   0.000000
    34  H    3.959040   2.650681   3.001686   0.000000
    35  H    2.604483   4.091714   2.656328   3.053654   0.000000
    36  H    4.766881   5.052157   4.496861   2.924011   2.478435
    37  H    4.466923   3.965325   4.507514   2.229201   3.036756
    38  H   10.194516   9.211923   7.912894   7.339839   8.722708
    39  H    8.135761   7.757749   5.743668   6.546833   7.213776
    40  H    8.771221   7.769789   6.363686   6.664321   8.008289
    41  H    7.067858   5.744712   4.785617   4.397321   6.208463
    42  H    8.458535   7.936535   6.234456   5.960011   6.842938
    43  H    8.121630   6.688407   6.177829   4.570185   6.633966
    44  H    7.017499   6.770640   5.279712   4.325912   4.890306
    45  H    5.516283   4.276748   3.616527   2.244312   4.316881
                   36         37         38         39         40
    36  H    0.000000
    37  H    1.740721   0.000000
    38  H    8.179714   8.772272   0.000000
    39  H    7.717811   8.339738   3.507615   0.000000
    40  H    8.272239   8.607700   3.002975   1.740136   0.000000
    41  H    6.237187   6.354303   3.624284   2.958205   2.370185
    42  H    6.502507   7.308893   2.086621   2.607472   3.049910
    43  H    5.655131   5.851044   3.313646   4.729993   4.210049
    44  H    3.968788   5.020418   4.422229   4.677731   5.250877
    45  H    4.031651   4.055172   5.115936   4.603503   4.582571
                   41         42         43         44         45
    41  H    0.000000
    42  H    2.951702   0.000000
    43  H    2.571015   3.006245   0.000000
    44  H    3.869203   2.718685   3.001802   0.000000
    45  H    2.304415   3.858478   2.622790   2.936665   0.000000
 Stoichiometry    C12H22O11
 Framework group  C1[X(C12H22O11)]
 Deg. of freedom   129
 Full point group                 C1      NOp   1
 Largest Abelian subgroup         C1      NOp   1
 Largest concise Abelian subgroup C1      NOp   1
                         Standard orientation:                         
 ---------------------------------------------------------------------
 Center     Atomic      Atomic             Coordinates (Angstroms)
 Number     Number       Type             X           Y           Z
 ---------------------------------------------------------------------
      1          8           0       -5.190731    0.125081   -0.683696
      2          6           0       -3.971854   -0.111465    0.035151
      3          6           0       -3.239273   -1.287836   -0.589580
      4          8           0       -3.974686   -2.462419   -0.216885
      5          1           0       -4.949487   -2.241706   -0.200347
      6          6           0       -1.929798   -1.739523    0.037118
      7          8           0       -1.186815   -2.737410   -0.677107
      8          1           0       -1.882358   -3.410548   -0.929415
      9          6           0       -3.639844    2.282893    0.583921
     10          8           0       -2.783749    3.433174    0.529188
     11          1           0       -3.231423    4.293585    0.775258
     12          6           0       -2.949101    1.010207    0.122306
     13          8           0       -1.735383    0.583292    0.756886
     14          6           0       -1.027263   -0.524146    0.179734
     15          8           0        0.298990   -0.533904    0.727799
     16          6           0        1.463531   -0.270170   -0.068287
     17          6           0        1.653342    1.236334   -0.005666
     18          8           0        0.607410    2.035718   -0.577471
     19          1           0       -0.102136    1.799797    0.086349
     20          6           0        2.992871    1.601124   -0.623115
     21          8           0        3.335735    2.979274   -0.415180
     22          1           0        2.910346    3.559446   -1.110803
     23          6           0        2.563056   -2.485303    0.180572
     24          8           0        3.746796   -3.192263    0.576585
     25          1           0        3.649118   -4.118095    0.212360
     26          6           0        2.565948   -1.037096    0.642808
     27          8           0        3.805196   -0.624351    0.047241
     28          6           0        4.003204    0.791105    0.172575
     29          8           0        5.241128    0.909810   -0.542478
     30          1           0        5.954608    0.552839   -0.008513
     31          1           0        4.087467    1.109780    1.190537
     32          1           0        3.024740    1.344605   -1.661422
     33          1           0        1.707172    1.496751    1.030763
     34          1           0        1.333160   -0.609927   -1.074503
     35          1           0        2.551624   -0.929219    1.707259
     36          1           0        1.710144   -2.979156    0.597166
     37          1           0        2.488437   -2.507126   -0.886599
     38          1           0       -5.935932   -0.172583   -0.156749
     39          1           0       -3.971737    2.148294    1.592202
     40          1           0       -4.491856    2.457761   -0.039294
     41          1           0       -2.666373    1.208394   -0.890456
     42          1           0       -4.236459   -0.385183    1.035133
     43          1           0       -3.162185   -1.196394   -1.652874
     44          1           0       -2.141364   -2.117650    1.015464
     45          1           0       -0.865569   -0.228423   -0.835797
 ---------------------------------------------------------------------
 Rotational constants (GHZ):      0.3912508      0.1458972      0.1108082
 Standard basis: 6-31+G(d,p) (6D, 7F)
 There are   547 symmetry adapted basis functions of A   symmetry.
 Integral buffers will be    131072 words long.
 Raffenetti 2 integral format.
 Two-electron integral symmetry is turned on.
   547 basis functions,   890 primitive gaussians,   547 cartesian basis functions
    91 alpha electrons       91 beta electrons
       nuclear repulsion energy      2274.3282457023 Hartrees.
 NAtoms=   45 NActive=   45 NUniq=   45 SFac= 1.00D+00 NAtFMM=   50 NAOKFM=F Big=F
 One-electron integrals computed using PRISM.
 NBasis=   547 RedAO= T  NBF=   547
 NBsUse=   547 1.00D-06 NBFU=   547
 Harris functional with IExCor=  402 diagonalized for initial guess.
 ExpMin= 4.38D-02 ExpMax= 5.48D+03 ExpMxC= 8.25D+02 IAcc=2 IRadAn=         0 AccDes= 0.00D+00
 HarFok:  IExCor=  402 AccDes= 0.00D+00 IRadAn=         0 IDoV= 1
 ScaDFX=  1.000000  1.000000  1.000000  1.000000
 FoFCou: FMM=F IPFlag=           0 FMFlag=      100000 FMFlg1=           0
         NFxFlg=           0 DoJE=T BraDBF=F KetDBF=T FulRan=T
         Omega=  0.000000  0.000000  1.000000  0.000000  0.000000 ICntrl=     500 IOpCl=  0
         NMat0=    1 NMatS0=    1 NMatT0=    0 NMatD0=    1 NMtDS0=    0 NMtDT0=    0
         I1Cent=           4 NGrid=           0.
 Petite list used in FoFCou.
 Initial guess orbital symmetries:
       Occupied  (A) (A) (A) (A) (A) (A) (A) (A) (A) (A) (A) (A)
                 (A) (A) (A) (A) (A) (A) (A) (A) (A) (A) (A) (A)
                 (A) (A) (A) (A) (A) (A) (A) (A) (A) (A) (A) (A)
                 (A) (A) (A) (A) (A) (A) (A) (A) (A) (A) (A) (A)
                 (A) (A) (A) (A) (A) (A) (A) (A) (A) (A) (A) (A)
                 (A) (A) (A) (A) (A) (A) (A) (A) (A) (A) (A) (A)
                 (A) (A) (A) (A) (A) (A) (A) (A) (A) (A) (A) (A)
                 (A) (A) (A) (A) (A) (A) (A)
       Virtual   (A) (A) (A) (A) (A) (A) (A) (A) (A) (A) (A) (A)
                 (A) (A) (A) (A) (A) (A) (A) (A) (A) (A) (A) (A)
                 (A) (A) (A) (A) (A) (A) (A) (A) (A) (A) (A) (A)
                 (A) (A) (A) (A) (A) (A) (A) (A) (A) (A) (A) (A)
                 (A) (A) (A) (A) (A) (A) (A) (A) (A) (A) (A) (A)
                 (A) (A) (A) (A) (A) (A) (A) (A) (A) (A) (A) (A)
                 (A) (A) (A) (A) (A) (A) (A) (A) (A) (A) (A) (A)
                 (A) (A) (A) (A) (A) (A) (A) (A) (A) (A) (A) (A)
                 (A) (A) (A) (A) (A) (A) (A) (A) (A) (A) (A) (A)
                 (A) (A) (A) (A) (A) (A) (A) (A) (A) (A) (A) (A)
                 (A) (A) (A) (A) (A) (A) (A) (A) (A) (A) (A) (A)
                 (A) (A) (A) (A) (A) (A) (A) (A) (A) (A) (A) (A)
                 (A) (A) (A) (A) (A) (A) (A) (A) (A) (A) (A) (A)
                 (A) (A) (A) (A) (A) (A) (A) (A) (A) (A) (A) (A)
                 (A) (A) (A) (A) (A) (A) (A) (A) (A) (A) (A) (A)
                 (A) (A) (A) (A) (A) (A) (A) (A) (A) (A) (A) (A)
                 (A) (A) (A) (A) (A) (A) (A) (A) (A) (A) (A) (A)
                 (A) (A) (A) (A) (A) (A) (A) (A) (A) (A) (A) (A)
                 (A) (A) (A) (A) (A) (A) (A) (A) (A) (A) (A) (A)
                 (A) (A) (A) (A) (A) (A) (A) (A) (A) (A) (A) (A)
                 (A) (A) (A) (A) (A) (A) (A) (A) (A) (A) (A) (A)
                 (A) (A) (A) (A) (A) (A) (A) (A) (A) (A) (A) (A)
                 (A) (A) (A) (A) (A) (A) (A) (A) (A) (A) (A) (A)
                 (A) (A) (A) (A) (A) (A) (A) (A) (A) (A) (A) (A)
                 (A) (A) (A) (A) (A) (A) (A) (A) (A) (A) (A) (A)
                 (A) (A) (A) (A) (A) (A) (A) (A) (A) (A) (A) (A)
                 (A) (A) (A) (A) (A) (A) (A) (A) (A) (A) (A) (A)
                 (A) (A) (A) (A) (A) (A) (A) (A) (A) (A) (A) (A)
                 (A) (A) (A) (A) (A) (A) (A) (A) (A) (A) (A) (A)
                 (A) (A) (A) (A) (A) (A) (A) (A) (A) (A) (A) (A)
                 (A) (A) (A) (A) (A) (A) (A) (A) (A) (A) (A) (A)
                 (A) (A) (A) (A) (A) (A) (A) (A) (A) (A) (A) (A)
                 (A) (A) (A) (A) (A) (A) (A) (A) (A) (A) (A) (A)
                 (A) (A) (A) (A) (A) (A) (A) (A) (A) (A) (A) (A)
                 (A) (A) (A) (A) (A) (A) (A) (A) (A) (A) (A) (A)
                 (A) (A) (A) (A) (A) (A) (A) (A) (A) (A) (A) (A)
                 (A) (A) (A) (A) (A) (A) (A) (A) (A) (A) (A) (A)
                 (A) (A) (A) (A) (A) (A) (A) (A) (A) (A) (A) (A)
 The electronic state of the initial guess is 1-A.
 Requested convergence on RMS density matrix=1.00D-08 within 128 cycles.
 Requested convergence on MAX density matrix=1.00D-06.
 Requested convergence on             energy=1.00D-06.
 No special actions if energy rises.
 SCF Done:  E(RB3LYP) =  -1297.91027168     A.U. after   14 cycles
             Convg  =    0.2147D-08             -V/T =  2.0086
 Range of M.O.s used for correlation:     1   547
 NBasis=   547 NAE=    91 NBE=    91 NFC=     0 NFV=     0
 NROrb=    547 NOA=    91 NOB=    91 NVA=   456 NVB=   456

 **** Warning!!: The largest alpha MO coefficient is  0.10000530D+03

          Differentiating once with respect to electric field.
                with respect to dipole field.
          Electric field/nuclear overlap derivatives assumed to be zero.
          There are     3 degrees of freedom in the 1st order CPHF.  IDoFFX=0.
      3 vectors produced by pass  0 Test12= 1.38D-12 3.33D-08 XBig12= 1.20D+02 1.17D+00.
 AX will form     3 AO Fock derivatives at one time.
      3 vectors produced by pass  1 Test12= 1.38D-12 3.33D-08 XBig12= 2.25D+01 3.10D-01.
      3 vectors produced by pass  2 Test12= 1.38D-12 3.33D-08 XBig12= 8.88D+00 1.87D-01.
      3 vectors produced by pass  3 Test12= 1.38D-12 3.33D-08 XBig12= 1.00D+00 8.24D-02.
      3 vectors produced by pass  4 Test12= 1.38D-12 3.33D-08 XBig12= 3.23D-01 4.79D-02.
      3 vectors produced by pass  5 Test12= 1.38D-12 3.33D-08 XBig12= 5.74D-02 1.98D-02.
      3 vectors produced by pass  6 Test12= 1.38D-12 3.33D-08 XBig12= 2.10D-02 1.79D-02.
      3 vectors produced by pass  7 Test12= 1.38D-12 3.33D-08 XBig12= 2.59D-03 8.24D-03.
      3 vectors produced by pass  8 Test12= 1.38D-12 3.33D-08 XBig12= 6.05D-04 3.08D-03.
      3 vectors produced by pass  9 Test12= 1.38D-12 3.33D-08 XBig12= 1.50D-04 1.86D-03.
      3 vectors produced by pass 10 Test12= 1.38D-12 3.33D-08 XBig12= 3.98D-05 7.88D-04.
      3 vectors produced by pass 11 Test12= 1.38D-12 3.33D-08 XBig12= 8.29D-06 4.77D-04.
      3 vectors produced by pass 12 Test12= 1.38D-12 3.33D-08 XBig12= 8.57D-07 1.06D-04.
      3 vectors produced by pass 13 Test12= 1.38D-12 3.33D-08 XBig12= 1.99D-07 3.55D-05.
      3 vectors produced by pass 14 Test12= 1.38D-12 3.33D-08 XBig12= 4.79D-08 1.76D-05.
      3 vectors produced by pass 15 Test12= 1.38D-12 3.33D-08 XBig12= 8.63D-09 9.54D-06.
      3 vectors produced by pass 16 Test12= 1.38D-12 3.33D-08 XBig12= 9.29D-10 2.67D-06.
      3 vectors produced by pass 17 Test12= 1.38D-12 3.33D-08 XBig12= 8.24D-11 9.35D-07.
      3 vectors produced by pass 18 Test12= 1.38D-12 3.33D-08 XBig12= 2.47D-11 3.58D-07.
      3 vectors produced by pass 19 Test12= 1.38D-12 3.33D-08 XBig12= 1.48D-11 3.23D-07.
      3 vectors produced by pass 20 Test12= 1.38D-12 3.33D-08 XBig12= 5.40D-12 2.09D-07.
      3 vectors produced by pass 21 Test12= 1.38D-12 3.33D-08 XBig12= 8.62D-13 7.54D-08.
 Inverted reduced A of dimension    66 with in-core refinement.
 End of Minotr Frequency-dependent properties file   721 does not exist.
 End of Minotr Frequency-dependent properties file   722 does not exist.
 Symmetrizing basis deriv contribution to polar:
 IMax=3 JMax=2 DiffMx= 0.00D+00
 G2DrvN: will do    23 centers at a time, making    2 passes doing MaxLOS=2.
 Calling FoFCou, ICntrl=  3107 FMM=F I1Cent=   0 AccDes= 0.00D+00.
 Calling FoFCou, ICntrl=  3107 FMM=F I1Cent=   0 AccDes= 0.00D+00.
 FoFDir/FoFCou used for L=0 through L=2.
 End of G2Drv Frequency-dependent properties file   721 does not exist.
 End of G2Drv Frequency-dependent properties file   722 does not exist.
          IDoAtm=111111111111111111111111111111111111111111111
          Differentiating once with respect to electric field.
                with respect to dipole field.
          Differentiating once with respect to nuclear coordinates.
          There are   138 degrees of freedom in the 1st order CPHF.  IDoFFX=5.
 Will reuse    3 saved solutions.
    135 vectors produced by pass  0 Test12= 4.15D-14 1.00D-09 XBig12= 2.24D-01 8.32D-02.
 AX will form    68 AO Fock derivatives at one time.
    135 vectors produced by pass  1 Test12= 4.15D-14 1.00D-09 XBig12= 3.18D-02 1.57D-02.
    132 vectors produced by pass  2 Test12= 4.15D-14 1.00D-09 XBig12= 1.26D-04 1.59D-03.
    132 vectors produced by pass  3 Test12= 4.15D-14 1.00D-09 XBig12= 4.24D-07 6.81D-05.
    132 vectors produced by pass  4 Test12= 4.15D-14 1.00D-09 XBig12= 6.58D-10 1.99D-06.
    130 vectors produced by pass  5 Test12= 4.15D-14 1.00D-09 XBig12= 2.18D-12 1.11D-07.
     81 vectors produced by pass  6 Test12= 4.15D-14 1.00D-09 XBig12= 9.11D-14 1.74D-08.
      1 vectors produced by pass  7 Test12= 4.15D-14 1.00D-09 XBig12= 4.27D-16 1.21D-09.
 Inverted reduced A of dimension   878 with in-core refinement.
 Isotropic polarizability for W=    0.000000      186.85 Bohr**3.
 End of Minotr Frequency-dependent properties file   721 does not exist.
 End of Minotr Frequency-dependent properties file   722 does not exist.

 **********************************************************************

            Population analysis using the SCF density.

 **********************************************************************

 Orbital symmetries:
       Occupied  (A) (A) (A) (A) (A) (A) (A) (A) (A) (A) (A) (A)
                 (A) (A) (A) (A) (A) (A) (A) (A) (A) (A) (A) (A)
                 (A) (A) (A) (A) (A) (A) (A) (A) (A) (A) (A) (A)
                 (A) (A) (A) (A) (A) (A) (A) (A) (A) (A) (A) (A)
                 (A) (A) (A) (A) (A) (A) (A) (A) (A) (A) (A) (A)
                 (A) (A) (A) (A) (A) (A) (A) (A) (A) (A) (A) (A)
                 (A) (A) (A) (A) (A) (A) (A) (A) (A) (A) (A) (A)
                 (A) (A) (A) (A) (A) (A) (A)
       Virtual   (A) (A) (A) (A) (A) (A) (A) (A) (A) (A) (A) (A)
                 (A) (A) (A) (A) (A) (A) (A) (A) (A) (A) (A) (A)
                 (A) (A) (A) (A) (A) (A) (A) (A) (A) (A) (A) (A)
                 (A) (A) (A) (A) (A) (A) (A) (A) (A) (A) (A) (A)
                 (A) (A) (A) (A) (A) (A) (A) (A) (A) (A) (A) (A)
                 (A) (A) (A) (A) (A) (A) (A) (A) (A) (A) (A) (A)
                 (A) (A) (A) (A) (A) (A) (A) (A) (A) (A) (A) (A)
                 (A) (A) (A) (A) (A) (A) (A) (A) (A) (A) (A) (A)
                 (A) (A) (A) (A) (A) (A) (A) (A) (A) (A) (A) (A)
                 (A) (A) (A) (A) (A) (A) (A) (A) (A) (A) (A) (A)
                 (A) (A) (A) (A) (A) (A) (A) (A) (A) (A) (A) (A)
                 (A) (A) (A) (A) (A) (A) (A) (A) (A) (A) (A) (A)
                 (A) (A) (A) (A) (A) (A) (A) (A) (A) (A) (A) (A)
                 (A) (A) (A) (A) (A) (A) (A) (A) (A) (A) (A) (A)
                 (A) (A) (A) (A) (A) (A) (A) (A) (A) (A) (A) (A)
                 (A) (A) (A) (A) (A) (A) (A) (A) (A) (A) (A) (A)
                 (A) (A) (A) (A) (A) (A) (A) (A) (A) (A) (A) (A)
                 (A) (A) (A) (A) (A) (A) (A) (A) (A) (A) (A) (A)
                 (A) (A) (A) (A) (A) (A) (A) (A) (A) (A) (A) (A)
                 (A) (A) (A) (A) (A) (A) (A) (A) (A) (A) (A) (A)
                 (A) (A) (A) (A) (A) (A) (A) (A) (A) (A) (A) (A)
                 (A) (A) (A) (A) (A) (A) (A) (A) (A) (A) (A) (A)
                 (A) (A) (A) (A) (A) (A) (A) (A) (A) (A) (A) (A)
                 (A) (A) (A) (A) (A) (A) (A) (A) (A) (A) (A) (A)
                 (A) (A) (A) (A) (A) (A) (A) (A) (A) (A) (A) (A)
                 (A) (A) (A) (A) (A) (A) (A) (A) (A) (A) (A) (A)
                 (A) (A) (A) (A) (A) (A) (A) (A) (A) (A) (A) (A)
                 (A) (A) (A) (A) (A) (A) (A) (A) (A) (A) (A) (A)
                 (A) (A) (A) (A) (A) (A) (A) (A) (A) (A) (A) (A)
                 (A) (A) (A) (A) (A) (A) (A) (A) (A) (A) (A) (A)
                 (A) (A) (A) (A) (A) (A) (A) (A) (A) (A) (A) (A)
                 (A) (A) (A) (A) (A) (A) (A) (A) (A) (A) (A) (A)
                 (A) (A) (A) (A) (A) (A) (A) (A) (A) (A) (A) (A)
                 (A) (A) (A) (A) (A) (A) (A) (A) (A) (A) (A) (A)
                 (A) (A) (A) (A) (A) (A) (A) (A) (A) (A) (A) (A)
                 (A) (A) (A) (A) (A) (A) (A) (A) (A) (A) (A) (A)
                 (A) (A) (A) (A) (A) (A) (A) (A) (A) (A) (A) (A)
                 (A) (A) (A) (A) (A) (A) (A) (A) (A) (A) (A) (A)
 The electronic state is 1-A.
 Alpha  occ. eigenvalues --  -19.21078 -19.19223 -19.18877 -19.18529 -19.17873
 Alpha  occ. eigenvalues --  -19.17154 -19.15916 -19.15751 -19.15307 -19.15240
 Alpha  occ. eigenvalues --  -19.14652 -10.30880 -10.28307 -10.28055 -10.27164
 Alpha  occ. eigenvalues --  -10.26883 -10.26262 -10.25638 -10.25213 -10.24263
 Alpha  occ. eigenvalues --  -10.23611 -10.23341 -10.22463  -1.09449  -1.08195
 Alpha  occ. eigenvalues --   -1.06951  -1.05893  -1.04084  -1.03470  -1.02647
 Alpha  occ. eigenvalues --   -1.02262  -1.01235  -1.00349  -0.98940  -0.82855
 Alpha  occ. eigenvalues --   -0.81288  -0.78721  -0.77626  -0.72385  -0.69545
 Alpha  occ. eigenvalues --   -0.67211  -0.64703  -0.63280  -0.62047  -0.61087
 Alpha  occ. eigenvalues --   -0.59771  -0.57639  -0.56641  -0.54794  -0.53925
 Alpha  occ. eigenvalues --   -0.53699  -0.52970  -0.52448  -0.51733  -0.50689
 Alpha  occ. eigenvalues --   -0.50122  -0.49400  -0.48114  -0.47408  -0.46893
 Alpha  occ. eigenvalues --   -0.46007  -0.45540  -0.44584  -0.43830  -0.43266
 Alpha  occ. eigenvalues --   -0.42585  -0.40936  -0.40843  -0.40553  -0.39571
 Alpha  occ. eigenvalues --   -0.38761  -0.37551  -0.36613  -0.36416  -0.35908
 Alpha  occ. eigenvalues --   -0.35523  -0.34583  -0.33868  -0.33166  -0.32928
 Alpha  occ. eigenvalues --   -0.32696  -0.31228  -0.31003  -0.30349  -0.29248
 Alpha  occ. eigenvalues --   -0.28757  -0.28560  -0.28095  -0.27086  -0.26603
 Alpha  occ. eigenvalues --   -0.25805
 Alpha virt. eigenvalues --   -0.04588  -0.01637  -0.00570   0.00079   0.00875
 Alpha virt. eigenvalues --    0.01302   0.01572   0.02229   0.02597   0.03324
 Alpha virt. eigenvalues --    0.03897   0.04217   0.04399   0.04926   0.05975
 Alpha virt. eigenvalues --    0.06222   0.06735   0.07173   0.07446   0.08269
 Alpha virt. eigenvalues --    0.08467   0.09075   0.09298   0.09439   0.09907
 Alpha virt. eigenvalues --    0.10806   0.10866   0.11508   0.11703   0.12154
 Alpha virt. eigenvalues --    0.12519   0.12694   0.13275   0.13345   0.13710
 Alpha virt. eigenvalues --    0.14063   0.14415   0.14937   0.15165   0.15334
 Alpha virt. eigenvalues --    0.15454   0.15778   0.16256   0.16328   0.16903
 Alpha virt. eigenvalues --    0.17021   0.17666   0.18002   0.18334   0.18582
 Alpha virt. eigenvalues --    0.18952   0.19411   0.19472   0.19721   0.20150
 Alpha virt. eigenvalues --    0.20535   0.20742   0.21201   0.21395   0.21776
 Alpha virt. eigenvalues --    0.21917   0.22320   0.22506   0.23046   0.23307
 Alpha virt. eigenvalues --    0.23437   0.23673   0.23889   0.24140   0.24449
 Alpha virt. eigenvalues --    0.24723   0.24923   0.25587   0.25911   0.26093
 Alpha virt. eigenvalues --    0.26652   0.26908   0.27231   0.27280   0.27636
 Alpha virt. eigenvalues --    0.27747   0.27979   0.28423   0.28767   0.29231
 Alpha virt. eigenvalues --    0.29841   0.30081   0.30109   0.30552   0.30862
 Alpha virt. eigenvalues --    0.31435   0.31507   0.31846   0.32503   0.32714
 Alpha virt. eigenvalues --    0.32843   0.33605   0.33648   0.34276   0.34511
 Alpha virt. eigenvalues --    0.34747   0.34964   0.35291   0.35646   0.36275
 Alpha virt. eigenvalues --    0.36617   0.36798   0.37305   0.37667   0.38197
 Alpha virt. eigenvalues --    0.38410   0.38740   0.38902   0.39245   0.39842
 Alpha virt. eigenvalues --    0.40393   0.40526   0.40599   0.40993   0.41354
 Alpha virt. eigenvalues --    0.41803   0.42103   0.42569   0.43527   0.44295
 Alpha virt. eigenvalues --    0.45101   0.45333   0.45565   0.46183   0.46638
 Alpha virt. eigenvalues --    0.47614   0.48010   0.48918   0.50175   0.50881
 Alpha virt. eigenvalues --    0.52764   0.54135   0.55699   0.62805   0.64814
 Alpha virt. eigenvalues --    0.65395   0.66047   0.67217   0.67867   0.70080
 Alpha virt. eigenvalues --    0.70942   0.71655   0.72652   0.73128   0.74226
 Alpha virt. eigenvalues --    0.74886   0.76219   0.76485   0.78227   0.78668
 Alpha virt. eigenvalues --    0.79987   0.80480   0.81757   0.82905   0.84587
 Alpha virt. eigenvalues --    0.85520   0.86316   0.87255   0.88267   0.90048
 Alpha virt. eigenvalues --    0.90248   0.91182   0.93177   0.94541   0.95105
 Alpha virt. eigenvalues --    0.95932   0.97998   0.98663   0.99385   0.99970
 Alpha virt. eigenvalues --    1.00588   1.01463   1.02630   1.03358   1.03822
 Alpha virt. eigenvalues --    1.04695   1.05253   1.05844   1.06395   1.06914
 Alpha virt. eigenvalues --    1.07841   1.08647   1.09350   1.09814   1.10531
 Alpha virt. eigenvalues --    1.10940   1.11554   1.12257   1.13692   1.14156
 Alpha virt. eigenvalues --    1.17164   1.17316   1.18956   1.19581   1.21345
 Alpha virt. eigenvalues --    1.22416   1.22715   1.23756   1.24339   1.24837
 Alpha virt. eigenvalues --    1.25412   1.26843   1.27259   1.27553   1.28085
 Alpha virt. eigenvalues --    1.29665   1.30311   1.30763   1.30837   1.31459
 Alpha virt. eigenvalues --    1.31685   1.32514   1.33098   1.33262   1.34249
 Alpha virt. eigenvalues --    1.34506   1.34980   1.35853   1.37041   1.38443
 Alpha virt. eigenvalues --    1.39087   1.40466   1.40794   1.41240   1.42119
 Alpha virt. eigenvalues --    1.43286   1.44156   1.45769   1.46869   1.48261
 Alpha virt. eigenvalues --    1.49489   1.51118   1.52701   1.53678   1.53953
 Alpha virt. eigenvalues --    1.54253   1.55749   1.55935   1.56719   1.56929
 Alpha virt. eigenvalues --    1.57941   1.59067   1.59468   1.59854   1.60966
 Alpha virt. eigenvalues --    1.61671   1.62202   1.63103   1.63916   1.64925
 Alpha virt. eigenvalues --    1.65247   1.66576   1.66699   1.67231   1.67537
 Alpha virt. eigenvalues --    1.69303   1.70801   1.71250   1.72297   1.72975
 Alpha virt. eigenvalues --    1.74193   1.75242   1.75734   1.76506   1.78103
 Alpha virt. eigenvalues --    1.79223   1.79800   1.81087   1.82468   1.82640
 Alpha virt. eigenvalues --    1.83136   1.83794   1.84610   1.85755   1.87284
 Alpha virt. eigenvalues --    1.87804   1.88934   1.89901   1.89984   1.90799
 Alpha virt. eigenvalues --    1.91850   1.93090   1.94308   1.95264   1.96373
 Alpha virt. eigenvalues --    1.96749   1.96981   1.97315   1.98018   1.98558
 Alpha virt. eigenvalues --    1.99323   1.99998   2.01095   2.02199   2.03162
 Alpha virt. eigenvalues --    2.03580   2.05551   2.05774   2.06043   2.07341
 Alpha virt. eigenvalues --    2.08261   2.09815   2.10480   2.11424   2.11848
 Alpha virt. eigenvalues --    2.13797   2.15069   2.15186   2.16038   2.16101
 Alpha virt. eigenvalues --    2.17038   2.17939   2.19215   2.19547   2.20199
 Alpha virt. eigenvalues --    2.21622   2.23359   2.25298   2.27916   2.28157
 Alpha virt. eigenvalues --    2.28867   2.31032   2.32846   2.33071   2.33508
 Alpha virt. eigenvalues --    2.34759   2.35709   2.36640   2.38039   2.39153
 Alpha virt. eigenvalues --    2.39886   2.40462   2.41734   2.42121   2.42793
 Alpha virt. eigenvalues --    2.45870   2.46392   2.46731   2.48849   2.49639
 Alpha virt. eigenvalues --    2.50450   2.51181   2.52683   2.53594   2.55302
 Alpha virt. eigenvalues --    2.56083   2.56739   2.58032   2.58689   2.60358
 Alpha virt. eigenvalues --    2.62471   2.62869   2.63304   2.63835   2.64210
 Alpha virt. eigenvalues --    2.64447   2.65856   2.66368   2.67054   2.70523
 Alpha virt. eigenvalues --    2.71458   2.72879   2.73781   2.75003   2.75894
 Alpha virt. eigenvalues --    2.76446   2.76936   2.77683   2.79813   2.80952
 Alpha virt. eigenvalues --    2.81753   2.82588   2.82838   2.83913   2.85045
 Alpha virt. eigenvalues --    2.85555   2.87278   2.87421   2.88293   2.89030
 Alpha virt. eigenvalues --    2.90019   2.91246   2.92739   2.94812   2.95764
 Alpha virt. eigenvalues --    2.96123   2.96902   2.97935   2.98609   2.99392
 Alpha virt. eigenvalues --    3.01177   3.01896   3.02950   3.05484   3.06364
 Alpha virt. eigenvalues --    3.08291   3.09083   3.10837   3.11896   3.13866
 Alpha virt. eigenvalues --    3.16746   3.19590   3.22073   3.26653   3.28712
 Alpha virt. eigenvalues --    3.32889   3.35613   3.38405   3.40453   3.41085
 Alpha virt. eigenvalues --    3.41924   3.44354   3.45777   3.46031   3.47828
 Alpha virt. eigenvalues --    3.49301   3.50184   3.50833   3.51515   3.52396
 Alpha virt. eigenvalues --    3.54012   3.55844   3.58004   3.59169   3.61745
 Alpha virt. eigenvalues --    3.63506   3.65434   3.67127   4.26999   4.33675
 Alpha virt. eigenvalues --    4.34579   4.36276   4.36808   4.41631   4.45408
 Alpha virt. eigenvalues --    4.45726   4.47699   4.50067   4.51854   4.53700
 Alpha virt. eigenvalues --    4.57345   4.61951   4.64460   4.66522   4.74443
 Alpha virt. eigenvalues --    4.76966   4.84151   4.85037   4.86388   4.88640
 Alpha virt. eigenvalues --    4.95834
          Condensed to atoms (all electrons):
              1          2          3          4          5          6
     1  O    8.249697   0.321403  -0.048529  -0.023362   0.027275  -0.000941
     2  C    0.321403  12.292196  -2.137272   0.229669  -0.028721  -2.382396
     3  C   -0.048529  -2.137272   8.555619  -0.133327   0.048966  -0.102070
     4  O   -0.023362   0.229669  -0.133327   8.414456   0.187421  -0.054484
     5  H    0.027275  -0.028721   0.048966   0.187421   0.447787  -0.058587
     6  C   -0.000941  -2.382396  -0.102070  -0.054484  -0.058587  13.374381
     7  O   -0.000776   0.042917   0.006645  -0.019706   0.001635   0.179363
     8  H   -0.000124   0.019355  -0.041338   0.015221  -0.000581   0.020057
     9  C   -0.049003   0.549438  -0.256547   0.007831  -0.008789   0.068238
    10  O   -0.001794   0.040946   0.007103   0.000104  -0.000006  -0.014074
    11  H    0.000201  -0.008541   0.001992   0.000001   0.000000   0.001008
    12  C   -0.173720  -4.540205   0.131969  -0.096252   0.042697   1.186681
    13  O    0.007775   0.139197  -0.017297   0.001107  -0.000053  -0.051141
    14  C    0.026753   1.370198  -0.719718   0.069896   0.012913  -5.344679
    15  O    0.000311  -0.002512   0.042771  -0.002823   0.000082  -0.081771
    16  C    0.000690   0.314624   0.149708  -0.002568   0.000073  -0.386515
    17  C   -0.000933  -0.225890   0.047990   0.001100   0.000071  -0.302352
    18  O    0.000035   0.014377  -0.008853  -0.000019  -0.000001   0.019396
    19  H   -0.000009   0.004688  -0.000205   0.000000   0.000000   0.000275
    20  C    0.000023  -0.020310   0.025793   0.000114   0.000003  -0.244945
    21  O    0.000000   0.000122  -0.000111   0.000000   0.000000   0.000698
    22  H    0.000000  -0.000003  -0.000011   0.000000   0.000000  -0.000161
    23  C    0.000024   0.007193  -0.022194   0.000142  -0.000027  -0.044249
    24  O    0.000000   0.000034  -0.000614   0.000000   0.000000  -0.008205
    25  H    0.000000  -0.000008   0.000021   0.000000   0.000000   0.000610
    26  C   -0.000145  -0.022080   0.099413  -0.001785  -0.000012   0.232113
    27  O    0.000000  -0.000062   0.000362  -0.000001   0.000000  -0.006120
    28  C    0.000006   0.002371  -0.002792   0.000040   0.000000  -0.018774
    29  O    0.000000   0.000047  -0.000058   0.000000   0.000000   0.000920
    30  H    0.000000   0.000000   0.000000   0.000000   0.000000   0.000005
    31  H    0.000000   0.000017  -0.000030   0.000000   0.000000   0.000310
    32  H    0.000000   0.000154  -0.000213   0.000000   0.000000   0.001972
    33  H    0.000000   0.001260  -0.001667   0.000000   0.000000   0.007784
    34  H   -0.000001  -0.000720  -0.007859   0.000014   0.000000  -0.008558
    35  H    0.000000   0.000134  -0.001265   0.000000   0.000000  -0.004305
    36  H    0.000000   0.000040   0.004839   0.000005   0.000000   0.000503
    37  H    0.000000   0.000071  -0.002220   0.000001   0.000000  -0.011420
    38  H    0.237679   0.063460  -0.051388  -0.000582  -0.001481   0.002662
    39  H   -0.002343   0.048508   0.003844  -0.000130  -0.000002  -0.002813
    40  H    0.005514   0.027071  -0.019763  -0.000046  -0.000002   0.001186
    41  H    0.004005  -0.033207  -0.011528   0.000020  -0.000055  -0.049696
    42  H   -0.048503   0.460233  -0.108430   0.001324  -0.003612  -0.032043
    43  H   -0.009596   0.154269   0.345727  -0.034204  -0.002115  -0.303579
    44  H   -0.000790  -0.015363  -0.050321  -0.014751   0.000680   0.435994
    45  H   -0.000342  -0.076522   0.017793  -0.000413  -0.000006  -0.195041
              7          8          9         10         11         12
     1  O   -0.000776  -0.000124  -0.049003  -0.001794   0.000201  -0.173720
     2  C    0.042917   0.019355   0.549438   0.040946  -0.008541  -4.540205
     3  C    0.006645  -0.041338  -0.256547   0.007103   0.001992   0.131969
     4  O   -0.019706   0.015221   0.007831   0.000104   0.000001  -0.096252
     5  H    0.001635  -0.000581  -0.008789  -0.000006   0.000000   0.042697
     6  C    0.179363   0.020057   0.068238  -0.014074   0.001008   1.186681
     7  O    8.280320   0.180883   0.000540  -0.000028   0.000000  -0.009863
     8  H    0.180883   0.419497   0.000934   0.000000   0.000000  -0.003162
     9  C    0.000540   0.000934   7.078635   0.040621  -0.020616  -2.017437
    10  O   -0.000028   0.000000   0.040621   8.342773   0.202188   0.018513
    11  H    0.000000   0.000000  -0.020616   0.202188   0.430750   0.040163
    12  C   -0.009863  -0.003162  -2.017437   0.018513   0.040163  12.696450
    13  O    0.012023  -0.000846  -0.052618   0.007456  -0.000372  -0.111395
    14  C   -0.162588   0.024954  -0.363037   0.010090  -0.001338  -1.120113
    15  O   -0.006647   0.000726  -0.006472  -0.000083  -0.000001  -0.045594
    16  C    0.040475  -0.002871  -0.011550   0.014412  -0.001157  -0.261100
    17  C    0.008221  -0.001291  -0.004847  -0.011079   0.001236   0.016791
    18  O    0.000132  -0.000001  -0.005477   0.000440   0.000064   0.005259
    19  H   -0.000168   0.000000  -0.007113   0.003890  -0.000065  -0.003641
    20  C    0.001394  -0.000173   0.005439   0.002509  -0.000079  -0.033530
    21  O    0.000007   0.000000  -0.000039   0.000013   0.000000   0.001076
    22  H    0.000000   0.000000  -0.000012  -0.000004   0.000000   0.000102
    23  C    0.004218  -0.000459   0.000115  -0.000054   0.000000   0.010702
    24  O    0.000138  -0.000011   0.000006   0.000000   0.000000   0.000222
    25  H    0.000005   0.000000   0.000000   0.000000   0.000000   0.000015
    26  C   -0.036180   0.003578   0.014125  -0.000504   0.000007  -0.010456
    27  O   -0.000213  -0.000001   0.000024   0.000000   0.000000   0.000001
    28  C   -0.000181   0.000024   0.000073   0.000163  -0.000007   0.001997
    29  O   -0.000003   0.000000  -0.000006   0.000000   0.000000   0.000005
    30  H    0.000000   0.000000   0.000000   0.000000   0.000000  -0.000002
    31  H    0.000002   0.000000  -0.000003   0.000000   0.000000   0.000056
    32  H    0.000021   0.000000   0.000021  -0.000001   0.000000   0.000681
    33  H    0.000070   0.000000   0.000634  -0.000091   0.000000   0.004996
    34  H    0.000930   0.000005   0.000576   0.000004   0.000000   0.009359
    35  H    0.000070   0.000000   0.000067   0.000000   0.000000   0.000598
    36  H   -0.001732  -0.000040  -0.000083   0.000000   0.000000  -0.001643
    37  H    0.000644   0.000017   0.000031   0.000000   0.000000   0.000680
    38  H   -0.000018   0.000000   0.010552   0.000114  -0.000001  -0.006016
    39  H   -0.000001   0.000000   0.560708  -0.055985  -0.003712  -0.268793
    40  H    0.000000   0.000000   0.443137  -0.056213  -0.004795  -0.083266
    41  H    0.000177   0.000001   0.069314   0.003987  -0.000023   0.220376
    42  H   -0.000023   0.000012   0.004488  -0.000229   0.000000  -0.084319
    43  H    0.006894  -0.000816   0.012762  -0.000009   0.000000  -0.062803
    44  H   -0.042175  -0.004145   0.016301   0.000000   0.000000   0.056403
    45  H    0.010584  -0.000200   0.028346   0.000015  -0.000001   0.074930
             13         14         15         16         17         18
     1  O    0.007775   0.026753   0.000311   0.000690  -0.000933   0.000035
     2  C    0.139197   1.370198  -0.002512   0.314624  -0.225890   0.014377
     3  C   -0.017297  -0.719718   0.042771   0.149708   0.047990  -0.008853
     4  O    0.001107   0.069896  -0.002823  -0.002568   0.001100  -0.000019
     5  H   -0.000053   0.012913   0.000082   0.000073   0.000071  -0.000001
     6  C   -0.051141  -5.344679  -0.081771  -0.386515  -0.302352   0.019396
     7  O    0.012023  -0.162588  -0.006647   0.040475   0.008221   0.000132
     8  H   -0.000846   0.024954   0.000726  -0.002871  -0.001291  -0.000001
     9  C   -0.052618  -0.363037  -0.006472  -0.011550  -0.004847  -0.005477
    10  O    0.007456   0.010090  -0.000083   0.014412  -0.011079   0.000440
    11  H   -0.000372  -0.001338  -0.000001  -0.001157   0.001236   0.000064
    12  C   -0.111395  -1.120113  -0.045594  -0.261100   0.016791   0.005259
    13  O    8.440508   0.179789  -0.025952  -0.019854   0.029334   0.009835
    14  C    0.179789  12.081033   0.256422  -0.907675   0.946615   0.015499
    15  O   -0.025952   0.256422   8.364692   0.130327  -0.117699  -0.013234
    16  C   -0.019854  -0.907675   0.130327  15.576222  -5.442105  -0.141318
    17  C    0.029334   0.946615  -0.117699  -5.442105  12.383093   0.275378
    18  O    0.009835   0.015499  -0.013234  -0.141318   0.275378   8.186199
    19  H    0.009611   0.011438   0.016643  -0.074840   0.050308   0.194332
    20  C   -0.020076  -0.244412   0.059774  -1.503187  -0.661769  -0.103573
    21  O    0.000322  -0.004137  -0.002506   0.055374  -0.219353   0.017779
    22  H    0.000001  -0.000526  -0.000053   0.021610  -0.114842   0.006432
    23  C    0.004766   0.073648  -0.016565   0.555809  -0.289363   0.003016
    24  O    0.000057   0.016239   0.000531  -0.026652  -0.015914   0.000097
    25  H    0.000001   0.000262   0.000093  -0.005668   0.003262   0.000000
    26  C   -0.027287  -0.937129  -0.053212  -4.091323   0.206797   0.039132
    27  O    0.000023   0.012242   0.009308  -0.119763  -0.008821  -0.000806
    28  C    0.002308  -0.030662  -0.012381   1.293859  -0.985055   0.023311
    29  O   -0.000005   0.003870  -0.000076   0.060075  -0.028571   0.000037
    30  H    0.000000   0.000027  -0.000021   0.002514   0.003794   0.000011
    31  H    0.000032   0.004115  -0.000212   0.095853  -0.000217  -0.000530
    32  H    0.000148   0.001750  -0.001176   0.097784  -0.065498   0.003516
    33  H    0.003138   0.027214  -0.003971  -0.071149   0.460363  -0.042978
    34  H    0.002065   0.060420  -0.047647   0.311272  -0.018881  -0.001424
    35  H    0.000146   0.044883   0.007477   0.026244   0.010859  -0.000852
    36  H   -0.000218  -0.025478   0.000939   0.038356  -0.018226  -0.000073
    37  H    0.000083   0.032373   0.000597   0.067514   0.015961   0.000058
    38  H   -0.000560  -0.005075   0.000003   0.000045  -0.000031  -0.000001
    39  H   -0.002300   0.012368   0.000051  -0.000538   0.000834   0.000020
    40  H    0.007072  -0.000894   0.000004   0.001306  -0.001187  -0.000063
    41  H   -0.071457   0.071962  -0.000526  -0.002111   0.017251  -0.001169
    42  H    0.002340   0.054653  -0.000944  -0.001959   0.001667  -0.000008
    43  H    0.004277   0.138058  -0.001806   0.003461   0.002858  -0.000028
    44  H    0.010499  -0.152811  -0.007840   0.004628   0.003616  -0.000073
    45  H   -0.070586   0.378908  -0.072748   0.011158   0.034113  -0.006041
             19         20         21         22         23         24
     1  O   -0.000009   0.000023   0.000000   0.000000   0.000024   0.000000
     2  C    0.004688  -0.020310   0.000122  -0.000003   0.007193   0.000034
     3  C   -0.000205   0.025793  -0.000111  -0.000011  -0.022194  -0.000614
     4  O    0.000000   0.000114   0.000000   0.000000   0.000142   0.000000
     5  H    0.000000   0.000003   0.000000   0.000000  -0.000027   0.000000
     6  C    0.000275  -0.244945   0.000698  -0.000161  -0.044249  -0.008205
     7  O   -0.000168   0.001394   0.000007   0.000000   0.004218   0.000138
     8  H    0.000000  -0.000173   0.000000   0.000000  -0.000459  -0.000011
     9  C   -0.007113   0.005439  -0.000039  -0.000012   0.000115   0.000006
    10  O    0.003890   0.002509   0.000013  -0.000004  -0.000054   0.000000
    11  H   -0.000065  -0.000079   0.000000   0.000000   0.000000   0.000000
    12  C   -0.003641  -0.033530   0.001076   0.000102   0.010702   0.000222
    13  O    0.009611  -0.020076   0.000322   0.000001   0.004766   0.000057
    14  C    0.011438  -0.244412  -0.004137  -0.000526   0.073648   0.016239
    15  O    0.016643   0.059774  -0.002506  -0.000053  -0.016565   0.000531
    16  C   -0.074840  -1.503187   0.055374   0.021610   0.555809  -0.026652
    17  C    0.050308  -0.661769  -0.219353  -0.114842  -0.289363  -0.015914
    18  O    0.194332  -0.103573   0.017779   0.006432   0.003016   0.000097
    19  H    0.386936   0.036748  -0.000030  -0.000179  -0.002601   0.000002
    20  C    0.036748   8.489713   0.434842   0.080051  -0.087470   0.002182
    21  O   -0.000030   0.434842   8.195198   0.221754  -0.001337  -0.000012
    22  H   -0.000179   0.080051   0.221754   0.407691   0.000192   0.000001
    23  C   -0.002601  -0.087470  -0.001337   0.000192   5.801350   0.190538
    24  O    0.000002   0.002182  -0.000012   0.000001   0.190538   8.306691
    25  H    0.000000   0.000494   0.000000   0.000000  -0.029431   0.200899
    26  C   -0.001791   0.396151   0.037736  -0.006148  -1.197595  -0.013531
    27  O   -0.000169  -0.032732   0.003786  -0.000469  -0.040033  -0.019526
    28  C   -0.002358  -0.245244  -0.204500   0.032734   0.054458  -0.012299
    29  O    0.000010  -0.075418  -0.015653  -0.000921  -0.001735  -0.001516
    30  H    0.000000   0.013677  -0.002053   0.000037  -0.001472  -0.000033
    31  H    0.000015  -0.160320   0.008646  -0.000119   0.008098  -0.000370
    32  H   -0.000150   0.254537  -0.040088  -0.006964   0.009156  -0.000059
    33  H   -0.011920  -0.183211  -0.000641  -0.000085   0.011290   0.000089
    34  H   -0.000078  -0.004440  -0.000351   0.000004   0.046438   0.001149
    35  H    0.000029  -0.004799  -0.000341   0.000000   0.060825   0.007394
    36  H    0.000001   0.004658  -0.000007   0.000000   0.463100  -0.053510
    37  H   -0.000002  -0.010924  -0.000009   0.000000   0.519097  -0.051607
    38  H    0.000000   0.000000   0.000000   0.000000  -0.000001   0.000000
    39  H    0.000040   0.000002   0.000000   0.000000  -0.000004   0.000000
    40  H    0.000006   0.000020   0.000000   0.000000   0.000001   0.000000
    41  H    0.000589   0.001626   0.000002   0.000000  -0.000280   0.000000
    42  H   -0.000001   0.000036   0.000000   0.000000   0.000025   0.000000
    43  H   -0.000004   0.000281   0.000000   0.000000   0.000138   0.000000
    44  H   -0.000002   0.000479   0.000000   0.000000   0.001804   0.000001
    45  H   -0.000715   0.017909   0.000043   0.000000  -0.003480  -0.000006
             25         26         27         28         29         30
     1  O    0.000000  -0.000145   0.000000   0.000006   0.000000   0.000000
     2  C   -0.000008  -0.022080  -0.000062   0.002371   0.000047   0.000000
     3  C    0.000021   0.099413   0.000362  -0.002792  -0.000058   0.000000
     4  O    0.000000  -0.001785  -0.000001   0.000040   0.000000   0.000000
     5  H    0.000000  -0.000012   0.000000   0.000000   0.000000   0.000000
     6  C    0.000610   0.232113  -0.006120  -0.018774   0.000920   0.000005
     7  O    0.000005  -0.036180  -0.000213  -0.000181  -0.000003   0.000000
     8  H    0.000000   0.003578  -0.000001   0.000024   0.000000   0.000000
     9  C    0.000000   0.014125   0.000024   0.000073  -0.000006   0.000000
    10  O    0.000000  -0.000504   0.000000   0.000163   0.000000   0.000000
    11  H    0.000000   0.000007   0.000000  -0.000007   0.000000   0.000000
    12  C    0.000015  -0.010456   0.000001   0.001997   0.000005  -0.000002
    13  O    0.000001  -0.027287   0.000023   0.002308  -0.000005   0.000000
    14  C    0.000262  -0.937129   0.012242  -0.030662   0.003870   0.000027
    15  O    0.000093  -0.053212   0.009308  -0.012381  -0.000076  -0.000021
    16  C   -0.005668  -4.091323  -0.119763   1.293859   0.060075   0.002514
    17  C    0.003262   0.206797  -0.008821  -0.985055  -0.028571   0.003794
    18  O    0.000000   0.039132  -0.000806   0.023311   0.000037   0.000011
    19  H    0.000000  -0.001791  -0.000169  -0.002358   0.000010   0.000000
    20  C    0.000494   0.396151  -0.032732  -0.245244  -0.075418   0.013677
    21  O    0.000000   0.037736   0.003786  -0.204500  -0.015653  -0.002053
    22  H    0.000000  -0.006148  -0.000469   0.032734  -0.000921   0.000037
    23  C   -0.029431  -1.197595  -0.040033   0.054458  -0.001735  -0.001472
    24  O    0.200899  -0.013531  -0.019526  -0.012299  -0.001516  -0.000033
    25  H    0.452490   0.050779  -0.001190  -0.001702   0.000039   0.000000
    26  C    0.050779  12.569397   0.110227  -0.773345  -0.064195  -0.013830
    27  O   -0.001190   0.110227   8.493211   0.049994  -0.092632  -0.006443
    28  C   -0.001702  -0.773345   0.049994   5.728179   0.301791   0.021087
    29  O    0.000039  -0.064195  -0.092632   0.301791   8.225795   0.223894
    30  H    0.000000  -0.013830  -0.006443   0.021087   0.223894   0.418940
    31  H   -0.000001  -0.024433  -0.061329   0.410736  -0.037453  -0.007823
    32  H    0.000000   0.021225   0.000954  -0.028332  -0.000515   0.000253
    33  H    0.000000   0.022678   0.006750   0.003023   0.000122  -0.000002
    34  H   -0.000015  -0.116735   0.008312   0.006407  -0.000799   0.000002
    35  H   -0.000145   0.119193  -0.031009   0.012650  -0.000447  -0.000005
    36  H   -0.006172  -0.095919   0.004607  -0.003825   0.000077   0.000000
    37  H   -0.006157  -0.286455   0.005629   0.017859  -0.000331   0.000006
    38  H    0.000000  -0.000003   0.000000   0.000000   0.000000   0.000000
    39  H    0.000000   0.000044   0.000000   0.000000   0.000000   0.000000
    40  H    0.000000   0.000011   0.000000   0.000001   0.000000   0.000000
    41  H    0.000000   0.001690   0.000000   0.000005   0.000000   0.000000
    42  H    0.000000  -0.000061   0.000000   0.000001   0.000000   0.000000
    43  H    0.000000  -0.001098   0.000000   0.000018   0.000000   0.000000
    44  H    0.000000   0.001122   0.000007   0.000050   0.000000   0.000000
    45  H    0.000000   0.035263   0.000325   0.000962  -0.000012   0.000000
             31         32         33         34         35         36
     1  O    0.000000   0.000000   0.000000  -0.000001   0.000000   0.000000
     2  C    0.000017   0.000154   0.001260  -0.000720   0.000134   0.000040
     3  C   -0.000030  -0.000213  -0.001667  -0.007859  -0.001265   0.004839
     4  O    0.000000   0.000000   0.000000   0.000014   0.000000   0.000005
     5  H    0.000000   0.000000   0.000000   0.000000   0.000000   0.000000
     6  C    0.000310   0.001972   0.007784  -0.008558  -0.004305   0.000503
     7  O    0.000002   0.000021   0.000070   0.000930   0.000070  -0.001732
     8  H    0.000000   0.000000   0.000000   0.000005   0.000000  -0.000040
     9  C   -0.000003   0.000021   0.000634   0.000576   0.000067  -0.000083
    10  O    0.000000  -0.000001  -0.000091   0.000004   0.000000   0.000000
    11  H    0.000000   0.000000   0.000000   0.000000   0.000000   0.000000
    12  C    0.000056   0.000681   0.004996   0.009359   0.000598  -0.001643
    13  O    0.000032   0.000148   0.003138   0.002065   0.000146  -0.000218
    14  C    0.004115   0.001750   0.027214   0.060420   0.044883  -0.025478
    15  O   -0.000212  -0.001176  -0.003971  -0.047647   0.007477   0.000939
    16  C    0.095853   0.097784  -0.071149   0.311272   0.026244   0.038356
    17  C   -0.000217  -0.065498   0.460363  -0.018881   0.010859  -0.018226
    18  O   -0.000530   0.003516  -0.042978  -0.001424  -0.000852  -0.000073
    19  H    0.000015  -0.000150  -0.011920  -0.000078   0.000029   0.000001
    20  C   -0.160320   0.254537  -0.183211  -0.004440  -0.004799   0.004658
    21  O    0.008646  -0.040088  -0.000641  -0.000351  -0.000341  -0.000007
    22  H   -0.000119  -0.006964  -0.000085   0.000004   0.000000   0.000000
    23  C    0.008098   0.009156   0.011290   0.046438   0.060825   0.463100
    24  O   -0.000370  -0.000059   0.000089   0.001149   0.007394  -0.053510
    25  H   -0.000001   0.000000   0.000000  -0.000015  -0.000145  -0.006172
    26  C   -0.024433   0.021225   0.022678  -0.116735   0.119193  -0.095919
    27  O   -0.061329   0.000954   0.006750   0.008312  -0.031009   0.004607
    28  C    0.410736  -0.028332   0.003023   0.006407   0.012650  -0.003825
    29  O   -0.037453  -0.000515   0.000122  -0.000799  -0.000447   0.000077
    30  H   -0.007823   0.000253  -0.000002   0.000002  -0.000005   0.000000
    31  H    0.622271   0.004561   0.002915  -0.000033   0.003811   0.000015
    32  H    0.004561   0.590799   0.005995   0.002132  -0.000080  -0.000001
    33  H    0.002915   0.005995   0.608123   0.005973   0.001748  -0.000003
    34  H   -0.000033   0.002132   0.005973   0.600041   0.004606  -0.000098
    35  H    0.003811  -0.000080   0.001748   0.004606   0.593266  -0.004135
    36  H    0.000015  -0.000001  -0.000003  -0.000098  -0.004135   0.598617
    37  H   -0.000009  -0.000043  -0.000005   0.006772   0.005722  -0.054798
    38  H    0.000000   0.000000   0.000000   0.000000   0.000000   0.000000
    39  H    0.000000   0.000000   0.000000   0.000000   0.000000   0.000000
    40  H    0.000000   0.000000   0.000000   0.000000   0.000000   0.000000
    41  H    0.000000   0.000000  -0.000006   0.000000   0.000000   0.000000
    42  H    0.000000   0.000000   0.000000   0.000000   0.000000   0.000000
    43  H    0.000000   0.000000   0.000000   0.000002   0.000000   0.000000
    44  H    0.000000   0.000000  -0.000001   0.000016  -0.000003  -0.000003
    45  H    0.000000  -0.000011   0.000112   0.007866  -0.000033  -0.000005
             37         38         39         40         41         42
     1  O    0.000000   0.237679  -0.002343   0.005514   0.004005  -0.048503
     2  C    0.000071   0.063460   0.048508   0.027071  -0.033207   0.460233
     3  C   -0.002220  -0.051388   0.003844  -0.019763  -0.011528  -0.108430
     4  O    0.000001  -0.000582  -0.000130  -0.000046   0.000020   0.001324
     5  H    0.000000  -0.001481  -0.000002  -0.000002  -0.000055  -0.003612
     6  C   -0.011420   0.002662  -0.002813   0.001186  -0.049696  -0.032043
     7  O    0.000644  -0.000018  -0.000001   0.000000   0.000177  -0.000023
     8  H    0.000017   0.000000   0.000000   0.000000   0.000001   0.000012
     9  C    0.000031   0.010552   0.560708   0.443137   0.069314   0.004488
    10  O    0.000000   0.000114  -0.055985  -0.056213   0.003987  -0.000229
    11  H    0.000000  -0.000001  -0.003712  -0.004795  -0.000023   0.000000
    12  C    0.000680  -0.006016  -0.268793  -0.083266   0.220376  -0.084319
    13  O    0.000083  -0.000560  -0.002300   0.007072  -0.071457   0.002340
    14  C    0.032373  -0.005075   0.012368  -0.000894   0.071962   0.054653
    15  O    0.000597   0.000003   0.000051   0.000004  -0.000526  -0.000944
    16  C    0.067514   0.000045  -0.000538   0.001306  -0.002111  -0.001959
    17  C    0.015961  -0.000031   0.000834  -0.001187   0.017251   0.001667
    18  O    0.000058  -0.000001   0.000020  -0.000063  -0.001169  -0.000008
    19  H   -0.000002   0.000000   0.000040   0.000006   0.000589  -0.000001
    20  C   -0.010924   0.000000   0.000002   0.000020   0.001626   0.000036
    21  O   -0.000009   0.000000   0.000000   0.000000   0.000002   0.000000
    22  H    0.000000   0.000000   0.000000   0.000000   0.000000   0.000000
    23  C    0.519097  -0.000001  -0.000004   0.000001  -0.000280   0.000025
    24  O   -0.051607   0.000000   0.000000   0.000000   0.000000   0.000000
    25  H   -0.006157   0.000000   0.000000   0.000000   0.000000   0.000000
    26  C   -0.286455  -0.000003   0.000044   0.000011   0.001690  -0.000061
    27  O    0.005629   0.000000   0.000000   0.000000   0.000000   0.000000
    28  C    0.017859   0.000000   0.000000   0.000001   0.000005   0.000001
    29  O   -0.000331   0.000000   0.000000   0.000000   0.000000   0.000000
    30  H    0.000006   0.000000   0.000000   0.000000   0.000000   0.000000
    31  H   -0.000009   0.000000   0.000000   0.000000   0.000000   0.000000
    32  H   -0.000043   0.000000   0.000000   0.000000   0.000000   0.000000
    33  H   -0.000005   0.000000   0.000000   0.000000  -0.000006   0.000000
    34  H    0.006772   0.000000   0.000000   0.000000   0.000000   0.000000
    35  H    0.005722   0.000000   0.000000   0.000000   0.000000   0.000000
    36  H   -0.054798   0.000000   0.000000   0.000000   0.000000   0.000000
    37  H    0.624255   0.000000   0.000000   0.000000   0.000000   0.000000
    38  H    0.000000   0.399756   0.000023  -0.000555  -0.000208  -0.013403
    39  H    0.000000   0.000023   0.622911  -0.054705   0.007588   0.003747
    40  H    0.000000  -0.000555  -0.054705   0.586797  -0.008469  -0.000182
    41  H    0.000000  -0.000208   0.007588  -0.008469   0.621131   0.007084
    42  H    0.000000  -0.013403   0.003747  -0.000182   0.007084   0.598816
    43  H    0.000000   0.000187  -0.000008   0.000005   0.001964   0.004602
    44  H   -0.000001   0.000016  -0.000004   0.000000   0.000047   0.001478
    45  H    0.000025   0.000002   0.000015   0.000007   0.011734   0.000149
             43         44         45
     1  O   -0.009596  -0.000790  -0.000342
     2  C    0.154269  -0.015363  -0.076522
     3  C    0.345727  -0.050321   0.017793
     4  O   -0.034204  -0.014751  -0.000413
     5  H   -0.002115   0.000680  -0.000006
     6  C   -0.303579   0.435994  -0.195041
     7  O    0.006894  -0.042175   0.010584
     8  H   -0.000816  -0.004145  -0.000200
     9  C    0.012762   0.016301   0.028346
    10  O   -0.000009   0.000000   0.000015
    11  H    0.000000   0.000000  -0.000001
    12  C   -0.062803   0.056403   0.074930
    13  O    0.004277   0.010499  -0.070586
    14  C    0.138058  -0.152811   0.378908
    15  O   -0.001806  -0.007840  -0.072748
    16  C    0.003461   0.004628   0.011158
    17  C    0.002858   0.003616   0.034113
    18  O   -0.000028  -0.000073  -0.006041
    19  H   -0.000004  -0.000002  -0.000715
    20  C    0.000281   0.000479   0.017909
    21  O    0.000000   0.000000   0.000043
    22  H    0.000000   0.000000   0.000000
    23  C    0.000138   0.001804  -0.003480
    24  O    0.000000   0.000001  -0.000006
    25  H    0.000000   0.000000   0.000000
    26  C   -0.001098   0.001122   0.035263
    27  O    0.000000   0.000007   0.000325
    28  C    0.000018   0.000050   0.000962
    29  O    0.000000   0.000000  -0.000012
    30  H    0.000000   0.000000   0.000000
    31  H    0.000000   0.000000   0.000000
    32  H    0.000000   0.000000  -0.000011
    33  H    0.000000  -0.000001   0.000112
    34  H    0.000002   0.000016   0.007866
    35  H    0.000000  -0.000003  -0.000033
    36  H    0.000000  -0.000003  -0.000005
    37  H    0.000000  -0.000001   0.000025
    38  H    0.000187   0.000016   0.000002
    39  H   -0.000008  -0.000004   0.000015
    40  H    0.000005   0.000000   0.000007
    41  H    0.001964   0.000047   0.011734
    42  H    0.004602   0.001478   0.000149
    43  H    0.567569   0.004353   0.002248
    44  H    0.004353   0.587695   0.007877
    45  H    0.002248   0.007877   0.684579
 Mulliken atomic charges:
              1
     1  O   -0.520481
     2  C   -0.610178
     3  C    0.255066
     4  O   -0.544013
     5  H    0.334447
     6  C    0.174760
     7  O   -0.498008
     8  H    0.370798
     9  C   -0.109306
    10  O   -0.555187
    11  H    0.363099
    12  C    0.412589
    13  O   -0.401896
    14  C    0.081678
    15  O   -0.366282
    16  C    0.200511
    17  C    0.012411
    18  O   -0.487833
    19  H    0.390482
    20  C   -0.191844
    21  O   -0.486230
    22  H    0.359888
    23  C   -0.087794
    24  O   -0.522405
    25  H    0.341519
    26  C   -0.185430
    27  O   -0.284444
    28  C    0.357350
    29  O   -0.496334
    30  H    0.347434
    31  H    0.131430
    32  H    0.147470
    33  H    0.141456
    34  H    0.133272
    35  H    0.147697
    36  H    0.150214
    37  H    0.126587
    38  H    0.364823
    39  H    0.130634
    40  H    0.158002
    41  H    0.138181
    42  H    0.153062
    43  H    0.166391
    44  H    0.155215
    45  H    0.101197
 Sum of Mulliken atomic charges =   0.00000
 Mulliken charges with hydrogens summed into heavy atoms:
              1
     1  O   -0.155658
     2  C   -0.457116
     3  C    0.421457
     4  O   -0.209565
     6  C    0.329974
     7  O   -0.127210
     9  C    0.179331
    10  O   -0.192088
    12  C    0.550771
    13  O   -0.401896
    14  C    0.182875
    15  O   -0.366282
    16  C    0.333783
    17  C    0.153867
    18  O   -0.097351
    20  C   -0.044374
    21  O   -0.126342
    23  C    0.189007
    24  O   -0.180886
    26  C   -0.037733
    27  O   -0.284444
    28  C    0.488780
    29  O   -0.148900
 Sum of Mulliken charges with hydrogens summed into heavy atoms =   0.00000
 APT atomic charges:
              1
     1  O   -0.638304
     2  C    0.434339
     3  C    0.310877
     4  O   -0.624051
     5  H    0.233755
     6  C    0.387871
     7  O   -0.575902
     8  H    0.265713
     9  C    0.479617
    10  O   -0.619047
    11  H    0.249335
    12  C    0.444708
    13  O   -0.865391
    14  C    0.964117
    15  O   -0.903344
    16  C    0.454848
    17  C    0.347123
    18  O   -0.636426
    19  H    0.316014
    20  C    0.406243
    21  O   -0.621245
    22  H    0.260079
    23  C    0.498974
    24  O   -0.620657
    25  H    0.236848
    26  C    0.395356
    27  O   -0.720848
    28  C    0.871142
    29  O   -0.663873
    30  H    0.259108
    31  H   -0.069118
    32  H   -0.029450
    33  H   -0.040381
    34  H   -0.025975
    35  H   -0.036358
    36  H   -0.045647
    37  H   -0.047897
    38  H    0.261116
    39  H   -0.063257
    40  H   -0.020557
    41  H   -0.043416
    42  H   -0.044862
    43  H   -0.031228
    44  H   -0.032953
    45  H   -0.056999
 Sum of APT charges=   0.00000
 APT Atomic charges with hydrogens summed into heavy atoms:
[...]
 -0.00006137,-0.00006591,-0.00002844,-0.01107544,0.00062762,0.00508390,
 0.00229863,0.00055103,0.00041868,-0.00010625,-0.00033310,-0.00003571,0
 .00011044,0.00002117,0.00005122,-0.00000757,0.00001431,-0.00000645,-0.
 00003295,-0.00002106,-0.00004243,0.00004625,-0.00000651,0.00004935,-0.
 00003955,0.00002141,-0.00001962,0.00000329,0.00000519,-0.00000012,0.00
 000429,-0.00000423,0.00000481,-0.00000144,0.00000369,-0.00000501,-0.00
 001215,-0.00000686,0.00000385,0.00001263,0.00000545,0.00000122,-0.0000
 0477,0.00000064,0.00000258,-0.00001286,0.00000066,-0.00000594,0.000013
 33,0.00000538,0.00000126,-0.00001517,-0.00000596,-0.00000655,0.0000049
 8,0.00000090,0.00000617,-0.00000101,0.00000114,-0.00000003,0.00000210,
 0.00000006,0.00000128,0.00000168,-0.00000217,-0.00000315,0.00001187,-0
 .00000021,0.00000941,0.00000218,-0.00000709,-0.00000267,0.00000277,-0.
 00000170,0.00000283,0.00000088,0.00000189,-0.00000152,0.00000357,-0.00
 000113,-0.00000114,0.00090909,-0.00006072,-0.00027269,0.00038544,-0.00
 077791,-0.00032722,0.00003753,0.00008163,0.00007390,0.00040379,-0.0014
 2924,0.00094798,0.35053727,0.00030759,0.00240474,0.00135623,0.04612251
 ,-0.05178260,-0.01298896,0.02968731,-0.01036485,-0.01171387,0.00040987
 ,0.00378363,-0.00026432,0.00089262,-0.00132294,0.00093314,0.00109978,0
 .00043956,0.00072694,-0.00082037,-0.00010630,-0.00024378,0.00027001,0.
 00008835,-0.00001954,-0.00139254,0.00211220,0.00075252,0.00054075,-0.0
 0004092,-0.00020860,0.00004319,-0.00006239,-0.00009918,-0.02694758,0.0
 0341235,0.00995993,0.00135871,0.00097189,-0.00219993,0.00010353,-0.000
 30179,-0.00000623,0.00006573,0.00004113,-0.00006066,-0.00002682,0.0000
 1725,0.00002832,-0.00004571,-0.00003866,-0.00005124,0.00009046,0.00001
 281,0.00006891,-0.00012675,0.00000627,-0.00003171,0.00001485,0.0000037
 0,0.00000677,0.00000251,0.00000332,0.00000252,0.00000114,0.00000145,-0
 .00000600,0.00000697,-0.00000198,0.00000908,-0.00000706,0.00000074,-0.
 00000726,0.00000339,0.00000100,0.00000132,0.00000412,0.00000464,-0.000
 00419,0.00000187,0.00000640,-0.00000843,-0.00001132,-0.00001243,0.0000
 0005,0.00000352,0.00000332,0.00000369,-0.00000015,-0.00000002,0.000001
 39,0.00000079,0.00000136,0.00000083,-0.00000082,-0.00000097,-0.0000018
 5,0.00001443,0.00000359,0.00001143,-0.00000114,-0.00000297,0.00000458,
 0.00000013,0.00000179,-0.00000063,0.00000589,-0.00000012,0.00000013,-0
 .00000407,0.00000049,0.00000338,0.00048931,0.00117031,0.00025302,0.000
 64037,-0.00033933,-0.00022988,-0.00004558,-0.00007995,-0.00008460,-0.0
 0123273,-0.00319879,0.00353899,-0.05021676,0.05781950,-0.04281838,0.00
 598705,-0.00909049,0.09367844,-0.01776181,-0.07119321,0.01683974,-0.00
 253329,-0.00431767,-0.00135377,0.00262700,0.00107574,-0.00038002,0.000
 12232,0.00044446,0.00116923,0.00006167,0.00032012,-0.00054262,0.000001
 73,-0.00005864,0.00015820,0.00005294,0.00000950,-0.00036972,-0.0015761
 8,0.00001722,-0.00019740,0.00011814,0.00001113,-0.00005847,0.00004841,
 0.00004361,0.02387585,-0.00094418,-0.00751450,-0.00141454,-0.00055087,
 0.00267578,0.00026421,-0.00024666,-0.00034771,-0.00004212,0.00004754,-
 0.00012051,-0.00002491,-0.00000986,0.00000202,0.00006781,0.00003934,0.
 00007313,-0.00012558,-0.00001040,-0.00011388,0.00015654,-0.00000891,0.
 00003424,-0.00002215,-0.00001215,0.00000731,0.00000428,0.00001259,-0.0
 0002115,-0.00000573,-0.00000503,0.00001381,0.00001859,0.00001838,0.000
 00348,-0.00002250,-0.00001560,-0.00001589,0.00000589,0.00000125,-0.000
 00016,0.00002860,-0.00000536,0.00001569,-0.00001609,-0.00000242,-0.000
 02108,0.00002117,0.00000496,0.00002634,-0.00000252,-0.00000318,-0.0000
 2689,0.00000095,-0.00000252,0.00000290,-0.00000184,-0.00000038,-0.0000
 0247,-0.00000156,0.00000219,0.00000418,-0.00002032,0.00000015,-0.00001
 875,-0.00000070,0.00000746,0.00000646,-0.00000436,0.00000258,-0.000004
 70,0.00000190,-0.00000235,0.00000135,-0.00000612,0.00000190,0.00000177
 ,-0.00289811,0.00016465,0.00383086,-0.00024157,0.00054824,0.00033454,-
 0.00001922,0.00019977,0.00000966,0.00033308,0.00346186,-0.00301009,-0.
 08474593,0.01283534,0.08790243,0.00105779,0.00013253,0.00048529,0.0005
 2411,-0.00095049,-0.00149963,-0.31979617,0.10882013,0.02030977,-0.0167
 1325,-0.00580531,0.00952482,-0.00079480,-0.00025540,-0.00058216,-0.013
 96753,0.00674192,0.00061111,0.00271627,-0.00028173,0.00115801,-0.00091
 598,-0.00039256,-0.00004223,0.00028926,0.00012520,-0.00025391,-0.00001
 688,0.00004563,0.00007628,0.00000985,0.00002603,-0.00001205,-0.0002952
 8,0.00063807,0.00006861,0.00051504,0.00004144,0.00002262,-0.00155571,-
 0.00082891,0.00076990,0.00052547,0.00008445,-0.00032923,-0.00011393,0.
 00013712,0.00000717,-0.00001036,-0.00002515,-0.00009500,0.00004277,-0.
 00002276,0.00006997,-0.00003496,0.00002955,-0.00001740,0.00000550,0.00
 002057,0.00000559,0.00000576,-0.00000298,0.00000521,0.00000017,0.00000
 458,-0.00000716,-0.00003567,-0.00000964,0.00000349,0.00002962,0.000008
 33,0.00000921,-0.00001216,0.00000009,0.00000226,0.00000003,-0.00000595
 ,-0.00001045,0.00001232,0.00000260,-0.00000226,-0.00001479,-0.00000885
 ,-0.00001089,0.00000430,0.00000124,0.00001165,-0.00000080,0.00000114,-
 0.00000107,0.00000225,0.00000001,0.00000157,0.00000332,-0.00000298,-0.
 00000570,0.00000900,-0.00000807,0.00000737,0.00001351,-0.00001819,-0.0
 0001993,0.00000464,-0.00000464,0.00000901,-0.00000431,0.00000686,-0.00
 000190,0.00001315,-0.00000258,-0.00000814,0.00015643,-0.00020568,-0.00
 014780,-0.00006610,-0.00015971,-0.00001444,0.00000632,0.00000487,0.000
 00392,0.00050319,0.00011137,-0.00027962,0.00041019,-0.00070024,-0.0006
 7816,0.34725241,-0.00168474,0.00278097,0.00203921,0.02977695,-0.010650
 54,-0.00235032,0.11163270,-0.08537254,-0.01194007,-0.02834856,0.004131
 34,0.00832361,-0.00082720,-0.00014744,-0.00056327,-0.00151884,0.001198
 39,-0.00258323,-0.00046372,0.00091370,0.00089047,-0.00059983,-0.000051
 29,0.00010564,-0.00015253,0.00011518,0.00005766,-0.00020689,-0.0002143
 0,0.00004666,0.00000343,-0.00003016,0.00002830,0.00170275,0.00188860,-
 0.00144215,-0.00047463,-0.00019506,0.00051924,0.00056353,-0.00043814,-
 0.00047916,-0.00010019,0.00008564,-0.00015182,-0.00001560,0.00002750,0
 .00004186,0.00002140,-0.00000672,0.00000019,-0.00003748,0.00003311,-0.
 00001028,0.00004679,-0.00002131,-0.00004397,0.00000103,-0.00000224,0.0
 0000702,0.00000089,0.00000777,-0.00000408,0.00000133,-0.00000324,0.000
 00097,-0.00000316,0.00000806,-0.00000573,0.00000226,-0.00000572,0.0000
 0407,-0.00000306,0.00000011,-0.00000310,0.00000638,0.00000922,0.000009
 36,-0.00000379,-0.00000577,-0.00000932,0.00000580,0.00000115,0.0000085
 3,-0.00000083,-0.00000111,-0.00000462,0.00000011,-0.00000008,0.0000001
 6,-0.00000123,-0.00000045,-0.00000112,-0.00000096,0.00000195,0.0000019
 3,-0.00000703,-0.00000121,-0.00000620,0.00000514,0.00000925,0.00000275
 ,-0.00000137,-0.00000318,-0.00000215,-0.00000611,0.00000212,0.00000048
 ,0.00000456,0.00000147,-0.00000335,-0.00009071,0.00020780,0.00040181,-
 0.00017343,0.00018397,0.00015381,-0.00000033,-0.00003091,-0.00003243,-
 0.00074677,-0.00030136,0.00059202,-0.00028262,-0.00453134,-0.00251001,
 -0.10732531,0.09036923,0.00022786,0.00146963,0.00171835,0.01248946,-0.
 00794116,-0.00045881,0.01796401,-0.01152042,-0.04550609,0.02456046,0.0
 0112641,-0.00490437,0.00186940,-0.00055639,0.00002678,-0.02924235,0.01
 135630,0.00231740,0.00309398,0.00079817,0.00281067,-0.00034996,-0.0006
 0725,-0.00013541,-0.00006175,-0.00001343,0.00022115,-0.00008228,-0.000
 17195,-0.00001116,-0.00000410,-0.00002451,0.00002202,-0.00018189,0.000
 25700,-0.00091618,0.00016812,0.00053669,-0.00013127,-0.00195936,-0.001
 74454,0.00193736,0.00066838,-0.00001967,-0.00066974,-0.00014454,0.0001
 8836,0.00013024,0.00001687,-0.00003303,-0.00010069,0.00004187,-0.00000
 247,0.00002857,-0.00003145,-0.00000264,-0.00000075,-0.00000921,0.00002
 236,0.00002876,0.00001631,0.00001865,-0.00001737,-0.00000337,0.0000006
 1,-0.00000117,-0.00002132,0.00001330,0.00002345,0.00000822,-0.00001526
 ,-0.00001378,-0.00000701,0.00000293,-0.00000007,0.00001866,-0.00000207
 ,0.00002319,0.00000572,0.00000388,-0.00004102,-0.00000992,-0.00001800,
 0.00002102,0.00000838,0.00000170,-0.00001348,-0.00000069,-0.00000120,0
 .00000271,0.00000169,0.00000092,0.00000016,0.00000281,-0.00000225,-0.0
 0000594,0.00000071,-0.00001055,0.00000608,0.00002427,-0.00001421,-0.00
 003102,0.00000435,-0.00000714,0.00001002,-0.00000447,0.00001735,-0.000
 00068,0.00001301,-0.00000194,-0.00001263,0.00010598,0.00019866,0.00018
 672,-0.00002491,0.00010259,0.00002890,-0.00000506,0.00000806,-0.000000
 26,-0.00025914,0.00021698,0.00030123,0.00030660,-0.00195031,-0.0010840
 6,-0.02752546,0.00851702,0.04874826,0.00046269,-0.00023655,-0.00052963
 ,-0.00097385,0.00141489,0.00054125,-0.01954536,-0.00115762,0.00252322,
 0.00267906,-0.00169485,0.00363286,0.00074592,-0.00009863,0.00063640,-0
 .34476210,0.01116107,0.06283879,0.00088070,0.00777634,0.00506993,-0.00
 003581,0.00019994,0.00043629,-0.00004093,-0.00000656,0.00004768,0.0000
 4819,0.00000912,-0.00002602,-0.00001632,-0.00000202,0.00000014,-0.0002
 7072,-0.00014630,-0.00000779,0.00115080,-0.00098053,-0.00101136,-0.008
 14131,-0.00056780,0.00364406,0.00088540,-0.00047079,0.00090295,0.00003
 171,-0.00005498,-0.00004282,0.00002199,0.00004873,-0.00000637,0.000030
 58,-0.00008540,-0.00002628,-0.00004236,0.00002742,0.00006527,0.0000049
 5,0.00002017,-0.00001433,-0.00001122,-0.00003560,0.00001455,0.00000154
 ,0.00000770,-0.00000194,-0.00005894,-0.00002387,-0.00000926,0.00005052
 ,0.00000867,0.00003334,-0.00001688,-0.00000173,-0.00000646,-0.00005153
 ,0.00000055,-0.00001375,0.00001597,-0.00002502,0.00004398,-0.00000424,
 0.00003193,-0.00003257,-0.00000341,-0.00001054,0.00002524,-0.00000123,
 0.00000619,-0.00000529,0.00000265,-0.00000443,0.00000293,0.00000547,-0
 .00000313,-0.00000370,0.00000231,-0.00001732,0.00001247,0.00003194,-0.
 00000469,-0.00010057,0.00000768,-0.00001338,0.00002086,-0.00002233,0.0
 0002786,-0.00001050,0.00003567,-0.00000371,-0.00002703,-0.00007922,-0.
 00015730,-0.00011650,0.00002711,-0.00004435,-0.00002781,0.00001080,0.0
 0000504,-0.00000335,0.00011914,0.00012414,-0.00002031,0.00050711,-0.00
 050132,-0.00042144,-0.00063987,-0.00057230,-0.00239291,0.36610252,0.00
 011963,0.00016217,0.00018832,-0.00021905,-0.00014281,0.00032576,-0.002
 18487,0.00267831,0.00232368,0.00108416,0.00017408,0.00217432,0.0001846
 4,-0.00011638,-0.00004634,0.00652131,-0.04179950,0.00033557,0.03429460
 ,-0.01863833,-0.02149847,0.00114704,0.00081704,-0.00078832,0.00000608,
 0.00004046,0.00003875,0.00002141,-0.00000748,-0.00001361,-0.00000501,-
 0.00000222,-0.00000279,-0.00024319,-0.00013412,-0.00013057,0.00197614,
 0.00243593,-0.00047371,-0.03017014,0.00107037,0.00784362,0.00214203,0.
 00063961,-0.00053061,0.00009674,0.00014872,-0.00008401,-0.00013136,-0.
 00000608,-0.00034302,0.00008563,-0.00035567,0.00029381,-0.00016179,0.0
 0026929,0.00007976,0.00003758,0.00002038,0.00000626,-0.00000524,-0.000
 00094,0.00002910,0.00001281,0.00000677,-0.00001992,0.00004816,-0.00005
 333,0.00005983,-0.00004219,0.00003635,-0.00005661,0.00002547,0.0000063
 2,0.00001910,-0.00003632,-0.00007484,-0.00003552,0.00001360,0.00005737
 ,0.00003231,-0.00003703,-0.00003680,-0.00002717,0.00000689,0.00001681,
 0.00003033,-0.00000081,-0.00000238,0.00000092,0.00000134,0.00000618,0.
 00000243,-0.00000053,-0.00000438,-0.00000578,0.00003415,0.00000228,0.0
 0002301,0.00002680,-0.00011333,-0.00001788,0.00000275,0.00002626,0.000
 01361,0.00007284,-0.00001032,-0.00000011,-0.00005770,0.00000027,0.0000
 5337,0.00002972,0.00004276,-0.00000066,0.00001123,-0.00003910,-0.00002
 627,0.00000221,-0.00000327,-0.00000390,0.00017679,0.00004287,0.0000793
 7,-0.00005396,0.00004255,-0.00024280,-0.00016181,0.00004064,-0.0005036
 7,-0.01330643,0.05699678,0.00042934,-0.00022864,-0.00053983,-0.0004859
 5,0.00092039,0.00085786,-0.02957560,0.00139636,0.00092665,-0.00292857,
 -0.00005708,-0.00162406,-0.00053962,0.00020094,0.00026118,0.06879022,0
 .00015965,-0.05550568,0.01788104,-0.01350120,-0.00770639,-0.00038512,0
 .00051376,-0.00031258,-0.00004738,0.00003862,0.00009200,-0.00002350,-0
 .00007543,0.00001137,0.00000046,-0.00000349,0.00001078,-0.00022993,0.0
 0006649,-0.00033813,-0.00168761,-0.00026624,0.00092525,0.02604878,0.00
 153112,-0.00555018,-0.00161665,-0.00087150,0.00161533,0.00021369,-0.00
 038272,-0.00032681,-0.00000626,0.00002669,0.00033228,-0.00006888,0.000
 24825,-0.00017196,0.00011221,-0.00016093,-0.00004617,-0.00001554,-0.00
 004975,-0.00002898,-0.00001572,-0.00000672,0.00000618,-0.00000252,-0.0
 0000743,0.00000932,0.00010558,0.00001341,-0.00009369,-0.00006431,0.000
 01484,0.00002793,0.00002859,-0.00000859,-0.00000634,0.00000996,0.00004
 041,-0.00002138,-0.00004269,-0.00001751,0.00003653,0.00004087,0.000028
 64,-0.00000420,-0.00001686,-0.00000420,0.00000023,0.00000273,-0.000001
 57,-0.00000330,-0.00000477,-0.00000109,-0.00000208,-0.00000723,0.00000
 374,0.00000961,-0.00001769,0.00003401,-0.00002142,-0.00014931,0.000086
 73,0.00007674,-0.00002432,0.00002369,-0.00004937,0.00002224,-0.0000606
 7,0.00000912,-0.00005942,0.00000296,0.00005631,-0.00001278,-0.00016063
 ,-0.00012443,0.00000557,-0.00000901,0.00000654,0.00000492,0.00001740,0
 .00000153,0.00004240,0.00001879,-0.00016558,0.00019382,-0.00033046,-0.
 00012507,-0.00135530,0.00012818,-0.00439069,-0.07615949,0.00776057,0.0
 7383982,0.00012243,-0.00002603,0.00018911,-0.00013164,0.00035773,0.000
 13620,-0.00033714,0.00021144,-0.00071023,0.00060934,-0.00022869,-0.000
 18391,0.00012543,0.00002982,0.00020250,-0.01557932,-0.00005591,0.00731
 240,0.00187661,0.00036488,-0.00132118,0.00021861,-0.00002303,-0.000138
 67,0.00053679,-0.00026428,0.00006670,0.00007248,0.00004154,-0.00000662
 ,-0.00001474,-0.00000843,0.00000103,0.00188107,-0.00105936,-0.00089347
 ,0.00131084,0.00877386,0.00459846,-0.33219533,0.03245194,0.05499490,-0
 .02229875,0.00598319,-0.01612906,0.00002489,0.00028606,0.00426659,0.00
 000157,-0.00003242,-0.00125952,0.00026440,-0.00184809,0.00106147,-0.00
 073183,0.00048851,0.00036194,0.00007856,0.00013877,0.00019425,0.000092
 42,0.00010397,-0.00008344,-0.00000386,0.00001605,-0.00003903,-0.000109
 80,0.00007036,0.00004443,0.00006498,-0.00005071,-0.00002934,-0.0000253
 6,0.00000515,0.00000271,0.00035877,-0.00033619,0.00006434,0.00003956,-
 0.00001087,-0.00030868,-0.00014764,-0.00016517,0.00009700,0.00006650,0
 .00002818,-0.00004112,-0.00000586,-0.00000131,0.00001963,0.00001961,0.
 00000793,0.00000687,0.00002805,-0.00000977,-0.00004488,-0.00001359,-0.
 00020187,0.00017913,0.00136024,-0.00054102,-0.00123686,0.00021322,0.00
 004452,0.00032513,-0.00000245,0.00008337,-0.00001540,0.00006446,-0.000
 05456,-0.00005873,0.00000931,0.00001028,0.00000109,-0.00012350,-0.0001
 4357,-0.00015642,-0.00001394,0.00012961,0.00004661,0.00062709,0.000818
 20,0.00192097,-0.00003780,-0.00010041,-0.00018864,0.00087587,-0.000125
 85,0.00070399,0.00085518,-0.00136435,0.00161057,0.35997425,0.00006942,
 0.00033503,-0.00018256,-0.00043245,-0.00040669,-0.00003134,-0.00042280
 ,0.00060595,-0.00015265,0.00044822,-0.00006607,0.00010456,0.00022751,0
 .00001976,0.00007442,-0.02945228,0.00073221,0.01083677,0.00099133,0.00
 280911,-0.00054060,0.00006908,0.00048257,-0.00001155,-0.00031291,0.000
 12510,-0.00005108,-0.00009048,-0.00008893,0.00004890,0.00000149,0.0000
 1898,0.00000613,0.00484330,0.00104129,0.00370469,0.03500562,-0.0285249
 5,-0.02336556,0.02628333,-0.04353382,-0.00259235,0.00876882,0.00426069
 ,0.00422298,-0.00081267,0.00057699,-0.00076859,0.00072127,0.00026353,0
 .00110693,-0.00047200,0.00051248,-0.00104647,0.00085375,-0.00199881,0.
 00016428,-0.00012024,-0.00005496,-0.00001340,0.00001744,0.00000556,-0.
 00008377,-0.00003577,-0.00002414,0.00005164,-0.00004881,0.00004602,-0.
 00005757,0.00000529,-0.00003173,0.00001505,-0.00000752,-0.00000388,-0.
 00000475,0.00000903,-0.00004236,-0.00006470,-0.00003076,-0.00003566,0.
 00002572,0.00010323,0.00010452,0.00003136,-0.00002579,-0.00003409,-0.0
 0006552,0.00000388,-0.00000198,-0.00000423,-0.00000444,-0.00001055,-0.
 00000712,0.00001066,0.00001052,0.00001271,-0.00013817,-0.00001943,-0.0
 0012241,0.00006916,-0.00007160,0.00014952,-0.00003224,-0.00002266,-0.0
 0005796,-0.00001734,-0.00002459,0.00001176,0.00000649,-0.00001058,-0.0
 0000853,-0.00002241,-0.00000823,-0.00002541,-0.00004150,0.00019567,0.0
 0017099,-0.00011519,-0.00010182,-0.00000244,-0.00160891,0.00064838,-0.
 00006479,-0.00002275,-0.00016597,0.00007651,0.00019517,-0.00000306,0.0
 0030647,-0.00064261,-0.00423932,0.00292923,-0.04379345,0.06673149,-0.0
 0007578,0.00000411,-0.00014240,-0.00023029,0.00007089,-0.00022419,0.00
 158255,0.00013202,-0.00047017,-0.00059007,-0.00010242,0.00031043,-0.00
 010242,-0.00011146,0.00004673,0.02539971,0.00397547,-0.00534111,-0.001
 63181,-0.00085422,0.00099355,-0.00011182,-0.00013450,-0.00002443,-0.00
 039830,-0.00005150,0.00000791,-0.00002845,0.00000421,-0.00002789,0.000
 00449,0.00000406,-0.00000724,0.00386309,-0.00047573,0.00263320,0.01568
 747,-0.01773846,-0.00847180,0.06177105,-0.00544115,-0.05073238,-0.0443
 0050,0.01047204,-0.02078792,-0.00494728,0.00143304,0.00244370,-0.00050
 162,0.00019870,-0.00078178,0.00026025,0.00008268,0.00029803,-0.0000603
 5,0.00053330,-0.00027306,0.00007444,0.00001435,-0.00001526,0.00001566,
 0.00001563,0.00003536,0.00001521,0.00001213,-0.00001823,0.00000812,0.0
 0003236,0.00012427,0.00001441,-0.00002264,-0.00006370,-0.00000163,0.00
 001242,0.00000718,-0.00026806,-0.00011540,0.00009479,0.00022359,0.0000
 0474,-0.00021018,-0.00014338,-0.00015999,0.00003255,0.00005768,0.00004
 202,-0.00002405,-0.00000447,-0.00000612,0.00001879,0.00001079,0.000009
 23,0.00001249,0.00002061,0.00000256,-0.00004104,0.00010299,-0.00018855
 ,0.00002289,0.00066500,-0.00084813,0.00006485,0.00032293,-0.00008454,-
 0.00001343,0.00003387,0.00006913,-0.00004723,0.00002672,-0.00005470,-0
 .00002345,-0.00001046,0.00001689,-0.00000987,-0.00005674,0.00020341,0.
 00010268,-0.00004507,-0.00006724,-0.00002460,-0.00125499,0.00042021,0.
 00010382,-0.00009667,0.00001311,0.00021918,-0.00026296,0.00026542,-0.0
 0014635,0.00052531,0.00313794,-0.00195422,-0.05556281,0.00527469,0.082
 30357\\0.00982167,0.00391073,-0.01369234,-0.00937748,-0.00811296,-0.01
 724002,-0.04148863,-0.02256470,0.01570041,0.00930361,-0.01244320,0.053
 60783,0.00152181,-0.01412376,-0.02721746,-0.01532019,0.02702409,-0.049
 30441,0.00804263,-0.01281805,0.03799496,-0.00053639,0.01412641,-0.0231
 5615,-0.01112679,0.02369445,-0.02561357,0.00607900,0.01634810,-0.00160
 526,-0.00787014,-0.03309792,-0.00623890,0.03603571,0.00022146,0.002992
 72,-0.02918851,0.02134286,0.01178952,0.04663604,0.01271444,-0.02660697
 ,-0.02952665,-0.01531562,0.05114872,-0.01523953,0.02195502,0.02924685,
 0.02543593,0.00624451,-0.01849836,-0.03533718,-0.01657437,0.01582588,0
 .02921714,0.00825862,-0.00277410,-0.01818280,0.02562100,0.00512591,0.0
 2458818,0.00342333,0.01261764,-0.02965684,-0.01098690,-0.00850543,-0.0
 2254763,-0.00462085,0.00323610,-0.00315083,-0.02319103,0.00443460,0.00
 015375,0.03067606,-0.00512793,0.03430324,-0.03962557,-0.02833827,-0.00
 837844,0.03703890,0.01524130,0.04303595,-0.04894425,-0.05237147,0.0014
 6175,0.02279503,0.00753395,-0.00588807,-0.00206669,-0.00273735,-0.0149
 0839,0.01223314,0.00095919,0.01230411,-0.01244660,-0.00430366,-0.01706
 399,0.01205276,-0.00190495,0.01220010,-0.01295744,0.00179984,-0.014151
 87,0.01098574,0.00127993,-0.00759271,-0.00513451,0.01801217,0.01794157
 ,-0.00460854,0.00154924,-0.00219571,0.00381002,0.00288110,-0.01965867,
 0.00600267,0.00905248,0.00916044,-0.00983403,0.01316757,0.02443111,-0.
 00342700,-0.00679091,-0.02002235,0.00218605,0.00207587,0.01907643,-0.0
 0386479,-0.00063653,-0.01704192,0.00037640,0.00895101,0.02470151,-0.00
 628299,-0.00356075\\\@


 NATURE WILL TELL YOU A DIRECT LIE IF SHE CAN.

                                -- CHARLES DARWIN
 Job cpu time:  0 days 12 hours 48 minutes 55.3 seconds.
 File lengths (MBytes):  RWF=   1328 Int=      0 D2E=      0 Chk=     19 Scr=      1
 Normal termination of Gaussian 09 at Tue Mar  1 16:31:47 2016.
Gaussian '09 finished on node019 at Tue Mar  1 16:31:47 EST 2016.
