Gaussian '09 started on node021 at Sun Mar 20 15:04:13 EDT 2016.
 Entering Gaussian System, Link 0=/usr/local/gaussian/g09/g09
 Initial command:
 /usr/local/gaussian/g09/l1.exe /home/srmcgrat/thesis/gaussian/cellobiose/280K/6474ps/1/2dp/gaussian4426/Gau-4462.inp -scrdir=/home/srmcgrat/thesis/gaussian/cellobiose/280K/6474ps/1/2dp/gaussian4426/
 Entering Link 1 = /usr/local/gaussian/g09/l1.exe PID=      4464.
  
 Copyright (c) 1988,1990,1992,1993,1995,1998,2003,2009,2010,
            Gaussian, Inc.  All Rights Reserved.
  
 This is part of the Gaussian(R) 09 program.  It is based on
 the Gaussian(R) 03 system (copyright 2003, Gaussian, Inc.),
 the Gaussian(R) 98 system (copyright 1998, Gaussian, Inc.),
 the Gaussian(R) 94 system (copyright 1995, Gaussian, Inc.),
 the Gaussian 92(TM) system (copyright 1992, Gaussian, Inc.),
 the Gaussian 90(TM) system (copyright 1990, Gaussian, Inc.),
 the Gaussian 88(TM) system (copyright 1988, Gaussian, Inc.),
 the Gaussian 86(TM) system (copyright 1986, Carnegie Mellon
 University), and the Gaussian 82(TM) system (copyright 1983,
 Carnegie Mellon University). Gaussian is a federally registered
 trademark of Gaussian, Inc.
  
 This software contains proprietary and confidential information,
 including trade secrets, belonging to Gaussian, Inc.
  
 This software is provided under written license and may be
 used, copied, transmitted, or stored only in accord with that
 written license.
  
 The following legend is applicable only to US Government
 contracts under FAR:
  
                    RESTRICTED RIGHTS LEGEND
  
 Use, reproduction and disclosure by the US Government is
 subject to restrictions as set forth in subparagraphs (a)
 and (c) of the Commercial Computer Software - Restricted
 Rights clause in FAR 52.227-19.
  
 Gaussian, Inc.
 340 Quinnipiac St., Bldg. 40, Wallingford CT 06492
  
  
 ---------------------------------------------------------------
 Warning -- This program may not be used in any manner that
 competes with the business of Gaussian, Inc. or will provide
 assistance to any competitor of Gaussian, Inc.  The licensee
 of this program is prohibited from giving any competitor of
 Gaussian, Inc. access to this program.  By using this program,
 the user acknowledges that Gaussian, Inc. is engaged in the
 business of creating and licensing software in the field of
 computational chemistry and represents and warrants to the
 licensee that it is not a competitor of Gaussian, Inc. and that
 it will not use this program in any manner prohibited above.
 ---------------------------------------------------------------
  

 Cite this work as:
 Gaussian 09, Revision B.01,
 M. J. Frisch, G. W. Trucks, H. B. Schlegel, G. E. Scuseria, 
 M. A. Robb, J. R. Cheeseman, G. Scalmani, V. Barone, B. Mennucci, 
 G. A. Petersson, H. Nakatsuji, M. Caricato, X. Li, H. P. Hratchian, 
 A. F. Izmaylov, J. Bloino, G. Zheng, J. L. Sonnenberg, M. Hada, 
 M. Ehara, K. Toyota, R. Fukuda, J. Hasegawa, M. Ishida, T. Nakajima, 
 Y. Honda, O. Kitao, H. Nakai, T. Vreven, J. A. Montgomery, Jr., 
 J. E. Peralta, F. Ogliaro, M. Bearpark, J. J. Heyd, E. Brothers, 
 K. N. Kudin, V. N. Staroverov, T. Keith, R. Kobayashi, J. Normand, 
 K. Raghavachari, A. Rendell, J. C. Burant, S. S. Iyengar, J. Tomasi, 
 M. Cossi, N. Rega, J. M. Millam, M. Klene, J. E. Knox, J. B. Cross, 
 V. Bakken, C. Adamo, J. Jaramillo, R. Gomperts, R. E. Stratmann, 
 O. Yazyev, A. J. Austin, R. Cammi, C. Pomelli, J. W. Ochterski, 
 R. L. Martin, K. Morokuma, V. G. Zakrzewski, G. A. Voth, 
 P. Salvador, J. J. Dannenberg, S. Dapprich, A. D. Daniels, 
 O. Farkas, J. B. Foresman, J. V. Ortiz, J. Cioslowski, 
 and D. J. Fox, Gaussian, Inc., Wallingford CT, 2010.
 
 ******************************************
 Gaussian 09:  EM64L-G09RevB.01 12-Aug-2010
                20-Mar-2016 
 ******************************************
 -------------------------------------------------
 # freq=raman b3lyp/6-31+g(2d,p) geom=connectivity
 -------------------------------------------------
 1/10=4,30=1,38=1,57=2/1,3;
 2/12=2,17=6,18=5,40=1/2;
 3/5=1,6=6,7=112,11=2,16=1,25=1,30=1,71=2,74=-5/1,2,3;
 4//1;
 5/5=2,38=5,98=1/2;
 8/6=4,10=90,11=11/1;
 10/13=10,15=4/2;
 11/6=3,8=1,9=11,15=111,16=1/1,2,10;
 10/6=1/2;
 6/7=2,8=2,9=2,10=2,18=1,28=1/1;
 7/8=1,10=1,25=1/1,2,3,16;
 1/10=4,30=1/3;
 99//99;
 -----------------
 280 6474/6474.com
 -----------------
 Symbolic Z-matrix:
 Charge =  0 Multiplicity = 1
 O                     7.719     7.47      12.054 
 C                     8.17      7.878     13.354 
 C                     7.682     9.244     13.807 
 O                     7.937     10.329    12.903 
 H                     7.811     9.898     12.01 
 C                     8.092     9.609     15.224 
 O                     7.465     10.811    15.697 
 H                     7.859     11.04     16.587 
 C                     8.344     5.412     14.079 
 O                     7.944     4.684     12.909 
 H                     7.964     3.716     13.158 
 C                     7.828     6.81      14.38 
 O                     8.339     7.232     15.652 
 C                     7.833     8.463     16.188 
 O                     8.72      8.565     17.312 
 C                     8.098     8.317     18.581 
 C                     8.552     6.962     19.097 
 O                     8.387     5.857     18.196 
 H                     8.833     6.18      17.361 
 C                     8.029     6.598     20.477 
 O                     8.813     5.468     20.888 
 H                     8.654     5.241     21.849 
 C                     8.036     10.721    19.166 
 O                     8.574     11.343    17.99 
 H                     8.398     12.324    18.079 
 C                     8.435     9.339     19.655 
 O                     7.814     8.872     20.862 
 C                     8.359     7.695     21.476 
 O                     7.525     7.572     22.636 
 H                     8.07516   7.48905   23.41833 
 H                     8.47769   7.29387   11.49279 
 H                     8.08926   4.80308   14.92116 
 H                     9.41147   5.47898   14.04856 
 H                     6.76191   6.75642   14.45401 
 H                     9.23755   7.93279   13.30672 
 H                     6.61608   9.15659   13.83992 
 H                     9.14752   9.78412   15.21371 
 H                     8.23179   11.39264   19.97561 
 H                     6.97473   10.69582   19.03196 
 H                     9.49476   9.33259   19.80253 
 H                     7.03676   8.29689   18.44583 
 H                     9.61034   7.06019   19.22017 
 H                     6.98333   6.37162   20.46191 
 H                     9.4019    7.77763   21.70055 
 H                     6.80698   8.38983   16.48266 
 

 GradGradGradGradGradGradGradGradGradGradGradGradGradGradGradGradGradGrad
 Berny optimization.
 Initialization pass.
 Trust Radius=3.00D-01 FncErr=1.00D-07 GrdErr=1.00D-07
 Number of steps in this run=      2 maximum allowed number of steps=      2.
 GradGradGradGradGradGradGradGradGradGradGradGradGradGradGradGradGradGrad

                          Input orientation:                          
 ---------------------------------------------------------------------
 Center     Atomic      Atomic             Coordinates (Angstroms)
 Number     Number       Type             X           Y           Z
 ---------------------------------------------------------------------
      1          8           0        7.719000    7.470000   12.054000
      2          6           0        8.170000    7.878000   13.354000
      3          6           0        7.682000    9.244000   13.807000
      4          8           0        7.937000   10.329000   12.903000
      5          1           0        7.811000    9.898000   12.010000
      6          6           0        8.092000    9.609000   15.224000
      7          8           0        7.465000   10.811000   15.697000
      8          1           0        7.859000   11.040000   16.587000
      9          6           0        8.344000    5.412000   14.079000
     10          8           0        7.944000    4.684000   12.909000
     11          1           0        7.964000    3.716000   13.158000
     12          6           0        7.828000    6.810000   14.380000
     13          8           0        8.339000    7.232000   15.652000
     14          6           0        7.833000    8.463000   16.188000
     15          8           0        8.720000    8.565000   17.312000
     16          6           0        8.098000    8.317000   18.581000
     17          6           0        8.552000    6.962000   19.097000
     18          8           0        8.387000    5.857000   18.196000
     19          1           0        8.833000    6.180000   17.361000
     20          6           0        8.029000    6.598000   20.477000
     21          8           0        8.813000    5.468000   20.888000
     22          1           0        8.654000    5.241000   21.849000
     23          6           0        8.036000   10.721000   19.166000
     24          8           0        8.574000   11.343000   17.990000
     25          1           0        8.398000   12.324000   18.079000
     26          6           0        8.435000    9.339000   19.655000
     27          8           0        7.814000    8.872000   20.862000
     28          6           0        8.359000    7.695000   21.476000
     29          8           0        7.525000    7.572000   22.636000
     30          1           0        8.075161    7.489046   23.418331
     31          1           0        8.477693    7.293865   11.492786
     32          1           0        8.089264    4.803082   14.921157
     33          1           0        9.411468    5.478982   14.048562
     34          1           0        6.761908    6.756424   14.454005
     35          1           0        9.237550    7.932794   13.306718
     36          1           0        6.616085    9.156587   13.839917
     37          1           0        9.147521    9.784124   15.213711
     38          1           0        8.231795   11.392641   19.975606
     39          1           0        6.974728   10.695816   19.031960
     40          1           0        9.494762    9.332586   19.802525
     41          1           0        7.036763    8.296894   18.445829
     42          1           0        9.610342    7.060194   19.220168
     43          1           0        6.983331    6.371618   20.461910
     44          1           0        9.401904    7.777634   21.700551
     45          1           0        6.806978    8.389826   16.482660
 ---------------------------------------------------------------------
                    Distance matrix (angstroms):
                    1          2          3          4          5
     1  O    0.000000
     2  C    1.435223   0.000000
     3  C    2.494284   1.519641   0.000000
     4  O    2.990352   2.503016   1.435084   0.000000
     5  H    2.430141   2.452675   1.916655   0.999543   0.000000
     6  C    3.842311   2.549381   1.519610   2.435049   3.239179
     7  O    4.949570   3.819576   2.464686   2.874290   3.814086
     8  H    5.771706   4.532908   3.314415   3.752794   4.717563
     9  C    2.954084   2.576249   3.898263   5.072033   4.968807
    10  O    2.922917   3.232760   4.654960   5.645008   5.292607
    11  H    3.920632   4.171702   5.573106   6.617970   6.289550
    12  C    2.420280   1.519955   2.504796   3.817954   3.892677
    13  O    3.658777   2.393048   2.807814   4.160530   4.544283
    14  C    4.253117   2.913306   2.510363   3.779418   4.417623
    15  O    5.463295   4.054656   3.717998   4.812906   5.542055
    16  C    6.592631   5.245897   4.880928   6.026089   6.764612
    17  C    7.110260   5.828124   5.826536   7.076761   7.706799
    18  O    6.385308   5.251333   5.588570   6.943856   7.411346
    19  H    5.573988   4.402138   4.831544   6.155549   6.595545
    20  C    8.473689   7.238467   7.184054   8.443595   9.089973
    21  O    9.123837   7.936164   8.104190   9.389192   9.972351
    22  H   10.088840   8.908033   9.035627  10.316625  10.918068
    23  C    7.826240   6.471472   5.570074   6.276036   7.206684
    24  O    7.139135   5.801891   4.764342   5.226044   6.199241
    25  H    7.766787   6.491881   5.314983   5.566284   6.562226
    26  C    7.860090   6.473588   5.897045   6.842339   7.690766
    27  O    8.919389   7.581875   7.066034   8.092197   8.911262
    28  C    9.446391   8.126260   7.853107   8.978439   9.734406
    29  O   10.584270   9.309414   8.987295  10.124331  10.881358
    30  H   11.369926  10.072290   9.778145  10.892961  11.662883
    31  H    0.960000   1.974844   3.129176   3.390147   2.737427
    32  H    3.933209   3.452190   4.596625   5.884888   5.874560
    33  H    3.287381   2.789076   4.150273   5.197022   5.122982
    34  H    2.680530   2.109661   2.730059   4.068140   4.116219
    35  H    2.022245   1.070000   2.095060   2.756124   2.752917
    36  H    2.692675   2.070158   1.070000   1.999295   2.307837
    37  H    4.168887   2.836791   2.101981   2.664890   3.473186
    38  H    8.854486   7.496812   6.555199   7.158212   8.115535
    39  H    7.723455   6.450426   5.468841   6.214876   7.116445
    40  H    8.164692   6.741980   6.264206   7.143032   7.992384
    41  H    6.481101   5.233203   4.778292   5.971837   6.677041
    42  H    7.422875   6.095516   6.147349   7.306967   7.954702
    43  H    8.511204   7.362048   7.281932   8.585306   9.195389
    44  H    9.797079   8.437569   8.210752   9.276439  10.046577
    45  H    4.614206   3.450842   2.941842   4.225081   4.825696
                    6          7          8          9         10
     6  C    0.000000
     7  O    1.435849   0.000000
     8  H    1.989929   0.999888   0.000000
     9  C    4.357676   5.704364   6.180588   0.000000
    10  O    5.443965   6.748519   7.343953   1.434881   0.000000
    11  H    6.245974   7.552122   8.087647   1.966992   0.999712
    12  C    2.935376   4.227796   4.771238   1.520283   2.587890
    13  O    2.427822   3.684446   3.950378   2.405567   3.764622
    14  C    1.519767   2.426852   2.607836   3.744009   5.004498
    15  O    2.417450   3.037724   2.718928   4.531564   5.920367
    16  C    3.597047   3.864994   3.383472   5.363538   6.737506
    17  C    4.713633   5.249416   4.838433   5.256053   6.621955
    18  O    4.795551   5.624696   5.452628   4.141203   5.433650
    19  H    4.107784   5.107493   5.016707   3.405946   4.780025
    20  C    6.055089   6.396551   5.906976   6.514616   7.806744
    21  O    7.053270   7.570418   7.103232   6.825363   8.064382
    22  H    7.955243   8.383658   7.870773   7.778062   8.985430
    23  C    4.096223   3.516831   2.604675   7.359206   8.695049
    24  O    3.299975   2.602067   1.603572   7.108135   8.399747
    25  H    3.951694   2.972134   2.040892   7.986154   9.236050
    26  C    4.452450   4.332834   3.554968   6.820659   8.210884
    27  O    5.692758   5.527997   4.793524   7.632928   8.989241
    28  C    6.543867   6.626125   5.944859   7.741313   9.090205
    29  O    7.707698   7.657966   6.980615   8.863330  10.155325
    30  H    8.464133   8.427729   7.702148   9.571285  10.878029
    31  H    4.408012   5.574155   6.353529   3.201218   3.016933
    32  H    4.815451   6.089886   6.459659   1.070000   2.020905
    33  H    4.492182   5.910710   6.307039   1.070000   2.020905
    34  H    3.240251   4.298717   4.909410   2.109768   2.842415
    35  H    2.792475   4.139981   4.723915   2.783748   3.519391
    36  H    2.073328   2.628021   3.555073   4.130955   4.757521
    37  H    1.070000   2.029512   2.263500   4.587885   5.724633
    38  H    5.077271   4.385516   3.427241   8.399442   9.748108
    39  H    4.114612   3.372773   2.622638   7.370579   8.635512
    40  H    4.796565   4.812585   3.991313   7.032353   8.457831
    41  H    3.635289   3.749690   3.414081   5.394504   6.673271
    42  H    4.977060   5.575280   5.083269   5.545428   6.946498
    43  H    6.256635   6.530274   6.129887   6.596501   7.798550
    44  H    6.856782   6.999681   6.258753   8.050058   9.433315
    45  H    2.172991   2.629132   2.853254   4.124011   5.272287
                   11         12         13         14         15
    11  H    0.000000
    12  C    3.329357   0.000000
    13  O    4.326999   1.434290   0.000000
    14  C    5.633123   2.449755   1.434815   0.000000
    15  O    6.429623   3.531616   2.162788   1.435461   0.000000
    16  C    7.113093   4.471281   3.132786   2.412051   1.434834
    17  C    6.793672   4.774659   3.462123   3.351454   2.405007
    18  O    5.490378   3.972725   2.892208   3.336198   2.868032
    19  H    4.948906   3.208315   2.066742   2.754636   2.388178
    20  C    7.866251   6.103995   4.876339   4.681043   3.789960
    21  O    7.971399   6.717533   5.545455   5.658659   4.731578
    22  H    8.850718   7.676588   6.516603   6.565230   5.624740
    23  C    9.228828   6.184253   4.961162   3.742761   2.924638
    24  O    9.049390   5.842662   4.735165   3.477166   2.863265
    25  H    9.924831   6.664210   5.641123   4.336177   3.849942
    26  C    8.605288   5.881319   4.524674   3.626275   2.483938
    27  O    9.271378   6.802085   5.487196   4.691899   3.676627
    28  C    9.229171   7.170663   5.842409   5.369306   4.269206
    29  O   10.241774   8.296625   7.039492   6.516552   5.546084
    30  H   10.932640   9.067172   7.775061   7.299651   6.233840
    31  H    3.979691   2.998705   4.161986   4.881347   5.961355
    32  H    2.075129   2.094953   2.548753   3.881438   4.501775
    33  H    2.448749   2.094953   2.606582   3.996638   4.544410
    34  H    3.516935   1.070000   2.036807   2.658266   3.908095
    35  H    4.407426   2.097482   2.607461   3.248948   4.087765
    36  H    5.646404   2.695719   3.155332   2.734125   4.102657
    37  H    6.515275   3.358813   2.712774   2.102992   2.464113
    38  H   10.270457   7.243926   6.001333   4.804976   3.915188
    39  H    9.176051   6.121142   5.028260   3.716209   3.247248
    40  H    8.833968   6.208487   4.793236   4.072152   2.718853
    41  H    7.057300   4.400894   3.261181   2.399870   2.047129
    42  H    7.116456   5.163968   3.791787   3.784290   2.588098
    43  H    7.833334   6.155913   5.070831   4.833438   4.212941
    44  H    9.567634   7.550097   6.165424   5.772296   4.510468
    45  H    5.851215   2.821262   2.092283   1.070000   2.092401
                   16         17         18         19         20
    16  C    0.000000
    17  C    1.519341   0.000000
    18  O    2.506660   1.435288   0.000000
    19  H    2.568150   1.924625   1.000235   0.000000
    20  C    2.560183   1.520008   2.424914   3.245088   0.000000
    21  O    3.735007   2.346878   2.753118   3.598204   1.435436
    22  H    4.522249   3.247422   3.714183   4.588671   2.028413
    23  C    2.474931   3.794878   4.972182   4.951153   4.326419
    24  O    3.119701   4.518749   5.493050   5.207619   5.384907
    25  H    4.049451   5.459953   6.468068   6.201087   6.218813
    26  C    1.520371   2.444419   3.775620   3.924299   2.890260
    27  O    2.364665   2.703326   4.065232   4.532353   2.316361
    28  C    2.972546   2.496834   3.759977   4.410570   1.519970
    29  O    4.162497   3.735151   4.837134   5.610183   2.421564
    30  H    4.907728   4.379389   5.480288   6.243330   3.073682
    31  H    7.171733   7.611815   6.856084   5.983551   9.022287
    32  H    5.073672   4.723633   3.453112   2.898599   5.838900
    33  H    5.506590   5.331487   4.288785   3.434865   6.669950
    34  H    4.610057   4.980371   4.177609   3.615564   6.156873
    35  H    5.409643   5.910988   5.379353   4.435442   7.392916
    36  H    5.037742   6.016719   5.744465   5.115937   7.252142
    37  H    3.820024   4.837248   4.989463   4.207076   6.253374
    38  H    3.379704   4.528252   5.816736   5.862529   4.825050
    39  H    2.669058   4.053813   5.109548   5.161190   4.471211
    40  H    2.115297   2.646931   3.985945   4.042001   3.175112
    41  H    1.070000   2.121770   2.799757   2.980698   2.827796
    42  H    2.067674   1.070000   1.998289   2.198978   2.072171
    43  H    2.926571   2.161539   2.714676   3.615748   1.070000
    44  H    3.423840   2.857634   4.123196   4.659162   2.184829
    45  H    2.464766   3.452327   3.441978   3.124032   4.545188
                   21         22         23         24         25
    21  O    0.000000
    22  H    1.000165   0.000000
    23  C    5.582385   6.132766   0.000000
    24  O    6.555238   7.220297   1.435028   0.000000
    25  H    7.420744   8.027909   1.970336   1.000629   0.000000
    26  C    4.080173   4.653515   1.519291   2.609131   3.375703
    27  O    3.547660   3.855377   2.518829   3.864172   4.472410
    28  C    2.347635   2.499654   3.820616   5.050379   5.741844
    29  O    3.023452   2.706949   4.713621   6.075044   6.641527
    30  H    3.321386   2.802064   5.341290   6.675970   7.210371
    31  H    9.576861  10.559191   8.415377   7.656276   8.287752
    32  H    6.047241   6.964604   7.283082   7.240393   8.162812
    33  H    6.865581   7.840742   7.453780   7.114983   8.007860
    34  H    6.874831   7.782189   6.288408   6.068247   6.842170
    35  H    7.983188   8.975348   6.599166   5.831203   6.539282
    36  H    8.252732   9.144962   5.729808   5.083013   5.583686
    37  H    7.137113   8.056712   4.211152   3.235243   3.901619
    38  H    6.022594   6.444420   1.070000   2.015490   2.119474
    39  H    5.844159   6.364801   1.070000   2.015490   2.363223
    40  H    4.071619   4.651453   2.112071   2.859163   3.622427
    41  H    4.137857   4.851342   2.719083   3.442331   4.266745
    42  H    2.439775   3.336887   3.985347   4.574904   5.520842
    43  H    2.084650   2.448153   4.658821   5.775396   6.565851
    44  H    2.518225   2.648756   4.117408   5.212049   5.898551
    45  H    5.654044   6.490316   3.761008   3.757083   4.534024
                   26         27         28         29         30
    26  C    0.000000
    27  O    1.435472   0.000000
    28  C    2.454496   1.435044   0.000000
    29  O    3.582841   2.218242   1.433975   0.000000
    30  H    4.208856   2.918149   1.973735   0.960000   0.000000
    31  H    8.414639   9.524347   9.991975  11.187324  11.933933
    32  H    6.565314   7.205933   7.169513   8.216088   8.911597
    33  H    6.876436   7.777365   7.822101   9.037897   9.675672
    34  H    6.043119   6.829711   7.262234   8.257876   9.089582
    35  H    6.551502   7.745378   8.219827   9.492023  10.187873
    36  H    6.095647   7.129210   7.967669   8.983770   9.831358
    37  H    4.520052   5.874812   6.648494   7.913055   8.586799
    38  H    2.088426   2.704419   3.992482   4.708987   5.207201
    39  H    2.088426   2.716566   4.110284   4.801055   5.543877
    40  H    1.070000   2.039507   2.602338   3.874043   4.299762
    41  H    2.122062   2.602447   3.360435   4.280348   5.143604
    42  H    2.600666   3.033991   2.656617   4.034663   4.490575
    43  H    3.400559   2.664956   2.161524   2.541848   3.343825
    44  H    2.749008   2.102913   1.070000   2.107159   2.189588
    45  H    3.689868   4.519425   5.274941   6.248839   7.107969
                   31         32         33         34         35
    31  H    0.000000
    32  H    4.255421   0.000000
    33  H    3.270738   1.722349   0.000000
    34  H    3.464330   2.407415   2.969244   0.000000
    35  H    2.067841   3.704061   2.569391   2.971350   0.000000
    36  H    3.527655   4.721477   4.624119   2.481764   2.941776
    37  H    4.527179   5.100615   4.467828   3.928776   2.659351
    38  H    9.424366   8.306025   8.455344   7.358204   7.579984
    39  H    8.406624   7.270846   7.614941   6.043325   6.747818
    40  H    8.616414   6.805849   6.925698   6.535424   6.649894
    41  H    7.171273   5.073242   5.737230   4.287569   5.602364
    42  H    7.813445   5.088194   5.411588   5.560770   5.989098
    43  H    9.139412   5.863730   6.915467   6.024286   7.662606
    44  H   10.260930   7.518721   7.989796   7.779774   8.396876
    45  H    5.375060   4.116708   4.602305   2.604895   4.025315
                   36         37         38         39         40
    36  H    0.000000
    37  H    2.947759   0.000000
    38  H    6.727343   5.108965   0.000000
    39  H    5.427261   4.486785   1.719375   0.000000
    40  H    6.623477   4.624032   2.422575   2.966941   0.000000
    41  H    4.704303   4.136876   3.654035   2.470269   2.992498
    42  H    6.504424   4.866795   4.608816   4.494400   2.348673
    43  H    7.193171   6.623632   5.196713   4.554505   3.938198
    44  H    8.452921   6.794837   4.172873   4.639865   2.455403
    45  H    2.758343   3.005402   4.821584   3.441607   4.374298
                   41         42         43         44         45
    41  H    0.000000
    42  H    2.958435   0.000000
    43  H    2.788212   2.986176   0.000000
    44  H    4.056691   2.590457   3.059511   0.000000
    45  H    1.978754   4.137719   4.465276   5.859591   0.000000
 Stoichiometry    C12H22O11
 Framework group  C1[X(C12H22O11)]
 Deg. of freedom   129
 Full point group                 C1      NOp   1
 Largest Abelian subgroup         C1      NOp   1
 Largest concise Abelian subgroup C1      NOp   1
                         Standard orientation:                         
 ---------------------------------------------------------------------
 Center     Atomic      Atomic             Coordinates (Angstroms)
 Number     Number       Type             X           Y           Z
 ---------------------------------------------------------------------
      1          8           0       -5.022600   -0.485088    0.271097
      2          6           0       -3.702856   -0.118295   -0.157391
      3          6           0       -3.244350    1.263983    0.276644
      4          8           0       -4.122931    2.347331   -0.060877
      5          1           0       -5.026034    1.935641    0.057456
      6          6           0       -1.809638    1.588258   -0.105009
      7          8           0       -1.338070    2.813438    0.476560
      8          1           0       -0.432645    3.010028    0.100616
      9          6           0       -3.011043   -2.599760   -0.185424
     10          8           0       -4.204219   -3.290481    0.212215
     11          1           0       -3.969748   -4.261639    0.248280
     12          6           0       -2.704830   -1.182008    0.270071
     13          8           0       -1.410959   -0.803848   -0.219911
     14          6           0       -0.872165    0.443359    0.241465
     15          8           0        0.280694    0.485191   -0.612768
     16          6           0        1.525451    0.251005    0.061389
     17          6           0        2.034445   -1.132067   -0.307982
     18          8           0        1.111669   -2.214783   -0.117559
     19          1           0        0.296257   -1.902926   -0.605737
     20          6           0        3.391457   -1.488595    0.276681
     21          8           0        3.809411   -2.662027   -0.436656
     22          1           0        4.761284   -2.894130   -0.235668
     23          6           0        2.145399    2.646724    0.022965
     24          8           0        0.996734    3.257316   -0.582881
     25          1           0        1.095336    4.244562   -0.452956
     26          6           0        2.625257    1.239818   -0.291035
     27          8           0        3.804689    0.787740    0.390981
     28          6           0        4.417252   -0.423490   -0.074894
     29          8           0        5.548327   -0.520718    0.801177
     30          1           0        6.346239   -0.641979    0.281337
     31          1           0       -5.562272   -0.691151   -0.495644
     32          1           0       -2.186878   -3.206821    0.126233
     33          1           0       -3.006760   -2.585872   -1.255325
     34          1           0       -2.665322   -1.183183    1.339341
     35          1           0       -3.715592   -0.116349   -1.227314
     36          1           0       -3.246423    1.229581    1.346089
     37          1           0       -1.783918    1.710460   -1.167697
     38          1           0        2.971092    3.296397   -0.179662
     39          1           0        1.977584    2.676556    1.079302
     40          1           0        2.806013    1.178319   -1.343862
     41          1           0        1.356583    0.285922    1.117403
     42          1           0        2.192435   -1.088690   -1.365365
     43          1           0        3.339890   -1.662125    1.331256
     44          1           0        4.675834   -0.396289   -1.112822
     45          1           0       -0.611178    0.417539    1.278827
 ---------------------------------------------------------------------
 Rotational constants (GHZ):      0.4048505      0.1467875      0.1105716
 Standard basis: 6-31+G(2d,p) (6D, 7F)
 There are   685 symmetry adapted basis functions of A   symmetry.
 Integral buffers will be    131072 words long.
 Raffenetti 2 integral format.
 Two-electron integral symmetry is turned on.
   685 basis functions,  1028 primitive gaussians,   685 cartesian basis functions
    91 alpha electrons       91 beta electrons
       nuclear repulsion energy      2288.8607265849 Hartrees.
 NAtoms=   45 NActive=   45 NUniq=   45 SFac= 1.00D+00 NAtFMM=   50 NAOKFM=F Big=F
 One-electron integrals computed using PRISM.
 NBasis=   685 RedAO= T  NBF=   685
 NBsUse=   685 1.00D-06 NBFU=   685
 Harris functional with IExCor=  402 diagonalized for initial guess.
 ExpMin= 4.38D-02 ExpMax= 5.48D+03 ExpMxC= 8.25D+02 IAcc=2 IRadAn=         0 AccDes= 0.00D+00
 HarFok:  IExCor=  402 AccDes= 0.00D+00 IRadAn=         0 IDoV= 1
 ScaDFX=  1.000000  1.000000  1.000000  1.000000
 FoFCou: FMM=F IPFlag=           0 FMFlag=      100000 FMFlg1=           0
         NFxFlg=           0 DoJE=T BraDBF=F KetDBF=T FulRan=T
         Omega=  0.000000  0.000000  1.000000  0.000000  0.000000 ICntrl=     500 IOpCl=  0
         NMat0=    1 NMatS0=    1 NMatT0=    0 NMatD0=    1 NMtDS0=    0 NMtDT0=    0
         I1Cent=           4 NGrid=           0.
 Petite list used in FoFCou.
 Initial guess orbital symmetries:
       Occupied  (A) (A) (A) (A) (A) (A) (A) (A) (A) (A) (A) (A)
                 (A) (A) (A) (A) (A) (A) (A) (A) (A) (A) (A) (A)
                 (A) (A) (A) (A) (A) (A) (A) (A) (A) (A) (A) (A)
                 (A) (A) (A) (A) (A) (A) (A) (A) (A) (A) (A) (A)
                 (A) (A) (A) (A) (A) (A) (A) (A) (A) (A) (A) (A)
                 (A) (A) (A) (A) (A) (A) (A) (A) (A) (A) (A) (A)
                 (A) (A) (A) (A) (A) (A) (A) (A) (A) (A) (A) (A)
                 (A) (A) (A) (A) (A) (A) (A)
       Virtual   (A) (A) (A) (A) (A) (A) (A) (A) (A) (A) (A) (A)
                 (A) (A) (A) (A) (A) (A) (A) (A) (A) (A) (A) (A)
                 (A) (A) (A) (A) (A) (A) (A) (A) (A) (A) (A) (A)
                 (A) (A) (A) (A) (A) (A) (A) (A) (A) (A) (A) (A)
                 (A) (A) (A) (A) (A) (A) (A) (A) (A) (A) (A) (A)
                 (A) (A) (A) (A) (A) (A) (A) (A) (A) (A) (A) (A)
                 (A) (A) (A) (A) (A) (A) (A) (A) (A) (A) (A) (A)
                 (A) (A) (A) (A) (A) (A) (A) (A) (A) (A) (A) (A)
                 (A) (A) (A) (A) (A) (A) (A) (A) (A) (A) (A) (A)
                 (A) (A) (A) (A) (A) (A) (A) (A) (A) (A) (A) (A)
                 (A) (A) (A) (A) (A) (A) (A) (A) (A) (A) (A) (A)
                 (A) (A) (A) (A) (A) (A) (A) (A) (A) (A) (A) (A)
                 (A) (A) (A) (A) (A) (A) (A) (A) (A) (A) (A) (A)
                 (A) (A) (A) (A) (A) (A) (A) (A) (A) (A) (A) (A)
                 (A) (A) (A) (A) (A) (A) (A) (A) (A) (A) (A) (A)
                 (A) (A) (A) (A) (A) (A) (A) (A) (A) (A) (A) (A)
                 (A) (A) (A) (A) (A) (A) (A) (A) (A) (A) (A) (A)
                 (A) (A) (A) (A) (A) (A) (A) (A) (A) (A) (A) (A)
                 (A) (A) (A) (A) (A) (A) (A) (A) (A) (A) (A) (A)
                 (A) (A) (A) (A) (A) (A) (A) (A) (A) (A) (A) (A)
                 (A) (A) (A) (A) (A) (A) (A) (A) (A) (A) (A) (A)
                 (A) (A) (A) (A) (A) (A) (A) (A) (A) (A) (A) (A)
                 (A) (A) (A) (A) (A) (A) (A) (A) (A) (A) (A) (A)
                 (A) (A) (A) (A) (A) (A) (A) (A) (A) (A) (A) (A)
                 (A) (A) (A) (A) (A) (A) (A) (A) (A) (A) (A) (A)
                 (A) (A) (A) (A) (A) (A) (A) (A) (A) (A) (A) (A)
                 (A) (A) (A) (A) (A) (A) (A) (A) (A) (A) (A) (A)
                 (A) (A) (A) (A) (A) (A) (A) (A) (A) (A) (A) (A)
                 (A) (A) (A) (A) (A) (A) (A) (A) (A) (A) (A) (A)
                 (A) (A) (A) (A) (A) (A) (A) (A) (A) (A) (A) (A)
                 (A) (A) (A) (A) (A) (A) (A) (A) (A) (A) (A) (A)
                 (A) (A) (A) (A) (A) (A) (A) (A) (A) (A) (A) (A)
                 (A) (A) (A) (A) (A) (A) (A) (A) (A) (A) (A) (A)
                 (A) (A) (A) (A) (A) (A) (A) (A) (A) (A) (A) (A)
                 (A) (A) (A) (A) (A) (A) (A) (A) (A) (A) (A) (A)
                 (A) (A) (A) (A) (A) (A) (A) (A) (A) (A) (A) (A)
                 (A) (A) (A) (A) (A) (A) (A) (A) (A) (A) (A) (A)
                 (A) (A) (A) (A) (A) (A) (A) (A) (A) (A) (A) (A)
                 (A) (A) (A) (A) (A) (A) (A) (A) (A) (A) (A) (A)
                 (A) (A) (A) (A) (A) (A) (A) (A) (A) (A) (A) (A)
                 (A) (A) (A) (A) (A) (A) (A) (A) (A) (A) (A) (A)
                 (A) (A) (A) (A) (A) (A) (A) (A) (A) (A) (A) (A)
                 (A) (A) (A) (A) (A) (A) (A) (A) (A) (A) (A) (A)
                 (A) (A) (A) (A) (A) (A) (A) (A) (A) (A) (A) (A)
                 (A) (A) (A) (A) (A) (A) (A) (A) (A) (A) (A) (A)
                 (A) (A) (A) (A) (A) (A) (A) (A) (A) (A) (A) (A)
                 (A) (A) (A) (A) (A) (A) (A) (A) (A) (A) (A) (A)
                 (A) (A) (A) (A) (A) (A) (A) (A) (A) (A) (A) (A)
                 (A) (A) (A) (A) (A) (A) (A) (A) (A) (A) (A) (A)
                 (A) (A) (A) (A) (A) (A)
 The electronic state of the initial guess is 1-A.
 Requested convergence on RMS density matrix=1.00D-08 within 128 cycles.
 Requested convergence on MAX density matrix=1.00D-06.
 Requested convergence on             energy=1.00D-06.
 No special actions if energy rises.
 SCF Done:  E(RB3LYP) =  -1297.96970362     A.U. after   13 cycles
             Convg  =    0.4837D-08             -V/T =  2.0064
 Range of M.O.s used for correlation:     1   685
 NBasis=   685 NAE=    91 NBE=    91 NFC=     0 NFV=     0
 NROrb=    685 NOA=    91 NOB=    91 NVA=   594 NVB=   594

 **** Warning!!: The largest alpha MO coefficient is  0.79173180D+02

          Differentiating once with respect to electric field.
                with respect to dipole field.
          Electric field/nuclear overlap derivatives assumed to be zero.
          There are     3 degrees of freedom in the 1st order CPHF.  IDoFFX=0.
      3 vectors produced by pass  0 Test12= 1.80D-12 3.33D-08 XBig12= 1.23D+02 1.21D+00.
 AX will form     3 AO Fock derivatives at one time.
      3 vectors produced by pass  1 Test12= 1.80D-12 3.33D-08 XBig12= 2.57D+01 5.08D-01.
      3 vectors produced by pass  2 Test12= 1.80D-12 3.33D-08 XBig12= 1.12D+01 2.47D-01.
      3 vectors produced by pass  3 Test12= 1.80D-12 3.33D-08 XBig12= 1.15D+00 8.60D-02.
      3 vectors produced by pass  4 Test12= 1.80D-12 3.33D-08 XBig12= 3.63D-01 4.53D-02.
      3 vectors produced by pass  5 Test12= 1.80D-12 3.33D-08 XBig12= 6.22D-02 2.01D-02.
      3 vectors produced by pass  6 Test12= 1.80D-12 3.33D-08 XBig12= 2.27D-02 1.59D-02.
      3 vectors produced by pass  7 Test12= 1.80D-12 3.33D-08 XBig12= 3.08D-03 7.37D-03.
      3 vectors produced by pass  8 Test12= 1.80D-12 3.33D-08 XBig12= 5.58D-04 2.49D-03.
      3 vectors produced by pass  9 Test12= 1.80D-12 3.33D-08 XBig12= 1.66D-04 1.32D-03.
      3 vectors produced by pass 10 Test12= 1.80D-12 3.33D-08 XBig12= 3.54D-05 4.60D-04.
      3 vectors produced by pass 11 Test12= 1.80D-12 3.33D-08 XBig12= 9.80D-06 3.84D-04.
      3 vectors produced by pass 12 Test12= 1.80D-12 3.33D-08 XBig12= 1.64D-06 1.07D-04.
      3 vectors produced by pass 13 Test12= 1.80D-12 3.33D-08 XBig12= 6.82D-07 4.90D-05.
      3 vectors produced by pass 14 Test12= 1.80D-12 3.33D-08 XBig12= 7.40D-08 1.99D-05.
      3 vectors produced by pass 15 Test12= 1.80D-12 3.33D-08 XBig12= 1.79D-08 1.09D-05.
      3 vectors produced by pass 16 Test12= 1.80D-12 3.33D-08 XBig12= 2.54D-09 6.43D-06.
      3 vectors produced by pass 17 Test12= 1.80D-12 3.33D-08 XBig12= 1.61D-10 1.07D-06.
      3 vectors produced by pass 18 Test12= 1.80D-12 3.33D-08 XBig12= 4.70D-11 7.16D-07.
      3 vectors produced by pass 19 Test12= 1.80D-12 3.33D-08 XBig12= 9.81D-12 2.25D-07.
      3 vectors produced by pass 20 Test12= 1.80D-12 3.33D-08 XBig12= 5.62D-12 2.28D-07.
      2 vectors produced by pass 21 Test12= 1.80D-12 3.33D-08 XBig12= 2.56D-12 1.49D-07.
      1 vectors produced by pass 22 Test12= 1.80D-12 3.33D-08 XBig12= 7.76D-13 6.56D-08.
 Inverted reduced A of dimension    66 with in-core refinement.
 End of Minotr Frequency-dependent properties file   721 does not exist.
 End of Minotr Frequency-dependent properties file   722 does not exist.
 Symmetrizing basis deriv contribution to polar:
 IMax=3 JMax=2 DiffMx= 0.00D+00
 G2DrvN: will do    16 centers at a time, making    3 passes doing MaxLOS=2.
 Calling FoFCou, ICntrl=  3107 FMM=F I1Cent=   0 AccDes= 0.00D+00.
 Calling FoFCou, ICntrl=  3107 FMM=F I1Cent=   0 AccDes= 0.00D+00.
 Calling FoFCou, ICntrl=  3107 FMM=F I1Cent=   0 AccDes= 0.00D+00.
 FoFDir/FoFCou used for L=0 through L=2.
 End of G2Drv Frequency-dependent properties file   721 does not exist.
 End of G2Drv Frequency-dependent properties file   722 does not exist.
          IDoAtm=111111111111111111111111111111111111111111111
          Differentiating once with respect to electric field.
                with respect to dipole field.
          Differentiating once with respect to nuclear coordinates.
          There are   138 degrees of freedom in the 1st order CPHF.  IDoFFX=5.
 Will reuse    3 saved solutions.
    135 vectors produced by pass  0 Test12= 5.41D-14 1.00D-09 XBig12= 1.63D-01 1.03D-01.
 AX will form    45 AO Fock derivatives at one time.
    135 vectors produced by pass  1 Test12= 5.41D-14 1.00D-09 XBig12= 1.61D-02 1.08D-02.
    132 vectors produced by pass  2 Test12= 5.41D-14 1.00D-09 XBig12= 1.00D-04 1.28D-03.
    132 vectors produced by pass  3 Test12= 5.41D-14 1.00D-09 XBig12= 4.47D-07 4.71D-05.
    132 vectors produced by pass  4 Test12= 5.41D-14 1.00D-09 XBig12= 8.56D-10 1.98D-06.
    132 vectors produced by pass  5 Test12= 5.41D-14 1.00D-09 XBig12= 2.51D-12 9.85D-08.
     81 vectors produced by pass  6 Test12= 5.41D-14 1.00D-09 XBig12= 1.16D-13 2.67D-08.
 Inverted reduced A of dimension   879 with in-core refinement.
 Isotropic polarizability for W=    0.000000      192.13 Bohr**3.
 End of Minotr Frequency-dependent properties file   721 does not exist.
 End of Minotr Frequency-dependent properties file   722 does not exist.

 **********************************************************************

            Population analysis using the SCF density.

 **********************************************************************

 Orbital symmetries:
       Occupied  (A) (A) (A) (A) (A) (A) (A) (A) (A) (A) (A) (A)
                 (A) (A) (A) (A) (A) (A) (A) (A) (A) (A) (A) (A)
                 (A) (A) (A) (A) (A) (A) (A) (A) (A) (A) (A) (A)
                 (A) (A) (A) (A) (A) (A) (A) (A) (A) (A) (A) (A)
                 (A) (A) (A) (A) (A) (A) (A) (A) (A) (A) (A) (A)
                 (A) (A) (A) (A) (A) (A) (A) (A) (A) (A) (A) (A)
                 (A) (A) (A) (A) (A) (A) (A) (A) (A) (A) (A) (A)
                 (A) (A) (A) (A) (A) (A) (A)
       Virtual   (A) (A) (A) (A) (A) (A) (A) (A) (A) (A) (A) (A)
                 (A) (A) (A) (A) (A) (A) (A) (A) (A) (A) (A) (A)
                 (A) (A) (A) (A) (A) (A) (A) (A) (A) (A) (A) (A)
                 (A) (A) (A) (A) (A) (A) (A) (A) (A) (A) (A) (A)
                 (A) (A) (A) (A) (A) (A) (A) (A) (A) (A) (A) (A)
                 (A) (A) (A) (A) (A) (A) (A) (A) (A) (A) (A) (A)
                 (A) (A) (A) (A) (A) (A) (A) (A) (A) (A) (A) (A)
                 (A) (A) (A) (A) (A) (A) (A) (A) (A) (A) (A) (A)
                 (A) (A) (A) (A) (A) (A) (A) (A) (A) (A) (A) (A)
                 (A) (A) (A) (A) (A) (A) (A) (A) (A) (A) (A) (A)
                 (A) (A) (A) (A) (A) (A) (A) (A) (A) (A) (A) (A)
                 (A) (A) (A) (A) (A) (A) (A) (A) (A) (A) (A) (A)
                 (A) (A) (A) (A) (A) (A) (A) (A) (A) (A) (A) (A)
                 (A) (A) (A) (A) (A) (A) (A) (A) (A) (A) (A) (A)
                 (A) (A) (A) (A) (A) (A) (A) (A) (A) (A) (A) (A)
                 (A) (A) (A) (A) (A) (A) (A) (A) (A) (A) (A) (A)
                 (A) (A) (A) (A) (A) (A) (A) (A) (A) (A) (A) (A)
                 (A) (A) (A) (A) (A) (A) (A) (A) (A) (A) (A) (A)
                 (A) (A) (A) (A) (A) (A) (A) (A) (A) (A) (A) (A)
                 (A) (A) (A) (A) (A) (A) (A) (A) (A) (A) (A) (A)
                 (A) (A) (A) (A) (A) (A) (A) (A) (A) (A) (A) (A)
                 (A) (A) (A) (A) (A) (A) (A) (A) (A) (A) (A) (A)
                 (A) (A) (A) (A) (A) (A) (A) (A) (A) (A) (A) (A)
                 (A) (A) (A) (A) (A) (A) (A) (A) (A) (A) (A) (A)
                 (A) (A) (A) (A) (A) (A) (A) (A) (A) (A) (A) (A)
                 (A) (A) (A) (A) (A) (A) (A) (A) (A) (A) (A) (A)
                 (A) (A) (A) (A) (A) (A) (A) (A) (A) (A) (A) (A)
                 (A) (A) (A) (A) (A) (A) (A) (A) (A) (A) (A) (A)
                 (A) (A) (A) (A) (A) (A) (A) (A) (A) (A) (A) (A)
                 (A) (A) (A) (A) (A) (A) (A) (A) (A) (A) (A) (A)
                 (A) (A) (A) (A) (A) (A) (A) (A) (A) (A) (A) (A)
                 (A) (A) (A) (A) (A) (A) (A) (A) (A) (A) (A) (A)
                 (A) (A) (A) (A) (A) (A) (A) (A) (A) (A) (A) (A)
                 (A) (A) (A) (A) (A) (A) (A) (A) (A) (A) (A) (A)
                 (A) (A) (A) (A) (A) (A) (A) (A) (A) (A) (A) (A)
                 (A) (A) (A) (A) (A) (A) (A) (A) (A) (A) (A) (A)
                 (A) (A) (A) (A) (A) (A) (A) (A) (A) (A) (A) (A)
                 (A) (A) (A) (A) (A) (A) (A) (A) (A) (A) (A) (A)
                 (A) (A) (A) (A) (A) (A) (A) (A) (A) (A) (A) (A)
                 (A) (A) (A) (A) (A) (A) (A) (A) (A) (A) (A) (A)
                 (A) (A) (A) (A) (A) (A) (A) (A) (A) (A) (A) (A)
                 (A) (A) (A) (A) (A) (A) (A) (A) (A) (A) (A) (A)
                 (A) (A) (A) (A) (A) (A) (A) (A) (A) (A) (A) (A)
                 (A) (A) (A) (A) (A) (A) (A) (A) (A) (A) (A) (A)
                 (A) (A) (A) (A) (A) (A) (A) (A) (A) (A) (A) (A)
                 (A) (A) (A) (A) (A) (A) (A) (A) (A) (A) (A) (A)
                 (A) (A) (A) (A) (A) (A) (A) (A) (A) (A) (A) (A)
                 (A) (A) (A) (A) (A) (A) (A) (A) (A) (A) (A) (A)
                 (A) (A) (A) (A) (A) (A) (A) (A) (A) (A) (A) (A)
                 (A) (A) (A) (A) (A) (A)
 The electronic state is 1-A.
 Alpha  occ. eigenvalues --  -19.20093 -19.18626 -19.17706 -19.17580 -19.17193
 Alpha  occ. eigenvalues --  -19.16592 -19.16137 -19.15712 -19.15034 -19.14203
 Alpha  occ. eigenvalues --  -19.12703 -10.31181 -10.30020 -10.26608 -10.26065
 Alpha  occ. eigenvalues --  -10.24980 -10.24894 -10.24698 -10.24635 -10.23916
 Alpha  occ. eigenvalues --  -10.23726 -10.23700 -10.23670  -1.09812  -1.09272
 Alpha  occ. eigenvalues --   -1.06850  -1.04803  -1.03606  -1.03253  -1.02759
 Alpha  occ. eigenvalues --   -1.02350  -1.01832  -1.00537  -0.99623  -0.82255
 Alpha  occ. eigenvalues --   -0.79746  -0.79264  -0.77882  -0.72173  -0.70054
 Alpha  occ. eigenvalues --   -0.67133  -0.64715  -0.63268  -0.62138  -0.61430
 Alpha  occ. eigenvalues --   -0.59608  -0.56815  -0.56014  -0.55174  -0.54406
 Alpha  occ. eigenvalues --   -0.53615  -0.53370  -0.52924  -0.51712  -0.51063
 Alpha  occ. eigenvalues --   -0.50804  -0.49825  -0.49053  -0.48415  -0.46762
 Alpha  occ. eigenvalues --   -0.46608  -0.45125  -0.44340  -0.43619  -0.42901
 Alpha  occ. eigenvalues --   -0.42475  -0.41429  -0.40547  -0.40095  -0.39205
 Alpha  occ. eigenvalues --   -0.38396  -0.37813  -0.37522  -0.36157  -0.35841
 Alpha  occ. eigenvalues --   -0.35012  -0.34735  -0.34560  -0.34118  -0.33867
 Alpha  occ. eigenvalues --   -0.32946  -0.31618  -0.31020  -0.30166  -0.29268
 Alpha  occ. eigenvalues --   -0.28729  -0.28445  -0.27801  -0.26974  -0.26264
 Alpha  occ. eigenvalues --   -0.26048
 Alpha virt. eigenvalues --   -0.02580  -0.02361  -0.01603  -0.00033   0.00283
 Alpha virt. eigenvalues --    0.00788   0.01987   0.02292   0.03133   0.03479
 Alpha virt. eigenvalues --    0.03725   0.04150   0.04717   0.05298   0.05789
 Alpha virt. eigenvalues --    0.06016   0.06554   0.07435   0.07720   0.07999
 Alpha virt. eigenvalues --    0.08561   0.08847   0.09303   0.09425   0.09695
 Alpha virt. eigenvalues --    0.10400   0.10818   0.11381   0.11620   0.11748
 Alpha virt. eigenvalues --    0.12555   0.12901   0.13006   0.13467   0.13663
 Alpha virt. eigenvalues --    0.14204   0.14257   0.14583   0.14870   0.14975
 Alpha virt. eigenvalues --    0.15669   0.16462   0.16652   0.16704   0.17082
 Alpha virt. eigenvalues --    0.17356   0.17617   0.17830   0.18397   0.18638
 Alpha virt. eigenvalues --    0.18871   0.19090   0.19379   0.19698   0.20145
 Alpha virt. eigenvalues --    0.20645   0.20747   0.21383   0.21725   0.22069
 Alpha virt. eigenvalues --    0.22184   0.22282   0.22444   0.23360   0.23505
 Alpha virt. eigenvalues --    0.23728   0.23996   0.24252   0.24383   0.24702
 Alpha virt. eigenvalues --    0.25126   0.25354   0.25729   0.25815   0.26298
 Alpha virt. eigenvalues --    0.26351   0.26684   0.27054   0.27138   0.27513
 Alpha virt. eigenvalues --    0.27866   0.28020   0.28286   0.28465   0.28802
 Alpha virt. eigenvalues --    0.29046   0.29239   0.29950   0.30389   0.30946
 Alpha virt. eigenvalues --    0.31145   0.31396   0.31825   0.32026   0.32163
 Alpha virt. eigenvalues --    0.32668   0.32969   0.33295   0.33533   0.33813
 Alpha virt. eigenvalues --    0.34109   0.34593   0.34806   0.35409   0.35781
 Alpha virt. eigenvalues --    0.35852   0.36618   0.36819   0.37032   0.37707
 Alpha virt. eigenvalues --    0.37777   0.38134   0.38833   0.39450   0.39648
 Alpha virt. eigenvalues --    0.40077   0.40389   0.40930   0.41032   0.41690
 Alpha virt. eigenvalues --    0.41982   0.43095   0.43200   0.43768   0.44303
 Alpha virt. eigenvalues --    0.44780   0.45192   0.46021   0.46187   0.46673
 Alpha virt. eigenvalues --    0.47294   0.48570   0.48821   0.49444   0.50226
 Alpha virt. eigenvalues --    0.50492   0.51257   0.53584   0.57358   0.59410
 Alpha virt. eigenvalues --    0.59525   0.60669   0.61428   0.61734   0.62553
 Alpha virt. eigenvalues --    0.62982   0.64191   0.64632   0.66106   0.66989
 Alpha virt. eigenvalues --    0.67731   0.68302   0.69615   0.69981   0.70666
 Alpha virt. eigenvalues --    0.71120   0.72086   0.72458   0.73236   0.73820
 Alpha virt. eigenvalues --    0.75272   0.75419   0.75715   0.76045   0.77302
 Alpha virt. eigenvalues --    0.78189   0.79412   0.80139   0.80799   0.81814
 Alpha virt. eigenvalues --    0.82865   0.83318   0.83757   0.84577   0.85084
 Alpha virt. eigenvalues --    0.86028   0.86732   0.87705   0.88346   0.88983
 Alpha virt. eigenvalues --    0.89882   0.90400   0.90912   0.91737   0.92529
 Alpha virt. eigenvalues --    0.92792   0.93339   0.93535   0.93908   0.94380
 Alpha virt. eigenvalues --    0.94959   0.95118   0.95432   0.96320   0.96890
 Alpha virt. eigenvalues --    0.97456   0.97531   0.98055   0.98596   0.99492
 Alpha virt. eigenvalues --    0.99752   1.00256   1.00629   1.01298   1.03151
 Alpha virt. eigenvalues --    1.04062   1.04752   1.05025   1.05593   1.06100
 Alpha virt. eigenvalues --    1.06690   1.07172   1.07298   1.07833   1.08636
 Alpha virt. eigenvalues --    1.09569   1.10034   1.10567   1.11218   1.11770
 Alpha virt. eigenvalues --    1.11851   1.12828   1.14295   1.14489   1.15372
 Alpha virt. eigenvalues --    1.15458   1.16211   1.16439   1.16645   1.16975
 Alpha virt. eigenvalues --    1.17553   1.18364   1.18697   1.19917   1.20569
 Alpha virt. eigenvalues --    1.20790   1.21235   1.21851   1.22522   1.23139
 Alpha virt. eigenvalues --    1.23339   1.24206   1.24837   1.25437   1.26188
 Alpha virt. eigenvalues --    1.26562   1.26684   1.27306   1.27758   1.28560
 Alpha virt. eigenvalues --    1.29459   1.29905   1.30363   1.30882   1.31456
 Alpha virt. eigenvalues --    1.32531   1.33106   1.33591   1.33778   1.34714
 Alpha virt. eigenvalues --    1.35438   1.35710   1.36929   1.37132   1.37969
 Alpha virt. eigenvalues --    1.38374   1.38972   1.39706   1.40216   1.40308
 Alpha virt. eigenvalues --    1.41343   1.41908   1.43049   1.43595   1.44161
 Alpha virt. eigenvalues --    1.44770   1.45937   1.46515   1.46649   1.47861
 Alpha virt. eigenvalues --    1.48888   1.49518   1.50274   1.51158   1.52397
 Alpha virt. eigenvalues --    1.52882   1.54099   1.54747   1.55565   1.56722
 Alpha virt. eigenvalues --    1.57886   1.58499   1.59515   1.60102   1.60433
 Alpha virt. eigenvalues --    1.62009   1.63017   1.63741   1.64329   1.65350
 Alpha virt. eigenvalues --    1.66108   1.66250   1.67644   1.68451   1.69248
 Alpha virt. eigenvalues --    1.69889   1.71203   1.72836   1.73451   1.74403
 Alpha virt. eigenvalues --    1.75299   1.76254   1.76761   1.78067   1.78603
 Alpha virt. eigenvalues --    1.79826   1.80872   1.82442   1.83225   1.84082
 Alpha virt. eigenvalues --    1.84219   1.86741   1.87419   1.88526   1.89479
 Alpha virt. eigenvalues --    1.90205   1.91336   1.92120   1.93383   1.94547
 Alpha virt. eigenvalues --    1.95052   1.96150   1.97083   1.97712   1.99681
 Alpha virt. eigenvalues --    2.00007   2.01380   2.02248   2.04517   2.05218
 Alpha virt. eigenvalues --    2.06975   2.07522   2.08745   2.09459   2.10890
 Alpha virt. eigenvalues --    2.11832   2.12554   2.15843   2.16558   2.18835
 Alpha virt. eigenvalues --    2.20662   2.21845   2.22351   2.24469   2.26127
 Alpha virt. eigenvalues --    2.28220   2.28426   2.29146   2.30189   2.30722
 Alpha virt. eigenvalues --    2.33360   2.34371   2.36078   2.36510   2.36567
 Alpha virt. eigenvalues --    2.37941   2.39494   2.46926   2.47802   2.51107
 Alpha virt. eigenvalues --    2.53990   2.54564   2.56823   2.57890   2.60204
 Alpha virt. eigenvalues --    2.62092   2.62435   2.65950   2.66769   2.67755
 Alpha virt. eigenvalues --    2.68383   2.68781   2.69461   2.70485   2.72520
 Alpha virt. eigenvalues --    2.74481   2.76197   2.76975   2.78240   2.78755
 Alpha virt. eigenvalues --    2.79748   2.81029   2.81805   2.82874   2.83485
 Alpha virt. eigenvalues --    2.86293   2.89413   2.89861   2.91568   2.91972
 Alpha virt. eigenvalues --    2.92553   2.93842   2.95465   2.96140   2.96998
 Alpha virt. eigenvalues --    2.97570   2.98514   2.99614   3.00397   3.01630
 Alpha virt. eigenvalues --    3.02118   3.02667   3.03384   3.03925   3.04668
 Alpha virt. eigenvalues --    3.05585   3.06590   3.07928   3.08353   3.09321
 Alpha virt. eigenvalues --    3.10232   3.10540   3.11501   3.14187   3.15360
 Alpha virt. eigenvalues --    3.17079   3.17255   3.18500   3.21554   3.23623
 Alpha virt. eigenvalues --    3.25278   3.27126   3.34232   3.71754   3.82975
 Alpha virt. eigenvalues --    3.95348   4.02584   4.06541   4.08431   4.11589
 Alpha virt. eigenvalues --    4.13076   4.13408   4.13869   4.15407   4.17502
 Alpha virt. eigenvalues --    4.18132   4.19546   4.20780   4.20917   4.23274
 Alpha virt. eigenvalues --    4.23415   4.24367   4.24676   4.26795   4.27492
 Alpha virt. eigenvalues --    4.27640   4.28484   4.29568   4.30131   4.30510
 Alpha virt. eigenvalues --    4.31116   4.31602   4.32582   4.33219   4.33446
 Alpha virt. eigenvalues --    4.33812   4.33915   4.34794   4.35109   4.36046
 Alpha virt. eigenvalues --    4.36399   4.37419   4.37778   4.38428   4.39526
 Alpha virt. eigenvalues --    4.40717   4.40808   4.41743   4.42335   4.44206
 Alpha virt. eigenvalues --    4.45615   4.46185   4.46991   4.48935   4.51098
 Alpha virt. eigenvalues --    4.51834   4.51951   4.52405   4.54458   4.55619
 Alpha virt. eigenvalues --    4.56094   4.57113   4.58540   4.58892   4.59963
 Alpha virt. eigenvalues --    4.61933   4.62206   4.62769   4.63726   4.64658
 Alpha virt. eigenvalues --    4.64850   4.65199   4.65765   4.66571   4.67187
 Alpha virt. eigenvalues --    4.68260   4.69123   4.69767   4.70952   4.71412
 Alpha virt. eigenvalues --    4.72549   4.72885   4.74418   4.74862   4.75066
 Alpha virt. eigenvalues --    4.75460   4.76023   4.76154   4.76982   4.77266
 Alpha virt. eigenvalues --    4.78367   4.78658   4.78755   4.79924   4.80249
 Alpha virt. eigenvalues --    4.81477   4.83136   4.83465   4.85296   4.85891
 Alpha virt. eigenvalues --    4.87029   4.87954   4.89740   4.91155   4.91791
 Alpha virt. eigenvalues --    4.91964   4.93772   4.95291   4.95710   4.96589
 Alpha virt. eigenvalues --    4.99238   5.00113   5.01671   5.03030   5.04973
 Alpha virt. eigenvalues --    5.06065   5.06954   5.09496   5.12709   5.13852
 Alpha virt. eigenvalues --    5.20765   5.23904   5.24872   5.30680   5.42002
 Alpha virt. eigenvalues --    5.44083   5.79000   6.09731   6.22183   6.60362
 Alpha virt. eigenvalues --    6.73546   6.75456   6.78254   6.82029   6.84899
 Alpha virt. eigenvalues --    6.88939   6.90839   6.92781   7.01796   7.03651
 Alpha virt. eigenvalues --    7.07287  11.83863  11.99943  12.07277  12.13345
 Alpha virt. eigenvalues --   12.28295  12.34654  12.60455  12.75219  12.87421
 Alpha virt. eigenvalues --   12.97925  13.12595  13.17059  13.21563  13.30287
 Alpha virt. eigenvalues --   13.32757  13.34075  13.38013  13.44011  13.48385
 Alpha virt. eigenvalues --   13.51189  13.63933  13.66973  13.92894
          Condensed to atoms (all electrons):
              1          2          3          4          5          6
     1  O    8.191381   0.295909  -0.076408  -0.013492   0.017912   0.020934
     2  C    0.295909   6.644326  -0.003064   0.016127  -0.051583  -1.136047
     3  C   -0.076408  -0.003064   6.276317   0.139202   0.022551  -0.086292
     4  O   -0.013492   0.016127   0.139202   8.216411   0.229434  -0.038652
     5  H    0.017912  -0.051583   0.022551   0.229434   0.434569   0.000838
     6  C    0.020934  -1.136047  -0.086292  -0.038652   0.000838   8.278874
     7  O   -0.000186   0.005494  -0.075586   0.003317  -0.000064   0.282973
     8  H    0.000005  -0.003159   0.005890  -0.000117   0.000010   0.022077
     9  C   -0.001494  -0.224395  -0.287147   0.007190  -0.002769   0.344577
    10  O   -0.015831   0.028962   0.018090  -0.000116  -0.000023  -0.004736
    11  H    0.001990  -0.014336  -0.001530   0.000001   0.000000   0.000727
    12  C   -0.154080  -0.369213  -0.111240   0.020589   0.003722   0.056086
    13  O    0.000439  -0.072698  -0.081443  -0.001566  -0.000052   0.038913
    14  C    0.011321   0.464584   0.057444   0.000828   0.009821  -1.769967
    15  O   -0.000379   0.000274   0.019744   0.000483  -0.000031  -0.014362
    16  C    0.001160   0.107650  -0.077982  -0.006286   0.000936  -0.074276
    17  C    0.000120  -0.026681   0.023203   0.000233   0.000026   0.021395
    18  O    0.000020   0.005956  -0.002056  -0.000008   0.000000   0.006417
    19  H   -0.000020  -0.003631   0.003095   0.000001   0.000000   0.000391
    20  C    0.000043   0.005779  -0.009850  -0.000036   0.000000   0.034049
    21  O    0.000000  -0.000110   0.000048   0.000000   0.000000  -0.000205
    22  H    0.000000   0.000002   0.000000   0.000000   0.000000  -0.000025
    23  C    0.000059   0.021215  -0.045325   0.000041  -0.000023  -0.042794
    24  O    0.000002  -0.002334   0.014572  -0.000032  -0.000002  -0.028738
    25  H    0.000000   0.000208   0.000909   0.000004   0.000000  -0.000661
    26  C   -0.000112  -0.031156   0.015867   0.000144   0.000027  -0.000708
    27  O    0.000000  -0.000133   0.000489   0.000000   0.000000   0.002357
    28  C   -0.000003  -0.000036   0.001503   0.000011   0.000000  -0.012585
    29  O    0.000000   0.000007   0.000010   0.000000   0.000000  -0.000192
    30  H    0.000000   0.000000   0.000000   0.000000   0.000000   0.000002
    31  H    0.267498   0.024005  -0.025266   0.001582  -0.001821   0.003361
    32  H   -0.000312  -0.014133   0.005101   0.000003   0.000000  -0.000777
    33  H    0.002091   0.003441  -0.013874   0.000026   0.000000   0.012432
    34  H    0.006516   0.064265  -0.058983   0.000523   0.000004  -0.021760
    35  H   -0.016756   0.342502  -0.064665   0.001864  -0.000146  -0.008254
    36  H   -0.001981  -0.002599   0.314243  -0.032622  -0.001850  -0.208744
    37  H   -0.000202   0.014502  -0.115711   0.002571  -0.000162   0.370984
    38  H    0.000000  -0.000016   0.000283   0.000000   0.000000   0.002514
    39  H    0.000000   0.000242  -0.000729  -0.000001   0.000000  -0.008899
    40  H    0.000000  -0.000031   0.000485   0.000000   0.000000  -0.006799
    41  H   -0.000001  -0.001920   0.004819   0.000008   0.000000   0.009114
    42  H    0.000000   0.000576   0.000447   0.000000   0.000000   0.008628
    43  H    0.000000   0.000108   0.000000   0.000000   0.000000   0.000664
    44  H    0.000000   0.000002   0.000008   0.000000   0.000000  -0.000122
    45  H    0.000066  -0.008418  -0.046525  -0.000125   0.000004   0.026046
              7          8          9         10         11         12
     1  O   -0.000186   0.000005  -0.001494  -0.015831   0.001990  -0.154080
     2  C    0.005494  -0.003159  -0.224395   0.028962  -0.014336  -0.369213
     3  C   -0.075586   0.005890  -0.287147   0.018090  -0.001530  -0.111240
     4  O    0.003317  -0.000117   0.007190  -0.000116   0.000001   0.020589
     5  H   -0.000064   0.000010  -0.002769  -0.000023   0.000000   0.003722
     6  C    0.282973   0.022077   0.344577  -0.004736   0.000727   0.056086
     7  O    8.240717   0.256382  -0.000473  -0.000003   0.000000   0.008038
     8  H    0.256382   0.344097   0.000126   0.000000   0.000000  -0.001736
     9  C   -0.000473   0.000126   7.602385   0.081839   0.000518  -1.584073
    10  O   -0.000003   0.000000   0.081839   8.254260   0.227819   0.008668
    11  H    0.000000   0.000000   0.000518   0.227819   0.443750   0.020032
    12  C    0.008038  -0.001736  -1.584073   0.008668   0.020032   8.829207
    13  O    0.000838  -0.000815   0.006293  -0.002259  -0.000336   0.038187
    14  C   -0.082575  -0.056746  -0.620528   0.003929  -0.002807  -0.641446
    15  O    0.011453   0.006570  -0.017470   0.000029   0.000004   0.003526
    16  C    0.031233   0.024359  -0.134814  -0.000678  -0.000104  -0.051662
    17  C   -0.001044   0.003942  -0.005361   0.000121  -0.000055  -0.126543
    18  O   -0.000018  -0.000030  -0.001476  -0.000071  -0.000007  -0.010236
    19  H   -0.000044   0.000000   0.005802  -0.000006  -0.000001  -0.009332
    20  C    0.001948   0.000543  -0.000598   0.000040   0.000002  -0.009835
    21  O   -0.000001   0.000000   0.000186   0.000000   0.000000  -0.000092
    22  H    0.000000   0.000000  -0.000006   0.000000   0.000000   0.000016
    23  C    0.032366   0.006030  -0.001582  -0.000001   0.000000  -0.014817
    24  O   -0.048667  -0.017702  -0.000329   0.000000   0.000000  -0.000068
    25  H    0.002609  -0.004098  -0.000019   0.000000   0.000000  -0.000265
    26  C   -0.041496  -0.017109   0.008126  -0.000009  -0.000003   0.032701
    27  O   -0.000055  -0.000035   0.000018   0.000000   0.000000   0.000610
    28  C   -0.000494  -0.000049  -0.001291   0.000000   0.000000   0.003908
    29  O   -0.000003   0.000000  -0.000011   0.000000   0.000000   0.000052
    30  H    0.000000   0.000000   0.000000   0.000000   0.000000  -0.000001
    31  H   -0.000012   0.000000   0.009799  -0.000427  -0.000044  -0.016999
    32  H   -0.000011   0.000000   0.420688  -0.016949  -0.014921  -0.041885
    33  H    0.000007   0.000000   0.652932  -0.061135   0.001176  -0.295448
    34  H    0.000107   0.000001   0.052934   0.000434  -0.000265   0.083718
    35  H    0.000661   0.000001  -0.035095  -0.001688  -0.000011  -0.062547
    36  H    0.006430  -0.000127   0.011025  -0.000153   0.000000   0.056559
    37  H   -0.033057  -0.004824   0.012928   0.000013   0.000000   0.062519
    38  H   -0.000797   0.000406  -0.000003   0.000000   0.000000   0.000013
    39  H    0.002408  -0.000345   0.000005   0.000000   0.000000   0.000096
    40  H   -0.000073  -0.000006   0.000026   0.000000   0.000000   0.000423
    41  H   -0.001632  -0.000082  -0.000645   0.000000   0.000000  -0.000841
    42  H   -0.000011  -0.000001  -0.000377   0.000000   0.000000  -0.001741
    43  H    0.000002   0.000000  -0.000116   0.000000   0.000000   0.000208
    44  H    0.000000   0.000000  -0.000002   0.000000   0.000000   0.000042
    45  H    0.000645  -0.000053   0.014644   0.000036   0.000000   0.059484
             13         14         15         16         17         18
     1  O    0.000439   0.011321  -0.000379   0.001160   0.000120   0.000020
     2  C   -0.072698   0.464584   0.000274   0.107650  -0.026681   0.005956
     3  C   -0.081443   0.057444   0.019744  -0.077982   0.023203  -0.002056
     4  O   -0.001566   0.000828   0.000483  -0.006286   0.000233  -0.000008
     5  H   -0.000052   0.009821  -0.000031   0.000936   0.000026   0.000000
     6  C    0.038913  -1.769967  -0.014362  -0.074276   0.021395   0.006417
     7  O    0.000838  -0.082575   0.011453   0.031233  -0.001044  -0.000018
     8  H   -0.000815  -0.056746   0.006570   0.024359   0.003942  -0.000030
     9  C    0.006293  -0.620528  -0.017470  -0.134814  -0.005361  -0.001476
    10  O   -0.002259   0.003929   0.000029  -0.000678   0.000121  -0.000071
    11  H   -0.000336  -0.002807   0.000004  -0.000104  -0.000055  -0.000007
    12  C    0.038187  -0.641446   0.003526  -0.051662  -0.126543  -0.010236
    13  O    8.231182   0.172728  -0.047053   0.040364  -0.010592  -0.027262
    14  C    0.172728   8.900967   0.219261  -0.802158   0.043369  -0.015089
    15  O   -0.047053   0.219261   8.045275   0.143986  -0.012729  -0.003099
    16  C    0.040364  -0.802158   0.143986  11.430135  -2.442350  -0.066562
    17  C   -0.010592   0.043369  -0.012729  -2.442350   8.060250   0.230524
    18  O   -0.027262  -0.015089  -0.003099  -0.066562   0.230524   8.194947
    19  H    0.013287   0.013723   0.014899  -0.086203   0.051196   0.238087
    20  C   -0.017976  -0.211318   0.011521  -1.111576   0.236933  -0.011337
    21  O   -0.000036   0.005771  -0.000072   0.090977   0.000189   0.000192
    22  H    0.000004  -0.000881  -0.000023  -0.009018  -0.031706   0.000216
    23  C    0.001395  -0.087900  -0.001913   0.526270  -0.340519   0.013690
    24  O    0.000310   0.086451  -0.041305  -0.001969   0.002316   0.000019
    25  H   -0.000003  -0.011257   0.003073  -0.013779  -0.000880  -0.000001
    26  C   -0.018726  -0.460143  -0.053326  -2.774260   0.573369   0.010410
    27  O    0.000520   0.018387   0.001198   0.155094  -0.096184  -0.001737
    28  C    0.003918   0.018415   0.000140   0.816886  -0.374520  -0.010736
    29  O    0.000024   0.000831  -0.000011  -0.015166  -0.022976   0.000073
    30  H    0.000000  -0.000011   0.000002  -0.004927   0.012520  -0.000022
    31  H   -0.000555  -0.002617  -0.000005   0.000123  -0.000051   0.000000
    32  H   -0.001173  -0.007167  -0.000319   0.002588  -0.001109  -0.000044
    33  H   -0.002726   0.003286  -0.000642  -0.005461   0.003482  -0.000218
    34  H   -0.026327   0.144039  -0.003320  -0.003726   0.008110  -0.000423
    35  H    0.005042   0.094654  -0.000156  -0.005951   0.002221   0.000015
    36  H    0.003721   0.083329   0.000765  -0.009014   0.001659   0.000034
    37  H    0.008898  -0.032896  -0.012049  -0.027132   0.000880   0.000125
    38  H    0.000048   0.007210   0.000345   0.035202   0.005720   0.000018
    39  H    0.000049   0.001943   0.003435   0.053393  -0.011423   0.000066
    40  H   -0.000131   0.028675  -0.001246  -0.032649  -0.065609   0.000346
    41  H   -0.002362  -0.070975  -0.035110   0.106928   0.053532  -0.001444
    42  H   -0.000283  -0.021235  -0.005549  -0.136942   0.377804  -0.028669
    43  H    0.000074  -0.010531  -0.000131   0.094300  -0.169807   0.008218
    44  H    0.000018   0.000779   0.000218   0.052038  -0.010412   0.000275
    45  H   -0.024235   0.268720  -0.049199  -0.020563   0.012789  -0.001340
             19         20         21         22         23         24
     1  O   -0.000020   0.000043   0.000000   0.000000   0.000059   0.000002
     2  C   -0.003631   0.005779  -0.000110   0.000002   0.021215  -0.002334
     3  C    0.003095  -0.009850   0.000048   0.000000  -0.045325   0.014572
     4  O    0.000001  -0.000036   0.000000   0.000000   0.000041  -0.000032
     5  H    0.000000   0.000000   0.000000   0.000000  -0.000023  -0.000002
     6  C    0.000391   0.034049  -0.000205  -0.000025  -0.042794  -0.028738
     7  O   -0.000044   0.001948  -0.000001   0.000000   0.032366  -0.048667
     8  H    0.000000   0.000543   0.000000   0.000000   0.006030  -0.017702
     9  C    0.005802  -0.000598   0.000186  -0.000006  -0.001582  -0.000329
    10  O   -0.000006   0.000040   0.000000   0.000000  -0.000001   0.000000
    11  H   -0.000001   0.000002   0.000000   0.000000   0.000000   0.000000
    12  C   -0.009332  -0.009835  -0.000092   0.000016  -0.014817  -0.000068
    13  O    0.013287  -0.017976  -0.000036   0.000004   0.001395   0.000310
    14  C    0.013723  -0.211318   0.005771  -0.000881  -0.087900   0.086451
    15  O    0.014899   0.011521  -0.000072  -0.000023  -0.001913  -0.041305
    16  C   -0.086203  -1.111576   0.090977  -0.009018   0.526270  -0.001969
    17  C    0.051196   0.236933   0.000189  -0.031706  -0.340519   0.002316
    18  O    0.238087  -0.011337   0.000192   0.000216   0.013690   0.000019
    19  H    0.393627   0.016157  -0.000032   0.000018  -0.004227   0.000021
    20  C    0.016157   6.852098  -0.048153   0.034847   0.081593  -0.006009
    21  O   -0.000032  -0.048153   8.269983   0.215639  -0.000601  -0.000004
    22  H    0.000018   0.034847   0.215639   0.453197   0.000327   0.000000
    23  C   -0.004227   0.081593  -0.000601   0.000327   6.486233  -0.091656
    24  O    0.000021  -0.006009  -0.000004   0.000000  -0.091656   8.406492
    25  H    0.000000   0.001006   0.000000   0.000000  -0.000751   0.248002
    26  C   -0.002544   0.535575  -0.046156   0.006647  -1.071488   0.138854
    27  O    0.000004  -0.168442   0.005957  -0.000740  -0.052639   0.001510
    28  C    0.002948  -0.555250   0.066855   0.002114  -0.125468   0.003577
    29  O   -0.000014   0.011599  -0.004374   0.008661   0.001920  -0.000010
    30  H    0.000000  -0.026709  -0.001272  -0.001243  -0.000578  -0.000001
    31  H    0.000000   0.000001   0.000000   0.000000   0.000002   0.000000
    32  H    0.000419  -0.000889   0.000000   0.000000  -0.000020   0.000000
    33  H    0.000070   0.000212   0.000000   0.000000  -0.000018   0.000000
    34  H    0.000081   0.000335  -0.000001   0.000000   0.000133  -0.000002
    35  H   -0.000001  -0.000003   0.000000   0.000000   0.000034   0.000017
    36  H   -0.000001  -0.000020   0.000000   0.000000   0.000090   0.000080
    37  H   -0.000014   0.000592   0.000000   0.000000   0.004722   0.001926
    38  H    0.000000  -0.003352  -0.000007   0.000000   0.406841  -0.026752
    39  H    0.000000   0.001668   0.000001   0.000000   0.599962  -0.069359
    40  H    0.000026  -0.007796  -0.000136   0.000008   0.069552  -0.000594
    41  H    0.000372   0.060286  -0.000479   0.000006  -0.030801   0.000699
    42  H   -0.006213  -0.034005  -0.001846  -0.000211   0.011885  -0.000043
    43  H   -0.000149   0.298018  -0.016100  -0.004288   0.006541   0.000008
    44  H    0.000002  -0.130591   0.002263  -0.000666  -0.004378   0.000019
    45  H    0.000238   0.012259   0.000003   0.000000   0.002658   0.000405
             25         26         27         28         29         30
     1  O    0.000000  -0.000112   0.000000  -0.000003   0.000000   0.000000
     2  C    0.000208  -0.031156  -0.000133  -0.000036   0.000007   0.000000
     3  C    0.000909   0.015867   0.000489   0.001503   0.000010   0.000000
     4  O    0.000004   0.000144   0.000000   0.000011   0.000000   0.000000
     5  H    0.000000   0.000027   0.000000   0.000000   0.000000   0.000000
     6  C   -0.000661  -0.000708   0.002357  -0.012585  -0.000192   0.000002
     7  O    0.002609  -0.041496  -0.000055  -0.000494  -0.000003   0.000000
     8  H   -0.004098  -0.017109  -0.000035  -0.000049   0.000000   0.000000
     9  C   -0.000019   0.008126   0.000018  -0.001291  -0.000011   0.000000
    10  O    0.000000  -0.000009   0.000000   0.000000   0.000000   0.000000
    11  H    0.000000  -0.000003   0.000000   0.000000   0.000000   0.000000
    12  C   -0.000265   0.032701   0.000610   0.003908   0.000052  -0.000001
    13  O   -0.000003  -0.018726   0.000520   0.003918   0.000024   0.000000
    14  C   -0.011257  -0.460143   0.018387   0.018415   0.000831  -0.000011
    15  O    0.003073  -0.053326   0.001198   0.000140  -0.000011   0.000002
    16  C   -0.013779  -2.774260   0.155094   0.816886  -0.015166  -0.004927
    17  C   -0.000880   0.573369  -0.096184  -0.374520  -0.022976   0.012520
    18  O   -0.000001   0.010410  -0.001737  -0.010736   0.000073  -0.000022
    19  H    0.000000  -0.002544   0.000004   0.002948  -0.000014   0.000000
    20  C    0.001006   0.535575  -0.168442  -0.555250   0.011599  -0.026709
    21  O    0.000000  -0.046156   0.005957   0.066855  -0.004374  -0.001272
    22  H    0.000000   0.006647  -0.000740   0.002114   0.008661  -0.001243
    23  C   -0.000751  -1.071488  -0.052639  -0.125468   0.001920  -0.000578
    24  O    0.248002   0.138854   0.001510   0.003577  -0.000010  -0.000001
    25  H    0.401957   0.017914  -0.000414  -0.001199  -0.000001   0.000000
    26  C    0.017914   9.791198   0.039660  -0.796386  -0.003760  -0.001186
    27  O   -0.000414   0.039660   8.182378   0.267358  -0.054746   0.003212
    28  C   -0.001199  -0.796386   0.267358   5.840746   0.242522   0.011221
    29  O   -0.000001  -0.003760  -0.054746   0.242522   8.113212   0.260652
    30  H    0.000000  -0.001186   0.003212   0.011221   0.260652   0.425970
    31  H    0.000000   0.000001   0.000000   0.000000   0.000000   0.000000
    32  H    0.000000   0.000302   0.000000   0.000038   0.000000   0.000000
    33  H    0.000000  -0.000104   0.000000  -0.000007   0.000000   0.000000
    34  H    0.000000  -0.000533   0.000000  -0.000026   0.000000   0.000000
    35  H    0.000000  -0.000638   0.000000   0.000001   0.000000   0.000000
    36  H    0.000000  -0.000751   0.000000   0.000006   0.000000   0.000000
    37  H   -0.000001  -0.009023  -0.000002  -0.000057   0.000000   0.000000
    38  H   -0.011795  -0.102616   0.002880   0.005242  -0.000055   0.000000
    39  H   -0.000962  -0.278405   0.002106   0.003946  -0.000112   0.000000
    40  H   -0.000186   0.247378  -0.032210   0.047510  -0.001073   0.000015
    41  H   -0.000010   0.159627   0.002188  -0.002227  -0.000545   0.000002
    42  H    0.000000   0.089257   0.000471  -0.023459   0.000738   0.000008
    43  H    0.000000   0.007852   0.003480   0.046360  -0.000375   0.000012
    44  H    0.000000  -0.020066  -0.031095   0.447968  -0.024033  -0.008205
    45  H    0.000016   0.019918   0.000212  -0.001873  -0.000004   0.000000
             31         32         33         34         35         36
     1  O    0.267498  -0.000312   0.002091   0.006516  -0.016756  -0.001981
     2  C    0.024005  -0.014133   0.003441   0.064265   0.342502  -0.002599
     3  C   -0.025266   0.005101  -0.013874  -0.058983  -0.064665   0.314243
     4  O    0.001582   0.000003   0.000026   0.000523   0.001864  -0.032622
     5  H   -0.001821   0.000000   0.000000   0.000004  -0.000146  -0.001850
     6  C    0.003361  -0.000777   0.012432  -0.021760  -0.008254  -0.208744
     7  O   -0.000012  -0.000011   0.000007   0.000107   0.000661   0.006430
     8  H    0.000000   0.000000   0.000000   0.000001   0.000001  -0.000127
     9  C    0.009799   0.420688   0.652932   0.052934  -0.035095   0.011025
    10  O   -0.000427  -0.016949  -0.061135   0.000434  -0.001688  -0.000153
    11  H   -0.000044  -0.014921   0.001176  -0.000265  -0.000011   0.000000
    12  C   -0.016999  -0.041885  -0.295448   0.083718  -0.062547   0.056559
    13  O   -0.000555  -0.001173  -0.002726  -0.026327   0.005042   0.003721
    14  C   -0.002617  -0.007167   0.003286   0.144039   0.094654   0.083329
    15  O   -0.000005  -0.000319  -0.000642  -0.003320  -0.000156   0.000765
    16  C    0.000123   0.002588  -0.005461  -0.003726  -0.005951  -0.009014
    17  C   -0.000051  -0.001109   0.003482   0.008110   0.002221   0.001659
    18  O    0.000000  -0.000044  -0.000218  -0.000423   0.000015   0.000034
    19  H    0.000000   0.000419   0.000070   0.000081  -0.000001  -0.000001
    20  C    0.000001  -0.000889   0.000212   0.000335  -0.000003  -0.000020
    21  O    0.000000   0.000000   0.000000  -0.000001   0.000000   0.000000
    22  H    0.000000   0.000000   0.000000   0.000000   0.000000   0.000000
    23  C    0.000002  -0.000020  -0.000018   0.000133   0.000034   0.000090
    24  O    0.000000   0.000000   0.000000  -0.000002   0.000017   0.000080
    25  H    0.000000   0.000000   0.000000   0.000000   0.000000   0.000000
    26  C    0.000001   0.000302  -0.000104  -0.000533  -0.000638  -0.000751
    27  O    0.000000   0.000000   0.000000   0.000000   0.000000   0.000000
    28  C    0.000000   0.000038  -0.000007  -0.000026   0.000001   0.000006
    29  O    0.000000   0.000000   0.000000   0.000000   0.000000   0.000000
    30  H    0.000000   0.000000   0.000000   0.000000   0.000000   0.000000
    31  H    0.413370   0.000023  -0.000204  -0.000234  -0.014439  -0.000121
    32  H    0.000023   0.575230  -0.046191  -0.005645   0.000026   0.000005
    33  H   -0.000204  -0.046191   0.597485   0.006897   0.003510  -0.000003
    34  H   -0.000234  -0.005645   0.006897   0.634953   0.006898   0.002860
    35  H   -0.014439   0.000026   0.003510   0.006898   0.631427   0.007492
    36  H   -0.000121   0.000005  -0.000003   0.002860   0.007492   0.648784
    37  H    0.000014   0.000001  -0.000016  -0.000059   0.002580   0.007607
    38  H    0.000000   0.000000   0.000000   0.000000   0.000000   0.000000
    39  H    0.000000   0.000000   0.000000   0.000000   0.000000   0.000000
    40  H    0.000000   0.000000   0.000000   0.000000   0.000000   0.000000
    41  H    0.000000  -0.000001   0.000000  -0.000009   0.000000  -0.000003
    42  H    0.000000   0.000001   0.000000   0.000000   0.000000   0.000000
    43  H    0.000000   0.000000   0.000000   0.000000   0.000000   0.000000
    44  H    0.000000   0.000000   0.000000   0.000000   0.000000   0.000000
    45  H    0.000001  -0.000018  -0.000008   0.002405  -0.000030   0.001856
             37         38         39         40         41         42
     1  O   -0.000202   0.000000   0.000000   0.000000  -0.000001   0.000000
     2  C    0.014502  -0.000016   0.000242  -0.000031  -0.001920   0.000576
     3  C   -0.115711   0.000283  -0.000729   0.000485   0.004819   0.000447
     4  O    0.002571   0.000000  -0.000001   0.000000   0.000008   0.000000
     5  H   -0.000162   0.000000   0.000000   0.000000   0.000000   0.000000
     6  C    0.370984   0.002514  -0.008899  -0.006799   0.009114   0.008628
     7  O   -0.033057  -0.000797   0.002408  -0.000073  -0.001632  -0.000011
     8  H   -0.004824   0.000406  -0.000345  -0.000006  -0.000082  -0.000001
     9  C    0.012928  -0.000003   0.000005   0.000026  -0.000645  -0.000377
    10  O    0.000013   0.000000   0.000000   0.000000   0.000000   0.000000
    11  H    0.000000   0.000000   0.000000   0.000000   0.000000   0.000000
    12  C    0.062519   0.000013   0.000096   0.000423  -0.000841  -0.001741
    13  O    0.008898   0.000048   0.000049  -0.000131  -0.002362  -0.000283
    14  C   -0.032896   0.007210   0.001943   0.028675  -0.070975  -0.021235
    15  O   -0.012049   0.000345   0.003435  -0.001246  -0.035110  -0.005549
    16  C   -0.027132   0.035202   0.053393  -0.032649   0.106928  -0.136942
    17  C    0.000880   0.005720  -0.011423  -0.065609   0.053532   0.377804
    18  O    0.000125   0.000018   0.000066   0.000346  -0.001444  -0.028669
    19  H   -0.000014   0.000000   0.000000   0.000026   0.000372  -0.006213
    20  C    0.000592  -0.003352   0.001668  -0.007796   0.060286  -0.034005
    21  O    0.000000  -0.000007   0.000001  -0.000136  -0.000479  -0.001846
    22  H    0.000000   0.000000   0.000000   0.000008   0.000006  -0.000211
    23  C    0.004722   0.406841   0.599962   0.069552  -0.030801   0.011885
    24  O    0.001926  -0.026752  -0.069359  -0.000594   0.000699  -0.000043
    25  H   -0.000001  -0.011795  -0.000962  -0.000186  -0.000010   0.000000
    26  C   -0.009023  -0.102616  -0.278405   0.247378   0.159627   0.089257
    27  O   -0.000002   0.002880   0.002106  -0.032210   0.002188   0.000471
    28  C   -0.000057   0.005242   0.003946   0.047510  -0.002227  -0.023459
    29  O    0.000000  -0.000055  -0.000112  -0.001073  -0.000545   0.000738
    30  H    0.000000   0.000000   0.000000   0.000015   0.000002   0.000008
    31  H    0.000014   0.000000   0.000000   0.000000   0.000000   0.000000
    32  H    0.000001   0.000000   0.000000   0.000000  -0.000001   0.000001
    33  H   -0.000016   0.000000   0.000000   0.000000   0.000000   0.000000
    34  H   -0.000059   0.000000   0.000000   0.000000  -0.000009   0.000000
    35  H    0.002580   0.000000   0.000000   0.000000   0.000000   0.000000
    36  H    0.007607   0.000000   0.000000   0.000000  -0.000003   0.000000
    37  H    0.610767   0.000001  -0.000007  -0.000002  -0.000001  -0.000005
    38  H    0.000001   0.581118  -0.040808  -0.004617   0.000084   0.000004
    39  H   -0.000007  -0.040808   0.572191   0.006487   0.002647  -0.000011
    40  H   -0.000002  -0.004617   0.006487   0.620129   0.006152   0.003190
    41  H   -0.000001   0.000084   0.002647   0.006152   0.622666   0.007028
    42  H   -0.000005   0.000004  -0.000011   0.003190   0.007028   0.640788
    43  H    0.000000   0.000000  -0.000012  -0.000078   0.001020   0.006320
    44  H    0.000000  -0.000023  -0.000003   0.003102  -0.000045   0.002132
    45  H    0.005208   0.000001  -0.000001  -0.000010   0.008070  -0.000018
             43         44         45
     1  O    0.000000   0.000000   0.000066
     2  C    0.000108   0.000002  -0.008418
     3  C    0.000000   0.000008  -0.046525
     4  O    0.000000   0.000000  -0.000125
     5  H    0.000000   0.000000   0.000004
     6  C    0.000664  -0.000122   0.026046
     7  O    0.000002   0.000000   0.000645
     8  H    0.000000   0.000000  -0.000053
     9  C   -0.000116  -0.000002   0.014644
    10  O    0.000000   0.000000   0.000036
    11  H    0.000000   0.000000   0.000000
    12  C    0.000208   0.000042   0.059484
    13  O    0.000074   0.000018  -0.024235
    14  C   -0.010531   0.000779   0.268720
    15  O   -0.000131   0.000218  -0.049199
    16  C    0.094300   0.052038  -0.020563
    17  C   -0.169807  -0.010412   0.012789
    18  O    0.008218   0.000275  -0.001340
    19  H   -0.000149   0.000002   0.000238
    20  C    0.298018  -0.130591   0.012259
    21  O   -0.016100   0.002263   0.000003
    22  H   -0.004288  -0.000666   0.000000
    23  C    0.006541  -0.004378   0.002658
    24  O    0.000008   0.000019   0.000405
[...]
 2213,0.00000376,0.00003164,0.00011036,-0.00004152,0.00029289,-0.000206
 68,0.00015076,-0.00048954,-0.00025303,0.00202345,-0.00034500,0.0002381
 4,-0.01771485,0.00233126,-0.00120284,-0.34324865,-0.01904739,-0.026348
 79,-0.00048592,-0.00908248,-0.00910963,0.00061548,-0.00093129,0.000350
 65,-0.01770956,-0.00049648,0.00163215,0.00218699,0.00108019,-0.0014562
 6,0.00045894,0.00019231,-0.00020182,0.00076834,0.00025994,0.00012379,0
 .00001769,-0.00004706,0.00010931,-0.00000616,0.00001392,-0.00000593,-0
 .00054055,-0.00164789,-0.00087073,0.00017918,0.00079338,0.00053947,-0.
 00131419,-0.00109649,-0.00088402,0.00068305,0.00007714,0.00014351,-0.0
 0003626,0.00005202,0.00015962,-0.00000781,-0.00000568,0.00000942,0.000
 01511,0.00005327,-0.00000205,0.00001003,0.00000137,-0.00000869,0.00000
 985,-0.00000907,0.00000820,0.00000853,0.00000137,-0.00000865,0.0000116
 3,0.00000095,0.00000282,0.00000448,0.00002446,-0.00004180,-0.00000268,
 0.00014216,-0.00001632,0.00014779,-0.00042031,0.00007096,0.00112487,0.
 00062665,0.00067087,0.00024825,0.00218785,-0.00065136,0.37147981,-0.00
 000147,0.00002907,-0.00006008,-0.00002013,-0.00003711,0.00003852,0.000
 01931,0.00000454,-0.00000855,-0.00000637,0.00004079,-0.00002819,0.0000
 0435,-0.00000951,0.00000364,-0.00014646,-0.00010948,-0.00012802,-0.000
 04946,0.00008013,0.00011312,0.00002491,0.00000642,-0.00008325,-0.00003
 307,-0.00003964,0.00013705,0.00000977,-0.00003083,-0.00010300,-0.00001
 461,0.00001956,0.00002416,0.00003147,0.00005756,0.00009745,-0.00008550
 ,0.00050234,-0.00016612,0.00044343,-0.00000367,-0.00016129,-0.00141785
 ,0.00167575,-0.00193038,0.03380919,-0.00521002,0.00491233,-0.01799937,
 -0.03651737,0.00298392,-0.03193685,-0.01908648,-0.02098070,-0.00029122
 ,0.00002937,0.00145638,-0.00979347,0.00016193,0.00110100,-0.00051938,0
 .00025953,-0.00020240,0.00009016,-0.00000968,-0.00025368,0.00026929,0.
 00005285,0.00011440,-0.00006350,-0.00000293,0.00008459,0.00000332,0.00
 001834,-0.00000745,0.00227873,0.00165557,0.00113326,-0.00043286,-0.000
 27381,-0.00029662,0.00047104,0.00020796,-0.00041749,0.00014124,-0.0001
 0446,0.00009378,0.00000721,0.00006141,0.00004992,-0.00000577,-0.000003
 88,0.00000896,0.00000536,0.00007044,0.00000509,0.00001317,0.00001284,-
 0.00001937,0.00000301,-0.00002251,0.00000313,0.00000139,0.00000227,-0.
 00000366,-0.00000283,-0.00000020,-0.00000204,-0.00001846,-0.00002162,0
 .00003355,-0.00011675,-0.00000099,-0.00000854,-0.00028179,-0.00003954,
 -0.00007897,-0.00043869,-0.00075012,-0.00020865,0.00152016,-0.00506206
 ,0.00225830,0.02514693,0.06231127,0.00000681,0.00001898,-0.00002784,-0
 .00002567,-0.00002042,0.00001848,-0.00000368,-0.00005062,0.00001369,0.
 00000860,0.00002943,0.00000149,-0.00000196,-0.00000969,0.00000593,0.00
 002695,0.00002983,0.00009482,0.00003970,0.00004794,-0.00001174,-0.0000
 4503,-0.00001365,-0.00001335,-0.00004901,-0.00004939,0.00009827,0.0000
 2401,-0.00000448,-0.00006110,-0.00001372,0.00001049,0.00001975,-0.0000
 1070,0.00003433,0.00006861,0.00010825,0.00029044,-0.00023332,-0.000337
 58,-0.00051243,-0.00039592,0.00031894,-0.00119014,0.00181604,-0.016485
 67,0.00359207,-0.00044793,-0.02679297,0.00414315,-0.04383300,-0.026294
 69,-0.02035295,-0.01314508,-0.00166225,-0.00066218,0.00085235,0.035264
 91,0.00483457,-0.00203154,-0.00043618,-0.00149983,0.00194155,-0.000008
 74,-0.00036855,0.00038811,0.00016370,0.00007850,-0.00003687,0.00000804
 ,-0.00002370,0.00001734,0.00000250,-0.00000756,-0.00000130,0.00070076,
 -0.00144030,0.00006728,-0.00034472,-0.00038542,-0.00025680,0.00137865,
 0.00046930,0.00086830,-0.00042662,-0.00002055,0.00007136,-0.00006635,-
 0.00007971,-0.00003078,-0.00000561,-0.00000430,0.00000327,0.00000241,0
 .00005327,0.00000325,0.00002418,0.00000754,-0.00002427,0.00001794,-0.0
 0001024,0.00001450,0.00000988,0.00000206,-0.00001050,0.00000875,0.0000
 0101,0.00000386,0.00001819,0.00002914,-0.00002925,0.00006333,0.0000631
 1,-0.00000021,0.00008985,-0.00013492,0.00000202,0.00040638,-0.00010018
 ,0.00044294,-0.00083985,0.00238958,-0.00053266,0.03396556,0.00903267,0
 .06004346,0.00000351,-0.00000314,-0.00001000,-0.00000169,0.00000176,0.
 00000780,-0.00000857,-0.00001326,0.00000971,0.00000746,0.00000555,-0.0
 0000720,-0.00000289,-0.00000088,0.00000226,0.00001366,0.00001070,0.000
 02762,0.00001502,-0.00000432,-0.00001930,-0.00000549,0.00000084,0.0000
 1598,-0.00001254,0.00000241,0.00000619,0.00001410,-0.00000411,-0.00000
 450,-0.00000861,0.00000135,0.00000212,-0.00001660,0.00000292,0.0000139
 2,0.00002578,-0.00001206,-0.00003175,-0.00010623,-0.00005016,0.0000318
 0,0.00031095,-0.00010852,0.00010084,-0.00048582,0.00062461,0.00006772,
 -0.00974691,-0.00432938,-0.00006803,0.00118737,0.00063307,-0.00009796,
 0.00017493,0.00005871,-0.00009104,-0.34216481,-0.07675589,-0.00111358,
 -0.01698661,0.00897112,-0.00516837,-0.00017416,0.00021079,0.00039803,0
 .00001069,-0.00004817,0.00001669,0.00003133,0.00003413,-0.00003330,-0.
 00000760,-0.00000864,-0.00000383,0.00005695,0.00004803,0.00003846,0.00
 159162,-0.00065072,0.00037418,-0.00626559,0.00007905,0.00157160,0.0013
 4544,0.00042790,0.00050736,0.00024891,0.00031538,0.00028407,-0.0000024
 5,0.00000112,0.00000172,-0.00000775,0.00000309,-0.00000059,0.00000835,
 0.00000199,-0.00000600,0.00000903,-0.00000323,0.00000402,0.00000412,0.
 00000113,-0.00000318,0.00000543,0.00000072,0.00000068,0.00000615,0.000
 00607,-0.00000684,-0.00000155,-0.00000161,0.00000810,0.00002038,-0.000
 02423,0.00000943,0.00008545,0.00013814,-0.00003132,0.00040904,-0.00048
 943,0.00030837,0.00016977,-0.00045188,0.00124473,0.36993798,0.00000201
 ,-0.00000240,0.00001719,0.00000372,0.00000239,-0.00001019,-0.00000875,
 0.00000264,-0.00000763,0.00000374,-0.00000893,0.00001114,-0.00000146,0
 .00000216,-0.00000169,0.00000747,0.00001441,0.00000498,0.00001722,-0.0
 0001057,0.00000499,-0.00001526,-0.00000096,-0.00001671,0.00000319,0.00
 000035,-0.00001999,-0.00000091,0.00000969,0.00001976,0.00000361,-0.000
 00372,-0.00000492,-0.00001093,-0.00000938,-0.00002323,0.00002750,-0.00
 002909,0.00004482,-0.00006886,0.00002908,-0.00003199,0.00024528,0.0000
 0226,0.00007132,-0.00068094,0.00050697,-0.00060419,-0.00964044,-0.0007
 9604,-0.00084500,0.00102534,0.00081000,0.00044115,-0.00002869,-0.00007
 352,-0.00015049,-0.07747814,-0.05967850,-0.00227412,0.03736850,-0.0035
 0742,0.00472159,0.00043943,0.00114708,-0.00073294,-0.00003441,0.000047
 63,-0.00006644,0.00002438,-0.00001506,0.00000507,-0.00000459,0.0000066
 0,0.00000018,-0.00016521,-0.00007340,0.00005382,0.00115329,0.00137674,
 0.00016076,-0.02507032,-0.00493698,0.00022134,0.00124601,0.00141933,0.
 00196056,0.00011819,0.00018943,0.00036910,0.00000135,0.00000029,-0.000
 00283,-0.00000007,-0.00000789,0.00000033,-0.00000018,-0.00000248,0.000
 00183,0.00000336,0.00000329,0.00000311,0.00000097,-0.00000042,-0.00000
 029,0.00000150,0.00000038,0.00000089,0.00000358,0.00000253,-0.00000519
 ,0.00000584,-0.00002225,0.00000789,0.00003160,-0.00004109,0.00002074,0
 .00019028,0.00008347,-0.00001032,0.00021578,-0.00020316,0.00010061,-0.
 00024503,-0.00015370,0.00204582,0.07150334,0.06673317,-0.00000199,-0.0
 0001066,-0.00000982,-0.00000278,0.00000968,0.00000478,0.00001609,0.000
 02786,0.00001142,-0.00000462,-0.00000572,-0.00002023,0.00000111,0.0000
 0462,-0.00000184,-0.00003242,-0.00004208,-0.00004802,-0.00001397,0.000
 00547,-0.00000589,0.00000823,-0.00001293,0.00000521,0.00000757,0.00002
 145,-0.00001888,-0.00001116,-0.00001297,0.00000587,0.00000685,-0.00000
 078,-0.00000767,0.00003176,0.00000574,0.00001805,0.00000456,-0.0001320
 4,-0.00000220,0.00013820,0.00025000,0.00017132,-0.00066105,0.00003265,
 -0.00060065,0.00095962,-0.00154126,0.00127268,0.03179067,0.00901940,0.
 00043581,-0.00224950,-0.00041104,0.00271604,-0.00025342,0.00026276,0.0
 0033026,0.00197214,-0.00234131,-0.04488161,-0.01185128,0.00418003,0.00
 104926,-0.00101084,-0.00038007,0.00020654,0.00004464,0.00001867,0.0000
 9492,-0.00000744,-0.00000456,0.00000710,-0.00000600,-0.00000139,0.0000
 0433,0.00041948,0.00027392,-0.00047531,0.00122499,0.00061881,0.0001968
 9,-0.02314489,-0.00779510,-0.00172499,0.00015313,0.00131905,0.00223353
 ,-0.00006178,0.00017415,0.00037143,-0.00000003,0.00000288,-0.00000018,
 0.00000174,-0.00001034,0.00000225,-0.00000566,-0.00000151,0.00000511,-
 0.00001281,0.00000357,-0.00001056,-0.00000349,-0.00000172,0.00000395,-
 0.00000524,-0.00000012,-0.00000200,-0.00000423,-0.00000839,0.00001039,
 -0.00000970,0.00004629,-0.00000064,-0.00000684,0.00002023,-0.00000802,
 -0.00011000,-0.00001038,-0.00011644,-0.00053201,0.00042948,-0.00013749
 ,0.00223091,0.00149969,-0.00530539,0.00170979,-0.00293818,0.04671233,0
 .00000262,-0.00000793,-0.00001517,-0.00000585,0.00000793,0.00000925,-0
 .00000080,-0.00000337,0.00001392,0.00000605,0.00000288,-0.00001669,-0.
 00000254,0.00000085,0.00000196,-0.00001863,0.00001353,0.00000790,0.000
 00637,-0.00002102,-0.00005226,0.00001472,0.00000881,0.00005889,-0.0000
 0965,0.00001138,-0.00000150,0.00000630,-0.00000991,-0.00000301,-0.0000
 0333,0.00000126,-0.00000077,0.00000203,-0.00000003,0.00001573,0.000017
 54,-0.00005963,-0.00004753,0.00002503,0.00005115,0.00009419,0.00003702
 ,-0.00008305,-0.00026718,0.00011149,0.00041975,0.00008501,-0.00053155,
 -0.00033397,0.00020125,0.00035631,0.00011885,0.00012844,-0.00004973,-0
 .00000461,-0.00009871,-0.00612947,0.00233608,-0.00103560,0.00254013,0.
 00064729,0.00174190,-0.00047286,-0.00052458,0.00001967,0.00049488,-0.0
 0023037,-0.00005621,-0.00001536,0.00016380,-0.00010029,-0.00000966,-0.
 00001431,-0.00002700,0.00033913,-0.00039545,0.00084444,-0.00749394,0.0
 0784703,-0.00608619,-0.34339830,-0.03524057,-0.06774931,-0.01442427,-0
 .00321775,0.00388891,0.00035371,0.00027402,0.00037769,-0.00000265,0.00
 000176,0.00000195,-0.00000334,-0.00000147,0.00000011,0.00000463,0.0000
 0028,-0.00000215,0.00000203,-0.00000074,-0.00000110,0.00000311,-0.0000
 0006,-0.00000168,0.00000271,0.00000052,0.00000006,0.00000413,-0.000001
 17,0.00000011,-0.00001581,-0.00000611,0.00001735,0.00002231,-0.0001514
 5,0.00010650,0.00047634,0.00057516,-0.00122812,0.00002257,-0.00009224,
 0.00022054,0.00065603,0.00011720,-0.00025805,0.00028644,-0.00021060,-0
 .00067977,0.36679072,0.00000041,0.00001242,0.00001122,0.00000179,-0.00
 001338,-0.00000566,-0.00000508,0.00000072,-0.00001212,-0.00000149,0.00
 000393,0.00001328,0.00000050,-0.00000198,-0.00000128,0.00001317,-0.000
 03395,-0.00001530,0.00000532,0.00004602,0.00008035,-0.00003351,-0.0000
 2067,-0.00010796,0.00000006,-0.00001720,0.00001357,0.00000376,0.000010
 26,-0.00000464,-0.00000390,0.00000021,0.00000432,-0.00000967,0.0000083
 2,-0.00000277,-0.00001081,0.00012566,0.00003934,-0.00008338,-0.0000676
 8,-0.00013565,-0.00002377,0.00032057,0.00032179,-0.00022113,-0.0006146
 1,0.00020946,-0.00120340,-0.00046074,0.00132131,0.00056453,0.00013062,
 -0.00048447,0.00009993,-0.00015650,-0.00000068,-0.02212076,-0.00119374
 ,-0.00608646,0.00004234,0.00289827,0.00056142,-0.00058378,-0.00056993,
 0.00013249,0.00000926,0.00012640,-0.00000253,-0.00010205,-0.00016435,0
 .00013961,-0.00000271,0.00003794,0.00001583,0.00402166,0.00238158,-0.0
 0394221,0.03183727,-0.00738951,0.01529427,-0.03573900,-0.04659639,-0.0
 0917528,-0.00304660,0.00327373,0.00075626,-0.00020004,0.00030368,-0.00
 037374,0.00000077,-0.00000231,-0.00000111,0.00000206,0.00000829,-0.000
 00073,0.00000058,0.00000132,-0.00000056,0.00000356,-0.00000223,0.00000
 329,-0.00000002,0.00000079,-0.00000044,0.00000111,-0.00000034,0.000001
 10,-0.00000152,0.00000346,-0.00000315,0.00002426,-0.00001560,-0.000005
 39,-0.00014974,0.00011196,-0.00006576,-0.00147924,0.00026794,-0.000112
 83,-0.00008466,-0.00015772,-0.00002495,0.00056999,0.00025937,-0.000278
 80,-0.00011286,-0.00281269,-0.00257104,0.02801343,0.04996169,0.0000000
 5,-0.00000597,-0.00003165,-0.00000697,0.00000597,0.00002016,0.00000393
 ,-0.00000380,0.00002352,0.00000231,0.00001161,-0.00002858,-0.00000071,
 -0.00000079,0.00000310,-0.00001515,-0.00001505,-0.00000537,0.00000013,
 0.00000397,-0.00004042,0.00001059,-0.00000264,0.00004625,-0.00000801,0
 .00001576,0.00001372,0.00000106,-0.00001985,-0.00001915,-0.00000147,0.
 00000440,0.00000218,0.00001377,0.00001130,0.00004076,0.00000504,-0.000
 04779,-0.00008614,0.00006832,0.00005348,0.00013326,0.00007111,-0.00000
 215,-0.00038165,0.00005978,-0.00020966,-0.00010187,-0.00164533,0.00020
 116,0.00132538,0.00058439,-0.00002270,-0.00010791,0.00003559,-0.000025
 19,-0.00000930,-0.02141157,-0.00204822,-0.00125367,0.00164231,0.001928
 23,0.00142682,0.00014306,-0.00036060,0.00006932,0.00018088,0.00000921,
 -0.00001774,0.00003854,0.00012649,-0.00010681,-0.00000371,-0.00001885,
 -0.00001213,-0.00273412,-0.00088683,0.00321428,-0.01360101,0.00748593,
 -0.00510081,-0.07227969,-0.01135341,-0.06430318,0.03575631,0.00315076,
 -0.00449737,0.00132254,0.00022048,0.00371014,-0.00000317,0.00000133,0.
 00000454,-0.00000086,0.00000385,-0.00000056,0.00000239,-0.00000033,-0.
 00000191,-0.00000102,-0.00000152,-0.00000265,0.00000192,-0.00000012,-0
 .00000201,0.00000134,0.00000012,-0.00000077,0.00000146,0.00000070,-0.0
 0000129,-0.00000046,-0.00001076,-0.00000118,0.00011199,-0.00012145,0.0
 0004522,0.00102985,-0.00003093,-0.00001461,0.00018254,0.00006041,0.000
 08399,0.00063067,-0.00002900,-0.00042552,-0.00008721,-0.00256547,-0.00
 243756,0.06989404,0.00449448,0.06882389,0.00007104,-0.00008395,0.00023
 559,0.00006862,0.00037098,-0.00006488,-0.00044559,-0.00042033,0.000112
 36,0.00022080,0.00011313,-0.00003788,-0.00003729,-0.00000590,0.0000497
 8,-0.00398838,0.00153660,0.00179478,0.00180363,-0.00029909,-0.00136899
 ,-0.00030664,-0.00021078,-0.00001711,0.00036318,-0.00016137,0.00013382
 ,-0.00000547,0.00017894,0.00007824,-0.00001174,-0.00000945,0.00002453,
 -0.00010842,-0.00021527,-0.00028407,-0.00538160,0.00816158,0.00525362,
 -0.32892175,-0.03109508,0.08299498,-0.02232157,-0.00281112,-0.00481970
 ,-0.00072401,-0.00072937,0.00531796,0.00043185,0.00034357,-0.00025987,
 0.00039357,-0.00020367,-0.00018968,-0.00029330,-0.00020244,0.00036841,
 -0.00004904,0.00012234,-0.00000540,0.00003453,-0.00001482,-0.00002129,
 -0.00001545,0.00000894,-0.00000838,-0.00034502,0.00005104,0.00009772,0
 .00014844,-0.00003902,0.00003803,-0.00000028,-0.00005080,-0.00003328,0
 .00075172,0.00003035,-0.00012909,0.00003411,-0.00011976,-0.00028046,-0
 .00000830,-0.00000058,-0.00001458,0.00000557,0.00000305,-0.00000997,0.
 00000026,0.00000288,-0.00000223,0.00000320,-0.00000538,-0.00001270,-0.
 00000849,-0.00000923,-0.00000369,0.00004093,-0.00014728,-0.00008433,0.
 00018216,0.00051791,0.00103355,0.00003734,-0.00007325,-0.00016361,0.00
 044497,0.00005078,0.00035160,0.00031887,0.00012182,0.00042744,0.000075
 29,0.00000682,0.00000276,0.00012911,-0.00004228,-0.00003997,0.00012925
 ,0.00017764,0.00034248,0.00232037,0.00011864,-0.00096684,0.00014300,-0
 .00028289,0.00020604,0.00002597,0.00001830,-0.00003858,0.00000342,0.00
 000336,0.00000455,0.35479114,-0.00006332,0.00038424,-0.00036506,-0.000
 24883,-0.00076304,-0.00020820,-0.00117462,-0.00065890,-0.00136468,0.00
 042381,0.00008535,0.00065096,0.00014093,-0.00016337,0.00008987,-0.0230
 0321,-0.00027875,0.00868837,0.00112856,0.00346892,-0.00125668,-0.00036
 983,-0.00019171,-0.00005769,-0.00002144,0.00016212,-0.00014976,-0.0001
 3386,-0.00030975,-0.00012754,-0.00000191,0.00002503,-0.00004576,0.0035
 8647,0.00195789,0.00407648,0.03331534,-0.01050231,-0.01715636,-0.03349
 691,-0.04584002,0.01145421,-0.00429029,0.00304063,-0.00004286,0.000184
 74,-0.00003425,0.00110481,0.00023329,-0.00006564,-0.00000183,-0.000304
 51,0.00009438,0.00016222,0.00009887,0.00006648,-0.00067106,0.00003496,
 0.00001975,0.00008267,-0.00003205,0.00004720,-0.00006118,0.00000010,0.
 00000399,-0.00000056,-0.00017121,0.00001096,-0.00002404,0.00007753,-0.
 00001243,0.00002894,-0.00002723,-0.00002246,-0.00001573,-0.00006095,0.
 00011234,0.00002097,0.00000677,-0.00003090,-0.00010077,-0.00000183,-0.
 00000940,0.00007430,0.00001517,-0.00000123,-0.00004383,-0.00000013,0.0
 0000168,0.00000785,-0.00001255,0.00000603,0.00001480,0.00002150,-0.000
 00290,0.00002279,-0.00020315,0.00010487,0.00002056,-0.00138340,0.00019
 946,-0.00003409,-0.00003767,-0.00013633,0.00003124,0.00051728,0.000187
 41,0.00032384,-0.00039806,-0.00308823,0.00282840,0.00004838,-0.0000185
 0,0.00000708,0.00004931,-0.00003814,-0.00007779,0.00000928,-0.00002546
 ,0.00001839,0.00025706,0.00047197,0.00011635,0.00000718,-0.00002968,0.
 00001678,-0.00001141,-0.00000023,0.00000718,-0.00000260,-0.00000361,-0
 .00000658,0.02529444,0.05177651,-0.00007443,-0.00003954,-0.00034607,-0
 .00006384,0.00017319,-0.00006601,0.00131855,-0.00021773,0.00155088,-0.
 00056940,0.00008794,-0.00022214,-0.00004404,-0.00000905,-0.00001616,0.
 02264406,0.00200568,-0.00223016,-0.00227887,-0.00122293,0.00159198,-0.
 00006803,0.00013748,-0.00015660,-0.00012840,-0.00003238,-0.00001607,-0
 .00007689,-0.00017459,-0.00009405,0.00001136,0.00001470,-0.00001578,0.
 00230630,0.00099271,0.00298727,0.01337884,-0.00750784,-0.00408424,0.09
 271453,0.01378326,-0.07167073,-0.03058768,-0.00164285,-0.00728732,-0.0
 0763947,-0.00155617,0.00283245,-0.00004860,0.00002549,-0.00050365,0.00
 007152,0.00016229,0.00030532,-0.00012936,-0.00008265,-0.00038754,0.000
 00519,0.00005922,0.00007351,0.00000345,0.00005775,-0.00004263,-0.00000
 368,0.00000314,-0.00000534,-0.00008252,0.00015762,0.00009388,0.0000627
 6,-0.00014125,0.00011504,0.00002339,-0.00003200,-0.00004163,-0.0001707
 9,0.00001740,-0.00011952,0.00012779,0.00007037,-0.00023322,0.00002041,
 -0.00009871,0.00008808,0.00002095,0.00001984,-0.00005701,0.00000023,0.
 00000281,0.00000791,-0.00002645,-0.00000104,0.00002178,0.00000670,-0.0
 0000007,-0.00000418,-0.00015670,0.00011423,0.00000592,-0.00099602,0.00
 001896,-0.00013795,-0.00019020,-0.00002812,0.00009834,-0.00069163,-0.0
 0007684,-0.00042629,0.00032343,0.00283058,-0.00259272,0.00001703,-0.00
 001594,0.00000694,0.00001205,-0.00006637,-0.00002578,0.00017686,0.0000
 2494,-0.00000480,0.00049966,0.00020602,-0.00129924,0.00027434,-0.00000
 747,-0.00000232,0.00002082,0.00002284,-0.00005409,-0.00000152,0.000002
 10,0.00000529,-0.09001169,-0.00803702,0.08235867\\0.01240744,-0.017308
 88,-0.00495495,-0.02149800,0.00806306,0.00552305,0.02856379,-0.0143812
 2,0.00482926,-0.00879768,0.02880858,0.02235573,-0.00287202,-0.01726086
 ,-0.02165454,-0.00114318,-0.01662023,-0.00785633,0.00353831,0.01208036
 ,0.00436029,0.00251233,0.00932849,0.01786269,-0.01393157,0.01316968,-0
 .00488807,0.01032832,0.01519347,-0.00443116,0.00129711,-0.03315151,0.0
 0835448,0.01605090,-0.01204623,0.00974764,0.00285582,0.01658843,0.0149
 6514,-0.05293172,0.01721147,0.00138606,0.02450926,-0.01899971,-0.00786
 989,-0.00378844,0.02204287,0.00255588,-0.00825309,0.01948919,0.0058307
 5,-0.00376402,-0.02386108,0.01497284,0.01689077,0.01242965,-0.01727267
 ,-0.03843499,0.01621878,-0.01349881,0.00423932,0.01967256,-0.02422002,
 0.00189372,-0.00959110,0.03129244,0.02666330,-0.02118247,-0.02903251,-
 0.01350884,-0.01695870,-0.00599010,-0.00724249,0.03151097,-0.00012299,
 -0.01867462,0.02270731,0.03009760,0.00250561,-0.04525022,0.00127312,0.
 06473667,-0.01738220,0.01623349,-0.01896283,0.00875838,0.01187933,-0.0
 0200798,-0.00302550,-0.00343687,-0.00081512,0.00192411,-0.00073910,0.0
 0319215,0.00531258,-0.01844339,-0.02206300,-0.00210306,-0.00208149,0.0
 2285578,0.00152093,0.00009274,-0.02218962,-0.00029963,-0.00089844,0.02
 590836,0.00210905,-0.00084726,-0.02124927,0.00047802,-0.00114252,-0.00
 119514,-0.01088756,-0.01626265,0.02117054,0.00026914,-0.00023448,-0.02
 196829,-0.00028206,-0.00209522,0.01895614,-0.00289717,0.00064651,-0.02
 328399,-0.00331287,-0.00484512,0.01731967,0.00124853,-0.00267166,-0.01
 638473,-0.00148629,-0.00407274,0.01656530,0.00215294,-0.00469604\\\@


 SCIENCE AT ITS BEST PROVIDES US WITH BETTER QUESTIONS, 
 NOT ABSOLUTE ANSWERS

                                    -- NORMAN COUSINS, 1976
 Job cpu time:  1 days  8 hours 15 minutes 11.5 seconds.
 File lengths (MBytes):  RWF=   1769 Int=      0 D2E=      0 Chk=     28 Scr=      1
 Normal termination of Gaussian 09 at Mon Mar 21 23:20:55 2016.
Gaussian '09 finished on node021 at Mon Mar 21 23:20:55 EDT 2016.
