Gaussian '09 started on node007 at Thu Mar 24 13:24:19 EDT 2016.
 Entering Gaussian System, Link 0=/usr/local/gaussian/g09/g09
 Initial command:
 /usr/local/gaussian/g09/l1.exe /home/srmcgrat/thesis/gaussian/cellobiose/350K/7524ps/1/2dp/gaussian10513/Gau-10549.inp -scrdir=/home/srmcgrat/thesis/gaussian/cellobiose/350K/7524ps/1/2dp/gaussian10513/
 Entering Link 1 = /usr/local/gaussian/g09/l1.exe PID=     10551.
  
 Copyright (c) 1988,1990,1992,1993,1995,1998,2003,2009,2010,
            Gaussian, Inc.  All Rights Reserved.
  
 This is part of the Gaussian(R) 09 program.  It is based on
 the Gaussian(R) 03 system (copyright 2003, Gaussian, Inc.),
 the Gaussian(R) 98 system (copyright 1998, Gaussian, Inc.),
 the Gaussian(R) 94 system (copyright 1995, Gaussian, Inc.),
 the Gaussian 92(TM) system (copyright 1992, Gaussian, Inc.),
 the Gaussian 90(TM) system (copyright 1990, Gaussian, Inc.),
 the Gaussian 88(TM) system (copyright 1988, Gaussian, Inc.),
 the Gaussian 86(TM) system (copyright 1986, Carnegie Mellon
 University), and the Gaussian 82(TM) system (copyright 1983,
 Carnegie Mellon University). Gaussian is a federally registered
 trademark of Gaussian, Inc.
  
 This software contains proprietary and confidential information,
 including trade secrets, belonging to Gaussian, Inc.
  
 This software is provided under written license and may be
 used, copied, transmitted, or stored only in accord with that
 written license.
  
 The following legend is applicable only to US Government
 contracts under FAR:
  
                    RESTRICTED RIGHTS LEGEND
  
 Use, reproduction and disclosure by the US Government is
 subject to restrictions as set forth in subparagraphs (a)
 and (c) of the Commercial Computer Software - Restricted
 Rights clause in FAR 52.227-19.
  
 Gaussian, Inc.
 340 Quinnipiac St., Bldg. 40, Wallingford CT 06492
  
  
 ---------------------------------------------------------------
 Warning -- This program may not be used in any manner that
 competes with the business of Gaussian, Inc. or will provide
 assistance to any competitor of Gaussian, Inc.  The licensee
 of this program is prohibited from giving any competitor of
 Gaussian, Inc. access to this program.  By using this program,
 the user acknowledges that Gaussian, Inc. is engaged in the
 business of creating and licensing software in the field of
 computational chemistry and represents and warrants to the
 licensee that it is not a competitor of Gaussian, Inc. and that
 it will not use this program in any manner prohibited above.
 ---------------------------------------------------------------
  

 Cite this work as:
 Gaussian 09, Revision B.01,
 M. J. Frisch, G. W. Trucks, H. B. Schlegel, G. E. Scuseria, 
 M. A. Robb, J. R. Cheeseman, G. Scalmani, V. Barone, B. Mennucci, 
 G. A. Petersson, H. Nakatsuji, M. Caricato, X. Li, H. P. Hratchian, 
 A. F. Izmaylov, J. Bloino, G. Zheng, J. L. Sonnenberg, M. Hada, 
 M. Ehara, K. Toyota, R. Fukuda, J. Hasegawa, M. Ishida, T. Nakajima, 
 Y. Honda, O. Kitao, H. Nakai, T. Vreven, J. A. Montgomery, Jr., 
 J. E. Peralta, F. Ogliaro, M. Bearpark, J. J. Heyd, E. Brothers, 
 K. N. Kudin, V. N. Staroverov, T. Keith, R. Kobayashi, J. Normand, 
 K. Raghavachari, A. Rendell, J. C. Burant, S. S. Iyengar, J. Tomasi, 
 M. Cossi, N. Rega, J. M. Millam, M. Klene, J. E. Knox, J. B. Cross, 
 V. Bakken, C. Adamo, J. Jaramillo, R. Gomperts, R. E. Stratmann, 
 O. Yazyev, A. J. Austin, R. Cammi, C. Pomelli, J. W. Ochterski, 
 R. L. Martin, K. Morokuma, V. G. Zakrzewski, G. A. Voth, 
 P. Salvador, J. J. Dannenberg, S. Dapprich, A. D. Daniels, 
 O. Farkas, J. B. Foresman, J. V. Ortiz, J. Cioslowski, 
 and D. J. Fox, Gaussian, Inc., Wallingford CT, 2010.
 
 ******************************************
 Gaussian 09:  EM64L-G09RevB.01 12-Aug-2010
                24-Mar-2016 
 ******************************************
 -------------------------------------------------
 # freq=raman b3lyp/6-31+g(2d,p) geom=connectivity
 -------------------------------------------------
 1/10=4,30=1,38=1,57=2/1,3;
 2/12=2,17=6,18=5,40=1/2;
 3/5=1,6=6,7=112,11=2,16=1,25=1,30=1,71=2,74=-5/1,2,3;
 4//1;
 5/5=2,38=5,98=1/2;
 8/6=4,10=90,11=11/1;
 10/13=10,15=4/2;
 11/6=3,8=1,9=11,15=111,16=1/1,2,10;
 10/6=1/2;
 6/7=2,8=2,9=2,10=2,18=1,28=1/1;
 7/8=1,10=1,25=1/1,2,3,16;
 1/10=4,30=1/3;
 99//99;
 -----------------
 350 7524/7524.com
 -----------------
 Symbolic Z-matrix:
 Charge =  0 Multiplicity = 1
 O                     7.777     7.588     12.311 
 C                     8.449     7.85      13.551 
 C                     7.871     9.206     13.922 
 O                     8.513     10.159    13.063 
 H                     8.319     9.936     12.107 
 C                     8.186     9.577     15.362 
 O                     7.664     10.74     16.023 
 H                     8.154     10.793    16.892 
 C                     8.807     5.559     14.331 
 O                     8.508     4.701     13.22 
 H                     8.858     3.81      13.509 
 C                     8.1       6.865     14.655 
 O                     8.481     7.297     15.969 
 C                     7.831     8.508     16.382 
 O                     8.712     8.817     17.472 
 C                     8.167     8.431     18.742 
 C                     8.591     7.097     19.334 
 O                     8.514     6.029     18.378 
 H                     8.923     6.156     17.474 
 C                     7.867     6.767     20.629 
 O                     8.459     5.554     21.118 
 H                     8.06      5.407     22.023 
 C                     7.886     10.816    19.597 
 O                     8.502     11.63     18.589 
 H                     8.309     12.607    18.684 
 C                     8.445     9.427     19.856 
 O                     7.784     9.102     21.088 
 C                     8.209     7.848     21.641 
 O                     7.44      7.666     22.839 
 H                     8.03273   7.55258   23.58559 
 H                     7.93032   11.35742   20.51885 
 H                     6.85498   10.70368   19.33377 
 H                     9.49996   9.49168   20.02269 
 H                     7.10504   8.39035   18.61753 
 H                     9.62566   7.1978    19.58742 
 H                     6.81113   6.66914   20.48595 
 H                     9.25744   7.85827   21.85447 
 H                     8.42674   7.4419    11.61956 
 H                     8.7098    4.94959   15.20511 
 H                     9.84477   5.80335   14.24032 
 H                     7.04346   6.69626   14.6427 
 H                     9.5077    7.91188   13.40877 
 H                     6.81345   9.21507   13.75948 
 H                     9.25052   9.67936   15.39702 
 H                     6.79594   8.42006   16.63853 
 

 GradGradGradGradGradGradGradGradGradGradGradGradGradGradGradGradGradGrad
 Berny optimization.
 Initialization pass.
 Trust Radius=3.00D-01 FncErr=1.00D-07 GrdErr=1.00D-07
 Number of steps in this run=      2 maximum allowed number of steps=      2.
 GradGradGradGradGradGradGradGradGradGradGradGradGradGradGradGradGradGrad

                          Input orientation:                          
 ---------------------------------------------------------------------
 Center     Atomic      Atomic             Coordinates (Angstroms)
 Number     Number       Type             X           Y           Z
 ---------------------------------------------------------------------
      1          8           0        7.777000    7.588000   12.311000
      2          6           0        8.449000    7.850000   13.551000
      3          6           0        7.871000    9.206000   13.922000
      4          8           0        8.513000   10.159000   13.063000
      5          1           0        8.319000    9.936000   12.107000
      6          6           0        8.186000    9.577000   15.362000
      7          8           0        7.664000   10.740000   16.023000
      8          1           0        8.154000   10.793000   16.892000
      9          6           0        8.807000    5.559000   14.331000
     10          8           0        8.508000    4.701000   13.220000
     11          1           0        8.858000    3.810000   13.509000
     12          6           0        8.100000    6.865000   14.655000
     13          8           0        8.481000    7.297000   15.969000
     14          6           0        7.831000    8.508000   16.382000
     15          8           0        8.712000    8.817000   17.472000
     16          6           0        8.167000    8.431000   18.742000
     17          6           0        8.591000    7.097000   19.334000
     18          8           0        8.514000    6.029000   18.378000
     19          1           0        8.923000    6.156000   17.474000
     20          6           0        7.867000    6.767000   20.629000
     21          8           0        8.459000    5.554000   21.118000
     22          1           0        8.060000    5.407000   22.023000
     23          6           0        7.886000   10.816000   19.597000
     24          8           0        8.502000   11.630000   18.589000
     25          1           0        8.309000   12.607000   18.684000
     26          6           0        8.445000    9.427000   19.856000
     27          8           0        7.784000    9.102000   21.088000
     28          6           0        8.209000    7.848000   21.641000
     29          8           0        7.440000    7.666000   22.839000
     30          1           0        8.032733    7.552577   23.585595
     31          1           0        7.930319   11.357418   20.518847
     32          1           0        6.854983   10.703677   19.333775
     33          1           0        9.499956    9.491678   20.022687
     34          1           0        7.105042    8.390355   18.617530
     35          1           0        9.625659    7.197799   19.587419
     36          1           0        6.811130    6.669137   20.485954
     37          1           0        9.257439    7.858268   21.854470
     38          1           0        8.426739    7.441904   11.619555
     39          1           0        8.709805    4.949587   15.205110
     40          1           0        9.844772    5.803350   14.240319
     41          1           0        7.043461    6.696258   14.642700
     42          1           0        9.507698    7.911883   13.408774
     43          1           0        6.813453    9.215066   13.759480
     44          1           0        9.250516    9.679365   15.397019
     45          1           0        6.795936    8.420060   16.638534
 ---------------------------------------------------------------------
                    Distance matrix (angstroms):
                    1          2          3          4          5
     1  O    0.000000
     2  C    1.434513   0.000000
     3  C    2.285187   1.520020   0.000000
     4  O    2.777992   2.360873   1.434662   0.000000
     5  H    2.418364   2.540361   2.006945   1.000650   0.000000
     6  C    3.664970   2.516231   1.520022   2.393962   3.277437
     7  O    4.871018   3.883183   2.609637   3.133682   4.050987
     8  H    5.603545   4.462124   3.379284   3.897702   4.863939
     9  C    3.042719   2.446476   3.787346   4.780613   4.933807
    10  O    3.113745   3.166898   4.603651   5.460260   5.355345
    11  H    4.108169   4.060868   5.501050   6.373989   6.307456
    12  C    2.474145   1.520145   2.463739   3.681775   3.996412
    13  O    3.736477   2.480636   2.864715   4.078836   4.680343
    14  C    4.174010   2.971439   2.557421   3.769176   4.533536
    15  O    5.387076   4.047036   3.668937   4.613008   5.494528
    16  C    6.497731   5.231020   4.890873   5.946153   6.805245
    17  C    7.087045   5.833546   5.852865   6.979066   7.769391
    18  O    6.307308   5.159476   5.510237   6.730983   7.391083
    19  H    5.479097   4.299330   4.798532   5.970681   6.592261
    20  C    8.358903   7.183989   7.136707   8.316690   9.103370
    21  O    9.064520   7.907667   8.091061   9.278576  10.020960
    22  H    9.957901   8.825778   8.949543  10.152257  10.904402
    23  C    7.969797   6.757828   5.898979   6.596812   7.553939
    24  O    7.501778   6.298623   5.296681   5.718447   6.702197
    25  H    8.129484   6.999738   5.868159   6.134326   7.098681
    26  C    7.794560   6.499228   5.965792   6.832664   7.766721
    27  O    8.906625   7.669165   7.167283   8.127073   9.035493
    28  C    9.343614   8.093559   7.844831   8.889051   9.760584
    29  O   10.533681   9.344457   9.059263  10.145765  11.004607
    30  H   11.277550  10.047628   9.805357  10.851225  11.726926
    31  H    9.033315   7.818050   6.939057   7.573994   8.539946
    32  H    7.738018   6.642654   5.706368   6.509095   7.413430
    33  H    8.127895   6.758872   6.320878   7.060924   8.015621
    34  H    6.392779   5.269529   4.827005   5.996937   6.800714
    35  H    7.517717   6.184516   6.261683   7.250846   8.072284
    36  H    8.282939   7.222924   7.116494   8.377096   9.118823
    37  H    9.661396   8.342737   8.164722   9.117977  10.010535
    38  H    0.960000   1.974213   2.953325   3.077918   2.543565
    39  H    4.025819   3.349104   4.524049   5.636076   5.883479
    40  H    3.344088   2.571403   3.946534   4.704400   4.894673
    41  H    2.601943   2.120960   2.739167   4.079899   4.307285
    42  H    2.074928   1.070000   2.148702   2.481637   2.684152
    43  H    2.381987   2.140533   1.070000   2.065080   2.348853
    44  H    4.008562   2.719704   2.074324   2.494319   3.428967
    45  H    4.514683   3.548303   3.025396   4.330897   5.015237
                    6          7          8          9         10
     6  C    0.000000
     7  O    1.435958   0.000000
     8  H    1.954630   0.999035   0.000000
     9  C    4.194392   5.568849   5.863436   0.000000
    10  O    5.335468   6.711085   7.121893   1.435230   0.000000
    11  H    6.094545   7.467980   7.791187   1.933206   0.999951
    12  C    2.803960   4.132450   4.520649   1.520020   2.628419
    13  O    2.377788   3.539019   3.630547   2.410387   3.781130
    14  C    1.519601   2.266847   2.363399   3.722335   4.994980
    15  O    2.303557   2.625992   2.133621   4.526530   5.921366
    16  C    3.569044   3.602423   3.000285   5.302349   6.672456
    17  C    4.700129   5.009341   4.451376   5.238522   6.567245
    18  O    4.668206   5.334983   5.003348   4.084723   5.326217
    19  H    4.087414   4.970265   4.736228   3.201299   4.515060
    20  C    5.978223   6.086146   5.500565   6.481332   7.718324
    21  O    7.027844   7.313388   6.737894   6.795918   7.944080
    22  H    7.859624   8.037270   7.439422   7.729682   8.842621
    23  C    4.422708   3.581695   2.718341   7.497669   8.856988
    24  O    3.837733   2.842305   1.923924   7.421633   8.765685
    25  H    4.497968   3.314006   2.554581   8.298850   9.612478
    26  C    4.503956   4.126235   3.276573   6.754117   8.147119
    27  O    5.759714   5.324629   4.539030   7.697820   9.044247
    28  C    6.512742   6.342130   5.588296   7.683308   8.994790
    29  O    7.753320   7.480475   6.756829   8.870975  10.122105
    30  H    8.470495   8.215136   7.437691   9.498493  10.761177
    31  H    5.461532   4.545852   3.677312   8.525237   9.895190
    32  H    4.337742   3.408381   2.767253   7.436789   8.725986
    33  H    4.843115   4.574554   3.647772   6.952801   8.379208
    34  H    3.629749   3.544694   3.138546   5.411800   6.686775
    35  H    5.058397   5.394477   4.728270   5.566489   6.930165
    36  H    6.049862   6.100596   5.632588   6.565010   7.716671
    37  H    6.801043   6.696975   5.869952   7.879856   9.224103
    38  H    4.315377   5.554235   6.253231   3.322929   3.174994
    39  H    4.659607   5.940668   6.107372   1.070000   2.010767
    40  H    4.272017   5.683681   5.898028   1.070000   2.010767
    41  H    3.181424   4.317655   4.803742   2.121458   2.854821
    42  H    2.886969   4.269853   4.718707   2.622506   3.368205
    43  H    2.140783   2.858737   3.754946   4.203294   4.851733
    44  H    1.070000   2.008441   2.162753   4.279078   5.484055
    45  H    2.213668   2.552359   2.745802   4.189840   5.333755
                   11         12         13         14         15
    11  H    0.000000
    12  C    3.349762   0.000000
    13  O    4.284028   1.434706   0.000000
    14  C    5.601791   2.398820   1.435127   0.000000
    15  O    6.387232   3.481427   2.150063   1.435180   0.000000
    16  C    7.015370   4.377261   3.012322   2.385042   1.434894
    17  C    6.693750   4.710408   3.372733   3.358992   2.537732
    18  O    5.361852   3.838101   2.722534   3.255141   2.938194
    19  H    4.607512   3.021055   1.939657   2.813687   2.669353
    20  C    7.773052   5.979345   4.730063   4.590140   3.857872
    21  O    7.816497   6.604390   5.436059   5.616956   4.899438
    22  H    8.699161   7.510978   6.356120   6.441236   5.724055
    23  C    9.332340   6.330842   5.089182   3.958044   3.032145
    24  O    9.331963   6.192187   5.063569   3.881749   3.033934
    25  H   10.221019   7.017627   5.966315   4.725409   3.999432
    26  C    8.485615   5.808035   4.432490   3.645577   2.475246
    27  O    9.305911   6.818175   5.472476   4.743573   3.744044
    28  C    9.102531   7.055662   5.705188   5.313715   4.309586
    29  O   10.194526   8.249549   6.958214   6.523396   5.634490
    30  H   10.780803   8.957277   7.634054   7.269477   6.279825
    31  H   10.342247   7.388864   6.123018   5.024197   4.043269
    32  H    9.244612   6.178709   5.056786   3.806124   3.236397
    33  H    8.667277   6.137701   4.720938   4.124032   2.753556
    34  H    7.081638   4.360997   3.178584   2.353391   2.019054
    35  H    7.000975   5.173697   3.796451   3.900274   2.816306
    36  H    7.812952   5.974912   4.856495   4.611289   4.160593
    37  H    9.284121   7.359254   5.962939   5.692522   4.519150
    38  H    4.116639   3.107008   4.352196   4.916538   6.018586
    39  H    2.048758   2.084056   2.479158   3.849632   4.482820
    40  H    2.341365   2.084056   2.660677   3.994647   4.561691
    41  H    3.592814   1.070000   2.046089   2.632070   3.909796
    42  H    4.154226   2.151896   2.826119   3.465075   4.238181
    43  H    5.784259   2.824883   3.367739   2.900509   4.188763
    44  H    6.178036   3.129685   2.568069   2.087417   2.310675
    45  H    5.941275   2.837816   2.132834   1.070000   2.126858
                   16         17         18         19         20
    16  C    0.000000
    17  C    1.519801   0.000000
    18  O    2.454080   1.435440   0.000000
    19  H    2.712008   2.110759   1.000313   0.000000
    20  C    2.533706   1.519902   2.455658   3.382674   0.000000
    21  O    3.742695   2.362399   2.781412   3.722423   1.435602
    22  H    4.463293   3.220059   3.725456   4.690327   1.957060
    23  C    2.549159   3.794358   4.979529   5.224758   4.178491
    24  O    3.220130   4.594675   5.604986   5.602244   5.311647
    25  H    4.178816   5.555369   6.588304   6.592154   6.171223
    26  C    1.519966   2.392217   3.706164   4.074537   2.829702
    27  O    2.469949   2.783485   4.161770   4.799712   2.381133
    28  C    2.957339   2.456048   3.748194   4.553740   1.519760
    29  O    4.230740   3.732772   4.871731   5.767375   2.423764
    30  H    4.924435   4.312223   5.447196   6.332029   3.063666
    31  H    3.431782   4.471188   5.771997   6.108294   4.592176
    32  H    2.690101   4.002733   5.051579   5.330743   4.266053
    33  H    2.131189   2.652352   3.958187   4.237385   3.233888
    34  H    1.070000   2.096227   2.760169   3.099190   2.694786
    35  H    2.088828   1.070000   2.016078   2.458783   2.088866
    36  H    2.825583   2.162868   2.784423   3.714185   1.070000
    37  H    3.347320   2.715960   3.998096   4.711484   2.150805
    38  H    7.195484   7.723898   6.905106   6.014512   9.052011
    39  H    4.992440   4.655451   3.357186   2.578516   5.782031
    40  H    5.475819   5.402876   4.352273   3.380935   6.756882
    41  H    4.590853   4.956185   4.069421   3.441047   6.043096
    42  H    5.523608   6.050840   5.406097   4.466661   7.492283
    43  H    5.222293   6.222631   5.862900   5.254115   7.368398
    44  H    3.731128   4.754302   4.770101   4.103074   6.145698
    45  H    2.510877   3.498325   3.419744   3.216888   4.450124
                   21         22         23         24         25
    21  O    0.000000
    22  H    0.999917   0.000000
    23  C    5.507306   5.930686   0.000000
    24  O    6.581449   7.121338   1.434614   0.000000
    25  H    7.462685   7.940461   2.054307   1.000401   0.000000
    26  C    4.073447   4.583068   1.519501   2.541997   3.391825
    27  O    3.611763   3.821443   2.274045   3.626473   4.282507
    28  C    2.366108   2.475198   3.618189   4.868683   5.603742
    29  O    2.908736   2.480592   4.542244   5.907930   6.514036
    30  H    3.203910   2.654420   5.155613   6.466185   7.046215
    31  H    5.858169   6.138955   1.070000   2.031115   2.252003
    32  H    5.681153   6.061252   1.070000   2.031115   2.481736
    33  H    4.217654   4.770672   2.130703   2.761123   3.593841
    34  H    4.016275   4.627048   2.730020   3.528117   4.385662
    35  H    2.530977   3.404453   4.014709   4.680156   5.639966
    36  H    2.087699   2.348441   4.375163   5.573835   6.383484
    37  H    2.547458   2.733309   3.965501   5.045785   5.788080
    38  H    9.684301  10.606932   8.678510   8.131357   8.752054
    39  H    5.948990   6.864043   7.374425   7.491449   8.420172
    40  H    7.020330   7.994538   7.593252   7.393505   8.270100
    41  H    6.725921   7.560712   6.498248   6.484013   7.271215
    42  H    8.129670   9.087087   7.025520   6.455274   7.163031
    43  H    8.382066   9.183736   6.147356   5.657504   6.163828
    44  H    7.097517   7.973334   4.560009   3.814970   4.501305
    45  H    5.571866   6.298322   3.959960   4.125371   4.899363
                   26         27         28         29         30
    26  C    0.000000
    27  O    1.435399   0.000000
    28  C    2.394820   1.434904   0.000000
    29  O    3.606859   2.290509   1.435162   0.000000
    30  H    4.194437   2.949671   1.974789   0.960000   0.000000
    31  H    2.104941   2.330720   3.694984   4.387492   4.887969
    32  H    2.104941   2.550636   3.912996   4.675075   5.421669
    33  H    1.070000   2.056999   2.643327   3.938037   4.313602
    34  H    2.098554   2.659068   3.264084   4.296242   5.122904
    35  H    2.536815   3.044575   2.578154   3.945770   4.318413
    36  H    3.266830   2.688449   2.162843   2.631737   3.446818
    37  H    2.667370   2.074938   1.070000   2.075898   2.142462
    38  H    8.472305   9.634338  10.032033  11.264982  11.973036
    39  H    6.461279   7.260030   7.076177   8.201681   8.801505
    40  H    6.828329   7.875190   7.850250   9.120840   9.678712
    41  H    6.049773   6.919385   7.187572   8.262988   9.038103
    42  H    6.707580   7.959775   8.334281   9.657380  10.289426
    43  H    6.314619   7.393372   8.120023   9.232001  10.040071
    44  H    4.538177   5.905191   6.589837   7.919260   8.547455
    45  H    3.753055   4.608585   5.229595   6.279267   7.109419
                   31         32         33         34         35
    31  H    0.000000
    32  H    1.728619   0.000000
    33  H    2.488156   2.989887   0.000000
    34  H    3.619330   2.434542   2.987138   0.000000
    35  H    4.587392   4.475730   2.338192   2.952352   0.000000
    36  H    4.820129   4.196063   3.925702   2.557339   3.001403
    37  H    3.973561   4.496894   2.466226   3.923482   2.389838
    38  H    9.735249   8.521664   8.715847   7.184573   8.061256
    39  H    8.360843   7.320914   6.668131   5.104778   5.009777
    40  H    8.598414   7.674330   6.867201   5.775699   5.530278
    41  H    7.552618   6.172610   6.541636   4.321230   5.600851
    42  H    8.056859   7.066586   6.799974   5.756113   6.220890
    43  H    7.178168   5.769787   6.820672   4.936175   6.778107
    44  H    5.549045   4.720788   4.636189   4.078762   4.884501
    45  H    4.997172   3.533088   4.462351   2.003211   4.265814
                   36         37         38         39         40
    36  H    0.000000
    37  H    3.044880   0.000000
    38  H    9.045462  10.277009   0.000000
    39  H    5.869337   7.278345   4.375840   0.000000
    40  H    6.997180   7.908410   3.400600   1.716940   0.000000
    41  H    5.847933   7.632928   3.407176   2.478682   2.967581
    42  H    7.674788   8.449573   2.142582   3.555089   2.291505
    43  H    7.192162   8.564043   3.213420   4.886748   4.589107
    44  H    6.396040   6.709330   4.466998   4.764451   4.088347
    45  H    4.227126   5.794877   5.367165   4.214472   4.679103
                   41         42         43         44         45
    41  H    0.000000
    42  H    3.012106   0.000000
    43  H    2.679062   3.013343   0.000000
    44  H    3.786689   2.672686   2.972606   0.000000
    45  H    2.648795   4.247734   2.986853   3.025255   0.000000
 Stoichiometry    C12H22O11
 Framework group  C1[X(C12H22O11)]
 Deg. of freedom   129
 Full point group                 C1      NOp   1
 Largest Abelian subgroup         C1      NOp   1
 Largest concise Abelian subgroup C1      NOp   1
                         Standard orientation:                         
 ---------------------------------------------------------------------
 Center     Atomic      Atomic             Coordinates (Angstroms)
 Number     Number       Type             X           Y           Z
 ---------------------------------------------------------------------
      1          8           0       -4.993737   -0.240022    0.600952
      2          6           0       -3.761561   -0.089043   -0.117918
      3          6           0       -3.302097    1.277785    0.362846
      4          8           0       -4.127296    2.234874   -0.316331
      5          1           0       -5.087797    2.077379   -0.084093
      6          6           0       -1.854106    1.548578   -0.011933
      7          8           0       -1.117104    2.703614    0.417826
      8          1           0       -0.261110    2.678076   -0.096657
      9          6           0       -3.115659   -2.437360   -0.349137
     10          8           0       -4.261712   -3.212588    0.032270
     11          1           0       -4.030959   -4.138201   -0.267558
     12          6           0       -2.702031   -1.109745    0.264712
     13          8           0       -1.378468   -0.775328   -0.176569
     14          6           0       -0.882729    0.449167    0.384185
     15          8           0        0.196163    0.642246   -0.542343
     16          6           0        1.459045    0.221520   -0.006580
     17          6           0        1.966448   -1.166856   -0.359780
     18          8           0        0.957455   -2.173706   -0.190446
     19          1           0        0.050026   -2.022788   -0.583410
     20          6           0        3.262470   -1.522017    0.350353
     21          8           0        3.668642   -2.794588   -0.175519
     22          1           0        4.575712   -2.966115    0.208717
     23          6           0        2.447903    2.568651    0.099945
     24          8           0        1.467316    3.397046   -0.540623
     25          1           0        1.619884    4.377440   -0.412740
     26          6           0        2.616066    1.135412   -0.375902
     27          8           0        3.847642    0.784785    0.272675
     28          6           0        4.320357   -0.521781   -0.085619
     29          8           0        5.528763   -0.721311    0.662466
     30          1           0        6.250713   -0.912344    0.059229
     31          1           0        3.395653    3.054655   -0.002372
     32          1           0        2.209110    2.535354    1.142427
     33          1           0        2.755261    1.125057   -1.436759
     34          1           0        1.363475    0.253935    1.058650
     35          1           0        2.194732   -1.144730   -1.404911
     36          1           0        3.145128   -1.545978    1.413629
     37          1           0        4.503535   -0.588530   -1.137708
     38          1           0       -5.710569   -0.387940   -0.020234
     39          1           0       -2.272863   -3.086774   -0.235750
     40          1           0       -3.223270   -2.253417   -1.397700
     41          1           0       -2.692631   -1.211501    1.329821
     42          1           0       -3.930966   -0.085398   -1.174417
     43          1           0       -3.433122    1.361561    1.421484
     44          1           0       -1.844602    1.582438   -1.081355
     45          1           0       -0.601304    0.411788    1.415835
 ---------------------------------------------------------------------
 Rotational constants (GHZ):      0.4118928      0.1464399      0.1109241
 Standard basis: 6-31+G(2d,p) (6D, 7F)
 There are   685 symmetry adapted basis functions of A   symmetry.
 Integral buffers will be    131072 words long.
 Raffenetti 2 integral format.
 Two-electron integral symmetry is turned on.
   685 basis functions,  1028 primitive gaussians,   685 cartesian basis functions
    91 alpha electrons       91 beta electrons
       nuclear repulsion energy      2293.3979481217 Hartrees.
 NAtoms=   45 NActive=   45 NUniq=   45 SFac= 1.00D+00 NAtFMM=   50 NAOKFM=F Big=F
 One-electron integrals computed using PRISM.
 NBasis=   685 RedAO= T  NBF=   685
 NBsUse=   685 1.00D-06 NBFU=   685
 Harris functional with IExCor=  402 diagonalized for initial guess.
 ExpMin= 4.38D-02 ExpMax= 5.48D+03 ExpMxC= 8.25D+02 IAcc=2 IRadAn=         0 AccDes= 0.00D+00
 HarFok:  IExCor=  402 AccDes= 0.00D+00 IRadAn=         0 IDoV= 1
 ScaDFX=  1.000000  1.000000  1.000000  1.000000
 FoFCou: FMM=F IPFlag=           0 FMFlag=      100000 FMFlg1=           0
         NFxFlg=           0 DoJE=T BraDBF=F KetDBF=T FulRan=T
         Omega=  0.000000  0.000000  1.000000  0.000000  0.000000 ICntrl=     500 IOpCl=  0
         NMat0=    1 NMatS0=    1 NMatT0=    0 NMatD0=    1 NMtDS0=    0 NMtDT0=    0
         I1Cent=           4 NGrid=           0.
 Petite list used in FoFCou.
 Initial guess orbital symmetries:
       Occupied  (A) (A) (A) (A) (A) (A) (A) (A) (A) (A) (A) (A)
                 (A) (A) (A) (A) (A) (A) (A) (A) (A) (A) (A) (A)
                 (A) (A) (A) (A) (A) (A) (A) (A) (A) (A) (A) (A)
                 (A) (A) (A) (A) (A) (A) (A) (A) (A) (A) (A) (A)
                 (A) (A) (A) (A) (A) (A) (A) (A) (A) (A) (A) (A)
                 (A) (A) (A) (A) (A) (A) (A) (A) (A) (A) (A) (A)
                 (A) (A) (A) (A) (A) (A) (A) (A) (A) (A) (A) (A)
                 (A) (A) (A) (A) (A) (A) (A)
       Virtual   (A) (A) (A) (A) (A) (A) (A) (A) (A) (A) (A) (A)
                 (A) (A) (A) (A) (A) (A) (A) (A) (A) (A) (A) (A)
                 (A) (A) (A) (A) (A) (A) (A) (A) (A) (A) (A) (A)
                 (A) (A) (A) (A) (A) (A) (A) (A) (A) (A) (A) (A)
                 (A) (A) (A) (A) (A) (A) (A) (A) (A) (A) (A) (A)
                 (A) (A) (A) (A) (A) (A) (A) (A) (A) (A) (A) (A)
                 (A) (A) (A) (A) (A) (A) (A) (A) (A) (A) (A) (A)
                 (A) (A) (A) (A) (A) (A) (A) (A) (A) (A) (A) (A)
                 (A) (A) (A) (A) (A) (A) (A) (A) (A) (A) (A) (A)
                 (A) (A) (A) (A) (A) (A) (A) (A) (A) (A) (A) (A)
                 (A) (A) (A) (A) (A) (A) (A) (A) (A) (A) (A) (A)
                 (A) (A) (A) (A) (A) (A) (A) (A) (A) (A) (A) (A)
                 (A) (A) (A) (A) (A) (A) (A) (A) (A) (A) (A) (A)
                 (A) (A) (A) (A) (A) (A) (A) (A) (A) (A) (A) (A)
                 (A) (A) (A) (A) (A) (A) (A) (A) (A) (A) (A) (A)
                 (A) (A) (A) (A) (A) (A) (A) (A) (A) (A) (A) (A)
                 (A) (A) (A) (A) (A) (A) (A) (A) (A) (A) (A) (A)
                 (A) (A) (A) (A) (A) (A) (A) (A) (A) (A) (A) (A)
                 (A) (A) (A) (A) (A) (A) (A) (A) (A) (A) (A) (A)
                 (A) (A) (A) (A) (A) (A) (A) (A) (A) (A) (A) (A)
                 (A) (A) (A) (A) (A) (A) (A) (A) (A) (A) (A) (A)
                 (A) (A) (A) (A) (A) (A) (A) (A) (A) (A) (A) (A)
                 (A) (A) (A) (A) (A) (A) (A) (A) (A) (A) (A) (A)
                 (A) (A) (A) (A) (A) (A) (A) (A) (A) (A) (A) (A)
                 (A) (A) (A) (A) (A) (A) (A) (A) (A) (A) (A) (A)
                 (A) (A) (A) (A) (A) (A) (A) (A) (A) (A) (A) (A)
                 (A) (A) (A) (A) (A) (A) (A) (A) (A) (A) (A) (A)
                 (A) (A) (A) (A) (A) (A) (A) (A) (A) (A) (A) (A)
                 (A) (A) (A) (A) (A) (A) (A) (A) (A) (A) (A) (A)
                 (A) (A) (A) (A) (A) (A) (A) (A) (A) (A) (A) (A)
                 (A) (A) (A) (A) (A) (A) (A) (A) (A) (A) (A) (A)
                 (A) (A) (A) (A) (A) (A) (A) (A) (A) (A) (A) (A)
                 (A) (A) (A) (A) (A) (A) (A) (A) (A) (A) (A) (A)
                 (A) (A) (A) (A) (A) (A) (A) (A) (A) (A) (A) (A)
                 (A) (A) (A) (A) (A) (A) (A) (A) (A) (A) (A) (A)
                 (A) (A) (A) (A) (A) (A) (A) (A) (A) (A) (A) (A)
                 (A) (A) (A) (A) (A) (A) (A) (A) (A) (A) (A) (A)
                 (A) (A) (A) (A) (A) (A) (A) (A) (A) (A) (A) (A)
                 (A) (A) (A) (A) (A) (A) (A) (A) (A) (A) (A) (A)
                 (A) (A) (A) (A) (A) (A) (A) (A) (A) (A) (A) (A)
                 (A) (A) (A) (A) (A) (A) (A) (A) (A) (A) (A) (A)
                 (A) (A) (A) (A) (A) (A) (A) (A) (A) (A) (A) (A)
                 (A) (A) (A) (A) (A) (A) (A) (A) (A) (A) (A) (A)
                 (A) (A) (A) (A) (A) (A) (A) (A) (A) (A) (A) (A)
                 (A) (A) (A) (A) (A) (A) (A) (A) (A) (A) (A) (A)
                 (A) (A) (A) (A) (A) (A) (A) (A) (A) (A) (A) (A)
                 (A) (A) (A) (A) (A) (A) (A) (A) (A) (A) (A) (A)
                 (A) (A) (A) (A) (A) (A) (A) (A) (A) (A) (A) (A)
                 (A) (A) (A) (A) (A) (A) (A) (A) (A) (A) (A) (A)
                 (A) (A) (A) (A) (A) (A)
 The electronic state of the initial guess is 1-A.
 Requested convergence on RMS density matrix=1.00D-08 within 128 cycles.
 Requested convergence on MAX density matrix=1.00D-06.
 Requested convergence on             energy=1.00D-06.
 No special actions if energy rises.
 SCF Done:  E(RB3LYP) =  -1297.96040125     A.U. after   13 cycles
             Convg  =    0.3606D-08             -V/T =  2.0063
 Range of M.O.s used for correlation:     1   685
 NBasis=   685 NAE=    91 NBE=    91 NFC=     0 NFV=     0
 NROrb=    685 NOA=    91 NOB=    91 NVA=   594 NVB=   594

 **** Warning!!: The largest alpha MO coefficient is  0.81628958D+02

          Differentiating once with respect to electric field.
                with respect to dipole field.
          Electric field/nuclear overlap derivatives assumed to be zero.
          There are     3 degrees of freedom in the 1st order CPHF.  IDoFFX=0.
      3 vectors produced by pass  0 Test12= 1.80D-12 3.33D-08 XBig12= 1.24D+02 1.35D+00.
 AX will form     3 AO Fock derivatives at one time.
      3 vectors produced by pass  1 Test12= 1.80D-12 3.33D-08 XBig12= 2.58D+01 4.44D-01.
      3 vectors produced by pass  2 Test12= 1.80D-12 3.33D-08 XBig12= 1.09D+01 1.97D-01.
      3 vectors produced by pass  3 Test12= 1.80D-12 3.33D-08 XBig12= 1.24D+00 8.82D-02.
      3 vectors produced by pass  4 Test12= 1.80D-12 3.33D-08 XBig12= 3.75D-01 4.35D-02.
      3 vectors produced by pass  5 Test12= 1.80D-12 3.33D-08 XBig12= 7.03D-02 1.85D-02.
      3 vectors produced by pass  6 Test12= 1.80D-12 3.33D-08 XBig12= 2.61D-02 1.73D-02.
      3 vectors produced by pass  7 Test12= 1.80D-12 3.33D-08 XBig12= 3.32D-03 9.55D-03.
      3 vectors produced by pass  8 Test12= 1.80D-12 3.33D-08 XBig12= 7.01D-04 3.59D-03.
      3 vectors produced by pass  9 Test12= 1.80D-12 3.33D-08 XBig12= 1.69D-04 1.77D-03.
      3 vectors produced by pass 10 Test12= 1.80D-12 3.33D-08 XBig12= 3.66D-05 6.94D-04.
      3 vectors produced by pass 11 Test12= 1.80D-12 3.33D-08 XBig12= 9.76D-06 5.37D-04.
      3 vectors produced by pass 12 Test12= 1.80D-12 3.33D-08 XBig12= 1.09D-06 1.33D-04.
      3 vectors produced by pass 13 Test12= 1.80D-12 3.33D-08 XBig12= 2.83D-07 4.57D-05.
      3 vectors produced by pass 14 Test12= 1.80D-12 3.33D-08 XBig12= 5.40D-08 1.82D-05.
      3 vectors produced by pass 15 Test12= 1.80D-12 3.33D-08 XBig12= 1.08D-08 8.77D-06.
      3 vectors produced by pass 16 Test12= 1.80D-12 3.33D-08 XBig12= 2.15D-09 5.63D-06.
      3 vectors produced by pass 17 Test12= 1.80D-12 3.33D-08 XBig12= 1.68D-10 1.24D-06.
      3 vectors produced by pass 18 Test12= 1.80D-12 3.33D-08 XBig12= 3.07D-11 2.83D-07.
      3 vectors produced by pass 19 Test12= 1.80D-12 3.33D-08 XBig12= 1.80D-11 3.35D-07.
      2 vectors produced by pass 20 Test12= 1.80D-12 3.33D-08 XBig12= 8.15D-12 1.74D-07.
      2 vectors produced by pass 21 Test12= 1.80D-12 3.33D-08 XBig12= 3.39D-12 1.39D-07.
      2 vectors produced by pass 22 Test12= 1.80D-12 3.33D-08 XBig12= 7.19D-13 7.06D-08.
 Inverted reduced A of dimension    66 with in-core refinement.
 End of Minotr Frequency-dependent properties file   721 does not exist.
 End of Minotr Frequency-dependent properties file   722 does not exist.
 Symmetrizing basis deriv contribution to polar:
 IMax=3 JMax=2 DiffMx= 0.00D+00
 G2DrvN: will do    16 centers at a time, making    3 passes doing MaxLOS=2.
 Calling FoFCou, ICntrl=  3107 FMM=F I1Cent=   0 AccDes= 0.00D+00.
 Calling FoFCou, ICntrl=  3107 FMM=F I1Cent=   0 AccDes= 0.00D+00.
 Calling FoFCou, ICntrl=  3107 FMM=F I1Cent=   0 AccDes= 0.00D+00.
 FoFDir/FoFCou used for L=0 through L=2.
 End of G2Drv Frequency-dependent properties file   721 does not exist.
 End of G2Drv Frequency-dependent properties file   722 does not exist.
          IDoAtm=111111111111111111111111111111111111111111111
          Differentiating once with respect to electric field.
                with respect to dipole field.
          Differentiating once with respect to nuclear coordinates.
          There are   138 degrees of freedom in the 1st order CPHF.  IDoFFX=5.
 Will reuse    3 saved solutions.
    135 vectors produced by pass  0 Test12= 5.41D-14 1.00D-09 XBig12= 1.70D-01 7.48D-02.
 AX will form    45 AO Fock derivatives at one time.
    135 vectors produced by pass  1 Test12= 5.41D-14 1.00D-09 XBig12= 1.70D-02 1.15D-02.
    132 vectors produced by pass  2 Test12= 5.41D-14 1.00D-09 XBig12= 1.57D-04 1.40D-03.
    132 vectors produced by pass  3 Test12= 5.41D-14 1.00D-09 XBig12= 6.41D-07 5.97D-05.
    132 vectors produced by pass  4 Test12= 5.41D-14 1.00D-09 XBig12= 1.36D-09 2.17D-06.
    132 vectors produced by pass  5 Test12= 5.41D-14 1.00D-09 XBig12= 2.96D-12 1.06D-07.
     82 vectors produced by pass  6 Test12= 5.41D-14 1.00D-09 XBig12= 1.13D-13 2.07D-08.
 Inverted reduced A of dimension   880 with in-core refinement.
 Isotropic polarizability for W=    0.000000      191.32 Bohr**3.
 End of Minotr Frequency-dependent properties file   721 does not exist.
 End of Minotr Frequency-dependent properties file   722 does not exist.

 **********************************************************************

            Population analysis using the SCF density.

 **********************************************************************

 Orbital symmetries:
       Occupied  (A) (A) (A) (A) (A) (A) (A) (A) (A) (A) (A) (A)
                 (A) (A) (A) (A) (A) (A) (A) (A) (A) (A) (A) (A)
                 (A) (A) (A) (A) (A) (A) (A) (A) (A) (A) (A) (A)
                 (A) (A) (A) (A) (A) (A) (A) (A) (A) (A) (A) (A)
                 (A) (A) (A) (A) (A) (A) (A) (A) (A) (A) (A) (A)
                 (A) (A) (A) (A) (A) (A) (A) (A) (A) (A) (A) (A)
                 (A) (A) (A) (A) (A) (A) (A) (A) (A) (A) (A) (A)
                 (A) (A) (A) (A) (A) (A) (A)
       Virtual   (A) (A) (A) (A) (A) (A) (A) (A) (A) (A) (A) (A)
                 (A) (A) (A) (A) (A) (A) (A) (A) (A) (A) (A) (A)
                 (A) (A) (A) (A) (A) (A) (A) (A) (A) (A) (A) (A)
                 (A) (A) (A) (A) (A) (A) (A) (A) (A) (A) (A) (A)
                 (A) (A) (A) (A) (A) (A) (A) (A) (A) (A) (A) (A)
                 (A) (A) (A) (A) (A) (A) (A) (A) (A) (A) (A) (A)
                 (A) (A) (A) (A) (A) (A) (A) (A) (A) (A) (A) (A)
                 (A) (A) (A) (A) (A) (A) (A) (A) (A) (A) (A) (A)
                 (A) (A) (A) (A) (A) (A) (A) (A) (A) (A) (A) (A)
                 (A) (A) (A) (A) (A) (A) (A) (A) (A) (A) (A) (A)
                 (A) (A) (A) (A) (A) (A) (A) (A) (A) (A) (A) (A)
                 (A) (A) (A) (A) (A) (A) (A) (A) (A) (A) (A) (A)
                 (A) (A) (A) (A) (A) (A) (A) (A) (A) (A) (A) (A)
                 (A) (A) (A) (A) (A) (A) (A) (A) (A) (A) (A) (A)
                 (A) (A) (A) (A) (A) (A) (A) (A) (A) (A) (A) (A)
                 (A) (A) (A) (A) (A) (A) (A) (A) (A) (A) (A) (A)
                 (A) (A) (A) (A) (A) (A) (A) (A) (A) (A) (A) (A)
                 (A) (A) (A) (A) (A) (A) (A) (A) (A) (A) (A) (A)
                 (A) (A) (A) (A) (A) (A) (A) (A) (A) (A) (A) (A)
                 (A) (A) (A) (A) (A) (A) (A) (A) (A) (A) (A) (A)
                 (A) (A) (A) (A) (A) (A) (A) (A) (A) (A) (A) (A)
                 (A) (A) (A) (A) (A) (A) (A) (A) (A) (A) (A) (A)
                 (A) (A) (A) (A) (A) (A) (A) (A) (A) (A) (A) (A)
                 (A) (A) (A) (A) (A) (A) (A) (A) (A) (A) (A) (A)
                 (A) (A) (A) (A) (A) (A) (A) (A) (A) (A) (A) (A)
                 (A) (A) (A) (A) (A) (A) (A) (A) (A) (A) (A) (A)
                 (A) (A) (A) (A) (A) (A) (A) (A) (A) (A) (A) (A)
                 (A) (A) (A) (A) (A) (A) (A) (A) (A) (A) (A) (A)
                 (A) (A) (A) (A) (A) (A) (A) (A) (A) (A) (A) (A)
                 (A) (A) (A) (A) (A) (A) (A) (A) (A) (A) (A) (A)
                 (A) (A) (A) (A) (A) (A) (A) (A) (A) (A) (A) (A)
                 (A) (A) (A) (A) (A) (A) (A) (A) (A) (A) (A) (A)
                 (A) (A) (A) (A) (A) (A) (A) (A) (A) (A) (A) (A)
                 (A) (A) (A) (A) (A) (A) (A) (A) (A) (A) (A) (A)
                 (A) (A) (A) (A) (A) (A) (A) (A) (A) (A) (A) (A)
                 (A) (A) (A) (A) (A) (A) (A) (A) (A) (A) (A) (A)
                 (A) (A) (A) (A) (A) (A) (A) (A) (A) (A) (A) (A)
                 (A) (A) (A) (A) (A) (A) (A) (A) (A) (A) (A) (A)
                 (A) (A) (A) (A) (A) (A) (A) (A) (A) (A) (A) (A)
                 (A) (A) (A) (A) (A) (A) (A) (A) (A) (A) (A) (A)
                 (A) (A) (A) (A) (A) (A) (A) (A) (A) (A) (A) (A)
                 (A) (A) (A) (A) (A) (A) (A) (A) (A) (A) (A) (A)
                 (A) (A) (A) (A) (A) (A) (A) (A) (A) (A) (A) (A)
                 (A) (A) (A) (A) (A) (A) (A) (A) (A) (A) (A) (A)
                 (A) (A) (A) (A) (A) (A) (A) (A) (A) (A) (A) (A)
                 (A) (A) (A) (A) (A) (A) (A) (A) (A) (A) (A) (A)
                 (A) (A) (A) (A) (A) (A) (A) (A) (A) (A) (A) (A)
                 (A) (A) (A) (A) (A) (A) (A) (A) (A) (A) (A) (A)
                 (A) (A) (A) (A) (A) (A) (A) (A) (A) (A) (A) (A)
                 (A) (A) (A) (A) (A) (A)
 The electronic state is 1-A.
 Alpha  occ. eigenvalues --  -19.18595 -19.18218 -19.17876 -19.17788 -19.17248
 Alpha  occ. eigenvalues --  -19.17085 -19.16619 -19.16054 -19.15031 -19.13308
 Alpha  occ. eigenvalues --  -19.13248 -10.30722 -10.30252 -10.25759 -10.25258
 Alpha  occ. eigenvalues --  -10.25054 -10.24940 -10.24879 -10.24367 -10.24279
 Alpha  occ. eigenvalues --  -10.24140 -10.23992 -10.23530  -1.10416  -1.09264
 Alpha  occ. eigenvalues --   -1.05591  -1.04317  -1.03594  -1.03294  -1.03059
 Alpha  occ. eigenvalues --   -1.02847  -1.01712  -1.00311  -0.99673  -0.82102
 Alpha  occ. eigenvalues --   -0.80243  -0.79409  -0.77960  -0.71291  -0.69601
 Alpha  occ. eigenvalues --   -0.67221  -0.65085  -0.62872  -0.62498  -0.61678
 Alpha  occ. eigenvalues --   -0.60131  -0.56625  -0.55670  -0.55054  -0.54364
 Alpha  occ. eigenvalues --   -0.54255  -0.53171  -0.52534  -0.51640  -0.50874
 Alpha  occ. eigenvalues --   -0.50364  -0.50149  -0.49165  -0.48283  -0.46356
 Alpha  occ. eigenvalues --   -0.45561  -0.44597  -0.44527  -0.43754  -0.43575
 Alpha  occ. eigenvalues --   -0.42258  -0.41704  -0.41020  -0.40426  -0.39104
 Alpha  occ. eigenvalues --   -0.38928  -0.38349  -0.36566  -0.36110  -0.35889
 Alpha  occ. eigenvalues --   -0.35766  -0.35301  -0.34422  -0.33470  -0.33215
 Alpha  occ. eigenvalues --   -0.32491  -0.30831  -0.30428  -0.30168  -0.29864
 Alpha  occ. eigenvalues --   -0.29273  -0.28793  -0.28014  -0.27104  -0.26176
 Alpha  occ. eigenvalues --   -0.25885
 Alpha virt. eigenvalues --   -0.02032  -0.01956  -0.01185  -0.00435   0.00337
 Alpha virt. eigenvalues --    0.01033   0.01728   0.02244   0.03076   0.03409
 Alpha virt. eigenvalues --    0.03764   0.04142   0.04804   0.05514   0.05762
 Alpha virt. eigenvalues --    0.06000   0.06293   0.07261   0.07964   0.08105
 Alpha virt. eigenvalues --    0.08688   0.08804   0.09299   0.09756   0.09940
 Alpha virt. eigenvalues --    0.10300   0.10642   0.11028   0.11709   0.11823
 Alpha virt. eigenvalues --    0.12679   0.12916   0.13063   0.13694   0.14002
 Alpha virt. eigenvalues --    0.14290   0.14473   0.14563   0.14927   0.15458
 Alpha virt. eigenvalues --    0.15761   0.16266   0.16793   0.16871   0.17073
 Alpha virt. eigenvalues --    0.17280   0.17419   0.17898   0.18123   0.18500
 Alpha virt. eigenvalues --    0.18643   0.19274   0.19710   0.19748   0.19944
 Alpha virt. eigenvalues --    0.20273   0.20660   0.20811   0.21384   0.21514
 Alpha virt. eigenvalues --    0.22138   0.22554   0.22757   0.23095   0.23226
 Alpha virt. eigenvalues --    0.23654   0.23959   0.24143   0.24407   0.24724
 Alpha virt. eigenvalues --    0.25129   0.25162   0.25632   0.25797   0.25880
 Alpha virt. eigenvalues --    0.26298   0.26697   0.26953   0.27209   0.27340
 Alpha virt. eigenvalues --    0.27667   0.27983   0.28397   0.28504   0.28794
 Alpha virt. eigenvalues --    0.29167   0.29635   0.29958   0.30113   0.30673
 Alpha virt. eigenvalues --    0.31147   0.31351   0.31758   0.32076   0.32351
 Alpha virt. eigenvalues --    0.32404   0.33062   0.33376   0.33566   0.34001
 Alpha virt. eigenvalues --    0.34230   0.34590   0.34722   0.35283   0.35602
 Alpha virt. eigenvalues --    0.36249   0.36558   0.36803   0.37453   0.37607
 Alpha virt. eigenvalues --    0.37885   0.38134   0.38791   0.39295   0.39484
 Alpha virt. eigenvalues --    0.39682   0.40565   0.40905   0.41549   0.41852
 Alpha virt. eigenvalues --    0.42589   0.43093   0.43245   0.43486   0.44527
 Alpha virt. eigenvalues --    0.44801   0.45403   0.45560   0.46219   0.46670
 Alpha virt. eigenvalues --    0.47756   0.48148   0.48760   0.49282   0.49965
 Alpha virt. eigenvalues --    0.50805   0.51227   0.55035   0.57341   0.59815
 Alpha virt. eigenvalues --    0.60551   0.60992   0.61121   0.61776   0.62934
 Alpha virt. eigenvalues --    0.63995   0.64283   0.65489   0.67332   0.67673
 Alpha virt. eigenvalues --    0.67718   0.69079   0.69293   0.69905   0.70441
 Alpha virt. eigenvalues --    0.71017   0.71953   0.73424   0.73614   0.73851
 Alpha virt. eigenvalues --    0.74812   0.75443   0.76808   0.77216   0.77492
 Alpha virt. eigenvalues --    0.78123   0.78836   0.79690   0.80553   0.81085
 Alpha virt. eigenvalues --    0.82206   0.82907   0.84159   0.84457   0.85296
 Alpha virt. eigenvalues --    0.86740   0.87424   0.88294   0.88942   0.89902
 Alpha virt. eigenvalues --    0.90072   0.90506   0.90998   0.91405   0.91860
 Alpha virt. eigenvalues --    0.92660   0.93004   0.93871   0.94120   0.94350
 Alpha virt. eigenvalues --    0.95023   0.95828   0.95932   0.95991   0.96828
 Alpha virt. eigenvalues --    0.97370   0.97929   0.98364   0.98626   0.99654
 Alpha virt. eigenvalues --    0.99959   1.00752   1.01243   1.01961   1.02648
 Alpha virt. eigenvalues --    1.02942   1.04091   1.04800   1.05876   1.06373
 Alpha virt. eigenvalues --    1.06685   1.07047   1.07276   1.08700   1.08807
 Alpha virt. eigenvalues --    1.09719   1.10037   1.10758   1.11180   1.11568
 Alpha virt. eigenvalues --    1.11748   1.12517   1.12927   1.13747   1.13958
 Alpha virt. eigenvalues --    1.14697   1.15348   1.16342   1.17180   1.17609
 Alpha virt. eigenvalues --    1.18074   1.18404   1.18794   1.19548   1.19980
 Alpha virt. eigenvalues --    1.20763   1.21495   1.21749   1.22322   1.23044
 Alpha virt. eigenvalues --    1.23846   1.24210   1.24493   1.24869   1.25418
 Alpha virt. eigenvalues --    1.25689   1.25898   1.26959   1.27399   1.28171
 Alpha virt. eigenvalues --    1.28430   1.29228   1.29613   1.31005   1.32049
 Alpha virt. eigenvalues --    1.32104   1.33615   1.33807   1.34285   1.34789
 Alpha virt. eigenvalues --    1.35791   1.35842   1.37415   1.37927   1.38545
 Alpha virt. eigenvalues --    1.38958   1.39576   1.39774   1.40154   1.40863
 Alpha virt. eigenvalues --    1.41013   1.42412   1.42722   1.43485   1.44739
 Alpha virt. eigenvalues --    1.45770   1.46477   1.47347   1.47661   1.48331
 Alpha virt. eigenvalues --    1.49409   1.50363   1.50811   1.51445   1.52566
 Alpha virt. eigenvalues --    1.54083   1.55091   1.55468   1.56098   1.57094
 Alpha virt. eigenvalues --    1.57511   1.59430   1.59779   1.60424   1.61779
 Alpha virt. eigenvalues --    1.62304   1.62777   1.64125   1.65462   1.65887
 Alpha virt. eigenvalues --    1.67114   1.68092   1.68465   1.69568   1.70153
 Alpha virt. eigenvalues --    1.72023   1.72561   1.73580   1.74241   1.74798
 Alpha virt. eigenvalues --    1.75620   1.76787   1.77133   1.77876   1.78528
 Alpha virt. eigenvalues --    1.80341   1.80573   1.82297   1.83316   1.84508
 Alpha virt. eigenvalues --    1.84752   1.85550   1.86836   1.87638   1.87849
 Alpha virt. eigenvalues --    1.88938   1.90633   1.91954   1.93039   1.94056
 Alpha virt. eigenvalues --    1.95149   1.95419   1.96623   1.97494   1.98702
 Alpha virt. eigenvalues --    2.00602   2.01170   2.03251   2.03625   2.04353
 Alpha virt. eigenvalues --    2.06380   2.08220   2.09228   2.10332   2.10981
 Alpha virt. eigenvalues --    2.11684   2.15385   2.16296   2.18138   2.19009
 Alpha virt. eigenvalues --    2.20590   2.20793   2.21817   2.24842   2.26130
 Alpha virt. eigenvalues --    2.28616   2.29792   2.30200   2.30571   2.31148
 Alpha virt. eigenvalues --    2.32895   2.33433   2.35081   2.35625   2.36475
 Alpha virt. eigenvalues --    2.38668   2.39401   2.41454   2.46482   2.52111
 Alpha virt. eigenvalues --    2.53618   2.53959   2.54709   2.56443   2.57738
 Alpha virt. eigenvalues --    2.61599   2.62782   2.65128   2.66744   2.67273
 Alpha virt. eigenvalues --    2.67779   2.69741   2.71162   2.72207   2.73252
 Alpha virt. eigenvalues --    2.73745   2.75764   2.77078   2.77815   2.80308
 Alpha virt. eigenvalues --    2.82015   2.82939   2.83204   2.84347   2.85378
 Alpha virt. eigenvalues --    2.86783   2.89308   2.89882   2.90849   2.92222
 Alpha virt. eigenvalues --    2.93424   2.95146   2.96187   2.96629   2.97309
 Alpha virt. eigenvalues --    2.98312   2.98745   2.99485   2.99963   3.01217
 Alpha virt. eigenvalues --    3.02480   3.02979   3.04474   3.04970   3.05976
 Alpha virt. eigenvalues --    3.06298   3.06933   3.07937   3.09456   3.09835
 Alpha virt. eigenvalues --    3.10801   3.11734   3.13044   3.13403   3.14490
 Alpha virt. eigenvalues --    3.16760   3.17316   3.19786   3.21456   3.25197
 Alpha virt. eigenvalues --    3.26426   3.27257   3.29263   3.77028   3.86979
 Alpha virt. eigenvalues --    3.98794   4.05908   4.06510   4.07670   4.12431
 Alpha virt. eigenvalues --    4.13226   4.14644   4.15098   4.15762   4.17379
 Alpha virt. eigenvalues --    4.18076   4.19892   4.20826   4.21041   4.22011
 Alpha virt. eigenvalues --    4.23015   4.24146   4.25061   4.26074   4.26650
 Alpha virt. eigenvalues --    4.27943   4.28419   4.29031   4.29786   4.30587
 Alpha virt. eigenvalues --    4.30969   4.31066   4.31653   4.32509   4.33367
 Alpha virt. eigenvalues --    4.34006   4.34761   4.35311   4.35656   4.36506
 Alpha virt. eigenvalues --    4.36790   4.37205   4.37923   4.38233   4.39436
 Alpha virt. eigenvalues --    4.40304   4.41492   4.42085   4.43173   4.44850
 Alpha virt. eigenvalues --    4.46285   4.46849   4.47738   4.48297   4.50046
 Alpha virt. eigenvalues --    4.51831   4.53112   4.53745   4.54335   4.55725
 Alpha virt. eigenvalues --    4.56344   4.58067   4.58645   4.59798   4.60024
 Alpha virt. eigenvalues --    4.60694   4.62022   4.62986   4.63406   4.64650
 Alpha virt. eigenvalues --    4.65221   4.66114   4.67090   4.67856   4.68065
 Alpha virt. eigenvalues --    4.69105   4.69355   4.69850   4.70905   4.71504
 Alpha virt. eigenvalues --    4.71912   4.73010   4.73613   4.74267   4.75441
 Alpha virt. eigenvalues --    4.75775   4.76121   4.76409   4.77277   4.77508
 Alpha virt. eigenvalues --    4.77767   4.78520   4.79578   4.79807   4.81809
 Alpha virt. eigenvalues --    4.82239   4.82467   4.85458   4.86105   4.87039
 Alpha virt. eigenvalues --    4.87971   4.88928   4.91221   4.92473   4.93124
 Alpha virt. eigenvalues --    4.94228   4.94420   4.96188   4.97387   4.97736
 Alpha virt. eigenvalues --    5.00267   5.01663   5.03676   5.04987   5.06164
 Alpha virt. eigenvalues --    5.09113   5.10933   5.13032   5.15590   5.23820
 Alpha virt. eigenvalues --    5.24412   5.25891   5.29291   5.32789   5.44309
 Alpha virt. eigenvalues --    5.46359   5.97344   6.07509   6.34774   6.62511
 Alpha virt. eigenvalues --    6.74199   6.74688   6.80422   6.83867   6.85168
 Alpha virt. eigenvalues --    6.91898   6.97289   6.98361   6.99288   7.01659
 Alpha virt. eigenvalues --    7.15815  11.85342  12.04409  12.10586  12.15355
 Alpha virt. eigenvalues --   12.30541  12.41466  12.66419  12.77491  12.80333
 Alpha virt. eigenvalues --   12.96388  13.16231  13.21164  13.22434  13.28554
 Alpha virt. eigenvalues --   13.31869  13.36462  13.44440  13.48967  13.50269
 Alpha virt. eigenvalues --   13.61562  13.65514  13.71796  14.02640
          Condensed to atoms (all electrons):
              1          2          3          4          5          6
     1  O    8.238245   0.219183  -0.144669  -0.009441   0.018171   0.000758
     2  C    0.219183   6.917840  -0.849891   0.057998  -0.043850  -0.877742
     3  C   -0.144669  -0.849891   7.446042   0.066714   0.009630   0.023323
     4  O   -0.009441   0.057998   0.066714   8.226816   0.232076  -0.033441
     5  H    0.018171  -0.043850   0.009630   0.232076   0.434543   0.012754
     6  C    0.000758  -0.877742   0.023323  -0.033441   0.012754   7.652181
     7  O    0.000182   0.011504  -0.115105   0.006271  -0.000469   0.288850
     8  H    0.000001  -0.000885   0.028024  -0.000368   0.000010   0.008977
     9  C    0.005335  -0.020634  -0.224178   0.015292  -0.001453   0.134711
    10  O   -0.004179   0.015946   0.023773  -0.000176  -0.000029  -0.006528
    11  H    0.000872  -0.012327  -0.002442   0.000002   0.000000   0.000037
    12  C   -0.018164  -0.480096  -0.096887   0.002149   0.012228   0.108895
    13  O    0.002086  -0.051641  -0.067698  -0.003599   0.000249   0.003955
    14  C   -0.004750   0.538346  -0.166657   0.024750  -0.003068  -1.551763
    15  O   -0.000400  -0.005556   0.030536  -0.000220  -0.000010   0.018456
    16  C   -0.000526   0.095283  -0.140201  -0.005271   0.000431  -0.020396
    17  C    0.000702  -0.033014  -0.016355   0.000049   0.000036   0.053919
    18  O    0.000027   0.011621  -0.003015  -0.000016   0.000000   0.013658
    19  H   -0.000011  -0.002744   0.003839   0.000005   0.000000  -0.003526
    20  C    0.000027   0.003938  -0.006514  -0.000079   0.000000   0.066734
    21  O    0.000000  -0.000077   0.000048   0.000000   0.000000  -0.000169
    22  H    0.000000   0.000001   0.000001   0.000000   0.000000  -0.000025
    23  C    0.000029   0.010986  -0.018894  -0.000110   0.000007  -0.019003
    24  O   -0.000002  -0.001467  -0.005955  -0.000036  -0.000001  -0.013461
    25  H    0.000000   0.000172   0.001081   0.000004   0.000000   0.001726
    26  C   -0.000117   0.010259  -0.039112   0.000604  -0.000017   0.023879
    27  O    0.000000  -0.000210   0.000627   0.000001   0.000000  -0.000370
    28  C   -0.000002  -0.001425   0.003537   0.000014   0.000000  -0.022018
    29  O    0.000000   0.000007   0.000008   0.000000   0.000000  -0.000210
    30  H    0.000000   0.000000   0.000000   0.000000   0.000000   0.000002
    31  H    0.000000  -0.000013   0.000041   0.000000   0.000000   0.000158
    32  H    0.000000  -0.000012  -0.000646   0.000000   0.000000  -0.004485
    33  H    0.000000  -0.000142   0.000814   0.000000   0.000000  -0.003965
    34  H   -0.000002  -0.001432   0.005644   0.000005   0.000000   0.015411
    35  H    0.000000   0.000651   0.000164   0.000000   0.000000   0.008659
    36  H    0.000000   0.000113   0.000030   0.000000   0.000000   0.000790
    37  H    0.000000  -0.000001   0.000013   0.000000   0.000000  -0.000179
    38  H    0.252963   0.060919  -0.023789  -0.001611  -0.002484   0.000823
    39  H   -0.000392  -0.025230   0.003796  -0.000005   0.000000   0.004333
    40  H    0.001649   0.006917  -0.002100  -0.000052  -0.000001   0.009359
    41  H    0.002011   0.080183  -0.052795  -0.000181   0.000002  -0.019981
    42  H   -0.014883   0.353727  -0.033657  -0.000764  -0.000461   0.006048
    43  H   -0.002403   0.028211   0.257029  -0.015839  -0.005236  -0.106483
    44  H    0.000095   0.048612  -0.179360   0.001876  -0.000203   0.402146
    45  H   -0.000004   0.009804  -0.028796  -0.000065   0.000003   0.002218
              7          8          9         10         11         12
     1  O    0.000182   0.000001   0.005335  -0.004179   0.000872  -0.018164
     2  C    0.011504  -0.000885  -0.020634   0.015946  -0.012327  -0.480096
     3  C   -0.115105   0.028024  -0.224178   0.023773  -0.002442  -0.096887
     4  O    0.006271  -0.000368   0.015292  -0.000176   0.000002   0.002149
     5  H   -0.000469   0.000010  -0.001453  -0.000029   0.000000   0.012228
     6  C    0.288850   0.008977   0.134711  -0.006528   0.000037   0.108895
     7  O    8.272405   0.246681  -0.002061  -0.000002   0.000000   0.002822
     8  H    0.246681   0.341405  -0.000124   0.000000   0.000000  -0.001866
     9  C   -0.002061  -0.000124   6.554451   0.104118  -0.011909  -0.955483
    10  O   -0.000002   0.000000   0.104118   8.241220   0.231246   0.006057
    11  H    0.000000   0.000000  -0.011909   0.231246   0.446254   0.030652
    12  C    0.002822  -0.001866  -0.955483   0.006057   0.030652   8.124137
    13  O   -0.005225  -0.000857  -0.016563  -0.003774  -0.000483   0.069744
    14  C   -0.089864  -0.071448  -0.317399   0.003825  -0.002333  -0.745634
    15  O   -0.017069   0.018023  -0.015256   0.000034   0.000001   0.004196
    16  C    0.058476   0.023904  -0.099848  -0.000923   0.000128   0.099146
    17  C    0.004995   0.004056  -0.013065  -0.000236  -0.000072  -0.152359
    18  O    0.000054  -0.000040  -0.005015  -0.000105   0.000004  -0.012796
    19  H   -0.000062  -0.000002   0.004696  -0.000033  -0.000008  -0.009335
    20  C    0.000544   0.000961  -0.002397   0.000057   0.000010  -0.012621
    21  O   -0.000005   0.000000   0.000106   0.000000   0.000000   0.000020
    22  H    0.000000   0.000000  -0.000003   0.000000   0.000000   0.000007
    23  C    0.023324   0.007364  -0.003006  -0.000007   0.000000  -0.015041
    24  O   -0.040205   0.010506   0.000361   0.000000   0.000000   0.004608
    25  H    0.000772  -0.001684  -0.000009   0.000000   0.000000  -0.000177
    26  C   -0.049755  -0.022547   0.001383  -0.000035   0.000006   0.044456
    27  O    0.000151  -0.000056  -0.000035   0.000000   0.000000   0.000540
    28  C    0.000357  -0.000263  -0.000452   0.000005   0.000000   0.006663
    29  O   -0.000003   0.000000  -0.000014   0.000000   0.000000  -0.000005
    30  H    0.000000   0.000000   0.000000   0.000000   0.000000  -0.000001
    31  H   -0.000502   0.000252   0.000003   0.000000   0.000000   0.000098
    32  H    0.002036  -0.000249  -0.000032   0.000000   0.000000  -0.000554
    33  H   -0.000186   0.000039   0.000014   0.000000   0.000000   0.000348
    34  H   -0.002674   0.000148  -0.000918   0.000000   0.000000  -0.003984
    35  H   -0.000005  -0.000002  -0.000413   0.000000   0.000000  -0.002256
    36  H    0.000008   0.000000  -0.000093   0.000000   0.000000   0.000175
    37  H    0.000001   0.000000   0.000001   0.000000   0.000000   0.000071
    38  H   -0.000018   0.000000   0.004344  -0.000450  -0.000016  -0.036103
    39  H   -0.000017   0.000000   0.460217  -0.025899  -0.014346  -0.081823
    40  H    0.000000   0.000000   0.606746  -0.059268  -0.000113  -0.262483
    41  H   -0.000188   0.000001   0.095859  -0.000449  -0.000196   0.076383
    42  H    0.000129   0.000003  -0.019993  -0.001142  -0.000018  -0.087866
    43  H    0.004302  -0.000128   0.010282  -0.000032   0.000000   0.019739
    44  H   -0.028259  -0.007676   0.015539   0.000017   0.000000   0.041847
    45  H    0.000275   0.000928   0.008999   0.000020   0.000000   0.053301
             13         14         15         16         17         18
     1  O    0.002086  -0.004750  -0.000400  -0.000526   0.000702   0.000027
     2  C   -0.051641   0.538346  -0.005556   0.095283  -0.033014   0.011621
     3  C   -0.067698  -0.166657   0.030536  -0.140201  -0.016355  -0.003015
     4  O   -0.003599   0.024750  -0.000220  -0.005271   0.000049  -0.000016
     5  H    0.000249  -0.003068  -0.000010   0.000431   0.000036   0.000000
     6  C    0.003955  -1.551763   0.018456  -0.020396   0.053919   0.013658
     7  O   -0.005225  -0.089864  -0.017069   0.058476   0.004995   0.000054
     8  H   -0.000857  -0.071448   0.018023   0.023904   0.004056  -0.000040
     9  C   -0.016563  -0.317399  -0.015256  -0.099848  -0.013065  -0.005015
    10  O   -0.003774   0.003825   0.000034  -0.000923  -0.000236  -0.000105
    11  H   -0.000483  -0.002333   0.000001   0.000128  -0.000072   0.000004
    12  C    0.069744  -0.745634   0.004196   0.099146  -0.152359  -0.012796
    13  O    8.274042   0.126649  -0.062418  -0.000541   0.033560  -0.050557
    14  C    0.126649   9.066464   0.177326  -0.668724  -0.094627  -0.011251
    15  O   -0.062418   0.177326   8.116002   0.153912  -0.046910   0.006514
    16  C   -0.000541  -0.668724   0.153912  12.124548  -2.552665  -0.063105
    17  C    0.033560  -0.094627  -0.046910  -2.552665   8.016122   0.228595
    18  O   -0.050557  -0.011251   0.006514  -0.063105   0.228595   8.242831
    19  H    0.022287   0.007046   0.008425  -0.075477   0.054623   0.234248
    20  C   -0.017907  -0.210652   0.000887  -1.699534   0.688225  -0.019001
    21  O   -0.000229   0.003622   0.000083   0.072248  -0.085501   0.003155
    22  H    0.000000  -0.000775  -0.000009  -0.010935   0.000284   0.000229
    23  C    0.002767  -0.097702  -0.004952   0.173134  -0.223046   0.010228
    24  O   -0.001477   0.122308  -0.008994  -0.007993  -0.004914   0.000015
    25  H   -0.000010  -0.010677   0.001349  -0.022211  -0.001192  -0.000002
    26  C   -0.008285  -0.768450  -0.029702  -3.178635   0.538516   0.003973
    27  O    0.000608   0.018885   0.000959   0.157531  -0.058478   0.000221
    28  C    0.003120   0.059027   0.004758   1.038305  -0.383553  -0.018633
    29  O    0.000023  -0.001772  -0.000074  -0.027083  -0.009738   0.000035
    30  H    0.000000   0.000050  -0.000002   0.000587   0.008638  -0.000013
    31  H    0.000023   0.009937   0.000048   0.000665   0.001695   0.000012
    32  H    0.000128  -0.008412   0.000392   0.100403  -0.006229   0.000097
    33  H   -0.000056   0.024335  -0.000301   0.040912  -0.086233   0.000489
    34  H   -0.002610  -0.064630  -0.039964   0.121963   0.029159   0.000983
    35  H   -0.000619  -0.012050  -0.005406  -0.115893   0.315778  -0.024870
    36  H    0.000071  -0.008438  -0.000003   0.121461  -0.164713   0.008645
    37  H    0.000018   0.001274   0.000131   0.076132  -0.021134   0.000526
    38  H   -0.000536  -0.001231   0.000001   0.000094  -0.000055  -0.000001
    39  H    0.002814  -0.000573   0.000109  -0.003316   0.002021  -0.000533
    40  H   -0.005441   0.002648  -0.000735  -0.006069   0.002518  -0.000299
    41  H   -0.029235   0.114140  -0.003106  -0.013149   0.005381  -0.000281
    42  H    0.006940   0.066700  -0.000453  -0.002792   0.001494   0.000026
    43  H    0.005596   0.059645  -0.000358  -0.000282   0.000507   0.000023
    44  H    0.015355  -0.060836  -0.010851   0.008013  -0.002143   0.000118
    45  H   -0.021580   0.225076  -0.040166   0.026839   0.001629  -0.000933
             19         20         21         22         23         24
     1  O   -0.000011   0.000027   0.000000   0.000000   0.000029  -0.000002
     2  C   -0.002744   0.003938  -0.000077   0.000001   0.010986  -0.001467
     3  C    0.003839  -0.006514   0.000048   0.000001  -0.018894  -0.005955
     4  O    0.000005  -0.000079   0.000000   0.000000  -0.000110  -0.000036
     5  H    0.000000   0.000000   0.000000   0.000000   0.000007  -0.000001
     6  C   -0.003526   0.066734  -0.000169  -0.000025  -0.019003  -0.013461
     7  O   -0.000062   0.000544  -0.000005   0.000000   0.023324  -0.040205
     8  H   -0.000002   0.000961   0.000000   0.000000   0.007364   0.010506
     9  C    0.004696  -0.002397   0.000106  -0.000003  -0.003006   0.000361
    10  O   -0.000033   0.000057   0.000000   0.000000  -0.000007   0.000000
    11  H   -0.000008   0.000010   0.000000   0.000000   0.000000   0.000000
    12  C   -0.009335  -0.012621   0.000020   0.000007  -0.015041   0.004608
    13  O    0.022287  -0.017907  -0.000229   0.000000   0.002767  -0.001477
    14  C    0.007046  -0.210652   0.003622  -0.000775  -0.097702   0.122308
    15  O    0.008425   0.000887   0.000083  -0.000009  -0.004952  -0.008994
    16  C   -0.075477  -1.699534   0.072248  -0.010935   0.173134  -0.007993
    17  C    0.054623   0.688225  -0.085501   0.000284  -0.223046  -0.004914
    18  O    0.234248  -0.019001   0.003155   0.000229   0.010228   0.000015
    19  H    0.385625   0.005711  -0.000057   0.000018  -0.002838   0.000012
    20  C    0.005711   6.813413   0.067392   0.008943   0.070001  -0.007776
    21  O   -0.000057   0.067392   8.228474   0.228629  -0.000261   0.000013
    22  H    0.000018   0.008943   0.228629   0.439422  -0.000030   0.000000
    23  C   -0.002838   0.070001  -0.000261  -0.000030   6.080961   0.004508
    24  O    0.000012  -0.007776   0.000013   0.000000   0.004508   8.346319
    25  H    0.000000   0.000753   0.000000   0.000000  -0.006862   0.243892
    26  C    0.000726   0.763378  -0.036844   0.007270  -0.681211   0.004387
    27  O   -0.000005  -0.129537   0.002214  -0.000636  -0.084457   0.002047
    28  C    0.005240  -0.684817   0.064443  -0.011989  -0.091197   0.008916
    29  O    0.000001  -0.038657  -0.005042   0.013089   0.009330  -0.000014
    30  H    0.000000  -0.018234  -0.000978  -0.001774  -0.000549  -0.000001
    31  H    0.000000  -0.000502  -0.000009   0.000000   0.378810  -0.024058
    32  H    0.000000   0.001028  -0.000002   0.000000   0.607766  -0.058846
    33  H    0.000019  -0.006169  -0.000023   0.000003   0.103839   0.003019
    34  H    0.000111   0.075913  -0.000370   0.000004   0.000597   0.000369
    35  H   -0.003520  -0.002985  -0.000003  -0.000215   0.015371   0.000015
    36  H   -0.000079   0.257501  -0.014406  -0.004926   0.007648   0.000020
    37  H    0.000004  -0.147325   0.002442  -0.000311  -0.001666   0.000030
    38  H    0.000000   0.000000   0.000000   0.000000   0.000001   0.000000
    39  H    0.001632  -0.001044  -0.000001   0.000000  -0.000020   0.000000
    40  H    0.000124   0.000127   0.000000   0.000000  -0.000023   0.000000
    41  H    0.000191   0.000539  -0.000001   0.000000   0.000066   0.000000
    42  H    0.000000   0.000033   0.000000   0.000000   0.000054   0.000003
    43  H    0.000000  -0.000025   0.000000   0.000000   0.000138   0.000022
    44  H    0.000001   0.000689   0.000000   0.000000   0.001284   0.000387
    45  H    0.000126   0.011274   0.000008   0.000000   0.004919  -0.000314
             25         26         27         28         29         30
     1  O    0.000000  -0.000117   0.000000  -0.000002   0.000000   0.000000
     2  C    0.000172   0.010259  -0.000210  -0.001425   0.000007   0.000000
     3  C    0.001081  -0.039112   0.000627   0.003537   0.000008   0.000000
     4  O    0.000004   0.000604   0.000001   0.000014   0.000000   0.000000
     5  H    0.000000  -0.000017   0.000000   0.000000   0.000000   0.000000
     6  C    0.001726   0.023879  -0.000370  -0.022018  -0.000210   0.000002
     7  O    0.000772  -0.049755   0.000151   0.000357  -0.000003   0.000000
     8  H   -0.001684  -0.022547  -0.000056  -0.000263   0.000000   0.000000
     9  C   -0.000009   0.001383  -0.000035  -0.000452  -0.000014   0.000000
    10  O    0.000000  -0.000035   0.000000   0.000005   0.000000   0.000000
    11  H    0.000000   0.000006   0.000000   0.000000   0.000000   0.000000
    12  C   -0.000177   0.044456   0.000540   0.006663  -0.000005  -0.000001
    13  O   -0.000010  -0.008285   0.000608   0.003120   0.000023   0.000000
    14  C   -0.010677  -0.768450   0.018885   0.059027  -0.001772   0.000050
    15  O    0.001349  -0.029702   0.000959   0.004758  -0.000074  -0.000002
    16  C   -0.022211  -3.178635   0.157531   1.038305  -0.027083   0.000587
    17  C   -0.001192   0.538516  -0.058478  -0.383553  -0.009738   0.008638
    18  O   -0.000002   0.003973   0.000221  -0.018633   0.000035  -0.000013
    19  H    0.000000   0.000726  -0.000005   0.005240   0.000001   0.000000
    20  C    0.000753   0.763378  -0.129537  -0.684817  -0.038657  -0.018234
    21  O    0.000000  -0.036844   0.002214   0.064443  -0.005042  -0.000978
    22  H    0.000000   0.007270  -0.000636  -0.011989   0.013089  -0.001774
    23  C   -0.006862  -0.681211  -0.084457  -0.091197   0.009330  -0.000549
    24  O    0.243892   0.004387   0.002047   0.008916  -0.000014  -0.000001
    25  H    0.415212   0.035493  -0.000744  -0.001256  -0.000002   0.000000
    26  C    0.035493  10.379850   0.005504  -0.896057  -0.008974   0.000405
    27  O   -0.000744   0.005504   8.179683   0.225566  -0.026022   0.002069
    28  C   -0.001256  -0.896057   0.225566   5.781914   0.266858  -0.003223
    29  O   -0.000002  -0.008974  -0.026022   0.266858   8.134249   0.263805
    30  H    0.000000   0.000405   0.002069  -0.003223   0.263805   0.421191
    31  H   -0.009450  -0.011371  -0.013576  -0.001397  -0.000238   0.000000
    32  H   -0.000738  -0.340527   0.005140   0.005608  -0.000095   0.000000
    33  H   -0.000182   0.140696  -0.022245   0.052148  -0.000870   0.000010
    34  H   -0.000016   0.101381   0.004584  -0.006150  -0.000518   0.000002
    35  H    0.000000   0.081287   0.001662  -0.033479   0.000885   0.000013
    36  H    0.000000  -0.011925   0.002378   0.061575   0.003626  -0.000100
    37  H    0.000000  -0.033681  -0.041489   0.464872  -0.021442  -0.008850
    38  H    0.000000  -0.000002   0.000000   0.000000   0.000000   0.000000
    39  H    0.000000  -0.000222   0.000000   0.000030   0.000000   0.000000
    40  H    0.000000  -0.000217   0.000000  -0.000002   0.000000   0.000000
    41  H    0.000000  -0.000452   0.000000  -0.000038   0.000000   0.000000
    42  H    0.000000  -0.000164   0.000000  -0.000004   0.000000   0.000000
    43  H    0.000000   0.000083   0.000000   0.000000   0.000000   0.000000
    44  H   -0.000005   0.003653  -0.000003  -0.000022   0.000000   0.000000
    45  H    0.000003   0.024114   0.000175  -0.001564  -0.000004   0.000000
             31         32         33         34         35         36
     1  O    0.000000   0.000000   0.000000  -0.000002   0.000000   0.000000
     2  C   -0.000013  -0.000012  -0.000142  -0.001432   0.000651   0.000113
     3  C    0.000041  -0.000646   0.000814   0.005644   0.000164   0.000030
     4  O    0.000000   0.000000   0.000000   0.000005   0.000000   0.000000
     5  H    0.000000   0.000000   0.000000   0.000000   0.000000   0.000000
     6  C    0.000158  -0.004485  -0.003965   0.015411   0.008659   0.000790
     7  O   -0.000502   0.002036  -0.000186  -0.002674  -0.000005   0.000008
     8  H    0.000252  -0.000249   0.000039   0.000148  -0.000002   0.000000
     9  C    0.000003  -0.000032   0.000014  -0.000918  -0.000413  -0.000093
    10  O    0.000000   0.000000   0.000000   0.000000   0.000000   0.000000
    11  H    0.000000   0.000000   0.000000   0.000000   0.000000   0.000000
    12  C    0.000098  -0.000554   0.000348  -0.003984  -0.002256   0.000175
    13  O    0.000023   0.000128  -0.000056  -0.002610  -0.000619   0.000071
    14  C    0.009937  -0.008412   0.024335  -0.064630  -0.012050  -0.008438
    15  O    0.000048   0.000392  -0.000301  -0.039964  -0.005406  -0.000003
    16  C    0.000665   0.100403   0.040912   0.121963  -0.115893   0.121461
    17  C    0.001695  -0.006229  -0.086233   0.029159   0.315778  -0.164713
    18  O    0.000012   0.000097   0.000489   0.000983  -0.024870   0.008645
    19  H    0.000000   0.000000   0.000019   0.000111  -0.003520  -0.000079
    20  C   -0.000502   0.001028  -0.006169   0.075913  -0.002985   0.257501
    21  O   -0.000009  -0.000002  -0.000023  -0.000370  -0.000003  -0.014406
    22  H    0.000000   0.000000   0.000003   0.000004  -0.000215  -0.004926
    23  C    0.378810   0.607766   0.103839   0.000597   0.015371   0.007648
    24  O   -0.024058  -0.058846   0.003019   0.000369   0.000015   0.000020
    25  H   -0.009450  -0.000738  -0.000182  -0.000016   0.000000   0.000000
    26  C   -0.011371  -0.340527   0.140696   0.101381   0.081287  -0.011925
    27  O   -0.013576   0.005140  -0.022245   0.004584   0.001662   0.002378
    28  C   -0.001397   0.005608   0.052148  -0.006150  -0.033479   0.061575
    29  O   -0.000238  -0.000095  -0.000870  -0.000518   0.000885   0.003626
    30  H    0.000000   0.000000   0.000010   0.000002   0.000013  -0.000100
    31  H    0.572385  -0.043097  -0.003870   0.000136   0.000002   0.000000
    32  H   -0.043097   0.579217   0.005977   0.003542  -0.000011  -0.000032
    33  H   -0.003870   0.005977   0.615123   0.006592   0.002849  -0.000091
    34  H    0.000136   0.003542   0.006592   0.646199   0.007543   0.001936
    35  H    0.000002  -0.000011   0.002849   0.007543   0.649826   0.006331
    36  H    0.000000  -0.000032  -0.000091   0.001936   0.006331   0.595872
    37  H   -0.000040  -0.000014   0.003023  -0.000048   0.002665   0.004547
    38  H    0.000000   0.000000   0.000000   0.000000   0.000000   0.000000
    39  H    0.000000   0.000000   0.000000  -0.000001   0.000000   0.000000
    40  H    0.000000   0.000000   0.000000   0.000000   0.000000   0.000000
    41  H    0.000000   0.000000   0.000000  -0.000011   0.000000   0.000000
    42  H    0.000000   0.000000   0.000000   0.000000   0.000000   0.000000
    43  H    0.000000   0.000000   0.000000  -0.000003   0.000000   0.000000
    44  H    0.000000  -0.000002  -0.000006  -0.000032  -0.000005   0.000000
    45  H    0.000000   0.000056  -0.000005   0.007070  -0.000014  -0.000015
             37         38         39         40         41         42
     1  O    0.000000   0.252963  -0.000392   0.001649   0.002011  -0.014883
     2  C   -0.000001   0.060919  -0.025230   0.006917   0.080183   0.353727
     3  C    0.000013  -0.023789   0.003796  -0.002100  -0.052795  -0.033657
     4  O    0.000000  -0.001611  -0.000005  -0.000052  -0.000181  -0.000764
     5  H    0.000000  -0.002484   0.000000  -0.000001   0.000002  -0.000461
     6  C   -0.000179   0.000823   0.004333   0.009359  -0.019981   0.006048
     7  O    0.000001  -0.000018  -0.000017   0.000000  -0.000188   0.000129
     8  H    0.000000   0.000000   0.000000   0.000000   0.000001   0.000003
     9  C    0.000001   0.004344   0.460217   0.606746   0.095859  -0.019993
    10  O    0.000000  -0.000450  -0.025899  -0.059268  -0.000449  -0.001142
    11  H    0.000000  -0.000016  -0.014346  -0.000113  -0.000196  -0.000018
    12  C    0.000071  -0.036103  -0.081823  -0.262483   0.076383  -0.087866
    13  O    0.000018  -0.000536   0.002814  -0.005441  -0.029235   0.006940
    14  C    0.001274  -0.001231  -0.000573   0.002648   0.114140   0.066700
    15  O    0.000131   0.000001   0.000109  -0.000735  -0.003106  -0.000453
    16  C    0.076132   0.000094  -0.003316  -0.006069  -0.013149  -0.002792
    17  C   -0.021134  -0.000055   0.002021   0.002518   0.005381   0.001494
    18  O    0.000526  -0.000001  -0.000533  -0.000299  -0.000281   0.000026
    19  H    0.000004   0.000000   0.001632   0.000124   0.000191   0.000000
    20  C   -0.147325   0.000000  -0.001044   0.000127   0.000539   0.000033
    21  O    0.002442   0.000000  -0.000001   0.000000  -0.000001   0.000000
    22  H   -0.000311   0.000000   0.000000   0.000000   0.000000   0.000000
    23  C   -0.001666   0.000001  -0.000020  -0.000023   0.000066   0.000054
    24  O    0.000030   0.000000   0.000000   0.000000   0.000000   0.000003
    25  H    0.000000   0.000000   0.000000   0.000000   0.000000   0.000000
    26  C   -0.033681  -0.000002  -0.000222  -0.000217  -0.000452  -0.000164
    27  O   -0.041489   0.000000   0.000000   0.000000   0.000000   0.000000
    28  C    0.464872   0.000000   0.000030  -0.000002  -0.000038  -0.000004
    29  O   -0.021442   0.000000   0.000000   0.000000   0.000000   0.000000
    30  H   -0.008850   0.000000   0.000000   0.000000   0.000000   0.000000
    31  H   -0.000040   0.000000   0.000000   0.000000   0.000000   0.000000
    32  H   -0.000014   0.000000   0.000000   0.000000   0.000000   0.000000
    33  H    0.003023   0.000000   0.000000   0.000000   0.000000   0.000000
    34  H   -0.000048   0.000000  -0.000001   0.000000  -0.000011   0.000000
    35  H    0.002665   0.000000   0.000000   0.000000   0.000000   0.000000
    36  H    0.004547   0.000000   0.000000   0.000000   0.000000   0.000000
    37  H    0.583555   0.000000   0.000000   0.000000   0.000000   0.000000
    38  H    0.000000   0.421172   0.000000  -0.000120  -0.000167  -0.012213
    39  H    0.000000   0.000000   0.599515  -0.048574  -0.003672   0.000156
    40  H    0.000000  -0.000120  -0.048574   0.609339   0.006584   0.004955
    41  H    0.000000  -0.000167  -0.003672   0.006584   0.616871   0.005996
    42  H    0.000000  -0.012213   0.000156   0.004955   0.005996   0.590964
    43  H    0.000000   0.000125   0.000007  -0.000009   0.000912   0.004725
    44  H    0.000000   0.000020   0.000001  -0.000037  -0.000090   0.001406
    45  H    0.000000   0.000001  -0.000042  -0.000009   0.001608  -0.000029
             43         44         45
     1  O   -0.002403   0.000095  -0.000004
     2  C    0.028211   0.048612   0.009804
     3  C    0.257029  -0.179360  -0.028796
     4  O   -0.015839   0.001876  -0.000065
     5  H   -0.005236  -0.000203   0.000003
     6  C   -0.106483   0.402146   0.002218
     7  O    0.004302  -0.028259   0.000275
     8  H   -0.000128  -0.007676   0.000928
     9  C    0.010282   0.015539   0.008999
    10  O   -0.000032   0.000017   0.000020
    11  H    0.000000   0.000000   0.000000
    12  C    0.019739   0.041847   0.053301
    13  O    0.005596   0.015355  -0.021580
    14  C    0.059645  -0.060836   0.225076
    15  O   -0.000358  -0.010851  -0.040166
    16  C   -0.000282   0.008013   0.026839
    17  C    0.000507  -0.002143   0.001629
    18  O    0.000023   0.000118  -0.000933
    19  H    0.000000   0.000001   0.000126
    20  C   -0.000025   0.000689   0.011274
    21  O    0.000000   0.000000   0.000008
    22  H    0.000000   0.000000   0.000000
    23  C    0.000138   0.001284   0.004919
    24  O    0.000022   0.000387  -0.000314
[...]
 065922,0.00011241,0.00000705,0.00005865,0.00003469,-0.00003614,-0.0000
 2938,-0.00803161,-0.00002273,0.00100840,0.00093510,0.00042570,0.001206
 41,0.00004011,-0.00028606,-0.00011239,0.00007313,0.00004632,0.00011317
 ,0.00000127,0.00000758,-0.00000182,-0.00001433,0.00000868,0.00000030,0
 .00003138,-0.00003595,0.00002099,-0.00004956,0.00004001,-0.00000243,-0
 .00000665,-0.00000079,0.00000053,0.00000730,-0.00000093,0.00000168,-0.
 00000222,-0.00000056,-0.00000100,-0.00001113,-0.00000498,0.00000345,0.
 00001970,0.00001157,0.00000688,-0.00000663,-0.00000103,0.00000177,-0.0
 0001277,-0.00000572,0.00000199,0.00000875,0.00000196,-0.00000068,-0.00
 000605,0.00000117,0.00000252,0.00000442,-0.00000001,-0.00000421,-0.000
 00091,-0.00000011,0.00000090,0.00000024,0.00000005,-0.00000060,0.00000
 387,0.00000099,-0.00000091,0.00000483,0.00000039,0.00000429,0.00000805
 ,0.00000005,-0.00000819,0.00000419,0.00000065,0.00000637,0.00000276,0.
 00000033,-0.00000185,0.00000174,0.00000035,0.00000086,0.00098488,0.000
 06390,-0.00037070,0.00051414,0.00019048,-0.00003861,0.00089764,-0.0002
 7220,-0.00013653,0.00052636,-0.00044186,0.00079245,0.37729070,-0.00963
 281,0.00012547,-0.00235817,-0.01608777,-0.04337121,0.00266110,0.030852
 95,-0.00105282,-0.00449583,-0.00066867,0.00358674,-0.00083760,0.000451
 02,-0.00034805,0.00031597,0.00103301,0.00087715,0.00148753,-0.00055346
 ,-0.00021953,-0.00032798,0.00001618,-0.00007552,0.00004325,-0.00309954
 ,0.00099963,0.00009140,0.00044918,0.00014569,0.00017170,-0.00000080,-0
 .00009308,-0.00002651,-0.02371761,-0.00335724,0.00466248,0.00134726,0.
 00102303,-0.00015292,0.00034069,-0.00077582,-0.00004160,0.00000153,0.0
 0017170,-0.00000603,-0.00002373,0.00001858,-0.00002905,0.00000547,-0.0
 0000673,-0.00001713,0.00002282,-0.00002922,0.00001398,-0.00004957,0.00
 006340,-0.00001280,-0.00000668,0.00000257,-0.00000088,0.00000412,-0.00
 000023,0.00000021,-0.00000106,0.00000008,-0.00000057,0.00000083,-0.000
 01067,0.00000930,-0.00002153,-0.00001577,-0.00004620,0.00000932,0.0000
 0543,-0.00000261,0.00000203,-0.00000369,0.00000417,-0.00000182,0.00000
 458,-0.00000202,0.00000189,-0.00000382,0.00000302,0.00000098,0.0000002
 3,-0.00000234,0.00000012,0.00000049,0.00000054,0.00000010,0.00000200,-
 0.00000348,-0.00000174,-0.00000002,0.00000299,-0.00000127,0.00000128,-
 0.00000114,-0.00000153,-0.00000653,0.00000631,0.00000083,0.00000355,0.
 00000306,0.00000150,-0.00000084,-0.00000136,-0.00000004,0.00000107,0.0
 0000023,-0.00035871,0.00129457,0.00053850,0.00033722,0.00037082,-0.000
 15906,0.00107036,-0.00064523,0.00013949,-0.00100573,-0.00269592,0.0029
 8500,0.01847164,0.04873086,-0.03919415,-0.00426732,-0.01115958,0.05411
 693,0.00073686,-0.05261886,0.01035902,0.00270190,-0.00041977,-0.001464
 22,0.00153588,0.00029355,-0.00049556,-0.00018844,0.00002794,0.00075343
 ,0.00046141,0.00051738,-0.00028070,-0.00013478,-0.00006547,0.00002059,
 0.00000431,0.00001906,0.00128037,-0.00149307,0.00054016,-0.00025787,0.
 00004268,-0.00006279,0.00004328,0.00001283,0.00008508,0.02441448,0.003
 46095,-0.00201107,-0.00144676,-0.00079535,0.00164227,0.00021091,0.0000
 1840,0.00005517,-0.00008669,-0.00005742,-0.00021861,-0.00001919,-0.000
 04266,0.00003142,0.00002399,0.00000624,0.00002267,-0.00004639,0.000008
 01,-0.00004204,0.00007332,-0.00002336,0.00003102,0.00000255,-0.0000078
 6,0.00000977,-0.00000975,0.00001101,-0.00001485,0.00000244,-0.00000070
 ,0.00000269,0.00000805,0.00000769,-0.00000048,-0.00001751,-0.00001940,
 -0.00001714,0.00000593,0.00000439,0.00000037,0.00001423,0.00001557,0.0
 0001355,-0.00000777,0.00000205,-0.00002349,0.00000575,-0.00000557,0.00
 002339,0.00000294,0.00000024,-0.00001695,0.00000107,0.00000032,0.00000
 309,-0.00000081,-0.00000306,-0.00000254,-0.00000457,0.00000094,0.00000
 272,-0.00000558,-0.00000270,-0.00000639,-0.00001169,0.00000300,0.00001
 060,-0.00000953,-0.00000497,-0.00001294,-0.00000457,0.00000064,0.00000
 301,-0.00000205,-0.00000034,-0.00000262,-0.00240139,0.00023312,0.00354
 048,-0.00020255,-0.00022453,-0.00000296,-0.00092517,0.00025573,0.00022
 412,0.00052238,0.00306937,-0.00328759,-0.04491266,-0.00321069,0.063549
 23,0.00211235,-0.00136557,-0.00142461,-0.01308661,0.00080908,-0.003331
 93,-0.34540773,0.01077770,-0.05337570,-0.01433115,-0.00916986,0.007503
 83,0.00028806,-0.00065563,-0.00031728,-0.00588598,0.00131772,-0.002441
 97,0.00100397,-0.00071695,-0.00061785,0.00007522,-0.00003488,0.0001213
 0,0.00028460,0.00038635,-0.00035028,0.00003977,-0.00002772,0.00004314,
 -0.00000126,-0.00001380,0.00000915,-0.00083484,-0.00022693,0.00053479,
 0.00027949,0.00009316,0.00013622,-0.00060072,-0.00052872,-0.00015905,0
 .00025783,0.00009870,-0.00025114,-0.00009545,0.00001613,-0.00003744,0.
 00001774,-0.00002188,-0.00004320,0.00002435,0.00001237,0.00002893,-0.0
 0001859,0.00000244,-0.00000670,-0.00002020,0.00000426,0.00000580,0.000
 01081,0.00000917,-0.00000204,-0.00000453,-0.00000100,-0.00000297,-0.00
 004099,-0.00003263,0.00003125,0.00002305,0.00002093,-0.00004950,-0.000
 01247,-0.00000356,0.00000531,0.00000015,0.00000410,0.00000570,0.000011
 18,0.00001557,-0.00002285,-0.00000341,-0.00001593,0.00001048,0.0000062
 2,0.00000487,-0.00000768,-0.00000069,-0.00000086,0.00000079,0.00000432
 ,0.00000272,-0.00000455,0.00001050,0.00000462,-0.00000147,0.00000583,-
 0.00000166,0.00000538,0.00000952,0.,-0.00002848,0.00000632,0.00000003,
 0.00000686,0.00000430,0.00000023,-0.00000302,0.00000182,0.00000134,0.0
 0000078,0.00062514,-0.00069795,-0.00029789,-0.00001930,0.00015940,0.00
 000218,0.00018998,-0.00020715,0.00000439,0.00073826,0.00039014,-0.0002
 5892,0.00002719,0.00135193,0.00018125,0.37336215,-0.00052901,0.0024156
 6,0.00207928,0.03135365,-0.00264921,0.00375880,0.01098767,-0.04243059,
 -0.00075583,-0.03153571,-0.00739028,0.00493884,0.00034909,0.00053502,-
 0.00109291,-0.00898343,0.00202014,-0.00331174,0.00024900,0.00051644,0.
 00162192,0.00001773,0.00001987,-0.00005383,0.00020042,-0.00012139,0.00
 010500,-0.00007174,-0.00003091,-0.00007925,-0.00000155,0.00003708,0.00
 000415,0.00046395,0.00197834,-0.00067452,-0.00015586,-0.00028396,0.000
 39995,0.00029958,-0.00037511,-0.00002767,0.00004976,0.00002872,-0.0002
 8513,-0.00003305,0.00003843,-0.00004584,0.00001578,-0.00004301,-0.0000
 5321,-0.00000968,0.00001191,0.00007434,-0.00000911,0.00001810,-0.00006
 731,-0.00000144,0.00001456,0.00000591,0.00000199,-0.00000061,-0.000002
 11,-0.00000106,0.00000277,-0.00000095,-0.00000119,0.00002530,-0.000025
 71,0.00003787,0.00002196,0.00008807,-0.00001814,-0.00000806,-0.0000008
 9,-0.00000439,0.00003182,-0.00000102,0.00000373,-0.00001728,-0.0000032
 6,-0.00000191,0.00000171,-0.00000565,-0.00000156,-0.00000057,0.0000078
 9,-0.00000050,0.00000014,-0.00000148,0.00000030,-0.00000394,0.00000592
 ,0.00000436,0.00000137,-0.00000542,0.00000174,-0.00000459,0.00000026,0
 .00000505,0.00000399,-0.00000734,0.00000190,0.00000306,0.00000287,-0.0
 0000016,-0.00000020,0.00000054,0.00000024,-0.00000050,0.00000038,-0.00
 004953,0.00028805,0.00032960,-0.00013649,-0.00013667,0.00000762,-0.000
 33856,-0.00003465,0.00005530,-0.00034906,-0.00047378,0.00033248,0.0013
 0820,-0.00457301,-0.00191797,-0.00225074,0.05008020,0.00160745,-0.0002
 5303,0.00021789,0.00733710,-0.00386935,0.00092036,-0.05866782,-0.00024
 478,-0.05212373,0.02731116,0.00993167,-0.00234829,0.00106066,-0.000257
 91,0.00128556,-0.03580424,0.00067352,-0.00599411,0.00264862,-0.0000419
 7,0.00208256,-0.00003537,0.00025396,0.00021857,0.00004144,-0.00006578,
 0.00016391,-0.00001323,0.00002347,0.00000203,-0.00000376,0.00001806,-0
 .00000012,-0.00047855,-0.00016412,-0.00061132,0.00005661,0.00050312,-0
 .00013439,-0.00064311,-0.00089226,0.00136424,0.00037038,0.00008105,-0.
 00049804,0.00002524,0.00006240,0.00004816,0.00005282,-0.00004556,-0.00
 006918,0.00001030,0.00004513,0.00000991,-0.00000043,-0.00004885,0.0000
 1168,-0.00003225,-0.00000028,0.00002561,0.00000655,0.00003041,-0.00002
 865,-0.00000389,-0.00000025,-0.00000129,-0.00003098,0.00001200,0.00001
 103,0.00003170,0.00000211,0.00003480,-0.00000207,0.00000596,-0.0000041
 9,-0.00000016,0.00004589,0.00005318,0.00001121,0.00001019,-0.00007216,
 0.00000154,-0.00002728,0.00004835,0.00001282,0.00000508,-0.00003433,0.
 00000065,0.00000030,0.00000544,0.00000321,-0.00000777,-0.00000412,0.00
 000812,0.00000410,0.00000062,0.00000402,-0.00000698,0.00000263,0.00003
 519,0.00001615,-0.00007283,0.00000150,0.00000083,0.00000459,0.00000098
 ,0.00000123,-0.00000272,0.00000015,0.00000168,-0.00000146,0.00017277,-
 0.00007633,0.00002665,-0.00001190,-0.00010263,0.00000931,-0.00003210,0
 .00001229,-0.00001703,-0.00002760,0.00020292,0.00011963,0.00058777,-0.
 00095380,-0.00048765,0.05539516,-0.00399472,0.06230411,0.00052756,0.00
 004563,-0.00012337,-0.00056373,0.00065850,0.00013233,-0.01235818,-0.00
 375125,-0.00283754,0.00147816,0.00052616,0.00100625,0.00039385,0.00006
 631,0.00023742,-0.34818031,-0.04018485,-0.01545326,-0.01382892,0.01236
 438,0.00912996,0.00037051,0.00067341,-0.00119667,-0.00009051,-0.000058
 64,0.00002267,0.00003463,0.00006949,0.00004173,-0.00000568,-0.00001162
 ,0.00000262,-0.00024985,-0.00044918,-0.00021897,0.00229030,0.00050750,
 -0.00087360,-0.01127192,-0.00114801,0.00053636,0.00129762,0.00058375,-
 0.00238618,0.00048171,0.00032276,-0.00015489,0.00012136,0.00002985,-0.
 00006351,0.00003221,-0.00000630,-0.00009248,-0.00000213,-0.00006418,0.
 00005623,-0.00005978,0.00003675,0.00003657,0.00001977,0.00000452,-0.00
 004901,-0.00000660,0.00000905,-0.00000209,-0.00001142,0.00018957,-0.00
 016019,0.00012682,-0.00000356,0.00048671,-0.00006330,-0.00004363,-0.00
 003756,0.00000112,0.00016195,0.00007653,0.00002121,-0.00011204,-0.0000
 5054,-0.00001267,0.00005140,0.00002009,0.00001047,-0.00001654,-0.00002
 130,-0.00000066,0.00000264,0.00000274,0.00001296,-0.00003830,0.0000396
 5,0.00003105,-0.00000116,-0.00003737,0.00000762,-0.00001884,0.00000511
 ,0.00008377,0.00007561,-0.00038371,-0.00000577,-0.00001935,0.00000689,
 0.00000568,0.00000226,-0.00000126,0.00000491,-0.00000319,0.00000211,0.
 00000286,-0.00013225,-0.00011295,0.00002084,-0.00001579,-0.00001285,0.
 00005877,-0.00002697,-0.00001076,0.00009354,0.00010773,0.00001674,0.00
 060527,-0.00047489,-0.00011804,0.00076722,-0.00085879,-0.00131795,0.37
 753934,0.00009760,-0.00001516,0.00016350,-0.00075836,0.00012504,0.0001
 8853,-0.00771175,0.00125415,-0.00227229,0.00112293,0.00018758,0.000211
 28,0.00000363,-0.00011560,0.00002713,-0.04068753,-0.04224135,0.0022119
 7,0.04217180,-0.01344418,-0.01216723,0.00105936,0.00126217,0.00162945,
 -0.00010924,-0.00001770,0.00002261,0.00004032,0.00000748,0.00003236,-0
 .00000334,-0.00000456,-0.00000593,-0.00018553,-0.00039761,-0.00022107,
 0.00035231,0.00167443,-0.00000474,-0.02802445,-0.00606412,0.00188126,0
 .00025479,0.00078258,-0.00192694,-0.00036728,0.00027129,-0.00001591,0.
 00011147,-0.00004812,-0.00018861,0.00010300,-0.00002079,0.00006120,-0.
 00007336,-0.00000453,0.00001794,-0.00004525,0.00003143,0.00001506,0.00
 001361,0.00002867,-0.00002179,-0.00000440,0.00000085,-0.00000376,0.000
 03252,-0.00003703,0.00013468,-0.00024504,-0.00011748,-0.00023069,0.000
 09168,0.00005142,0.00001797,0.00011289,-0.00002008,0.00001164,-0.00000
 943,0.00004920,-0.00007258,0.00000978,-0.00005600,0.00003351,0.0000069
 9,0.00001385,-0.00002054,0.00000110,-0.00000025,0.00000339,-0.00002286
 ,-0.00000244,-0.00001488,-0.00004122,-0.00002274,0.00006057,-0.0000012
 4,0.00003576,0.00002451,0.00028605,-0.00000640,-0.00000147,0.00001921,
 -0.00001686,0.00003152,0.00000774,0.00000200,-0.00000809,-0.00000223,0
 .00000564,-0.00000118,0.00002264,0.00004486,0.00001546,0.00001320,-0.0
 0002321,0.00000489,0.00006506,-0.00003490,-0.00002558,0.00011324,0.000
 16002,0.00005666,0.00011524,-0.00008112,-0.00024413,0.00024649,0.00037
 881,-0.00128247,0.03144450,0.05906896,0.00061996,0.00011143,-0.0001458
 9,-0.00062631,0.00032199,0.00076466,-0.03713282,-0.00551043,-0.0076079
 5,0.00072586,-0.00021727,0.00300186,0.00011668,-0.00011696,0.00056841,
 -0.02083972,0.00161796,-0.04191848,0.01732763,-0.01065986,-0.00303866,
 0.00208862,-0.00069228,0.00070740,-0.00005484,-0.00002883,0.00007937,0
 .00001528,0.00000848,-0.00000280,0.00000074,-0.00000063,0.00000669,-0.
 00006152,-0.00015707,-0.00034551,-0.00093072,-0.00170235,0.00033252,0.
 02449936,0.00756356,-0.00218585,0.00103809,0.00043005,-0.00005020,0.00
 064641,-0.00008888,-0.00040935,-0.00008450,0.00004503,0.00019867,-0.00
 007751,0.00000036,-0.00006266,0.00004390,0.00001402,0.00003525,0.00004
 173,-0.00003294,-0.00002577,-0.00001577,-0.00003113,0.00002966,0.00000
 400,-0.00000302,0.00000508,0.00012076,0.00002648,-0.00003507,-0.000188
 27,0.00001528,-0.00005017,0.00001795,0.00001438,0.00007402,-0.00004419
 ,-0.00003924,-0.00001786,-0.00004448,-0.00002289,0.00011819,0.00000448
 ,0.00005050,-0.00004269,-0.00001474,-0.00001015,0.00002762,0.00000032,
 -0.00000081,-0.00000478,-0.00002276,-0.00000656,0.00000877,-0.00004553
 ,-0.00000899,0.00003065,-0.00003632,-0.00001304,-0.00007538,-0.0004413
 0,-0.00005008,-0.00011159,-0.00003578,0.00003103,-0.00003504,-0.000008
 87,-0.00000635,0.00001112,-0.00000062,-0.00000278,-0.00000075,0.000147
 07,-0.00019528,-0.00005998,0.00001678,-0.00002039,0.00000832,0.0000187
 8,-0.00001826,0.00000401,0.00004945,0.00007687,-0.00012361,0.00040729,
 -0.00039865,-0.00023543,-0.00056461,-0.00136420,-0.00603029,0.01320832
 ,0.00898993,0.05913352,0.00006138,-0.00007547,0.00016364,-0.00002065,0
 .00033549,-0.00003809,-0.00019101,-0.00039406,0.00021931,0.00017370,-0
 .00000253,0.00000610,-0.00004615,0.00000728,0.00003498,-0.00238719,0.0
 0167082,0.00102101,0.00174499,0.00015616,-0.00117746,-0.00047859,-0.00
 001339,-0.00014049,0.00034094,-0.00003923,0.00022264,-0.00005297,0.000
 15286,0.00005986,-0.00000120,-0.00000641,0.00002183,-0.00044395,-0.000
 26034,-0.00044651,-0.00676745,0.00661881,0.00441273,-0.34049531,-0.035
 05074,0.07461171,-0.01810888,-0.00421953,-0.00261542,-0.00051399,-0.00
 077887,0.00451318,0.00032909,0.00030174,-0.00025071,0.00045083,-0.0002
 3743,-0.00019014,-0.00017936,-0.00021012,0.00041391,-0.00008821,0.0001
 1540,-0.00000861,0.00003971,-0.00001295,-0.00001588,-0.00000949,0.0000
 1098,-0.00001076,-0.00024413,0.00000472,0.00006345,0.00010940,-0.00002
 061,0.00002588,0.00000145,-0.00002740,-0.00003572,0.00073419,0.0000423
 7,-0.00008960,0.00002289,-0.00008578,-0.00020204,-0.00000161,-0.000011
 08,-0.00002270,-0.00000044,0.00000119,0.00000611,-0.00000025,0.0000022
 4,-0.00000319,0.00005004,0.00001112,0.00000957,0.00009923,-0.00001210,
 -0.00000992,0.00009755,0.00015751,0.00030539,0.00185441,0.00036649,-0.
 00082488,0.00008002,-0.00021227,0.00016438,0.00003456,0.00001288,-0.00
 002680,0.00000444,0.00000537,0.00000417,0.00001158,-0.00000546,-0.0000
 0623,0.00000992,-0.00003653,-0.00000412,0.00006293,-0.00012949,-0.0000
 8878,0.00012212,0.00044331,0.00083972,0.00001950,-0.00006402,-0.000117
 75,0.00017658,-0.00000936,0.00031028,0.00027031,0.00037336,0.00011172,
 0.36312904,-0.00002044,0.00041136,-0.00028927,-0.00025224,-0.00092263,
 -0.00010386,-0.00057015,-0.00044678,-0.00125488,0.00021324,0.00009809,
 0.00065899,0.00005185,-0.00014245,0.00015082,-0.01880326,0.00004309,0.
 00493171,0.00047353,0.00303521,-0.00003183,-0.00045482,-0.00005006,-0.
 00006109,-0.00016983,0.00013270,-0.00026906,-0.00003701,-0.00036372,-0
 .00015011,-0.00001155,0.00003023,-0.00004572,0.00317190,0.00193851,0.0
 0450056,0.03199496,-0.00714058,-0.01378917,-0.03588130,-0.04569394,0.0
 1001001,-0.00956153,0.00165932,-0.00099691,-0.00003950,-0.00045666,0.0
 0183097,0.00031990,-0.00020134,-0.00013013,-0.00041867,0.00017721,0.00
 034734,0.00005189,0.00031954,-0.00084168,0.00003078,0.00003561,0.00010
 312,-0.00002242,0.00006823,-0.00008453,-0.00000160,0.00000634,0.000004
 79,-0.00016735,0.00003799,-0.00002929,0.00007771,-0.00005069,0.0000243
 1,-0.00001769,-0.00001250,-0.00002502,-0.00002379,0.00011036,0.0000438
 4,0.00001899,-0.00002725,-0.00015360,-0.00000357,-0.00004086,0.0001068
 4,0.00001825,0.00000747,-0.00005889,0.00000111,0.00000177,0.00001150,0
 .00004530,-0.00001708,0.00000443,0.00005085,-0.00001487,-0.00003304,0.
 00002410,-0.00001601,0.00002529,0.00052067,0.00045943,0.00026005,0.000
 00573,-0.00002996,0.00003241,-0.00002035,0.00000214,0.00001290,-0.0000
 0527,-0.00000357,-0.00000813,-0.00002446,0.00001729,0.00000774,0.00001
 519,0.00004925,0.00000979,-0.00018154,0.00007225,0.00003845,-0.0012798
 8,0.00009610,-0.00016896,0.00000757,-0.00006283,0.00005073,0.00024399,
 0.00010488,0.00039255,-0.00049440,-0.00264399,0.00208199,0.03112512,0.
 04942340,-0.00013841,-0.00008220,-0.00033650,0.00001196,0.00021255,-0.
 00006390,0.00079461,-0.00031738,0.00184067,-0.00036340,0.00013734,-0.0
 0042925,-0.00006324,0.00001458,-0.00010054,0.02215035,0.00031994,-0.00
 094737,-0.00245024,-0.00199728,0.00170027,-0.00020248,0.00025406,-0.00
 020111,-0.00009425,-0.00006058,-0.00000932,-0.00004343,-0.00013887,-0.
 00007025,0.00000355,0.00001656,-0.00000764,0.00183043,0.00109383,0.002
 55464,0.00896326,-0.00443813,-0.00156259,0.08514722,0.01520956,-0.0664
 1574,-0.02762224,-0.00395296,-0.00660860,-0.00687740,-0.00199062,0.003
 69113,0.00031698,0.00000525,-0.00054435,0.00004880,0.00008915,0.000376
 11,-0.00005379,0.00005855,-0.00038220,-0.00007661,0.00010547,0.0000495
 5,0.00003154,0.00004942,-0.00004494,-0.00000753,0.00000825,-0.00000818
 ,-0.00013472,0.00009103,0.00009788,0.00006123,-0.00009621,0.00002191,0
 .00002457,-0.00001417,-0.00004419,-0.00023881,-0.00005070,-0.00005555,
 0.00013146,0.00007730,-0.00018570,0.00000903,-0.00011747,0.00006966,0.
 00001585,0.00002465,-0.00003916,0.00000092,0.00000204,0.00000561,0.000
 02993,-0.00000895,0.00000129,0.00004523,-0.00004459,-0.00000881,0.0001
 7281,0.00003454,0.00000636,0.00047184,-0.00012902,-0.00155368,0.000177
 03,-0.00007202,0.00007598,0.00002911,0.00002034,-0.00004806,-0.0000025
 2,0.00000444,0.00000502,-0.00002844,-0.00000211,0.00002383,0.00000177,
 0.00001452,0.00000006,-0.00014450,0.00008198,-0.00000033,-0.00081099,-
 0.00008606,-0.00010952,-0.00011815,-0.00005178,0.00006050,-0.00043158,
 -0.00004118,-0.00043489,0.00064902,0.00288286,-0.00253005,-0.08121582,
 -0.00711595,0.07216194\\-0.00487059,0.01087524,0.00023968,0.03672471,-
 0.02173784,-0.01325503,-0.01909473,-0.03038396,-0.00051792,0.00808379,
 -0.00589308,0.02363296,-0.00126288,-0.00373782,-0.03305698,0.00589886,
 -0.01009245,-0.02818555,0.00206938,-0.00945314,0.01268235,0.01066754,-
 0.00568255,0.01988504,-0.01748611,0.02133723,-0.02226498,0.00511876,0.
 01277998,-0.00505286,0.01347331,-0.02882547,0.01287605,0.00698425,0.01
 973314,0.03153570,0.01036736,0.02340744,0.03277101,-0.08542763,0.01325
 849,0.01466155,0.02532766,-0.00054751,-0.02853746,0.01274554,0.0031437
 4,-0.01772620,-0.01850297,0.01616709,0.04962036,0.00811545,0.01412170,
 0.00119354,0.01171545,-0.01631883,-0.03276866,-0.03311582,0.01587255,-
 0.00399338,0.01956588,0.00467836,-0.02593618,-0.01077981,-0.00192432,0
 .02733048,0.00390898,-0.02465274,0.00444546,-0.01175644,-0.01342202,0.
 00671546,-0.00117478,0.03657556,-0.00308350,0.00442355,-0.02929286,0.0
 0762907,-0.00718442,0.01079055,-0.00133733,0.04519755,-0.01515548,0.00
 043242,-0.00950923,0.00245946,0.01858712,-0.00249757,-0.00345939,-0.00
 214752,-0.00024784,-0.00492108,-0.01691743,0.01975034,0.00314585,0.002
 38415,-0.02105423,-0.00089938,-0.00301158,0.01972332,-0.00078518,0.000
 09321,-0.02203813,-0.00067615,-0.00760230,0.01776570,0.00082870,0.0000
 5480,-0.01779410,-0.00018486,-0.00380942,-0.00103349,0.00659422,0.0008
 4691,0.00073324,0.00842990,-0.01910775,-0.02135447,-0.00646048,-0.0018
 7835,0.02111214,0.00190543,0.00161656,-0.01585270,-0.00262787,0.000015
 99,0.01865594,0.00332570,0.00539233,-0.01997358,0.00369174,0.00013349,
 0.01388280,0.00401242,-0.00458528\\\@


 CONFIDENCE IS WHAT YOU FEEL BEFORE YOU FULLY
 COMPREHEND THE SITUATION.
 Job cpu time:  1 days  7 hours 52 minutes 39.3 seconds.
 File lengths (MBytes):  RWF=   1769 Int=      0 D2E=      0 Chk=     28 Scr=      1
 Normal termination of Gaussian 09 at Fri Mar 25 21:17:39 2016.
Gaussian '09 finished on node007 at Fri Mar 25 21:17:39 EDT 2016.
