Gaussian '09 started on node027 at Tue Mar  1 03:24:19 EST 2016.
 Entering Gaussian System, Link 0=/usr/local/gaussian/g09/g09
 Initial command:
 /usr/local/gaussian/g09/l1.exe /home/srmcgrat/thesis/gaussian/cellobiose/450/5000/2/gdp/gaussian377/Gau-413.inp -scrdir=/home/srmcgrat/thesis/gaussian/cellobiose/450/5000/2/gdp/gaussian377/
 Entering Link 1 = /usr/local/gaussian/g09/l1.exe PID=       415.
  
 Copyright (c) 1988,1990,1992,1993,1995,1998,2003,2009,2010,
            Gaussian, Inc.  All Rights Reserved.
  
 This is part of the Gaussian(R) 09 program.  It is based on
 the Gaussian(R) 03 system (copyright 2003, Gaussian, Inc.),
 the Gaussian(R) 98 system (copyright 1998, Gaussian, Inc.),
 the Gaussian(R) 94 system (copyright 1995, Gaussian, Inc.),
 the Gaussian 92(TM) system (copyright 1992, Gaussian, Inc.),
 the Gaussian 90(TM) system (copyright 1990, Gaussian, Inc.),
 the Gaussian 88(TM) system (copyright 1988, Gaussian, Inc.),
 the Gaussian 86(TM) system (copyright 1986, Carnegie Mellon
 University), and the Gaussian 82(TM) system (copyright 1983,
 Carnegie Mellon University). Gaussian is a federally registered
 trademark of Gaussian, Inc.
  
 This software contains proprietary and confidential information,
 including trade secrets, belonging to Gaussian, Inc.
  
 This software is provided under written license and may be
 used, copied, transmitted, or stored only in accord with that
 written license.
  
 The following legend is applicable only to US Government
 contracts under FAR:
  
                    RESTRICTED RIGHTS LEGEND
  
 Use, reproduction and disclosure by the US Government is
 subject to restrictions as set forth in subparagraphs (a)
 and (c) of the Commercial Computer Software - Restricted
 Rights clause in FAR 52.227-19.
  
 Gaussian, Inc.
 340 Quinnipiac St., Bldg. 40, Wallingford CT 06492
  
  
 ---------------------------------------------------------------
 Warning -- This program may not be used in any manner that
 competes with the business of Gaussian, Inc. or will provide
 assistance to any competitor of Gaussian, Inc.  The licensee
 of this program is prohibited from giving any competitor of
 Gaussian, Inc. access to this program.  By using this program,
 the user acknowledges that Gaussian, Inc. is engaged in the
 business of creating and licensing software in the field of
 computational chemistry and represents and warrants to the
 licensee that it is not a competitor of Gaussian, Inc. and that
 it will not use this program in any manner prohibited above.
 ---------------------------------------------------------------
  

 Cite this work as:
 Gaussian 09, Revision B.01,
 M. J. Frisch, G. W. Trucks, H. B. Schlegel, G. E. Scuseria, 
 M. A. Robb, J. R. Cheeseman, G. Scalmani, V. Barone, B. Mennucci, 
 G. A. Petersson, H. Nakatsuji, M. Caricato, X. Li, H. P. Hratchian, 
 A. F. Izmaylov, J. Bloino, G. Zheng, J. L. Sonnenberg, M. Hada, 
 M. Ehara, K. Toyota, R. Fukuda, J. Hasegawa, M. Ishida, T. Nakajima, 
 Y. Honda, O. Kitao, H. Nakai, T. Vreven, J. A. Montgomery, Jr., 
 J. E. Peralta, F. Ogliaro, M. Bearpark, J. J. Heyd, E. Brothers, 
 K. N. Kudin, V. N. Staroverov, T. Keith, R. Kobayashi, J. Normand, 
 K. Raghavachari, A. Rendell, J. C. Burant, S. S. Iyengar, J. Tomasi, 
 M. Cossi, N. Rega, J. M. Millam, M. Klene, J. E. Knox, J. B. Cross, 
 V. Bakken, C. Adamo, J. Jaramillo, R. Gomperts, R. E. Stratmann, 
 O. Yazyev, A. J. Austin, R. Cammi, C. Pomelli, J. W. Ochterski, 
 R. L. Martin, K. Morokuma, V. G. Zakrzewski, G. A. Voth, 
 P. Salvador, J. J. Dannenberg, S. Dapprich, A. D. Daniels, 
 O. Farkas, J. B. Foresman, J. V. Ortiz, J. Cioslowski, 
 and D. J. Fox, Gaussian, Inc., Wallingford CT, 2010.
 
 ******************************************
 Gaussian 09:  EM64L-G09RevB.01 12-Aug-2010
                 1-Mar-2016 
 ******************************************
 ------------------------------------------------
 # freq=raman b3lyp/6-31+g(d,p) geom=connectivity
 ------------------------------------------------
 1/10=4,30=1,38=1,57=2/1,3;
 2/12=2,17=6,18=5,40=1/2;
 3/5=1,6=6,7=111,11=2,16=1,25=1,30=1,71=2,74=-5/1,2,3;
 4//1;
 5/5=2,38=5,98=1/2;
 8/6=4,10=90,11=11/1;
 10/13=10,15=4/2;
 11/6=3,8=1,9=11,15=111,16=1/1,2,10;
 10/6=1/2;
 6/7=2,8=2,9=2,10=2,18=1,28=1/1;
 7/8=1,10=1,25=1/1,2,3,16;
 1/10=4,30=1/3;
 99//99;
 ------------
 450 5000.com
 ------------
 Symbolic Z-matrix:
 Charge =  0 Multiplicity = 1
 O                     9.383     7.634     21.627 
 C                     10.111    7.753     22.857 
 C                     10.378    9.176     23.318 
 O                     11.382    9.699     22.436 
 H                     10.94     9.652     21.54 
 C                     10.87     9.347     24.746 
 O                     10.404    10.634    25.177 
 H                     10.765    11.441    24.71 
 C                     9.553     5.462     23.708 
 O                     8.949     4.517     24.605 
 H                     8.862     3.676     24.071 
 C                     9.559     6.949     24.023 
 O                     10.428    6.932     25.165 
 C                     10.405    8.262     25.704 
 O                     11.088    8.352     26.963 
 C                     10.377    8.235     28.204 
 C                     10.086    6.792     28.584 
 O                     9.347     6.071     27.587 
 H                     9.673     6.21      26.652 
 C                     9.687     6.501     30.021 
 O                     9.35      5.131     30.287 
 H                     8.695     4.992     29.545 
 C                     11.668    10.114    29.034 
 O                     12.581    10.887    29.825 
 H                     13.536    10.614    29.707 
 C                     11.301    8.669     29.33 
 O                     10.802    8.603     30.673 
 C                     10.58     7.227     31.014 
 O                     9.923     7.115     32.286 
 H                     10.58141   7.05372   32.98195 
 H                     10.0004   7.56321   20.89529 
 H                     10.57358   5.16554   23.58379 
 H                     9.06906   5.34595   22.76078 
 H                     8.57976   7.28497   24.29339 
 H                     11.07434   7.33422   22.6533 
 H                     9.48215   9.74811   23.19533 
 H                     11.93993   9.35691   24.73818 
 H                     9.37707   8.47527   25.91081 
 H                     10.74771   10.6597   29.02046 
 H                     12.05241   10.12657   28.03552 
 H                     12.19156   8.07828   29.2766 
 H                     9.48118   8.82009   28.19502 
 H                     11.05479   6.34172   28.52398 
 H                     8.74819   7.00381   30.12456 
 H                     11.5237   6.72522   31.06442 
 

 GradGradGradGradGradGradGradGradGradGradGradGradGradGradGradGradGradGrad
 Berny optimization.
 Initialization pass.
 Trust Radius=3.00D-01 FncErr=1.00D-07 GrdErr=1.00D-07
 Number of steps in this run=      2 maximum allowed number of steps=      2.
 GradGradGradGradGradGradGradGradGradGradGradGradGradGradGradGradGradGrad

                          Input orientation:                          
 ---------------------------------------------------------------------
 Center     Atomic      Atomic             Coordinates (Angstroms)
 Number     Number       Type             X           Y           Z
 ---------------------------------------------------------------------
      1          8           0        9.383000    7.634000   21.627000
      2          6           0       10.111000    7.753000   22.857000
      3          6           0       10.378000    9.176000   23.318000
      4          8           0       11.382000    9.699000   22.436000
      5          1           0       10.940000    9.652000   21.540000
      6          6           0       10.870000    9.347000   24.746000
      7          8           0       10.404000   10.634000   25.177000
      8          1           0       10.765000   11.441000   24.710000
      9          6           0        9.553000    5.462000   23.708000
     10          8           0        8.949000    4.517000   24.605000
     11          1           0        8.862000    3.676000   24.071000
     12          6           0        9.559000    6.949000   24.023000
     13          8           0       10.428000    6.932000   25.165000
     14          6           0       10.405000    8.262000   25.704000
     15          8           0       11.088000    8.352000   26.963000
     16          6           0       10.377000    8.235000   28.204000
     17          6           0       10.086000    6.792000   28.584000
     18          8           0        9.347000    6.071000   27.587000
     19          1           0        9.673000    6.210000   26.652000
     20          6           0        9.687000    6.501000   30.021000
     21          8           0        9.350000    5.131000   30.287000
     22          1           0        8.695000    4.992000   29.545000
     23          6           0       11.668000   10.114000   29.034000
     24          8           0       12.581000   10.887000   29.825000
     25          1           0       13.536000   10.614000   29.707000
     26          6           0       11.301000    8.669000   29.330000
     27          8           0       10.802000    8.603000   30.673000
     28          6           0       10.580000    7.227000   31.014000
     29          8           0        9.923000    7.115000   32.286000
     30          1           0       10.581411    7.053722   32.981945
     31          1           0       10.000405    7.563209   20.895290
     32          1           0       10.573579    5.165538   23.583786
     33          1           0        9.069058    5.345952   22.760776
     34          1           0        8.579759    7.284968   24.293392
     35          1           0       11.074343    7.334219   22.653301
     36          1           0        9.482154    9.748111   23.195328
     37          1           0       11.939926    9.356907   24.738176
     38          1           0        9.377066    8.475266   25.910805
     39          1           0       10.747711   10.659696   29.020457
     40          1           0       12.052415   10.126569   28.035518
     41          1           0       12.191563    8.078284   29.276598
     42          1           0        9.481181    8.820088   28.195022
     43          1           0       11.054785    6.341720   28.523976
     44          1           0        8.748193    7.003809   30.124559
     45          1           0       11.523702    6.725218   31.064417
 ---------------------------------------------------------------------
                    Distance matrix (angstroms):
                    1          2          3          4          5
     1  O    0.000000
     2  C    1.434240   0.000000
     3  C    2.495450   1.519454   0.000000
     4  O    2.985751   2.362117   1.435085   0.000000
     5  H    2.550322   2.455185   1.924501   1.000194   0.000000
     6  C    3.856643   2.585583   1.520029   2.392101   3.221236
     7  O    4.758670   3.710581   2.362694   3.056761   3.805179
     8  H    5.089996   4.178836   2.686570   2.930244   3.644180
     9  C    3.012813   2.506840   3.824463   4.787003   4.917326
    10  O    4.332728   3.857129   5.040307   6.121860   6.302899
    11  H    4.680848   4.433478   5.754586   6.730539   6.814442
    12  C    2.498203   1.520091   2.475341   3.661202   3.921563
    13  O    3.755299   2.470100   2.906793   4.001730   4.560830
    14  C    4.249800   2.907048   2.555214   3.701260   4.422355
    15  O    5.647605   4.262929   3.803827   4.732291   5.578605
    16  C    6.678785   5.375266   4.975789   6.035159   6.836209
    17  C    7.042941   5.807123   5.787873   6.923017   7.650284
    18  O    6.161645   5.077964   5.378508   6.620907   7.206068
    19  H    5.230918   4.120039   4.517714   5.733102   6.291677
    20  C    8.475573   7.284928   7.250056   8.404312   9.133793
    21  O    9.014527   7.915738   8.123163   9.307731   9.973843
    22  H    8.375454   7.372755   7.688555   8.939446   9.530774
    23  C    8.138506   6.793666   5.934358   6.617222   7.543438
    24  O    9.381707   8.029687   7.079674   7.579332   8.535768
    25  H    9.561078   8.175478   7.270497   7.638349   8.623488
    26  C    8.005383   6.644914   6.103534   6.970990   7.860071
    27  O    9.207749   7.892391   7.389461   8.329813   9.194081
    28  C    9.471759   8.187386   7.941525   8.963039   9.786056
    29  O   10.685282   9.452430   9.213022  10.287285  11.088155
    30  H   11.432746  10.159960   9.896326  10.902082  11.738728
    31  H    0.960000   1.973970   2.934825   2.973920   2.379399
    32  H    3.367461   2.727115   4.024015   4.745865   4.943649
    33  H    2.572776   2.624650   4.085719   4.940062   4.851059
    34  H    2.806540   2.151040   2.785868   4.138841   4.330675
    35  H    2.000950   1.070000   2.078190   2.394590   2.574800
    36  H    2.634189   2.119052   1.070000   2.046560   2.207864
    37  H    4.380147   3.075111   2.118782   2.393391   3.363816
    38  H    4.365633   3.222740   2.866276   4.194229   4.788675
    39  H    8.104350   6.844157   5.903902   6.684335   7.550475
    40  H    7.376163   6.018303   5.095313   5.655693   6.607150
    41  H    8.160991   6.756167   6.324467   7.076433   7.993619
    42  H    6.674980   5.479948   4.971549   6.127963   6.863640
    43  H    7.213399   5.915831   5.966017   6.960017   7.729621
    44  H    8.544508   7.432089   7.328296   8.562414   9.247247
    45  H    9.719739   8.391290   8.205238   9.127597   9.981045
                    6          7          8          9         10
     6  C    0.000000
     7  O    1.435021   0.000000
     8  H    2.096940   0.999829   0.000000
     9  C    4.231449   5.443505   6.182345   0.000000
    10  O    5.199906   6.313628   7.158956   1.436123   0.000000
    11  H    6.053753   7.212126   8.020284   1.949114   1.000003
    12  C    2.826987   3.952843   4.701539   1.520010   2.573995
    13  O    2.490612   3.702097   4.544411   2.247081   2.886740
    14  C    1.520268   2.429838   3.350176   3.542587   4.165665
    15  O    2.439803   2.977445   3.836960   4.615555   4.984246
    16  C    3.665700   3.862468   4.757837   5.346262   5.368008
    17  C    4.676850   5.144875   6.089509   5.082161   4.722376
    18  O    4.595975   5.267477   6.254978   3.931915   3.386096
    19  H    3.860883   4.720356   5.685700   3.039908   2.753295
    20  C    6.109405   6.407817   7.332967   6.399332   5.814977
    21  O    7.126552   7.583273   8.539394   6.590448   5.729129
    22  H    6.835719   7.337048   8.321762   5.918415   4.969280
    23  C    4.428548   4.092010   4.612300   7.381098   7.637762
    24  O    5.576322   5.138798   5.456006   8.718778   9.000929
    25  H    5.772726   5.507334   5.773420   8.854117   9.178474
    26  C    4.653869   4.681158   5.414396   6.704270   6.715403
    27  O    5.973901   5.872766   6.604013   7.741906   7.546498
    28  C    6.623166   6.760857   7.585014   7.586013   7.146995
    29  O    7.920242   7.946861   8.764646   8.743649   8.166764
    30  H    8.554133   8.588774   9.365201   9.465583   8.903535
    31  H    4.331983   5.284476   5.493076   3.539292   4.913938
    32  H    4.350084   5.698348   6.378591   1.070000   2.025521
    33  H    4.815900   5.965204   6.620069   1.070000   2.025521
    34  H    3.114809   3.914669   4.713962   2.147812   2.809820
    35  H    2.910744   4.207965   4.603407   2.632884   4.032733
    36  H    2.119337   2.358310   2.608793   4.317244   5.443891
    37  H    1.070000   2.045141   2.392632   4.682838   5.691052
    38  H    2.084597   2.500639   3.487674   3.736720   4.190017
    39  H    4.473155   3.858881   4.380728   7.527655   7.775882
    40  H    3.581446   3.338544   3.800557   6.836131   7.270963
    41  H    4.886972   5.151094   5.847800   6.694494   6.709754
    42  H    3.755291   3.640100   4.545630   5.604933   5.629213
    43  H    4.831040   5.481736   6.374405   5.120829   4.808566
    44  H    6.238710   6.355968   7.285165   6.648091   6.057233
    45  H    6.871932   7.154997   7.949392   7.719861   7.295847
                   11         12         13         14         15
    11  H    0.000000
    12  C    3.346736   0.000000
    13  O    3.775014   1.435136   0.000000
    14  C    5.106754   2.294656   1.435253   0.000000
    15  O    5.931586   3.598590   2.384283   1.435155   0.000000
    16  C    6.337302   4.450133   3.306952   2.500303   1.435023
    17  C    5.619146   4.594029   3.438913   3.249163   2.462772
    18  O    4.281764   3.676673   2.788542   3.076611   2.936566
    19  H    3.706810   2.733269   1.817272   2.375970   2.585945
    20  C    6.638053   6.016069   4.931083   4.717323   3.839318
    21  O    6.402642   6.525833   5.535392   5.649785   4.944134
    22  H    5.632444   5.921894   5.094241   5.326376   4.866495
    23  C    8.599584   6.290884   5.160609   4.014221   2.780303
    24  O    9.946758   7.635675   6.480203   5.348667   4.104427
    25  H   10.086953   7.845802   6.621673   5.599917   4.317277
    26  C    7.650873   5.844417   4.596360   3.757172   2.397613
    27  O    8.463175   6.964429   5.768031   4.996484   3.729463
    28  C    7.985385   7.070630   5.858407   5.412758   4.234890
    29  O    8.968761   8.272679   7.141229   6.698556   5.587640
    30  H    9.683508   9.017704   7.819398   7.379671   6.178176
    31  H    5.146989   3.217866   4.337244   4.876033   6.214673
    32  H    2.320690   2.098337   2.375251   3.756568   4.673035
    33  H    2.132674   2.098337   3.184739   4.353234   5.547174
    34  H    3.626813   1.070000   2.073712   2.505177   3.815316
    35  H    4.504098   2.078637   2.624533   3.258153   4.428269
    36  H    6.166192   2.919926   3.564367   3.058367   4.327034
    37  H    6.495495   3.460968   2.889337   2.118404   2.585625
    38  H    5.165572   2.434419   2.010562   1.070000   2.012363
    39  H    8.764990   6.336946   5.372382   4.106737   3.110368
    40  H    8.216203   5.693361   4.591717   3.409775   2.286807
    41  H    7.587118   5.983809   4.618373   3.998627   2.577889
    42  H    6.622128   4.573051   3.693559   2.714792   2.078185
    43  H    5.634125   4.781730   3.467565   3.473033   2.545383
    44  H    6.908895   6.155439   5.236805   4.885631   4.157857
    45  H    8.080239   7.313801   6.003868   5.687465   4.433720
                   16         17         18         19         20
    16  C    0.000000
    17  C    1.520306   0.000000
    18  O    2.474770   1.435260   0.000000
    19  H    2.646686   2.059591   0.999911   0.000000
    20  C    2.604678   1.519490   2.494966   3.381573   0.000000
    21  O    3.876652   2.490146   2.858952   3.805495   1.435697
    22  H    3.891588   2.469494   2.328757   3.287774   1.867544
    23  C    2.426154   3.706873   4.881260   4.989505   4.237015
    24  O    3.810297   4.953194   6.217818   6.355999   5.258388
    25  H    4.230595   5.269849   6.533067   6.606891   5.641823
    26  C    1.519871   2.357089   3.688600   3.983560   2.789749
    27  O    2.532195   2.855923   4.248699   4.813474   2.467131
    28  C    2.992219   2.517570   3.821119   4.569900   1.520057
    29  O    4.257140   3.719637   4.847918   5.711697   2.358584
    30  H    4.926049   4.433492   5.620938   6.450216   3.142080
    31  H    7.349175   7.727765   6.887134   5.922675   9.192665
    32  H    5.550371   5.280649   4.283699   3.363908   6.633793
    33  H    6.299682   6.085652   4.888290   4.031494   7.377455
    34  H    4.407436   4.573959   3.593081   2.813142   5.886093
    35  H    5.666388   6.036888   5.377808   4.383746   7.543339
    36  H    5.308206   6.175841   5.729415   4.950074   7.561448
    37  H    3.964007   4.980577   5.063225   4.324893   6.414056
    38  H    2.513233   3.237583   2.931046   2.401745   4.570283
    39  H    2.585185   3.948092   5.007287   5.154066   4.406921
    40  H    2.532476   3.909856   4.895721   4.786988   4.762571
    41  H    2.113686   2.562736   3.869816   4.089274   3.052015
    42  H    1.070000   2.151802   2.818719   3.038136   2.958839
    43  H    2.036243   1.070000   1.966658   2.330445   2.034033
    44  H    2.803104   2.051320   2.769098   3.680226   1.070000
    45  H    3.431668   2.867737   4.154330   4.812480   2.124257
                   21         22         23         24         25
    21  O    0.000000
    22  H    0.999455   0.000000
    23  C    5.636792   5.944303   0.000000
    24  O    6.616974   7.066146   1.434147   0.000000
    25  H    6.922592   7.420809   2.047524   1.000239   0.000000
    26  C    4.152071   4.511961   1.519977   2.608246   2.986700
    27  O    3.783132   4.330260   2.391526   3.016720   3.528744
    28  C    2.536660   3.272065   3.665912   4.337433   4.681661
    29  O    2.874124   3.678069   4.755474   5.229672   5.652257
    30  H    3.532133   4.429654   5.111971   5.353380   5.668372
    31  H    9.723317   9.117712   8.690570   9.871514   9.972662
    32  H    6.814060   6.252619   7.442437   8.701587   8.715241
    33  H    7.534532   6.803741   8.297115   9.640550   9.795710
    34  H    6.415309   5.731525   6.325664   7.719019   8.059400
    35  H    8.130246   7.657857   6.985194   8.144049   8.159129
    36  H    8.463273   7.972361   6.245149   7.406245   7.719152
    37  H    7.440125   7.258616   4.370496   5.350509   5.368142
    38  H    5.507806   5.079934   4.205731   5.603800   6.023455
    39  H    5.841593   6.050748   1.070000   2.014920   2.871931
    40  H    6.109659   6.317798   1.070000   2.014920   2.287459
    41  H    4.216856   4.671525   2.115919   2.888129   2.902173
    42  H    4.242988   4.134583   2.675868   4.066673   4.684630
    43  H    2.735031   2.903932   3.855678   4.968054   5.080192
    44  H    1.973821   2.094300   4.403167   5.464368   6.010901
    45  H    2.805511   3.648867   3.953132   4.469279   4.584162
                   26         27         28         29         30
    26  C    0.000000
    27  O    1.434227   0.000000
    28  C    2.331322   1.434901   0.000000
    29  O    3.612719   2.364012   1.436028   0.000000
    30  H    4.057540   2.789292   1.975559   0.960000   0.000000
    31  H    8.605734   9.865462  10.140871  11.399788  12.111333
    32  H    6.769222   7.881959   7.710885   8.941598   9.585963
    33  H    7.692783   8.730105   8.598662   9.725669  10.472630
    34  H    5.889662   6.882947   7.012197   8.106477   8.919139
    35  H    6.812586   8.124011   8.375987   9.703738  10.344204
    36  H    6.488982   7.679118   8.288118   9.474594  10.210092
    37  H    4.686821   6.089777   6.765491   8.127963   8.666600
    38  H    3.928097   4.972449   5.389602   6.541519   7.312472
    39  H    2.089215   2.638910   3.973128   4.889662   5.359486
    40  H    2.089215   3.292585   4.409860   5.627660   6.006113
    41  H    1.070000   2.038664   2.518012   3.889832   4.167962
    42  H    2.150057   2.816392   3.419352   4.454058   5.219692
    43  H    2.475182   3.129791   2.685026   4.003964   4.539220
    44  H    3.149764   2.660136   2.048521   2.462593   3.395267
    45  H    2.614590   2.049420   1.070000   2.050961   2.161653
                   31         32         33         34         35
    31  H    0.000000
    32  H    3.647652   0.000000
    33  H    3.043629   1.724377   0.000000
    34  H    3.693609   2.995137   2.519546   0.000000
    35  H    2.072771   2.412415   2.825938   2.985846   0.000000
    36  H    3.214430   4.726742   4.442802   2.843788   2.942063
    37  H    4.663354   4.557093   5.314109   3.972591   3.031040
    38  H    5.135737   4.219119   4.450861   2.160679   3.846306
    39  H    8.727259   7.731332   8.380774   6.199512   7.190700
    40  H    7.859034   6.827643   7.718654   5.842734   6.141832
    41  H    8.678296   6.596217   7.724741   6.205387   6.757950
    42  H    7.425323   5.984360   6.463010   4.288575   5.954548
    43  H    7.797474   5.101023   6.176499   4.991324   5.954012
    44  H    9.330614   7.035125   7.554915   5.840371   7.831975
    45  H   10.316676   7.700336   8.768016   7.404519   8.445097
                   36         37         38         39         40
    36  H    0.000000
    37  H    2.928150   0.000000
    38  H    3.000833   2.953066   0.000000
    39  H    6.030320   4.632124   4.039844   0.000000
    40  H    5.493351   3.387845   3.794561   1.719472   0.000000
    41  H    6.863751   4.721809   4.405401   2.968839   2.398982
    42  H    5.085093   4.275907   2.312442   2.381092   2.888525
    43  H    6.516990   4.920071   3.767681   4.357259   3.944482
    44  H    7.488934   6.688599   4.507370   4.310757   5.003360
    45  H    8.673428   6.864426   5.850677   4.501116   4.585080
                   41         42         43         44         45
    41  H    0.000000
    42  H    3.011022   0.000000
    43  H    2.207795   2.954107   0.000000
    44  H    3.705447   2.749410   2.884545   0.000000
    45  H    2.339470   4.098023   2.611665   2.943535   0.000000
 Stoichiometry    C12H22O11
 Framework group  C1[X(C12H22O11)]
 Deg. of freedom   129
 Full point group                 C1      NOp   1
 Largest Abelian subgroup         C1      NOp   1
 Largest concise Abelian subgroup C1      NOp   1
                         Standard orientation:                         
 ---------------------------------------------------------------------
 Center     Atomic      Atomic             Coordinates (Angstroms)
 Number     Number       Type             X           Y           Z
 ---------------------------------------------------------------------
      1          8           0       -5.224749   -0.495545    0.464311
      2          6           0       -3.950485   -0.104876   -0.065476
      3          6           0       -3.492763    1.294377    0.310452
      4          8           0       -4.312722    2.198313   -0.444555
      5          1           0       -5.235602    1.986334   -0.122459
      6          6           0       -2.037532    1.632012    0.029748
      7          8           0       -1.656993    2.605207    1.013296
      8          1           0       -2.110077    3.496107    0.987374
      9          6           0       -3.106553   -2.434239   -0.447696
     10          8           0       -2.238833   -3.557536   -0.229261
     11          1           0       -2.765531   -4.351380   -0.533246
     12          6           0       -2.812901   -1.082300    0.181954
     13          8           0       -1.615050   -0.755953   -0.537950
     14          6           0       -1.097652    0.437709    0.068203
     15          8           0        0.202935    0.782957   -0.430744
     16          6           0        1.394969    0.364388    0.249804
     17          6           0        1.774940   -1.075492   -0.056296
     18          8           0        0.740895   -2.022382    0.250495
     19          1           0       -0.171998   -1.747294   -0.050792
     20          6           0        3.185903   -1.526605    0.282130
     21          8           0        3.448025   -2.917306    0.040325
     22          1           0        2.665792   -3.303302    0.528207
     23          6           0        2.283077    2.596221   -0.091381
     24          8           0        3.122545    3.665373   -0.548532
     25          1           0        3.072748    3.812836   -1.536588
     26          6           0        2.574176    1.124388   -0.334899
     27          8           0        3.881472    0.838280    0.180975
     28          6           0        4.226217   -0.511516   -0.162743
     29          8           0        5.452731   -0.903696    0.472896
     30          1           0        6.192075   -0.697991   -0.103867
     31          1           0       -5.912318   -0.294207   -0.174683
     32          1           0       -3.157818   -2.280972   -1.505421
     33          1           0       -4.082375   -2.725654   -0.119444
     34          1           0       -2.613587   -1.184695    1.228228
     35          1           0       -4.083160   -0.085450   -1.127041
     36          1           0       -3.683330    1.447304    1.352180
     37          1           0       -1.973700    2.082920   -0.938501
     38          1           0       -0.963308    0.204414    1.103783
     39          1           0        2.200117    2.713378    0.968945
     40          1           0        1.312556    2.781237   -0.502182
     41          1           0        2.588992    0.954955   -1.391295
     42          1           0        1.317647    0.527454    1.304476
     43          1           0        1.786412   -1.084640   -1.126196
     44          1           0        3.219131   -1.457891    1.349404
     45          1           0        4.346915   -0.579563   -1.223734
 ---------------------------------------------------------------------
 Rotational constants (GHZ):      0.3854602      0.1469652      0.1097019
 Standard basis: 6-31+G(d,p) (6D, 7F)
 There are   547 symmetry adapted basis functions of A   symmetry.
 Integral buffers will be    131072 words long.
 Raffenetti 2 integral format.
 Two-electron integral symmetry is turned on.
   547 basis functions,   890 primitive gaussians,   547 cartesian basis functions
    91 alpha electrons       91 beta electrons
       nuclear repulsion energy      2269.8283857133 Hartrees.
 NAtoms=   45 NActive=   45 NUniq=   45 SFac= 1.00D+00 NAtFMM=   50 NAOKFM=F Big=F
 One-electron integrals computed using PRISM.
 NBasis=   547 RedAO= T  NBF=   547
 NBsUse=   547 1.00D-06 NBFU=   547
 Harris functional with IExCor=  402 diagonalized for initial guess.
 ExpMin= 4.38D-02 ExpMax= 5.48D+03 ExpMxC= 8.25D+02 IAcc=2 IRadAn=         0 AccDes= 0.00D+00
 HarFok:  IExCor=  402 AccDes= 0.00D+00 IRadAn=         0 IDoV= 1
 ScaDFX=  1.000000  1.000000  1.000000  1.000000
 FoFCou: FMM=F IPFlag=           0 FMFlag=      100000 FMFlg1=           0
         NFxFlg=           0 DoJE=T BraDBF=F KetDBF=T FulRan=T
         Omega=  0.000000  0.000000  1.000000  0.000000  0.000000 ICntrl=     500 IOpCl=  0
         NMat0=    1 NMatS0=    1 NMatT0=    0 NMatD0=    1 NMtDS0=    0 NMtDT0=    0
         I1Cent=           4 NGrid=           0.
 Petite list used in FoFCou.
 Initial guess orbital symmetries:
       Occupied  (A) (A) (A) (A) (A) (A) (A) (A) (A) (A) (A) (A)
                 (A) (A) (A) (A) (A) (A) (A) (A) (A) (A) (A) (A)
                 (A) (A) (A) (A) (A) (A) (A) (A) (A) (A) (A) (A)
                 (A) (A) (A) (A) (A) (A) (A) (A) (A) (A) (A) (A)
                 (A) (A) (A) (A) (A) (A) (A) (A) (A) (A) (A) (A)
                 (A) (A) (A) (A) (A) (A) (A) (A) (A) (A) (A) (A)
                 (A) (A) (A) (A) (A) (A) (A) (A) (A) (A) (A) (A)
                 (A) (A) (A) (A) (A) (A) (A)
       Virtual   (A) (A) (A) (A) (A) (A) (A) (A) (A) (A) (A) (A)
                 (A) (A) (A) (A) (A) (A) (A) (A) (A) (A) (A) (A)
                 (A) (A) (A) (A) (A) (A) (A) (A) (A) (A) (A) (A)
                 (A) (A) (A) (A) (A) (A) (A) (A) (A) (A) (A) (A)
                 (A) (A) (A) (A) (A) (A) (A) (A) (A) (A) (A) (A)
                 (A) (A) (A) (A) (A) (A) (A) (A) (A) (A) (A) (A)
                 (A) (A) (A) (A) (A) (A) (A) (A) (A) (A) (A) (A)
                 (A) (A) (A) (A) (A) (A) (A) (A) (A) (A) (A) (A)
                 (A) (A) (A) (A) (A) (A) (A) (A) (A) (A) (A) (A)
                 (A) (A) (A) (A) (A) (A) (A) (A) (A) (A) (A) (A)
                 (A) (A) (A) (A) (A) (A) (A) (A) (A) (A) (A) (A)
                 (A) (A) (A) (A) (A) (A) (A) (A) (A) (A) (A) (A)
                 (A) (A) (A) (A) (A) (A) (A) (A) (A) (A) (A) (A)
                 (A) (A) (A) (A) (A) (A) (A) (A) (A) (A) (A) (A)
                 (A) (A) (A) (A) (A) (A) (A) (A) (A) (A) (A) (A)
                 (A) (A) (A) (A) (A) (A) (A) (A) (A) (A) (A) (A)
                 (A) (A) (A) (A) (A) (A) (A) (A) (A) (A) (A) (A)
                 (A) (A) (A) (A) (A) (A) (A) (A) (A) (A) (A) (A)
                 (A) (A) (A) (A) (A) (A) (A) (A) (A) (A) (A) (A)
                 (A) (A) (A) (A) (A) (A) (A) (A) (A) (A) (A) (A)
                 (A) (A) (A) (A) (A) (A) (A) (A) (A) (A) (A) (A)
                 (A) (A) (A) (A) (A) (A) (A) (A) (A) (A) (A) (A)
                 (A) (A) (A) (A) (A) (A) (A) (A) (A) (A) (A) (A)
                 (A) (A) (A) (A) (A) (A) (A) (A) (A) (A) (A) (A)
                 (A) (A) (A) (A) (A) (A) (A) (A) (A) (A) (A) (A)
                 (A) (A) (A) (A) (A) (A) (A) (A) (A) (A) (A) (A)
                 (A) (A) (A) (A) (A) (A) (A) (A) (A) (A) (A) (A)
                 (A) (A) (A) (A) (A) (A) (A) (A) (A) (A) (A) (A)
                 (A) (A) (A) (A) (A) (A) (A) (A) (A) (A) (A) (A)
                 (A) (A) (A) (A) (A) (A) (A) (A) (A) (A) (A) (A)
                 (A) (A) (A) (A) (A) (A) (A) (A) (A) (A) (A) (A)
                 (A) (A) (A) (A) (A) (A) (A) (A) (A) (A) (A) (A)
                 (A) (A) (A) (A) (A) (A) (A) (A) (A) (A) (A) (A)
                 (A) (A) (A) (A) (A) (A) (A) (A) (A) (A) (A) (A)
                 (A) (A) (A) (A) (A) (A) (A) (A) (A) (A) (A) (A)
                 (A) (A) (A) (A) (A) (A) (A) (A) (A) (A) (A) (A)
                 (A) (A) (A) (A) (A) (A) (A) (A) (A) (A) (A) (A)
                 (A) (A) (A) (A) (A) (A) (A) (A) (A) (A) (A) (A)
 The electronic state of the initial guess is 1-A.
 Requested convergence on RMS density matrix=1.00D-08 within 128 cycles.
 Requested convergence on MAX density matrix=1.00D-06.
 Requested convergence on             energy=1.00D-06.
 No special actions if energy rises.
 SCF Done:  E(RB3LYP) =  -1297.90687665     A.U. after   14 cycles
             Convg  =    0.3124D-08             -V/T =  2.0087
 Range of M.O.s used for correlation:     1   547
 NBasis=   547 NAE=    91 NBE=    91 NFC=     0 NFV=     0
 NROrb=    547 NOA=    91 NOB=    91 NVA=   456 NVB=   456

 **** Warning!!: The largest alpha MO coefficient is  0.94356814D+02

          Differentiating once with respect to electric field.
                with respect to dipole field.
          Electric field/nuclear overlap derivatives assumed to be zero.
          There are     3 degrees of freedom in the 1st order CPHF.  IDoFFX=0.
      3 vectors produced by pass  0 Test12= 1.38D-12 3.33D-08 XBig12= 1.18D+02 1.13D+00.
 AX will form     3 AO Fock derivatives at one time.
      3 vectors produced by pass  1 Test12= 1.38D-12 3.33D-08 XBig12= 2.11D+01 3.43D-01.
      3 vectors produced by pass  2 Test12= 1.38D-12 3.33D-08 XBig12= 8.78D+00 2.49D-01.
      3 vectors produced by pass  3 Test12= 1.38D-12 3.33D-08 XBig12= 8.50D-01 6.65D-02.
      3 vectors produced by pass  4 Test12= 1.38D-12 3.33D-08 XBig12= 2.38D-01 3.48D-02.
      3 vectors produced by pass  5 Test12= 1.38D-12 3.33D-08 XBig12= 6.30D-02 1.84D-02.
      3 vectors produced by pass  6 Test12= 1.38D-12 3.33D-08 XBig12= 1.56D-02 1.26D-02.
      3 vectors produced by pass  7 Test12= 1.38D-12 3.33D-08 XBig12= 2.45D-03 7.82D-03.
      3 vectors produced by pass  8 Test12= 1.38D-12 3.33D-08 XBig12= 6.61D-04 2.83D-03.
      3 vectors produced by pass  9 Test12= 1.38D-12 3.33D-08 XBig12= 1.46D-04 1.93D-03.
      3 vectors produced by pass 10 Test12= 1.38D-12 3.33D-08 XBig12= 3.69D-05 8.36D-04.
      3 vectors produced by pass 11 Test12= 1.38D-12 3.33D-08 XBig12= 6.50D-06 4.92D-04.
      3 vectors produced by pass 12 Test12= 1.38D-12 3.33D-08 XBig12= 9.28D-07 1.84D-04.
      3 vectors produced by pass 13 Test12= 1.38D-12 3.33D-08 XBig12= 1.51D-07 4.61D-05.
      3 vectors produced by pass 14 Test12= 1.38D-12 3.33D-08 XBig12= 4.12D-08 1.91D-05.
      3 vectors produced by pass 15 Test12= 1.38D-12 3.33D-08 XBig12= 5.38D-09 5.60D-06.
      3 vectors produced by pass 16 Test12= 1.38D-12 3.33D-08 XBig12= 5.26D-10 2.24D-06.
      3 vectors produced by pass 17 Test12= 1.38D-12 3.33D-08 XBig12= 1.86D-10 9.99D-07.
      3 vectors produced by pass 18 Test12= 1.38D-12 3.33D-08 XBig12= 3.78D-11 3.77D-07.
      3 vectors produced by pass 19 Test12= 1.38D-12 3.33D-08 XBig12= 9.24D-12 1.71D-07.
      3 vectors produced by pass 20 Test12= 1.38D-12 3.33D-08 XBig12= 2.26D-11 4.30D-07.
      1 vectors produced by pass 21 Test12= 1.38D-12 3.33D-08 XBig12= 2.93D-12 1.17D-07.
 Inverted reduced A of dimension    64 with in-core refinement.
 End of Minotr Frequency-dependent properties file   721 does not exist.
 End of Minotr Frequency-dependent properties file   722 does not exist.
 Symmetrizing basis deriv contribution to polar:
 IMax=3 JMax=2 DiffMx= 0.00D+00
 G2DrvN: will do    23 centers at a time, making    2 passes doing MaxLOS=2.
 Calling FoFCou, ICntrl=  3107 FMM=F I1Cent=   0 AccDes= 0.00D+00.
 Calling FoFCou, ICntrl=  3107 FMM=F I1Cent=   0 AccDes= 0.00D+00.
 FoFDir/FoFCou used for L=0 through L=2.
 End of G2Drv Frequency-dependent properties file   721 does not exist.
 End of G2Drv Frequency-dependent properties file   722 does not exist.
          IDoAtm=111111111111111111111111111111111111111111111
          Differentiating once with respect to electric field.
                with respect to dipole field.
          Differentiating once with respect to nuclear coordinates.
          There are   138 degrees of freedom in the 1st order CPHF.  IDoFFX=5.
 Will reuse    3 saved solutions.
    135 vectors produced by pass  0 Test12= 4.15D-14 1.00D-09 XBig12= 2.97D-01 8.38D-02.
 AX will form    68 AO Fock derivatives at one time.
    135 vectors produced by pass  1 Test12= 4.15D-14 1.00D-09 XBig12= 3.15D-02 1.92D-02.
    132 vectors produced by pass  2 Test12= 4.15D-14 1.00D-09 XBig12= 1.94D-04 1.40D-03.
    132 vectors produced by pass  3 Test12= 4.15D-14 1.00D-09 XBig12= 7.45D-07 7.82D-05.
    132 vectors produced by pass  4 Test12= 4.15D-14 1.00D-09 XBig12= 1.22D-09 2.54D-06.
    129 vectors produced by pass  5 Test12= 4.15D-14 1.00D-09 XBig12= 3.32D-12 1.39D-07.
     74 vectors produced by pass  6 Test12= 4.15D-14 1.00D-09 XBig12= 1.33D-13 1.98D-08.
 Inverted reduced A of dimension   869 with in-core refinement.
 Isotropic polarizability for W=    0.000000      187.41 Bohr**3.
 End of Minotr Frequency-dependent properties file   721 does not exist.
 End of Minotr Frequency-dependent properties file   722 does not exist.

 **********************************************************************

            Population analysis using the SCF density.

 **********************************************************************

 Orbital symmetries:
       Occupied  (A) (A) (A) (A) (A) (A) (A) (A) (A) (A) (A) (A)
                 (A) (A) (A) (A) (A) (A) (A) (A) (A) (A) (A) (A)
                 (A) (A) (A) (A) (A) (A) (A) (A) (A) (A) (A) (A)
                 (A) (A) (A) (A) (A) (A) (A) (A) (A) (A) (A) (A)
                 (A) (A) (A) (A) (A) (A) (A) (A) (A) (A) (A) (A)
                 (A) (A) (A) (A) (A) (A) (A) (A) (A) (A) (A) (A)
                 (A) (A) (A) (A) (A) (A) (A) (A) (A) (A) (A) (A)
                 (A) (A) (A) (A) (A) (A) (A)
       Virtual   (A) (A) (A) (A) (A) (A) (A) (A) (A) (A) (A) (A)
                 (A) (A) (A) (A) (A) (A) (A) (A) (A) (A) (A) (A)
                 (A) (A) (A) (A) (A) (A) (A) (A) (A) (A) (A) (A)
                 (A) (A) (A) (A) (A) (A) (A) (A) (A) (A) (A) (A)
                 (A) (A) (A) (A) (A) (A) (A) (A) (A) (A) (A) (A)
                 (A) (A) (A) (A) (A) (A) (A) (A) (A) (A) (A) (A)
                 (A) (A) (A) (A) (A) (A) (A) (A) (A) (A) (A) (A)
                 (A) (A) (A) (A) (A) (A) (A) (A) (A) (A) (A) (A)
                 (A) (A) (A) (A) (A) (A) (A) (A) (A) (A) (A) (A)
                 (A) (A) (A) (A) (A) (A) (A) (A) (A) (A) (A) (A)
                 (A) (A) (A) (A) (A) (A) (A) (A) (A) (A) (A) (A)
                 (A) (A) (A) (A) (A) (A) (A) (A) (A) (A) (A) (A)
                 (A) (A) (A) (A) (A) (A) (A) (A) (A) (A) (A) (A)
                 (A) (A) (A) (A) (A) (A) (A) (A) (A) (A) (A) (A)
                 (A) (A) (A) (A) (A) (A) (A) (A) (A) (A) (A) (A)
                 (A) (A) (A) (A) (A) (A) (A) (A) (A) (A) (A) (A)
                 (A) (A) (A) (A) (A) (A) (A) (A) (A) (A) (A) (A)
                 (A) (A) (A) (A) (A) (A) (A) (A) (A) (A) (A) (A)
                 (A) (A) (A) (A) (A) (A) (A) (A) (A) (A) (A) (A)
                 (A) (A) (A) (A) (A) (A) (A) (A) (A) (A) (A) (A)
                 (A) (A) (A) (A) (A) (A) (A) (A) (A) (A) (A) (A)
                 (A) (A) (A) (A) (A) (A) (A) (A) (A) (A) (A) (A)
                 (A) (A) (A) (A) (A) (A) (A) (A) (A) (A) (A) (A)
                 (A) (A) (A) (A) (A) (A) (A) (A) (A) (A) (A) (A)
                 (A) (A) (A) (A) (A) (A) (A) (A) (A) (A) (A) (A)
                 (A) (A) (A) (A) (A) (A) (A) (A) (A) (A) (A) (A)
                 (A) (A) (A) (A) (A) (A) (A) (A) (A) (A) (A) (A)
                 (A) (A) (A) (A) (A) (A) (A) (A) (A) (A) (A) (A)
                 (A) (A) (A) (A) (A) (A) (A) (A) (A) (A) (A) (A)
                 (A) (A) (A) (A) (A) (A) (A) (A) (A) (A) (A) (A)
                 (A) (A) (A) (A) (A) (A) (A) (A) (A) (A) (A) (A)
                 (A) (A) (A) (A) (A) (A) (A) (A) (A) (A) (A) (A)
                 (A) (A) (A) (A) (A) (A) (A) (A) (A) (A) (A) (A)
                 (A) (A) (A) (A) (A) (A) (A) (A) (A) (A) (A) (A)
                 (A) (A) (A) (A) (A) (A) (A) (A) (A) (A) (A) (A)
                 (A) (A) (A) (A) (A) (A) (A) (A) (A) (A) (A) (A)
                 (A) (A) (A) (A) (A) (A) (A) (A) (A) (A) (A) (A)
                 (A) (A) (A) (A) (A) (A) (A) (A) (A) (A) (A) (A)
 The electronic state is 1-A.
 Alpha  occ. eigenvalues --  -19.21700 -19.20861 -19.19647 -19.19592 -19.18366
 Alpha  occ. eigenvalues --  -19.17856 -19.17580 -19.16701 -19.15775 -19.15663
 Alpha  occ. eigenvalues --  -19.14635 -10.32554 -10.29874 -10.27880 -10.27831
 Alpha  occ. eigenvalues --  -10.27693 -10.26961 -10.26142 -10.25001 -10.24991
 Alpha  occ. eigenvalues --  -10.24142 -10.23917 -10.22506  -1.11392  -1.08178
 Alpha  occ. eigenvalues --   -1.07510  -1.06061  -1.05566  -1.03789  -1.03220
 Alpha  occ. eigenvalues --   -1.02586  -1.01691  -1.00666  -0.99998  -0.83334
 Alpha  occ. eigenvalues --   -0.82623  -0.79475  -0.77875  -0.72502  -0.69994
 Alpha  occ. eigenvalues --   -0.68634  -0.65256  -0.63860  -0.62734  -0.62006
 Alpha  occ. eigenvalues --   -0.60123  -0.58162  -0.57537  -0.55735  -0.54654
 Alpha  occ. eigenvalues --   -0.53833  -0.53750  -0.53605  -0.52889  -0.51571
 Alpha  occ. eigenvalues --   -0.50283  -0.49606  -0.49011  -0.48186  -0.47319
 Alpha  occ. eigenvalues --   -0.45823  -0.45687  -0.45085  -0.44659  -0.43943
 Alpha  occ. eigenvalues --   -0.43224  -0.42100  -0.41357  -0.40499  -0.39639
 Alpha  occ. eigenvalues --   -0.39442  -0.38118  -0.37376  -0.36587  -0.36512
 Alpha  occ. eigenvalues --   -0.35974  -0.35369  -0.34753  -0.34225  -0.33500
 Alpha  occ. eigenvalues --   -0.32534  -0.31889  -0.31607  -0.31073  -0.30605
 Alpha  occ. eigenvalues --   -0.29368  -0.29173  -0.28494  -0.27780  -0.26474
 Alpha  occ. eigenvalues --   -0.25809
 Alpha virt. eigenvalues --   -0.04178  -0.01765  -0.01009  -0.00543   0.00425
 Alpha virt. eigenvalues --    0.01096   0.01216   0.01641   0.02548   0.02951
 Alpha virt. eigenvalues --    0.03700   0.04041   0.04485   0.05424   0.05619
 Alpha virt. eigenvalues --    0.05824   0.06595   0.06776   0.07108   0.08312
 Alpha virt. eigenvalues --    0.08615   0.08644   0.09592   0.09691   0.10048
 Alpha virt. eigenvalues --    0.10333   0.10745   0.10963   0.11475   0.11905
 Alpha virt. eigenvalues --    0.12232   0.12447   0.12900   0.13231   0.13812
 Alpha virt. eigenvalues --    0.14065   0.14461   0.14625   0.14707   0.14935
 Alpha virt. eigenvalues --    0.15172   0.15663   0.15742   0.16130   0.16824
 Alpha virt. eigenvalues --    0.17137   0.17251   0.17562   0.17993   0.18260
 Alpha virt. eigenvalues --    0.18827   0.19048   0.19384   0.19765   0.20037
 Alpha virt. eigenvalues --    0.20094   0.20242   0.20355   0.21092   0.21204
 Alpha virt. eigenvalues --    0.21388   0.22171   0.22334   0.22527   0.22981
 Alpha virt. eigenvalues --    0.23133   0.23352   0.23491   0.24011   0.24069
 Alpha virt. eigenvalues --    0.24803   0.25031   0.25294   0.25350   0.25802
 Alpha virt. eigenvalues --    0.26238   0.26570   0.26600   0.27202   0.27583
 Alpha virt. eigenvalues --    0.27689   0.28133   0.28402   0.28601   0.29050
 Alpha virt. eigenvalues --    0.29518   0.29830   0.30127   0.30294   0.30411
 Alpha virt. eigenvalues --    0.30942   0.31114   0.31778   0.32103   0.32754
 Alpha virt. eigenvalues --    0.32842   0.33164   0.33234   0.33632   0.33885
 Alpha virt. eigenvalues --    0.34582   0.34772   0.34828   0.35258   0.35326
 Alpha virt. eigenvalues --    0.35582   0.36138   0.36536   0.37044   0.37174
 Alpha virt. eigenvalues --    0.37591   0.38084   0.38369   0.38767   0.39054
 Alpha virt. eigenvalues --    0.39222   0.39494   0.40104   0.40656   0.41051
 Alpha virt. eigenvalues --    0.41253   0.41997   0.42245   0.42806   0.43106
 Alpha virt. eigenvalues --    0.43676   0.44438   0.44967   0.45425   0.45856
 Alpha virt. eigenvalues --    0.46741   0.46940   0.47626   0.48685   0.49461
 Alpha virt. eigenvalues --    0.50894   0.54718   0.55883   0.62549   0.64441
 Alpha virt. eigenvalues --    0.64783   0.66258   0.67380   0.68273   0.69518
 Alpha virt. eigenvalues --    0.69823   0.70737   0.71285   0.74074   0.74650
 Alpha virt. eigenvalues --    0.75753   0.76500   0.76560   0.77596   0.78793
 Alpha virt. eigenvalues --    0.79585   0.80651   0.81518   0.82276   0.83390
 Alpha virt. eigenvalues --    0.84406   0.85058   0.85587   0.87327   0.89017
 Alpha virt. eigenvalues --    0.89959   0.92071   0.92770   0.94426   0.95373
 Alpha virt. eigenvalues --    0.95560   0.97421   0.98029   0.99392   0.99780
 Alpha virt. eigenvalues --    1.00827   1.01517   1.01963   1.02639   1.03373
 Alpha virt. eigenvalues --    1.03723   1.04760   1.05357   1.06135   1.07150
 Alpha virt. eigenvalues --    1.07542   1.07885   1.08135   1.08861   1.10472
 Alpha virt. eigenvalues --    1.10946   1.12348   1.13157   1.13840   1.15050
 Alpha virt. eigenvalues --    1.15830   1.16988   1.17377   1.18834   1.19959
 Alpha virt. eigenvalues --    1.21325   1.22758   1.23238   1.23575   1.25530
 Alpha virt. eigenvalues --    1.25778   1.26157   1.26774   1.27081   1.27816
 Alpha virt. eigenvalues --    1.28185   1.28886   1.29462   1.30118   1.31235
 Alpha virt. eigenvalues --    1.31651   1.32204   1.32542   1.32937   1.33929
 Alpha virt. eigenvalues --    1.34120   1.34774   1.36534   1.37379   1.37972
 Alpha virt. eigenvalues --    1.38579   1.39303   1.39939   1.40860   1.42252
 Alpha virt. eigenvalues --    1.43717   1.44443   1.45227   1.46256   1.47631
 Alpha virt. eigenvalues --    1.48075   1.49201   1.49325   1.49946   1.51814
 Alpha virt. eigenvalues --    1.52917   1.54258   1.55033   1.56170   1.56679
 Alpha virt. eigenvalues --    1.56917   1.57513   1.58667   1.59337   1.59686
 Alpha virt. eigenvalues --    1.61184   1.61466   1.62264   1.63617   1.64462
 Alpha virt. eigenvalues --    1.64776   1.65813   1.66279   1.66947   1.67740
 Alpha virt. eigenvalues --    1.68500   1.69253   1.69925   1.71525   1.72545
 Alpha virt. eigenvalues --    1.74024   1.74348   1.75647   1.76707   1.77386
 Alpha virt. eigenvalues --    1.77928   1.78807   1.79642   1.80858   1.82172
 Alpha virt. eigenvalues --    1.83285   1.84062   1.84953   1.85232   1.85490
 Alpha virt. eigenvalues --    1.86588   1.88163   1.88747   1.89286   1.89931
 Alpha virt. eigenvalues --    1.90863   1.91533   1.91674   1.93214   1.94200
 Alpha virt. eigenvalues --    1.94313   1.94994   1.96180   1.97482   1.98002
 Alpha virt. eigenvalues --    1.98154   1.98919   1.99289   2.00498   2.02372
 Alpha virt. eigenvalues --    2.03060   2.04192   2.05586   2.06106   2.07230
 Alpha virt. eigenvalues --    2.07986   2.08531   2.09730   2.10780   2.11879
 Alpha virt. eigenvalues --    2.12306   2.13275   2.14176   2.16196   2.17394
 Alpha virt. eigenvalues --    2.17986   2.18706   2.19814   2.21642   2.22426
 Alpha virt. eigenvalues --    2.24137   2.24766   2.25388   2.27564   2.28178
 Alpha virt. eigenvalues --    2.29042   2.30987   2.32626   2.33376   2.33964
 Alpha virt. eigenvalues --    2.34756   2.35589   2.36556   2.37902   2.38375
 Alpha virt. eigenvalues --    2.39094   2.40364   2.40611   2.42000   2.43167
 Alpha virt. eigenvalues --    2.45393   2.45852   2.47193   2.47577   2.48407
 Alpha virt. eigenvalues --    2.50189   2.50992   2.52088   2.53226   2.54049
 Alpha virt. eigenvalues --    2.54564   2.56286   2.57740   2.57978   2.59750
 Alpha virt. eigenvalues --    2.60152   2.60778   2.61670   2.62115   2.63206
 Alpha virt. eigenvalues --    2.63622   2.65109   2.65393   2.66869   2.68373
 Alpha virt. eigenvalues --    2.69981   2.71258   2.71867   2.72967   2.75420
 Alpha virt. eigenvalues --    2.76104   2.76664   2.77593   2.78640   2.80062
 Alpha virt. eigenvalues --    2.81689   2.82702   2.83340   2.84267   2.84837
 Alpha virt. eigenvalues --    2.86399   2.86854   2.88321   2.89171   2.89637
 Alpha virt. eigenvalues --    2.90812   2.91420   2.92946   2.93753   2.94358
 Alpha virt. eigenvalues --    2.95373   2.97832   2.98663   2.98874   2.99441
 Alpha virt. eigenvalues --    3.00102   3.02184   3.03316   3.04882   3.05077
 Alpha virt. eigenvalues --    3.06746   3.09308   3.09988   3.11204   3.12488
 Alpha virt. eigenvalues --    3.15486   3.18031   3.19771   3.23229   3.29097
 Alpha virt. eigenvalues --    3.30778   3.37138   3.37828   3.39774   3.41197
 Alpha virt. eigenvalues --    3.42138   3.44292   3.45152   3.46355   3.47050
 Alpha virt. eigenvalues --    3.48201   3.49116   3.51206   3.51421   3.52086
 Alpha virt. eigenvalues --    3.54764   3.56374   3.58487   3.59516   3.62012
 Alpha virt. eigenvalues --    3.63867   3.67463   3.71559   4.26497   4.29349
 Alpha virt. eigenvalues --    4.30402   4.34131   4.35918   4.40103   4.41419
 Alpha virt. eigenvalues --    4.45905   4.47134   4.49414   4.51760   4.53802
 Alpha virt. eigenvalues --    4.54904   4.58364   4.62553   4.65330   4.73639
 Alpha virt. eigenvalues --    4.74512   4.77022   4.85381   4.85941   4.88036
 Alpha virt. eigenvalues --    4.91398
          Condensed to atoms (all electrons):
              1          2          3          4          5          6
     1  O    8.219413   0.524999  -0.163091  -0.006937   0.018975  -0.030177
     2  C    0.524999   9.279124  -1.855167  -0.015047  -0.035559  -0.068717
     3  C   -0.163091  -1.855167   9.623964  -0.110509   0.044154  -2.873292
     4  O   -0.006937  -0.015047  -0.110509   8.263019   0.195105   0.283694
     5  H    0.018975  -0.035559   0.044154   0.195105   0.450781  -0.047909
     6  C   -0.030177  -0.068717  -2.873292   0.283694  -0.047909  19.765338
     7  O   -0.001133   0.007191   0.042157  -0.014670   0.000877  -0.122761
     8  H   -0.000063   0.012478  -0.061590   0.003461  -0.000358   0.108263
     9  C   -0.033189   0.508840  -0.549379   0.007374  -0.001087   0.852623
    10  O    0.000462   0.029822   0.006527   0.000040  -0.000002  -0.022274
    11  H    0.000063  -0.008309   0.001455   0.000001   0.000000   0.001947
    12  C   -0.242382  -2.547138   0.029626   0.002470   0.038820  -0.698232
    13  O    0.003502   0.091683  -0.028884  -0.002726   0.000107   0.090186
    14  C    0.034718  -0.104677   1.177854  -0.042984   0.003895  -9.597815
    15  O    0.000128   0.002955  -0.030914  -0.000545   0.000064  -0.062014
    16  C    0.002345   0.277044   0.131303  -0.002467   0.000155   0.202196
    17  C   -0.000362  -0.206071   0.056181   0.002813   0.000112  -0.990283
    18  O    0.000061   0.001686  -0.006736  -0.000007   0.000000   0.037677
    19  H   -0.000033   0.005535  -0.000015  -0.000009   0.000000   0.009935
    20  C    0.000114  -0.009059   0.020228   0.000175   0.000002  -0.413660
    21  O    0.000000   0.000043   0.000052   0.000000   0.000000  -0.000916
    22  H    0.000000   0.000053  -0.000025   0.000000   0.000000   0.000616
    23  C   -0.000001   0.009009  -0.039951   0.000145  -0.000059  -0.079463
    24  O    0.000000  -0.000096  -0.001351   0.000000   0.000000  -0.003424
    25  H    0.000000   0.000004  -0.000134   0.000000   0.000000   0.002150
    26  C   -0.000001  -0.027682  -0.025785  -0.000401   0.000040  -0.082618
    27  O    0.000000   0.000009   0.000562   0.000000   0.000000  -0.007979
    28  C    0.000008   0.001439   0.005350   0.000007   0.000000   0.007099
    29  O    0.000000   0.000005  -0.000017   0.000000   0.000000   0.000271
    30  H    0.000000   0.000000   0.000000   0.000000   0.000000   0.000007
    31  H    0.240429   0.012872  -0.031014   0.000489  -0.000016  -0.003618
    32  H   -0.000488   0.028871  -0.007505  -0.000083  -0.000001   0.026120
    33  H    0.003130   0.058484  -0.010857  -0.000033  -0.000002  -0.013092
    34  H    0.005920   0.020389  -0.036490  -0.000264  -0.000020  -0.002468
    35  H   -0.046053   0.415333  -0.100570  -0.005835  -0.001714   0.029694
    36  H   -0.001110   0.013562   0.379949  -0.046381  -0.007114  -0.222083
    37  H   -0.000460  -0.013396   0.077127  -0.006030   0.000476   0.118893
    38  H    0.000102  -0.045435   0.057479  -0.000324   0.000011  -0.285961
    39  H    0.000000   0.000173  -0.001037   0.000000   0.000000   0.008376
    40  H    0.000000  -0.000244   0.004996   0.000004   0.000000  -0.031124
    41  H    0.000000  -0.000010  -0.000424   0.000000   0.000000   0.003072
    42  H   -0.000001  -0.001788   0.001801   0.000003   0.000000  -0.003060
    43  H    0.000000   0.000274  -0.000614  -0.000001   0.000000   0.023251
    44  H    0.000000   0.000071  -0.000073   0.000000   0.000000   0.001685
    45  H    0.000000   0.000004   0.000000   0.000000   0.000000   0.000202
              7          8          9         10         11         12
     1  O   -0.001133  -0.000063  -0.033189   0.000462   0.000063  -0.242382
     2  C    0.007191   0.012478   0.508840   0.029822  -0.008309  -2.547138
     3  C    0.042157  -0.061590  -0.549379   0.006527   0.001455   0.029626
     4  O   -0.014670   0.003461   0.007374   0.000040   0.000001   0.002470
     5  H    0.000877  -0.000358  -0.001087  -0.000002   0.000000   0.038820
     6  C   -0.122761   0.108263   0.852623  -0.022274   0.001947  -0.698232
     7  O    8.287361   0.217028  -0.000920  -0.000009   0.000000   0.008392
     8  H    0.217028   0.388673   0.000779   0.000000   0.000000   0.002591
     9  C   -0.000920   0.000779   7.126969   0.112953  -0.002233  -2.237195
    10  O   -0.000009   0.000000   0.112953   8.327041   0.193860  -0.030740
    11  H    0.000000   0.000000  -0.002233   0.193860   0.440487   0.029485
    12  C    0.008392   0.002591  -2.237195  -0.030740   0.029485  12.076593
    13  O    0.006468  -0.000391   0.091284   0.015431  -0.000746  -0.340977
    14  C    0.162852  -0.039232  -0.655331  -0.021266   0.000259  -0.115193
    15  O   -0.003661  -0.000280  -0.002264  -0.000791   0.000010   0.027207
    16  C    0.012445  -0.005269  -0.056141   0.026753  -0.001764  -0.203093
    17  C    0.004346  -0.001574  -0.031765  -0.010850   0.000284   0.082011
    18  O    0.000663   0.000000   0.011070   0.001750   0.000436  -0.035483
    19  H   -0.000164   0.000000  -0.000059   0.002456  -0.000087   0.003735
    20  C    0.000294  -0.000180  -0.041074   0.006364  -0.000434   0.041458
    21  O   -0.000005   0.000000  -0.000801  -0.000034   0.000000   0.001135
    22  H    0.000000   0.000000  -0.000066  -0.000007   0.000000  -0.000232
    23  C   -0.016387   0.000820   0.002343  -0.000015  -0.000004   0.008180
    24  O    0.000622  -0.000011  -0.000007   0.000000   0.000000  -0.000182
    25  H    0.000025   0.000000   0.000002   0.000000   0.000000  -0.000025
    26  C    0.010364   0.000217   0.019102  -0.000514  -0.000034   0.008225
    27  O   -0.000134   0.000000  -0.000116   0.000002   0.000000   0.000593
    28  C    0.000364  -0.000008  -0.005436   0.000361   0.000006   0.001884
    29  O   -0.000002   0.000000   0.000033   0.000000   0.000000   0.000064
    30  H    0.000000   0.000000   0.000000   0.000000   0.000000  -0.000001
    31  H   -0.000042   0.000000  -0.000896   0.000043  -0.000002   0.035403
    32  H    0.000001   0.000000   0.582267  -0.055551  -0.002544  -0.266152
    33  H   -0.000007   0.000000   0.430146  -0.051260  -0.010573  -0.111141
    34  H   -0.000235   0.000005   0.066132   0.005060   0.000005   0.139903
    35  H   -0.000676   0.000003   0.040265   0.000492  -0.000006  -0.163092
    36  H   -0.013646  -0.001286   0.005770   0.000023   0.000000  -0.054108
    37  H   -0.042655  -0.006150   0.005727  -0.000010   0.000000  -0.004243
    38  H    0.005312  -0.000072   0.014054  -0.000216  -0.000002   0.001519
    39  H    0.000152   0.000004   0.000033   0.000000   0.000000   0.000061
    40  H   -0.000213  -0.000031  -0.000063   0.000000   0.000000  -0.000209
    41  H   -0.000043   0.000000   0.000139   0.000000   0.000000   0.000471
    42  H    0.000285   0.000006   0.000526   0.000004   0.000000   0.004014
    43  H    0.000095   0.000000   0.003872  -0.000029   0.000000  -0.004000
    44  H    0.000007   0.000000   0.000054  -0.000003   0.000000   0.000651
    45  H    0.000000   0.000000  -0.000005   0.000000   0.000000   0.000051
             13         14         15         16         17         18
     1  O    0.003502   0.034718   0.000128   0.002345  -0.000362   0.000061
     2  C    0.091683  -0.104677   0.002955   0.277044  -0.206071   0.001686
     3  C   -0.028884   1.177854  -0.030914   0.131303   0.056181  -0.006736
     4  O   -0.002726  -0.042984  -0.000545  -0.002467   0.002813  -0.000007
     5  H    0.000107   0.003895   0.000064   0.000155   0.000112   0.000000
     6  C    0.090186  -9.597815  -0.062014   0.202196  -0.990283   0.037677
     7  O    0.006468   0.162852  -0.003661   0.012445   0.004346   0.000663
     8  H   -0.000391  -0.039232  -0.000280  -0.005269  -0.001574   0.000000
     9  C    0.091284  -0.655331  -0.002264  -0.056141  -0.031765   0.011070
    10  O    0.015431  -0.021266  -0.000791   0.026753  -0.010850   0.001750
    11  H   -0.000746   0.000259   0.000010  -0.001764   0.000284   0.000436
    12  C   -0.340977  -0.115193   0.027207  -0.203093   0.082011  -0.035483
    13  O    8.489142   0.077001  -0.028069   0.055066  -0.026002   0.012549
    14  C    0.077001  14.936288   0.250606  -1.721397   1.407176   0.043013
    15  O   -0.028069   0.250606   8.353760  -0.063200   0.010841  -0.015197
    16  C    0.055066  -1.721397  -0.063200  15.087229  -4.439185  -0.182593
    17  C   -0.026002   1.407176   0.010841  -4.439185  12.625229   0.402326
    18  O    0.012549   0.043013  -0.015197  -0.182593   0.402326   8.331052
    19  H    0.026349  -0.017389   0.013057  -0.051229   0.015140   0.191734
    20  C   -0.002663  -0.532036   0.056807  -1.928942  -2.848778  -0.188910
    21  O    0.000254  -0.003166   0.000607  -0.008362  -0.254659   0.001593
    22  H   -0.000027   0.002001  -0.000360   0.050900  -0.091120   0.022956
    23  C    0.004536   0.145120  -0.102348   0.361464  -0.704162   0.006298
    24  O   -0.000100   0.005226  -0.003670  -0.032108   0.006629   0.000069
    25  H   -0.000006  -0.002188  -0.000492   0.022750   0.007314   0.000000
    26  C   -0.032421  -0.337833   0.048651  -3.199438   0.046123   0.037130
    27  O    0.000276   0.009491   0.004620  -0.050064   0.029684  -0.001358
    28  C    0.000936  -0.024393   0.014485   1.115436   0.265078   0.003809
    29  O    0.000005   0.004098   0.000005   0.010544   0.011721  -0.000181
    30  H    0.000000   0.000202  -0.000002  -0.000818  -0.000820   0.000000
    31  H   -0.000584  -0.003550   0.000004   0.000057  -0.000010  -0.000001
    32  H   -0.006822  -0.004436   0.000214  -0.003250   0.002369   0.000586
    33  H    0.006374   0.004310  -0.000048   0.001899  -0.000567  -0.000281
    34  H   -0.052380   0.065065   0.001131   0.008504   0.013229   0.000384
    35  H    0.009615   0.054018  -0.000270  -0.000012   0.002215   0.000039
    36  H    0.001008   0.171882  -0.000579   0.007252   0.002097   0.000016
    37  H    0.005444   0.075449  -0.004892   0.035844   0.007540   0.000015
    38  H   -0.076896   0.444039  -0.053057   0.046996   0.045474  -0.001029
    39  H   -0.000037   0.012274  -0.001151   0.120821   0.022570   0.000004
    40  H   -0.000152   0.015114  -0.004240   0.037588  -0.011987  -0.000045
    41  H   -0.000219   0.050914   0.006539  -0.045357   0.093586  -0.000916
    42  H   -0.000246   0.032517  -0.055463   0.287885   0.008186  -0.000639
    43  H   -0.000072   0.050984  -0.014182  -0.043763   0.420958  -0.065039
    44  H    0.000099   0.008917  -0.000193   0.116844  -0.094045   0.001531
    45  H    0.000007   0.004466   0.000126   0.052604   0.037019  -0.000714
             19         20         21         22         23         24
     1  O   -0.000033   0.000114   0.000000   0.000000  -0.000001   0.000000
     2  C    0.005535  -0.009059   0.000043   0.000053   0.009009  -0.000096
     3  C   -0.000015   0.020228   0.000052  -0.000025  -0.039951  -0.001351
     4  O   -0.000009   0.000175   0.000000   0.000000   0.000145   0.000000
     5  H    0.000000   0.000002   0.000000   0.000000  -0.000059   0.000000
     6  C    0.009935  -0.413660  -0.000916   0.000616  -0.079463  -0.003424
     7  O   -0.000164   0.000294  -0.000005   0.000000  -0.016387   0.000622
     8  H    0.000000  -0.000180   0.000000   0.000000   0.000820  -0.000011
     9  C   -0.000059  -0.041074  -0.000801  -0.000066   0.002343  -0.000007
    10  O    0.002456   0.006364  -0.000034  -0.000007  -0.000015   0.000000
    11  H   -0.000087  -0.000434   0.000000   0.000000  -0.000004   0.000000
    12  C    0.003735   0.041458   0.001135  -0.000232   0.008180  -0.000182
    13  O    0.026349  -0.002663   0.000254  -0.000027   0.004536  -0.000100
    14  C   -0.017389  -0.532036  -0.003166   0.002001   0.145120   0.005226
    15  O    0.013057   0.056807   0.000607  -0.000360  -0.102348  -0.003670
    16  C   -0.051229  -1.928942  -0.008362   0.050900   0.361464  -0.032108
    17  C    0.015140  -2.848778  -0.254659  -0.091120  -0.704162   0.006629
    18  O    0.191734  -0.188910   0.001593   0.022956   0.006298   0.000069
    19  H    0.324815   0.032464   0.000830  -0.000436  -0.003001   0.000000
    20  C    0.032464  12.115087   0.598631  -0.015225   0.168494  -0.002953
    21  O    0.000830   0.598631   8.165872   0.217897  -0.002370  -0.000023
    22  H   -0.000436  -0.015225   0.217897   0.400227   0.001319   0.000000
    23  C   -0.003001   0.168494  -0.002370   0.001319   6.791318   0.192630
    24  O    0.000000  -0.002953  -0.000023   0.000000   0.192630   8.246657
    25  H    0.000000  -0.003719   0.000000   0.000000   0.005812   0.231541
    26  C    0.003713   1.517466  -0.000119  -0.002330  -1.414416  -0.012937
    27  O    0.000014  -0.183115   0.003417  -0.000272  -0.095887  -0.000573
    28  C    0.000151  -1.954968  -0.205917   0.051066  -0.172234   0.003550
    29  O    0.000015  -0.133791  -0.001507  -0.000118  -0.003033   0.000322
    30  H    0.000000   0.020376  -0.001275   0.000027   0.002778   0.000001
    31  H    0.000000   0.000001   0.000000   0.000000  -0.000001   0.000000
    32  H    0.000220  -0.000124   0.000001   0.000000   0.000024   0.000000
    33  H    0.000008   0.000134   0.000000   0.000000   0.000000   0.000000
    34  H    0.000254   0.001676   0.000004   0.000000   0.000000   0.000000
    35  H   -0.000010   0.000071   0.000000   0.000000   0.000112   0.000000
    36  H   -0.000003   0.000137   0.000000   0.000000   0.000271   0.000000
    37  H   -0.000023   0.001691   0.000000   0.000000   0.003587  -0.000010
    38  H   -0.001687   0.021001   0.000042  -0.000001  -0.001245  -0.000004
    39  H    0.000000  -0.018804   0.000002   0.000000   0.489311  -0.058258
    40  H    0.000000   0.007300  -0.000007   0.000000   0.441936  -0.046427
    41  H    0.000021  -0.088613  -0.000342  -0.000007  -0.003201  -0.004460
    42  H   -0.000313  -0.018432  -0.000574  -0.000005   0.001935   0.000376
    43  H   -0.006710  -0.210859  -0.004256   0.000151   0.030958   0.000081
    44  H   -0.000190   0.286601  -0.062155  -0.007037   0.021106  -0.000019
    45  H    0.000004  -0.192472   0.005498  -0.000188   0.007034  -0.000208
             25         26         27         28         29         30
     1  O    0.000000  -0.000001   0.000000   0.000008   0.000000   0.000000
     2  C    0.000004  -0.027682   0.000009   0.001439   0.000005   0.000000
     3  C   -0.000134  -0.025785   0.000562   0.005350  -0.000017   0.000000
     4  O    0.000000  -0.000401   0.000000   0.000007   0.000000   0.000000
     5  H    0.000000   0.000040   0.000000   0.000000   0.000000   0.000000
     6  C    0.002150  -0.082618  -0.007979   0.007099   0.000271   0.000007
     7  O    0.000025   0.010364  -0.000134   0.000364  -0.000002   0.000000
     8  H    0.000000   0.000217   0.000000  -0.000008   0.000000   0.000000
     9  C    0.000002   0.019102  -0.000116  -0.005436   0.000033   0.000000
    10  O    0.000000  -0.000514   0.000002   0.000361   0.000000   0.000000
    11  H    0.000000  -0.000034   0.000000   0.000006   0.000000   0.000000
    12  C   -0.000025   0.008225   0.000593   0.001884   0.000064  -0.000001
    13  O   -0.000006  -0.032421   0.000276   0.000936   0.000005   0.000000
    14  C   -0.002188  -0.337833   0.009491  -0.024393   0.004098   0.000202
    15  O   -0.000492   0.048651   0.004620   0.014485   0.000005  -0.000002
    16  C    0.022750  -3.199438  -0.050064   1.115436   0.010544  -0.000818
    17  C    0.007314   0.046123   0.029684   0.265078   0.011721  -0.000820
    18  O    0.000000   0.037130  -0.001358   0.003809  -0.000181   0.000000
    19  H    0.000000   0.003713   0.000014   0.000151   0.000015   0.000000
    20  C   -0.003719   1.517466  -0.183115  -1.954968  -0.133791   0.020376
    21  O    0.000000  -0.000119   0.003417  -0.205917  -0.001507  -0.001275
    22  H    0.000000  -0.002330  -0.000272   0.051066  -0.000118   0.000027
    23  C    0.005812  -1.414416  -0.095887  -0.172234  -0.003033   0.002778
    24  O    0.231541  -0.012937  -0.000573   0.003550   0.000322   0.000001
    25  H    0.436455  -0.035998  -0.002721   0.003447  -0.000020   0.000000
    26  C   -0.035998  10.793764   0.275692  -1.113835  -0.068189   0.007297
    27  O   -0.002721   0.275692   8.314463   0.141497  -0.037380  -0.003734
    28  C    0.003447  -1.113835   0.141497   6.653957   0.377669  -0.013969
    29  O   -0.000020  -0.068189  -0.037380   0.377669   8.166352   0.235083
    30  H    0.000000   0.007297  -0.003734  -0.013969   0.235083   0.415174
    31  H    0.000000  -0.000001   0.000000   0.000000   0.000000   0.000000
    32  H    0.000000   0.000212   0.000000  -0.000049   0.000000   0.000000
    33  H    0.000000  -0.000008   0.000000   0.000004   0.000000   0.000000
    34  H    0.000000   0.001957   0.000000  -0.000093   0.000000   0.000000
    35  H    0.000000   0.000033   0.000000  -0.000009   0.000000   0.000000
    36  H    0.000000  -0.000183   0.000000  -0.000005   0.000000   0.000000
    37  H    0.000000  -0.003984   0.000009  -0.000095   0.000000   0.000000
    38  H    0.000000   0.029831   0.000237   0.000073  -0.000006   0.000000
    39  H    0.007118  -0.279273  -0.005249   0.010135  -0.000030   0.000000
    40  H   -0.009640  -0.102308   0.007795  -0.002135   0.000020   0.000000
    41  H    0.002578   0.209905  -0.051666   0.050732  -0.000291  -0.000017
    42  H    0.000004  -0.036004   0.002577   0.011114  -0.000212   0.000001
    43  H   -0.000001   0.014378  -0.000049  -0.017377   0.000063   0.000016
    44  H    0.000000  -0.027252   0.004169  -0.043455  -0.007727   0.000314
    45  H    0.000002  -0.046361  -0.067810   0.474264  -0.052594  -0.009648
             31         32         33         34         35         36
     1  O    0.240429  -0.000488   0.003130   0.005920  -0.046053  -0.001110
     2  C    0.012872   0.028871   0.058484   0.020389   0.415333   0.013562
     3  C   -0.031014  -0.007505  -0.010857  -0.036490  -0.100570   0.379949
     4  O    0.000489  -0.000083  -0.000033  -0.000264  -0.005835  -0.046381
     5  H   -0.000016  -0.000001  -0.000002  -0.000020  -0.001714  -0.007114
     6  C   -0.003618   0.026120  -0.013092  -0.002468   0.029694  -0.222083
     7  O   -0.000042   0.000001  -0.000007  -0.000235  -0.000676  -0.013646
     8  H    0.000000   0.000000   0.000000   0.000005   0.000003  -0.001286
     9  C   -0.000896   0.582267   0.430146   0.066132   0.040265   0.005770
    10  O    0.000043  -0.055551  -0.051260   0.005060   0.000492   0.000023
    11  H   -0.000002  -0.002544  -0.010573   0.000005  -0.000006   0.000000
    12  C    0.035403  -0.266152  -0.111141   0.139903  -0.163092  -0.054108
    13  O   -0.000584  -0.006822   0.006374  -0.052380   0.009615   0.001008
    14  C   -0.003550  -0.004436   0.004310   0.065065   0.054018   0.171882
    15  O    0.000004   0.000214  -0.000048   0.001131  -0.000270  -0.000579
    16  C    0.000057  -0.003250   0.001899   0.008504  -0.000012   0.007252
    17  C   -0.000010   0.002369  -0.000567   0.013229   0.002215   0.002097
    18  O   -0.000001   0.000586  -0.000281   0.000384   0.000039   0.000016
    19  H    0.000000   0.000220   0.000008   0.000254  -0.000010  -0.000003
    20  C    0.000001  -0.000124   0.000134   0.001676   0.000071   0.000137
    21  O    0.000000   0.000001   0.000000   0.000004   0.000000   0.000000
    22  H    0.000000   0.000000   0.000000   0.000000   0.000000   0.000000
    23  C   -0.000001   0.000024   0.000000   0.000000   0.000112   0.000271
    24  O    0.000000   0.000000   0.000000   0.000000   0.000000   0.000000
    25  H    0.000000   0.000000   0.000000   0.000000   0.000000   0.000000
    26  C   -0.000001   0.000212  -0.000008   0.001957   0.000033  -0.000183
    27  O    0.000000   0.000000   0.000000   0.000000   0.000000   0.000000
    28  C    0.000000  -0.000049   0.000004  -0.000093  -0.000009  -0.000005
    29  O    0.000000   0.000000   0.000000   0.000000   0.000000   0.000000
    30  H    0.000000   0.000000   0.000000   0.000000   0.000000   0.000000
    31  H    0.398516  -0.000024  -0.000452  -0.000179  -0.013420  -0.000014
    32  H   -0.000024   0.605739  -0.052894   0.006140   0.005737   0.000003
    33  H   -0.000452  -0.052894   0.608981  -0.003687  -0.000772  -0.000015
    34  H   -0.000179   0.006140  -0.003687   0.589884   0.006757   0.002201
    35  H   -0.013420   0.005737  -0.000772   0.006757   0.614309   0.006334
    36  H   -0.000014   0.000003  -0.000015   0.002201   0.006334   0.580692
    37  H    0.000007   0.000001   0.000000   0.000017   0.000794   0.004673
    38  H    0.000002   0.000009   0.000019   0.011165   0.000170   0.001288
    39  H    0.000000   0.000000   0.000000   0.000000   0.000000   0.000000
    40  H    0.000000   0.000000   0.000000   0.000000   0.000000   0.000000
    41  H    0.000000   0.000000   0.000000   0.000000   0.000000   0.000000
    42  H    0.000000   0.000000   0.000000  -0.000011   0.000000   0.000000
    43  H    0.000000  -0.000001   0.000000  -0.000005   0.000000   0.000000
    44  H    0.000000   0.000000   0.000000   0.000000   0.000000   0.000000
    45  H    0.000000   0.000000   0.000000   0.000000   0.000000   0.000000
             37         38         39         40         41         42
     1  O   -0.000460   0.000102   0.000000   0.000000   0.000000  -0.000001
     2  C   -0.013396  -0.045435   0.000173  -0.000244  -0.000010  -0.001788
     3  C    0.077127   0.057479  -0.001037   0.004996  -0.000424   0.001801
     4  O   -0.006030  -0.000324   0.000000   0.000004   0.000000   0.000003
     5  H    0.000476   0.000011   0.000000   0.000000   0.000000   0.000000
     6  C    0.118893  -0.285961   0.008376  -0.031124   0.003072  -0.003060
     7  O   -0.042655   0.005312   0.000152  -0.000213  -0.000043   0.000285
     8  H   -0.006150  -0.000072   0.000004  -0.000031   0.000000   0.000006
     9  C    0.005727   0.014054   0.000033  -0.000063   0.000139   0.000526
    10  O   -0.000010  -0.000216   0.000000   0.000000   0.000000   0.000004
    11  H    0.000000  -0.000002   0.000000   0.000000   0.000000   0.000000
    12  C   -0.004243   0.001519   0.000061  -0.000209   0.000471   0.004014
    13  O    0.005444  -0.076896  -0.000037  -0.000152  -0.000219  -0.000246
    14  C    0.075449   0.444039   0.012274   0.015114   0.050914   0.032517
    15  O   -0.004892  -0.053057  -0.001151  -0.004240   0.006539  -0.055463
    16  C    0.035844   0.046996   0.120821   0.037588  -0.045357   0.287885
    17  C    0.007540   0.045474   0.022570  -0.011987   0.093586   0.008186
    18  O    0.000015  -0.001029   0.000004  -0.000045  -0.000916  -0.000639
    19  H   -0.000023  -0.001687   0.000000   0.000000   0.000021  -0.000313
    20  C    0.001691   0.021001  -0.018804   0.007300  -0.088613  -0.018432
    21  O    0.000000   0.000042   0.000002  -0.000007  -0.000342  -0.000574
    22  H    0.000000  -0.000001   0.000000   0.000000  -0.000007  -0.000005
    23  C    0.003587  -0.001245   0.489311   0.441936  -0.003201   0.001935
    24  O   -0.000010  -0.000004  -0.058258  -0.046427  -0.004460   0.000376
    25  H    0.000000   0.000000   0.007118  -0.009640   0.002578   0.000004
    26  C   -0.003984   0.029831  -0.279273  -0.102308   0.209905  -0.036004
    27  O    0.000009   0.000237  -0.005249   0.007795  -0.051666   0.002577
    28  C   -0.000095   0.000073   0.010135  -0.002135   0.050732   0.011114
    29  O    0.000000  -0.000006  -0.000030   0.000020  -0.000291  -0.000212
    30  H    0.000000   0.000000   0.000000   0.000000  -0.000017   0.000001
    31  H    0.000007   0.000002   0.000000   0.000000   0.000000   0.000000
    32  H    0.000001   0.000009   0.000000   0.000000   0.000000   0.000000
    33  H    0.000000   0.000019   0.000000   0.000000   0.000000   0.000000
    34  H    0.000017   0.011165   0.000000   0.000000   0.000000  -0.000011
    35  H    0.000794   0.000170   0.000000   0.000000   0.000000   0.000000
    36  H    0.004673   0.001288   0.000000   0.000000   0.000000   0.000000
    37  H    0.573184   0.006767  -0.000007   0.000126  -0.000005   0.000011
    38  H    0.006767   0.650660   0.000002   0.000068  -0.000012   0.007581
    39  H   -0.000007   0.000002   0.573194  -0.037893   0.006736   0.005242
    40  H    0.000126   0.000068  -0.037893   0.592777  -0.006337  -0.000572
    41  H   -0.000005  -0.000012   0.006736  -0.006337   0.634074   0.005854
    42  H    0.000011   0.007581   0.005242  -0.000572   0.005854   0.593566
    43  H   -0.000003   0.000028  -0.000001  -0.000053   0.005801   0.007504
    44  H    0.000000  -0.000004   0.000000   0.000000   0.000253   0.003428
    45  H    0.000000   0.000000  -0.000001   0.000015   0.008339   0.000015
             43         44         45
     1  O    0.000000   0.000000   0.000000
     2  C    0.000274   0.000071   0.000004
     3  C   -0.000614  -0.000073   0.000000
     4  O   -0.000001   0.000000   0.000000
     5  H    0.000000   0.000000   0.000000
     6  C    0.023251   0.001685   0.000202
     7  O    0.000095   0.000007   0.000000
     8  H    0.000000   0.000000   0.000000
     9  C    0.003872   0.000054  -0.000005
    10  O   -0.000029  -0.000003   0.000000
    11  H    0.000000   0.000000   0.000000
    12  C   -0.004000   0.000651   0.000051
    13  O   -0.000072   0.000099   0.000007
    14  C    0.050984   0.008917   0.004466
    15  O   -0.014182  -0.000193   0.000126
    16  C   -0.043763   0.116844   0.052604
    17  C    0.420958  -0.094045   0.037019
    18  O   -0.065039   0.001531  -0.000714
    19  H   -0.006710  -0.000190   0.000004
    20  C   -0.210859   0.286601  -0.192472
    21  O   -0.004256  -0.062155   0.005498
    22  H    0.000151  -0.007037  -0.000188
    23  C    0.030958   0.021106   0.007034
    24  O    0.000081  -0.000019  -0.000208
    25  H   -0.000001   0.000000   0.000002
    26  C    0.014378  -0.027252  -0.046361
    27  O   -0.000049   0.004169  -0.067810
    28  C   -0.017377  -0.043455   0.474264
    29  O    0.000063  -0.007727  -0.052594
    30  H    0.000016   0.000314  -0.009648
    31  H    0.000000   0.000000   0.000000
    32  H   -0.000001   0.000000   0.000000
    33  H    0.000000   0.000000   0.000000
    34  H   -0.000005   0.000000   0.000000
    35  H    0.000000   0.000000   0.000000
    36  H    0.000000   0.000000   0.000000
    37  H   -0.000003   0.000000   0.000000
    38  H    0.000028  -0.000004   0.000000
    39  H   -0.000001   0.000000  -0.000001
    40  H   -0.000053   0.000000   0.000015
    41  H    0.005801   0.000253   0.008339
    42  H    0.007504   0.003428   0.000015
    43  H    0.670807   0.010069   0.004819
    44  H    0.010069   0.637176   0.007382
    45  H    0.004819   0.007382   0.650825
 Mulliken atomic charges:
              1
     1  O   -0.528887
     2  C   -0.363555
     3  C    0.274661
     4  O   -0.503551
     5  H    0.340269
     6  C    0.089645
     7  O   -0.549940
     8  H    0.382169
     9  C   -0.264330
    10  O   -0.535873
    11  H    0.358438
    12  C    0.509276
    13  O   -0.386901
    14  C   -0.026861
    15  O   -0.343937
    16  C   -0.033476
    17  C    0.083991
    18  O   -0.609323
    19  H    0.450905
    20  C   -0.107763
    21  O   -0.449388
    22  H    0.370243
    23  C   -0.058762
    24  O   -0.520886
    25  H    0.335739
    26  C   -0.174173
    27  O   -0.287002
    28  C    0.360058
    29  O   -0.501171
    30  H    0.349009
    31  H    0.366001
    32  H    0.141409
    33  H    0.142200
    34  H    0.150051
    35  H    0.146445
    36  H    0.169372
    37  H    0.164578
    38  H    0.122021
    39  H    0.145536
    40  H    0.145943
    41  H    0.122905
    42  H    0.142882
    43  H    0.122909
    44  H    0.141798
    45  H    0.117327
 Sum of Mulliken atomic charges =   0.00000
 Mulliken charges with hydrogens summed into heavy atoms:
              1
     1  O   -0.162887
     2  C   -0.217110
     3  C    0.444033
     4  O   -0.163282
     6  C    0.254223
     7  O   -0.167771
     9  C    0.019279
    10  O   -0.177435
    12  C    0.659327
    13  O   -0.386901
    14  C    0.095160
    15  O   -0.343937
    16  C    0.109406
    17  C    0.206900
    18  O   -0.158418
    20  C    0.034034
    21  O   -0.079145
    23  C    0.232717
    24  O   -0.185147
    26  C   -0.051268
    27  O   -0.287002
    28  C    0.477385
    29  O   -0.152161
 Sum of Mulliken charges with hydrogens summed into heavy atoms =   0.00000
 APT atomic charges:
              1
     1  O   -0.636878
     2  C    0.406705
     3  C    0.367446
     4  O   -0.611689
     5  H    0.242849
     6  C    0.378789
     7  O   -0.634195
     8  H    0.286534
     9  C    0.456041
    10  O   -0.597584
    11  H    0.247357
    12  C    0.408915
    13  O   -0.834477
    14  C    0.942649
    15  O   -0.887901
    16  C    0.423899
    17  C    0.356935
    18  O   -0.771899
    19  H    0.426016
    20  C    0.383815
    21  O   -0.588811
    22  H    0.287335
    23  C    0.501933
    24  O   -0.643118
    25  H    0.236236
    26  C    0.405532
    27  O   -0.747298
    28  C    0.936558
    29  O   -0.667886
    30  H    0.262227
    31  H    0.261655
    32  H   -0.043600
    33  H   -0.040296
    34  H   -0.029432
    35  H   -0.036093
    36  H   -0.038708
    37  H   -0.015248
    38  H   -0.047693
    39  H   -0.014723
    40  H   -0.019086
    41  H   -0.053695
    42  H   -0.039208
    43  H   -0.068069
    44  H   -0.060179
    45  H   -0.091660
 Sum of APT charges=   0.00000
 APT Atomic charges with hydrogens summed into heavy atoms:
              1
     1  O   -0.375224
     2  C    0.370612
     3  C    0.328738
     4  O   -0.368840
[...]
 4084,0.00007669,0.00003577,0.00004328,-0.00001795,-0.00000899,-0.00001
 072,0.00000113,-0.00017764,0.00007187,-0.00012454,0.00022387,0.0000987
 1,0.00043680,-0.00029067,-0.00064371,-0.00370015,-0.01629108,0.0061255
 6,0.01159780,-0.26033003,0.14554955,-0.00910212,0.00729748,-0.00503881
 ,-0.00067119,0.00085164,0.00125515,0.00070747,-0.00017602,-0.00000041,
 -0.00002926,0.00060024,0.00055326,-0.00045449,-0.00024141,-0.00008896,
 -0.00007463,-0.00003708,-0.00001239,0.00005702,-0.00025217,0.00204968,
 0.00010156,0.00078283,-0.00029752,0.00004206,0.00016441,0.00020591,0.0
 0011688,-0.01735712,0.01175006,-0.00119217,0.00203628,-0.00036800,-0.0
 0016192,-0.00009900,-0.00038678,0.00000738,0.00007342,0.00001381,-0.00
 004612,-0.00000557,0.00001884,0.00001180,0.00000295,-0.00000147,-0.000
 00709,0.00000917,-0.00000059,-0.00001031,0.00001360,0.00003417,0.00001
 032,0.00002292,0.00000283,0.00003688,0.00000667,-0.00000306,-0.0000058
 1,0.00002087,-0.00000290,0.00004224,0.00005046,0.00009840,-0.00018175,
 0.00094785,0.00019693,0.00101180,0.00035380,-0.00114237,-0.00002654,0.
 00013777,0.00016259,0.00006006,-0.00167162,-0.00099561,-0.00204872,0.2
 8246140,-0.00000234,0.00000053,0.00002379,-0.00000473,0.00001224,-0.00
 003084,0.00003076,0.00003446,-0.00004527,-0.00002668,-0.00001803,0.000
 01437,0.00000643,0.00000443,-0.00000378,-0.00032062,0.00014803,-0.0000
 8928,0.00000844,-0.00014062,-0.00008320,-0.00000445,0.00001099,0.00000
 909,0.00000062,-0.00003649,0.00000788,-0.00002541,0.00003972,-0.000009
 05,0.00001009,-0.00000940,0.00000913,0.00007702,-0.00001222,-0.0001003
 1,-0.00003468,0.00011778,0.00011012,0.00033058,0.00043647,0.00011250,-
 0.00465661,0.00443390,-0.00004251,0.14870391,-0.14285725,0.00457690,0.
 02955334,-0.01917286,0.00538124,-0.00166492,0.00404959,-0.00088899,0.0
 0012842,-0.00031403,-0.00016679,0.00149377,0.00032507,-0.00223096,-0.0
 0087179,0.00009778,0.00034261,0.00018169,-0.00008608,0.00003293,-0.001
 47845,0.00061784,-0.00038978,0.00031671,0.00012588,0.00022447,0.000082
 33,-0.00000291,0.00000844,-0.01094239,0.00738333,-0.00054998,0.0006275
 9,0.00021826,0.00090004,0.00004149,-0.00040665,-0.00012892,-0.00002392
 ,0.00010478,0.00015176,-0.00000470,0.00000423,0.00000215,0.00000142,-0
 .00000244,-0.00000523,-0.00000908,0.00000783,0.00000682,0.00000142,0.0
 0000560,0.00000013,-0.00002603,0.00000420,-0.00000275,-0.00000748,-0.0
 0000404,0.00000911,-0.00000492,0.00000334,-0.00000604,0.00000591,-0.00
 008914,0.00007165,-0.00027416,-0.00016513,-0.00066874,-0.00017325,-0.0
 0032692,-0.00027987,0.00008910,0.00004436,0.00013734,-0.00190738,-0.00
 090443,-0.00160061,-0.15741769,0.15186985,-0.00002420,-0.00000782,-0.0
 0008368,-0.00000104,0.00000329,0.00007305,-0.00002088,0.00003550,0.000
 07801,0.00000752,0.00003901,-0.00005614,0.00000184,-0.00000910,0.00000
 016,0.00010443,-0.00013814,-0.00002598,-0.00015462,0.00018150,-0.00000
 511,-0.00003974,-0.00000448,0.00004350,-0.00002613,0.00009657,-0.00013
 828,-0.00003170,-0.00006559,0.00005405,0.00000111,0.00001249,0.0000025
 8,0.00005759,-0.00018158,0.00005899,-0.00130203,-0.00022632,-0.0007165
 6,0.00639571,-0.00106990,0.00601969,0.03337021,-0.01381766,-0.01825938
 ,-0.01265697,0.00512252,-0.04282155,-0.00788280,0.00280826,0.00124750,
 0.00118323,0.00011664,0.00087903,0.00025674,0.00013905,-0.00033278,-0.
 00094888,-0.00021061,0.00083818,0.00027133,-0.00017082,-0.00002463,-0.
 00002493,0.00002683,0.00005345,0.00024278,0.00159022,0.00018220,0.0002
 4100,-0.00024418,0.00002634,0.00013922,0.00017571,-0.00002136,-0.01999
 634,0.01373902,0.00080914,0.00139867,-0.00052769,0.00160804,-0.0003949
 2,0.00026467,-0.00000936,0.00011704,-0.00003656,-0.00021749,0.00000803
 ,0.00002256,0.00002696,-0.00000244,0.00000701,0.00000928,-0.00000158,0
 .00000716,0.00001552,-0.00000916,-0.00005689,-0.00000564,-0.00004886,-
 0.00001419,-0.00007871,-0.00000434,0.00000382,0.00000581,-0.00001716,0
 .00000434,-0.00004961,-0.00019579,-0.00006854,0.00011304,-0.00148218,0
 .00018203,0.00008583,0.00016950,-0.00053474,0.00007756,-0.00015222,-0.
 00026560,-0.00002481,-0.00284196,-0.00120538,-0.00304255,0.00334718,-0
 .00741114,0.05396494,0.00000900,0.00002311,-0.00006141,-0.00001482,-0.
 00003511,0.00005396,-0.00003739,-0.00004445,0.00002507,0.00005688,0.00
 004751,-0.00003245,-0.00000898,-0.00001313,0.00000769,0.00005387,-0.00
 006273,0.00003089,0.00004915,0.00007789,0.00003665,-0.00002016,-0.0000
 0425,-0.00001448,-0.00013701,-0.00005841,0.00014742,0.00010603,-0.0000
 7957,-0.00010630,-0.00001405,0.00002740,-0.00007273,0.00000379,0.00003
 699,0.00011217,0.00040201,0.00050067,-0.00049890,-0.00027990,-0.000334
 79,-0.00026281,0.00154959,-0.00108479,-0.00053220,-0.00038158,-0.00050
 933,0.00148681,-0.28034878,0.12443456,0.02678776,-0.02948641,-0.006072
 09,-0.02083210,-0.00077501,-0.00044160,0.00161882,-0.01504966,0.009517
 37,0.00788702,0.00177648,-0.00141428,-0.00097592,-0.00032232,0.0003798
 1,-0.00026442,0.00113008,-0.00028114,0.00011129,-0.00002207,0.00009562
 ,-0.00004685,-0.00000790,0.00007717,-0.00002735,-0.00089914,-0.0024839
 9,-0.00072036,0.00057328,0.00015873,-0.00009123,-0.00092939,-0.0008871
 5,-0.00121131,0.00050367,-0.00032858,-0.00002812,0.00005655,0.00007951
 ,0.00017262,-0.00000756,0.00000408,0.00000850,0.00004595,0.00000521,-0
 .00003560,0.00001068,0.00000693,-0.00002607,0.00004411,-0.00005612,0.0
 0005676,0.00000952,0.00000315,-0.00002189,0.00000824,-0.00000179,0.000
 00312,0.00001510,0.00003570,-0.00003291,0.00003475,-0.00010101,0.00015
 778,-0.00025418,-0.00043699,0.00001527,-0.00001563,-0.00000768,-0.0000
 0951,0.00107659,-0.00138673,0.00006218,0.00037962,-0.00064794,0.000327
 69,0.31995027,-0.00000411,0.00001139,-0.00002776,-0.00000051,-0.000022
 47,0.00002398,0.00001692,0.00002190,0.00000360,-0.00000117,0.00002729,
 -0.00001933,0.00000398,-0.00000733,-0.00000130,-0.00004124,-0.00014573
 ,-0.00010163,-0.00005011,0.00007340,0.00004858,-0.00000667,-0.00000109
 ,0.00000992,-0.00000676,0.00001677,0.00001609,0.00003253,-0.00005041,0
 .00000584,0.00000336,0.00000835,-0.00001823,0.00004549,0.00004893,0.00
 005475,-0.00001021,-0.00001580,-0.00005334,0.00024130,0.00010276,0.000
 44451,-0.00058031,0.00394958,-0.00187440,0.03150009,-0.02807038,-0.002
 20857,0.12005673,-0.09777907,-0.00507098,-0.02626886,0.00594330,-0.008
 81592,-0.00016109,0.00078384,0.00063583,-0.00464625,0.00387364,0.00044
 762,0.00061882,0.00179495,-0.00129289,-0.00037619,0.00003048,-0.000144
 12,0.00001976,-0.00008036,0.00018188,-0.00022483,0.00005428,-0.0000596
 1,-0.00004728,-0.00005877,-0.00003743,0.00388934,-0.00092729,0.0007019
 6,-0.00087450,-0.00008954,-0.00012022,0.00089460,0.00046551,-0.0002792
 5,-0.00022957,-0.00001878,-0.00003369,0.00007041,-0.00004661,-0.000051
 19,-0.00000019,0.00000090,0.00000304,0.00000418,0.00000502,-0.00000352
 ,-0.00000450,-0.00000688,-0.00000275,-0.00000490,-0.00001681,-0.000000
 77,-0.00000088,0.00000503,-0.00000158,-0.00000709,0.00000207,-0.000009
 85,-0.00002138,-0.00000929,0.00002670,-0.00016134,-0.00006290,-0.00021
 754,-0.00027982,0.00029369,-0.00006081,0.00001903,-0.00003988,0.000009
 29,-0.00148554,-0.00030548,-0.00044351,-0.00199666,-0.00580685,0.00186
 851,-0.11855812,0.11572041,0.00000387,0.00000351,0.00001236,0.00002277
 ,-0.00000331,0.00000857,-0.00000615,-0.00002154,-0.00000724,0.00001149
 ,0.00000353,0.00000492,-0.00000264,-0.00000097,0.00000246,0.00000317,0
 .00003523,0.00002356,0.00002453,-0.00002640,-0.00000760,0.00000184,-0.
 00000093,-0.00000273,-0.00009120,-0.00005105,0.00007939,0.00010078,-0.
 00000941,-0.00005228,-0.00000234,0.00000045,-0.00002724,-0.00013496,-0
 .00003078,-0.00002858,0.00038323,0.00012824,-0.00012031,-0.00056785,0.
 00019892,-0.00064423,-0.00098638,-0.00099170,0.00124580,-0.00750216,0.
 00915015,0.00191348,0.02836269,-0.00609830,-0.03833539,-0.03831998,-0.
 00295669,-0.01180186,-0.00159468,0.00052420,0.00113443,0.03686018,-0.0
 1600899,-0.01229246,-0.00316306,0.00029133,0.00253611,0.00027881,-0.00
 017632,-0.00031636,-0.00001893,0.00000084,-0.00011475,0.00006667,0.000
 01028,-0.00000633,0.00000630,0.00000048,0.00001572,0.00009661,-0.00211
 493,-0.00042140,-0.00056059,-0.00010560,-0.00028442,0.00221195,-0.0003
 1847,0.00147434,-0.00043765,0.00033225,0.00026547,-0.00019347,0.000006
 66,-0.00004513,-0.00000048,-0.00000145,0.00000178,0.00002785,-0.000000
 63,-0.00003482,0.00001542,0.00001407,-0.00000843,0.00004355,-0.0000350
 6,0.00005109,0.00000732,0.00000287,-0.00001619,0.00000380,-0.00000240,
 0.00000671,0.00001871,0.00002444,-0.00002089,0.00014264,-0.00005655,0.
 00001757,0.00001174,-0.00005007,-0.00000077,-0.00000622,0.00001119,-0.
 00000079,-0.00003419,-0.00054324,0.00022912,0.00038788,0.00183982,-0.0
 0024679,-0.01673151,0.01547895,0.06280631,0.00000688,-0.00001321,0.000
 02075,0.00000385,0.00000756,-0.00001520,-0.00000903,0.00000295,-0.0000
 0340,0.00000261,-0.00001815,0.00000718,-0.00000237,0.00000701,0.000000
 15,0.00000182,0.00004766,0.00001458,0.00002592,-0.00005128,-0.00000532
 ,-0.00000373,0.00000637,0.00000065,0.00000141,0.00002337,-0.00002289,0
 .00002624,-0.00001231,0.00003045,-0.00001319,0.00000126,-0.00000014,-0
 .00006181,-0.00000202,-0.00004960,0.00002592,-0.00008362,0.00007967,-0
 .00014095,0.00012848,-0.00003630,0.00032709,-0.00041952,0.00014993,0.0
 0011571,0.00136971,-0.00025362,-0.01436656,0.00406434,0.00642495,0.002
 08888,0.00016526,0.00108146,0.00003916,0.00011807,-0.00019277,-0.28581
 417,0.12163713,0.02425085,0.01245006,-0.00545463,-0.00026131,0.0015748
 5,0.00007925,-0.00012518,-0.00001379,0.00009089,-0.00006121,0.00000583
 ,-0.00006593,-0.00000501,0.00000959,0.00002292,-0.00000893,-0.00059307
 ,-0.00013242,0.00025115,0.00322691,-0.00039933,0.00048923,-0.02873493,
 0.01080060,-0.00053483,0.00268051,-0.00055343,0.00180720,0.00056538,0.
 00004672,0.00071442,-0.00000031,0.00000265,-0.00000202,0.00000089,-0.0
 0000455,-0.00000573,0.00000129,0.00000067,0.00000875,0.00001090,-0.000
 00136,0.00000492,0.00000461,-0.00000026,-0.00000360,0.00000324,-0.0000
 0310,0.00000610,0.00000813,0.00000164,-0.00000674,0.00002719,0.0000014
 4,0.00002784,0.00000139,-0.00009584,0.00002686,0.00001600,0.00000606,0
 .00000604,0.00031132,0.00013695,-0.00006678,0.00004734,-0.00097745,0.0
 0040856,0.00021063,-0.00111041,0.00227534,0.30766822,-0.00000121,0.000
 00879,-0.00000132,-0.00000129,0.00000130,0.00000547,0.00000454,0.00000
 334,-0.00000270,-0.00000176,0.00000775,-0.00000123,0.00000162,-0.00000
 268,-0.00000103,-0.00001313,-0.00002000,-0.00002507,-0.00000649,0.0000
 1749,0.00000338,0.00000045,-0.00000241,-0.00000181,-0.00001167,-0.0000
 3343,0.00001535,-0.00001251,0.00004847,-0.00002897,0.00000941,-0.00001
 045,0.00001537,0.00002044,-0.00001420,-0.00000328,0.00000197,0.0000301
 2,-0.00001082,0.00011412,0.00000241,0.00001705,0.00011505,0.00014187,-
 0.00026732,-0.00036363,0.00024959,-0.00014559,-0.00300125,0.00518271,0
 .00100281,0.00020454,0.00013153,-0.00007357,-0.00012507,-0.00002324,-0
 .00001305,0.11918678,-0.09129151,-0.01815989,0.02352586,-0.05315505,0.
 00223474,0.00169945,-0.00082070,0.00132580,-0.00002367,0.00000028,0.00
 003814,-0.00000906,-0.00001052,0.00000020,0.00000378,0.00001061,-0.000
 01029,-0.00029750,-0.00004035,0.00020816,0.00059145,0.00192103,-0.0001
 8546,-0.01336325,0.00582848,-0.00092760,0.00070730,0.00016736,0.000935
 00,-0.00035413,0.00005008,0.00028957,0.00000016,-0.00000361,0.00000022
 ,0.00000079,0.00000210,0.00000049,0.00000285,0.00000363,-0.00000655,-0
 .00000320,0.00000324,0.00000057,-0.00000303,-0.00000103,0.00000188,-0.
 00000157,0.00000168,-0.00000230,-0.00000428,-0.00000125,0.00000185,-0.
 00000760,0.00000547,0.00000485,-0.00000508,-0.00001463,-0.00000268,-0.
 00000300,-0.00001520,0.00000117,0.00015863,-0.00003090,-0.00004411,0.0
 0028648,0.00026441,-0.00001399,-0.00044107,0.00038839,0.00141960,-0.12
 696993,0.13208638,-0.00000653,-0.00000316,-0.00000941,0.00000176,0.000
 00501,0.00000735,0.00001238,0.00001220,0.00000515,-0.00000614,0.000000
 74,-0.00001246,0.00000278,0.00000018,-0.00000164,-0.00002441,-0.000029
 15,-0.00002439,-0.00001560,0.00001793,-0.00000872,0.00000215,-0.000002
 85,0.00000143,0.00002211,0.00001576,-0.00002297,-0.00003119,-0.0000072
 4,0.00001872,0.00000614,0.00000247,0.00000137,0.00003949,-0.00000219,0
 .00002705,-0.00012543,-0.00011957,0.00006626,0.00018090,0.00007416,0.0
 0016765,-0.00065335,0.00043259,-0.00038582,0.00003624,-0.00190681,0.00
 137650,0.03939577,-0.01353772,-0.01154239,-0.00213707,0.00062815,0.003
 38391,0.00000199,0.00023578,0.00000918,0.02740049,-0.01858484,-0.04702
 695,-0.00567041,0.00979189,0.00500857,0.00040993,-0.00135660,0.0003639
 1,-0.00000664,-0.00003581,0.00007485,0.00002752,0.00002752,0.00003090,
 -0.00000021,0.00000764,-0.00001468,0.00039785,-0.00001870,-0.00042980,
 0.00206358,0.00068923,0.00089487,-0.02809838,0.00899043,0.00012689,0.0
 0087792,0.00016612,0.00186096,0.00009429,0.00019526,0.00054069,0.00000
 016,0.00000107,0.00000102,-0.00000844,0.00000038,0.00000962,-0.0000040
 2,-0.00000565,0.00000026,-0.00001163,0.00000912,-0.00001522,-0.0000027
 5,-0.00000068,0.00000422,-0.00000309,0.00000144,-0.00000397,-0.0000047
 7,-0.00000721,0.00000718,-0.00003513,0.00001083,-0.00004060,0.00000788
 ,0.00003589,0.00000379,-0.00001908,-0.00002807,-0.00000141,-0.00021132
 ,0.00004565,-0.00018456,-0.00029456,0.00082714,-0.00014766,0.00273781,
 0.00125460,-0.00676751,-0.03347454,0.01431527,0.05610579,0.00000230,-0
 .00000318,-0.00001455,-0.00000635,0.00000129,0.00001040,-0.00000833,0.
 00000038,0.00001361,0.00001475,0.00000383,-0.00001657,-0.00000259,0.00
 000014,0.00000140,-0.00001428,-0.00000955,-0.00000346,0.00001532,0.000
 00313,-0.00000367,-0.00000657,-0.00000020,-0.00000183,-0.00001706,0.00
 000640,0.00000813,0.00002077,-0.00001957,-0.00000508,-0.00001020,0.000
 00620,-0.00000817,0.00000555,0.00000891,0.00002709,0.00004306,0.000011
 30,-0.00008547,-0.00002161,0.00002448,0.00005363,0.00012165,0.00011532
 ,-0.00018840,0.00001840,-0.00013850,0.00011698,-0.00096675,-0.00002775
 ,0.00147753,0.00056179,-0.00009807,-0.00026250,-0.00005897,-0.00005846
 ,0.00002559,-0.02058508,0.01069065,-0.00400972,0.00158316,-0.00136785,
 0.00061999,0.00026009,0.00009971,0.00022804,0.00045662,-0.00033019,-0.
 00023290,0.00001521,0.00000310,0.00002251,-0.00000189,0.00003788,-0.00
 002971,0.00114148,-0.00083882,-0.00073344,0.01026417,-0.00200315,0.001
 72284,-0.29294007,0.12327951,-0.02032721,-0.01394248,0.00477856,0.0097
 9869,0.00084818,-0.00062571,0.00036444,-0.00000237,0.00000314,0.000001
 71,0.00000715,0.00000010,-0.00000426,-0.00000039,-0.00000205,-0.000002
 03,0.00000375,-0.00000510,0.00000087,0.00000261,-0.00000100,-0.0000039
 3,0.00000216,-0.00000139,-0.00000011,0.00000347,0.00000266,-0.00000355
 ,0.00001321,-0.00000726,0.00000290,-0.00012224,-0.00016770,0.00013146,
 -0.00002435,0.00010614,-0.00003966,0.00011908,0.00047323,-0.00105356,-
 0.00006673,-0.00018400,0.00021150,0.00095607,-0.00025605,-0.00101470,-
 0.00173586,-0.00161129,-0.00287446,0.31405414,0.00000933,0.00001544,0.
 00002333,-0.00000531,-0.00001595,-0.00001414,-0.00000373,-0.00000672,-
 0.00002212,-0.00000470,0.00000538,0.00002813,0.00000050,-0.00000223,-0
 .00000133,0.00002387,-0.00001438,0.00000265,0.00001694,0.00002457,0.00
 004903,-0.00000824,0.00000332,-0.00001573,-0.00000391,-0.00002817,0.00
 002471,0.00000740,0.00002247,-0.00001742,0.00000039,-0.00000410,-0.000
 00026,-0.00002312,0.00001424,-0.00001549,0.00006073,0.00010576,0.00004
 913,-0.00015405,-0.00010863,-0.00017457,0.00022313,0.00023444,0.000488
 61,-0.00078504,-0.00035446,0.00012407,-0.00065860,0.00014749,0.0012792
 8,0.00015873,-0.00004281,-0.00036015,0.00003219,-0.00013577,0.00007009
 ,-0.01374917,0.00947485,-0.00300838,0.00213117,0.00120489,0.00119306,0
 .00029223,0.00038013,-0.00006563,-0.00037613,0.00018930,0.00056167,-0.
 00017557,-0.00003975,-0.00015586,0.00001831,-0.00005756,0.00009231,0.0
 0418815,-0.00059295,-0.00576189,0.02449388,-0.03908379,0.01291832,0.12
 279429,-0.09955484,0.00518562,-0.00265635,0.00616096,0.00126161,-0.000
 04635,-0.00025255,-0.00069109,0.00000060,-0.00000460,-0.00000439,0.000
 00174,0.00000208,-0.00000128,0.00000236,0.00000729,-0.00000027,-0.0000
 0119,-0.00000383,0.00000434,-0.00000072,0.00000139,0.00000100,-0.00000
 011,0.00000048,0.00000281,0.00000031,0.00000158,-0.00000896,0.00001083
 ,-0.00000174,0.00000808,-0.00007439,0.00033570,-0.00014020,-0.00024497
 ,-0.00020387,0.00005565,-0.00139590,0.00079009,0.00103669,-0.00006154,
 -0.00000940,-0.00016579,0.00026142,-0.00006017,0.00012776,-0.00240017,
 -0.00106734,-0.00214819,-0.13189923,0.12252375,-0.00000354,0.00000121,
 -0.00002270,-0.00000201,-0.00000129,0.00001702,-0.00000321,-0.00000339
 ,0.00001358,0.00001070,0.00001051,-0.00001809,-0.00000091,-0.00000319,
 0.00000187,-0.00000638,-0.00001982,-0.00000296,0.00000255,0.00002029,-
 0.00000376,-0.00000157,-0.00000528,-0.00000151,-0.00000974,-0.00000151
 ,0.00001106,0.00000318,-0.00000732,-0.00001459,0.00000045,0.00000347,-
 0.00000263,0.00001861,0.00000735,0.00003453,0.00001140,0.00001924,-0.0
 0008988,0.00002476,-0.00000328,0.00006707,0.00013438,0.00006213,-0.000
 22035,-0.00021108,-0.00033063,-0.00011012,-0.00129879,0.00065680,0.002
 39585,0.00049987,-0.00025565,-0.00027376,0.00002220,-0.00005315,0.0000
 8118,-0.02510891,0.01006928,-0.00040327,0.00140125,-0.00104076,0.00070
 925,0.00025309,0.00023673,0.00014922,0.00005649,0.00012217,0.00001479,
 0.00001005,-0.00000525,-0.00001141,0.00000236,0.00001434,0.00000877,-0
 .00183215,0.00127867,0.00247116,-0.00420722,0.00873480,0.00146552,-0.0
 2616661,0.00716438,-0.04736841,0.03967042,-0.01184156,-0.01602347,0.00
 199454,-0.00036598,0.00307593,-0.00000095,0.00000140,0.00000379,0.0000
 0420,0.00000054,-0.00000075,-0.00000125,-0.00000204,-0.00000451,0.0000
 0074,-0.00000264,0.00000054,0.00000039,-0.00000029,-0.00000230,0.00000
 067,-0.00000012,-0.00000111,0.00000088,0.00000262,-0.00000108,0.000002
 83,-0.00000543,0.00001027,0.00007786,-0.00008425,-0.00004113,0.0000165
 2,0.00000033,-0.00000043,0.00055325,-0.00031944,-0.00003066,0.00016381
 ,-0.00006543,0.00003524,0.00078914,-0.00026548,-0.00022470,-0.00295188
 ,-0.00190832,-0.00345795,0.01607962,-0.01181477,0.05776489\\0.01527396
 ,-0.00973968,-0.01525562,-0.01823407,0.00926430,-0.00872535,-0.0079496
 5,0.01554181,0.02120073,0.01496191,-0.00757277,0.02700333,-0.01804862,
 -0.00762659,-0.02242471,-0.00976061,-0.01954958,0.01341114,0.00283713,
 -0.01601993,-0.01264897,0.00197333,0.03551843,-0.00748394,0.01288331,0
 .01612212,0.02223206,0.00574465,0.00719955,0.00782862,-0.00140642,-0.0
 2565063,-0.01978017,0.00749303,0.05848102,-0.00341079,-0.01189257,-0.0
 4568530,0.00001752,0.01080379,-0.01337357,-0.04384419,-0.00755584,0.00
 747634,0.02301894,0.01089355,0.02484759,-0.01855525,-0.03215322,0.0319
 7950,0.04321458,0.02328749,-0.00428821,-0.00328964,-0.00055061,0.00456
 983,-0.02722417,0.04766207,-0.02268983,0.01172355,-0.00411422,-0.00843
 792,0.02708100,-0.01766494,0.00873713,-0.02008903,-0.01735760,-0.01147
 716,0.00296371,-0.02048253,0.01467264,-0.01095668,0.03225886,-0.002708
 87,0.00030368,-0.02537740,-0.04894199,-0.01314619,0.01913006,0.0236819
 6,0.01592283,0.01531258,0.01449245,-0.02991496,-0.00606359,-0.00866178
 ,0.02376478,-0.00468156,-0.00204320,-0.00302204,-0.00350174,0.00296315
 ,0.00152288,-0.02092599,0.00066850,0.00311539,0.00751033,-0.00045385,0
 .01905429,0.01819697,-0.00695404,-0.00807245,-0.01987902,0.00751560,-0
 .00132163,0.01748409,-0.00942913,-0.00195743,-0.01976645,0.00349851,0.
 00171615,0.02185261,-0.00455733,-0.00467521,0.01217688,-0.01374891,-0.
 00432672,-0.00138003,0.00128201,0.01740264,-0.01688716,0.01445947,0.00
 196775,0.01498000,-0.01304679,0.00355837,-0.02582826,0.00877850,0.0029
 5708,0.02061522,-0.01624194,-0.00855066,-0.02186969,0.00714860,-0.0023
 0523\\\@


 LOVE IS BLIND, THAT'S WHY ALL THE WORLD LOVES A LOUVER.
 Job cpu time:  0 days 12 hours 55 minutes 42.0 seconds.
 File lengths (MBytes):  RWF=   1320 Int=      0 D2E=      0 Chk=     19 Scr=      1
 Normal termination of Gaussian 09 at Tue Mar  1 16:20:38 2016.
Gaussian '09 finished on node027 at Tue Mar  1 16:20:38 EST 2016.
