Gaussian '09 started on node002 at Thu Mar 31 00:42:25 EDT 2016.
 Entering Gaussian System, Link 0=/usr/local/gaussian/g09/g09
 Initial command:
 /usr/local/gaussian/g09/l1.exe /home/srmcgrat/thesis/gaussian/cellobiose/493K/5796ps/1/2dp/gaussian753/Gau-804.inp -scrdir=/home/srmcgrat/thesis/gaussian/cellobiose/493K/5796ps/1/2dp/gaussian753/
 Entering Link 1 = /usr/local/gaussian/g09/l1.exe PID=       806.
  
 Copyright (c) 1988,1990,1992,1993,1995,1998,2003,2009,2010,
            Gaussian, Inc.  All Rights Reserved.
  
 This is part of the Gaussian(R) 09 program.  It is based on
 the Gaussian(R) 03 system (copyright 2003, Gaussian, Inc.),
 the Gaussian(R) 98 system (copyright 1998, Gaussian, Inc.),
 the Gaussian(R) 94 system (copyright 1995, Gaussian, Inc.),
 the Gaussian 92(TM) system (copyright 1992, Gaussian, Inc.),
 the Gaussian 90(TM) system (copyright 1990, Gaussian, Inc.),
 the Gaussian 88(TM) system (copyright 1988, Gaussian, Inc.),
 the Gaussian 86(TM) system (copyright 1986, Carnegie Mellon
 University), and the Gaussian 82(TM) system (copyright 1983,
 Carnegie Mellon University). Gaussian is a federally registered
 trademark of Gaussian, Inc.
  
 This software contains proprietary and confidential information,
 including trade secrets, belonging to Gaussian, Inc.
  
 This software is provided under written license and may be
 used, copied, transmitted, or stored only in accord with that
 written license.
  
 The following legend is applicable only to US Government
 contracts under FAR:
  
                    RESTRICTED RIGHTS LEGEND
  
 Use, reproduction and disclosure by the US Government is
 subject to restrictions as set forth in subparagraphs (a)
 and (c) of the Commercial Computer Software - Restricted
 Rights clause in FAR 52.227-19.
  
 Gaussian, Inc.
 340 Quinnipiac St., Bldg. 40, Wallingford CT 06492
  
  
 ---------------------------------------------------------------
 Warning -- This program may not be used in any manner that
 competes with the business of Gaussian, Inc. or will provide
 assistance to any competitor of Gaussian, Inc.  The licensee
 of this program is prohibited from giving any competitor of
 Gaussian, Inc. access to this program.  By using this program,
 the user acknowledges that Gaussian, Inc. is engaged in the
 business of creating and licensing software in the field of
 computational chemistry and represents and warrants to the
 licensee that it is not a competitor of Gaussian, Inc. and that
 it will not use this program in any manner prohibited above.
 ---------------------------------------------------------------
  

 Cite this work as:
 Gaussian 09, Revision B.01,
 M. J. Frisch, G. W. Trucks, H. B. Schlegel, G. E. Scuseria, 
 M. A. Robb, J. R. Cheeseman, G. Scalmani, V. Barone, B. Mennucci, 
 G. A. Petersson, H. Nakatsuji, M. Caricato, X. Li, H. P. Hratchian, 
 A. F. Izmaylov, J. Bloino, G. Zheng, J. L. Sonnenberg, M. Hada, 
 M. Ehara, K. Toyota, R. Fukuda, J. Hasegawa, M. Ishida, T. Nakajima, 
 Y. Honda, O. Kitao, H. Nakai, T. Vreven, J. A. Montgomery, Jr., 
 J. E. Peralta, F. Ogliaro, M. Bearpark, J. J. Heyd, E. Brothers, 
 K. N. Kudin, V. N. Staroverov, T. Keith, R. Kobayashi, J. Normand, 
 K. Raghavachari, A. Rendell, J. C. Burant, S. S. Iyengar, J. Tomasi, 
 M. Cossi, N. Rega, J. M. Millam, M. Klene, J. E. Knox, J. B. Cross, 
 V. Bakken, C. Adamo, J. Jaramillo, R. Gomperts, R. E. Stratmann, 
 O. Yazyev, A. J. Austin, R. Cammi, C. Pomelli, J. W. Ochterski, 
 R. L. Martin, K. Morokuma, V. G. Zakrzewski, G. A. Voth, 
 P. Salvador, J. J. Dannenberg, S. Dapprich, A. D. Daniels, 
 O. Farkas, J. B. Foresman, J. V. Ortiz, J. Cioslowski, 
 and D. J. Fox, Gaussian, Inc., Wallingford CT, 2010.
 
 ******************************************
 Gaussian 09:  EM64L-G09RevB.01 12-Aug-2010
                31-Mar-2016 
 ******************************************
 -------------------------------------------------
 # freq=raman b3lyp/6-31+g(2d,p) geom=connectivity
 -------------------------------------------------
 1/10=4,30=1,38=1,57=2/1,3;
 2/12=2,17=6,18=5,40=1/2;
 3/5=1,6=6,7=112,11=2,16=1,25=1,30=1,71=2,74=-5/1,2,3;
 4//1;
 5/5=2,38=5,98=1/2;
 8/6=4,10=90,11=11/1;
 10/13=10,15=4/2;
 11/6=3,8=1,9=11,15=111,16=1/1,2,10;
 10/6=1/2;
 6/7=2,8=2,9=2,10=2,18=1,28=1/1;
 7/8=1,10=1,25=1/1,2,3,16;
 1/10=4,30=1/3;
 99//99;
 -----------------
 493 5796/5796.com
 -----------------
 Symbolic Z-matrix:
 Charge =  0 Multiplicity = 1
 O                     7.756     7.494     12.511 
 C                     8.45      7.825     13.723 
 C                     7.957     9.175     14.215 
 O                     8.274     10.18     13.241 
 H                     8.118     9.796     12.33 
 C                     8.442     9.435     15.632 
 O                     7.623     10.521    16.088 
 H                     8.086     10.874    16.901 
 C                     8.827     5.455     14.399 
 O                     7.991     4.758     13.464 
 H                     8.147     3.772     13.52 
 C                     8.226     6.789     14.812 
 O                     8.816     7.098     16.084 
 C                     8.166     8.278     16.579 
 O                     8.917     8.55      17.771 
 C                     8.281     8.206     19.011 
 C                     8.579     6.807     19.526 
 O                     8.308     5.846     18.496 
 H                     8.681     6.232     17.652 
 C                     7.909     6.508     20.857 
 O                     8.271     5.24      21.423 
 H                     8.198     5.272     22.42 
 C                     8.373     10.608    19.795 
 O                     8.689     11.415    18.651 
 H                     8.412     12.37     18.758 
 C                     8.678     9.157     20.129 
 O                     7.983     8.889     21.355 
 C                     8.349     7.587     21.833 
 O                     7.777     7.36      23.129 
 H                     8.47947   7.24711   23.77351 
 H                     9.41452   7.54724   21.92237 
 H                     6.84672   6.55143   20.73624 
 H                     9.63314   6.76833   19.70542 
 H                     7.22343   8.286     18.86944 
 H                     9.72924   9.05931   20.30291 
 H                     7.84984   10.09295   19.01659 
 H                     9.4426    10.61355   19.82379 
 H                     8.39354   7.30491   11.81862 
 H                     9.78251   5.62807   13.94962 
 H                     8.95674   4.84724   15.27003 
 H                     7.17232   6.66141   14.9476 
 H                     9.4978    7.89133   13.51657 
 H                     6.88954   9.11796   14.26168 
 H                     9.47733   9.70496   15.64247 
 H                     7.12359   8.13092   16.77041 
 

 GradGradGradGradGradGradGradGradGradGradGradGradGradGradGradGradGradGrad
 Berny optimization.
 Initialization pass.
 Trust Radius=3.00D-01 FncErr=1.00D-07 GrdErr=1.00D-07
 Number of steps in this run=      2 maximum allowed number of steps=      2.
 GradGradGradGradGradGradGradGradGradGradGradGradGradGradGradGradGradGrad

                          Input orientation:                          
 ---------------------------------------------------------------------
 Center     Atomic      Atomic             Coordinates (Angstroms)
 Number     Number       Type             X           Y           Z
 ---------------------------------------------------------------------
      1          8           0        7.756000    7.494000   12.511000
      2          6           0        8.450000    7.825000   13.723000
      3          6           0        7.957000    9.175000   14.215000
      4          8           0        8.274000   10.180000   13.241000
      5          1           0        8.118000    9.796000   12.330000
      6          6           0        8.442000    9.435000   15.632000
      7          8           0        7.623000   10.521000   16.088000
      8          1           0        8.086000   10.874000   16.901000
      9          6           0        8.827000    5.455000   14.399000
     10          8           0        7.991000    4.758000   13.464000
     11          1           0        8.147000    3.772000   13.520000
     12          6           0        8.226000    6.789000   14.812000
     13          8           0        8.816000    7.098000   16.084000
     14          6           0        8.166000    8.278000   16.579000
     15          8           0        8.917000    8.550000   17.771000
     16          6           0        8.281000    8.206000   19.011000
     17          6           0        8.579000    6.807000   19.526000
     18          8           0        8.308000    5.846000   18.496000
     19          1           0        8.681000    6.232000   17.652000
     20          6           0        7.909000    6.508000   20.857000
     21          8           0        8.271000    5.240000   21.423000
     22          1           0        8.198000    5.272000   22.420000
     23          6           0        8.373000   10.608000   19.795000
     24          8           0        8.689000   11.415000   18.651000
     25          1           0        8.412000   12.370000   18.758000
     26          6           0        8.678000    9.157000   20.129000
     27          8           0        7.983000    8.889000   21.355000
     28          6           0        8.349000    7.587000   21.833000
     29          8           0        7.777000    7.360000   23.129000
     30          1           0        8.479468    7.247111   23.773511
     31          1           0        9.414520    7.547244   21.922371
     32          1           0        6.846724    6.551429   20.736237
     33          1           0        9.633141    6.768326   19.705416
     34          1           0        7.223427    8.286000   18.869442
     35          1           0        9.729243    9.059308   20.302911
     36          1           0        7.849842   10.092945   19.016588
     37          1           0        9.442598   10.613549   19.823789
     38          1           0        8.393538    7.304909   11.818620
     39          1           0        9.782514    5.628067   13.949622
     40          1           0        8.956738    4.847241   15.270033
     41          1           0        7.172324    6.661408   14.947601
     42          1           0        9.497802    7.891327   13.516574
     43          1           0        6.889542    9.117961   14.261679
     44          1           0        9.477332    9.704958   15.642470
     45          1           0        7.123585    8.130919   16.770411
 ---------------------------------------------------------------------
                    Distance matrix (angstroms):
                    1          2          3          4          5
     1  O    0.000000
     2  C    1.435319   0.000000
     3  C    2.402036   1.519083   0.000000
     4  O    2.831222   2.410254   1.434988   0.000000
     5  H    2.337308   2.436291   1.991177   1.000856   0.000000
     6  C    3.738812   2.497288   1.520103   2.510006   3.337439
     7  O    4.687787   3.680431   2.330537   2.940322   3.859173
     8  H    5.550261   4.419115   3.180855   3.729957   4.696504
     9  C    2.978104   2.493192   3.824808   4.896162   4.860836
    10  O    2.906739   3.111953   4.480518   5.433958   5.165610
    11  H    3.876112   4.069377   5.450829   6.415328   6.140482
    12  C    2.452045   1.519669   2.474220   3.737543   3.900518
    13  O    3.747899   2.497360   2.923178   4.227900   4.675353
    14  C    4.163097   2.905615   2.537082   3.843372   4.512275
    15  O    5.489140   4.138843   3.735955   4.857082   5.638741
    16  C    6.559921   5.304401   4.903627   6.098330   6.869529
    17  C    7.096444   5.893028   5.848165   7.139424   7.805707
    18  O    6.232241   5.168959   5.434372   6.811735   7.325173
    19  H    5.373839   4.245945   4.582400   5.933740   6.429833
    20  C    8.405434   7.274691   7.157608   8.462876   9.141354
    21  O    9.207035   8.124301   8.218156   9.557653  10.171686
    22  H   10.164690   9.067476   9.089198  10.409048  11.058077
    23  C    7.945712   6.679835   5.776067   6.568706   7.513361
    24  O    7.344680   6.101672   5.023099   5.564670   6.549980
    25  H    7.951775   6.783045   5.572603   5.937376   6.930447
    26  C    7.851724   6.546987   5.957815   6.975263   7.845146
    27  O    8.956221   7.719949   7.145773   8.221214   9.071466
    28  C    9.341305   8.114120   7.791619   8.975062   9.759101
    29  O   10.618866   9.441504   9.098682  10.294268  11.075594
    30  H   11.288424  10.067154   9.764981  10.935165  11.729511
    31  H    9.556539   8.260577   8.011088   9.143216   9.937377
    32  H    8.328851   7.306023   7.116346   8.448800   9.099902
    33  H    7.470601   6.189159   6.224644   7.434747   8.115370
    34  H    6.429672   5.310637   4.795027   6.030779   6.770869
    35  H    8.188880   6.815806   6.341679   7.296867   8.167382
    36  H    7.006140   5.790150   4.889720   5.791797   6.698548
    37  H    8.127305   6.780921   5.977871   6.699754   7.653746
    38  H    0.960000   1.974929   3.070902   3.209922   2.557922
    39  H    3.107748   2.579431   3.997957   4.847459   4.771315
    40  H    4.007413   3.393691   4.565311   5.746426   5.817000
    41  H    2.640248   2.118030   2.733234   4.062840   4.191874
    42  H    2.050103   1.070000   2.123602   2.609915   2.634311
    43  H    2.540251   2.096891   1.070000   2.021494   2.387516
    44  H    4.202074   2.876459   2.151729   2.727770   3.581694
    45  H    4.352952   3.337615   2.883541   4.240157   4.845473
                    6          7          8          9         10
     6  C    0.000000
     7  O    1.434606   0.000000
     8  H    1.951363   0.999973   0.000000
     9  C    4.184365   5.474184   6.014536   0.000000
    10  O    5.174742   6.342946   7.016228   1.434897   0.000000
    11  H    6.051210   7.240042   7.865957   2.016812   0.999834
    12  C    2.778556   3.989938   4.590288   1.520305   2.448937
    13  O    2.409512   3.624941   3.931738   2.353464   3.608410
    14  C    1.520406   2.359445   2.617117   3.627485   4.703642
    15  O    2.363085   2.896855   2.616952   4.577937   5.812658
    16  C    3.599167   3.786307   3.407103   5.397839   6.537738
    17  C    4.699829   5.150493   4.865610   5.308063   6.425884
    18  O    4.593623   5.303142   5.279592   4.148211   5.158028
    19  H    3.794302   4.686254   4.739851   3.347694   4.493119
    20  C    6.012657   6.239337   5.894338   6.607367   7.597741
    21  O    7.152828   7.534659   7.226663   7.049251   7.978496
    22  H    7.966621   8.244807   7.864751   8.047706   8.973125
    23  C    4.325651   3.783110   2.920336   7.475048   8.628440
    24  O    3.618808   2.916258   1.928416   7.322578   8.468047
    25  H    4.288007   3.342188   2.406811   8.184762   9.281499
    26  C    4.511761   4.393541   3.703854   6.823482   8.015323
    27  O    5.767281   5.525786   4.877392   7.803245   8.906913
    28  C    6.471179   6.491568   5.932804   7.748436   8.841469
    29  O    7.807231   7.719541   7.157630   8.996912  10.011415
    30  H    8.430449   8.397557   7.780781   9.550597  10.616981
    31  H    6.639141   6.789157   6.168180   7.830950   9.019442
    32  H    6.075617   6.161673   5.910116   6.729355   7.577017
    33  H    5.012254   5.586495   5.207202   5.525644   6.759683
    34  H    3.645017   3.590446   3.364007   5.529092   6.500366
    35  H    4.859583   4.933384   4.191223   6.975761   8.263985
    36  H    3.498425   2.968386   2.267494   6.617212   7.701481
    37  H    4.467804   4.156396   3.232784   7.511187   8.765929
    38  H    4.368238   5.400423   6.218004   3.204437   3.058768
    39  H    4.372655   5.759944   6.253688   1.070000   2.049968
    40  H    4.630713   5.885530   6.303972   1.070000   2.049968
    41  H    3.126227   4.049700   4.732495   2.119985   2.548384
    42  H    2.823592   4.128231   4.726929   2.676628   3.477205
    43  H    2.094856   2.417008   3.388392   4.146068   4.567139
    44  H    1.070000   2.074360   2.210512   4.475633   5.606006
    45  H    2.175965   2.535269   2.909947   3.960524   4.802222
                   11         12         13         14         15
    11  H    0.000000
    12  C    3.282955   0.000000
    13  O    4.252521   1.435815   0.000000
    14  C    5.446272   2.311495   1.435244   0.000000
    15  O    6.441520   3.512020   2.228110   1.434869   0.000000
    16  C    7.058994   4.431988   3.175093   2.435782   1.435420
    17  C    6.743136   4.727233   3.462400   3.319521   2.496461
    18  O    5.393327   3.803660   2.764654   3.099948   2.864982
    19  H    4.838407   2.929654   1.796331   2.366996   2.333020
    20  C    7.834150   6.059825   4.894106   4.636834   3.835261
    21  O    8.039142   6.790195   5.679270   5.718812   4.970968
    22  H    9.025663   7.757818   6.622771   6.569196   5.733711
    23  C    9.282112   6.279861   5.127170   3.976733   2.937325
    24  O    9.221517   6.029276   5.024152   3.795719   3.005763
    25  H   10.071369   6.837622   5.925156   4.642523   3.977637
    26  C    8.541608   5.837998   4.540986   3.692869   2.446576
    27  O    9.359370   6.876038   5.628944   4.818401   3.719184
    28  C    9.148825   7.067275   5.788628   5.302404   4.213056
    29  O   10.263699   8.348660   7.126022   6.625447   5.605699
    30  H   10.831501   8.976792   7.698316   7.274750   6.157848
    31  H    9.298329   7.248786   5.886139   5.535741   4.299643
    32  H    7.841557   6.087317   5.081348   4.690859   4.131944
    33  H    7.031782   5.091757   3.727071   3.769098   2.725653
    34  H    7.060149   4.439481   3.421450   2.476819   2.035795
    35  H    8.744541   6.128959   4.741303   4.113597   2.707343
    36  H    8.381834   5.360607   4.301538   3.055457   2.251887
    37  H    9.392716   6.420694   5.170854   4.196802   2.957775
    38  H    3.928985   3.042130   4.291241   4.864144   6.103695
    39  H    2.510869   2.124664   2.765940   4.068033   4.887713
    40  H    2.207812   2.124664   2.397554   3.756164   4.468427
    41  H    3.367004   1.070000   2.045406   2.502444   3.818672
    42  H    4.335151   2.123849   2.772345   3.361795   4.344113
    43  H    5.541713   2.740991   3.333517   2.775763   4.092493
    44  H    6.440082   3.279988   2.725535   2.152415   2.485667
    45  H    5.532876   2.617525   2.098178   1.070000   2.095983
                   16         17         18         19         20
    16  C    0.000000
    17  C    1.520273   0.000000
    18  O    2.415689   1.434525   0.000000
    19  H    2.429724   1.962882   1.000230   0.000000
    20  C    2.535607   1.519823   2.484304   3.308200   0.000000
    21  O    3.822957   2.479710   2.989303   3.920791   1.435000
    22  H    4.498503   3.297972   3.967285   4.887608   2.013501
    23  C    2.528384   3.816071   4.936423   4.882283   4.260650
    24  O    3.254803   4.691630   5.584169   5.278404   5.436312
    25  H    4.173735   5.618245   6.530087   6.242647   6.246747
    26  C    1.520505   2.428150   3.710298   3.832905   2.852814
    27  O    2.459599   2.834639   4.188001   4.610755   2.433648
    28  C    2.889891   2.446129   3.764084   4.407608   1.520006
    29  O    4.234106   3.732375   4.902943   5.664550   2.430085
    30  H    4.862136   4.271411   5.463024   6.208378   3.062312
    31  H    3.192947   2.643606   3.982291   4.528133   2.116987
    32  H    2.787687   2.128561   2.766156   3.602655   1.070000
    33  H    2.092225   1.070000   2.017268   2.326099   2.089636
    34  H    1.070000   2.110945   2.696175   2.797427   2.753485
    35  H    2.120041   2.645665   3.950975   4.014949   3.182683
    36  H    1.935585   3.404204   4.303192   4.178495   4.030192
    37  H    2.793963   3.914625   5.077387   4.949209   4.502774
    38  H    7.249480   7.725673   6.835432   5.938189   9.086372
    39  H    5.875188   5.825317   4.784479   3.909690   7.210840
    40  H    5.072743   4.700702   3.438786   2.768999   5.922000
    41  H    4.486217   4.791834   3.813894   3.126383   5.957116
    42  H    5.636341   6.175205   5.513046   4.530152   7.636736
    43  H    5.032284   5.992319   5.535994   4.799205   7.165853
    44  H    3.876220   4.928181   4.939790   4.090696   6.314391
    45  H    2.522992   3.385892   3.098605   2.609336   4.466649
                   21         22         23         24         25
    21  O    0.000000
    22  H    1.000181   0.000000
    23  C    5.610366   5.949298   0.000000
    24  O    6.781544   7.223773   1.435215   0.000000
    25  H    7.613081   7.989846   2.044880   1.000101   0.000000
    26  C    4.145235   4.535670   1.519862   2.698735   3.503393
    27  O    3.660979   3.776657   2.353861   3.767058   4.364151
    28  C    2.383819   2.393031   3.644237   4.989420   5.686535
    29  O    2.765659   2.244920   4.692577   6.109603   6.678994
    30  H    3.097879   2.410867   5.209171   6.607217   7.169651
    31  H    2.623049   2.627602   3.870232   5.117400   5.854679
    32  H    2.054276   2.509570   4.435225   5.603260   6.341868
    33  H    2.672322   3.415785   4.042163   4.857445   5.810984
    34  H    4.110497   4.758198   2.751338   3.462118   4.254901
    35  H    4.238890   4.601138   2.120334   3.059444   3.883627
    36  H    5.433164   5.911509   1.070000   1.608002   2.359633
    37  H    5.727577   6.068070   1.070000   1.608002   2.298513
    38  H    9.824611  10.796306   8.633277   7.978819   8.591302
    39  H    7.634570   8.624661   7.807363   7.535737   8.393597
    40  H    6.203507   7.202648   7.348634   7.391757   8.309907
    41  H    6.719991   7.669369   6.365100   6.213864   6.974523
    42  H    8.428888   9.371305   6.932829   6.279551   6.979257
    43  H    8.260238   9.113818   5.919334   5.270729   5.754176
    44  H    7.403082   8.198946   4.390734   3.549221   4.236025
    45  H    5.596477   6.422277   4.104279   4.095404   4.855959
                   26         27         28         29         30
    26  C    0.000000
    27  O    1.434547   0.000000
    28  C    2.340247   1.434449   0.000000
    29  O    3.611234   2.351032   1.434688   0.000000
    30  H    4.119411   2.965042   1.974368   0.960000   0.000000
    31  H    2.519912   2.042417   1.070000   2.042666   2.095500
    32  H    3.242115   2.671747   2.128880   2.691564   3.517792
    33  H    2.607198   3.152991   2.616460   3.939069   4.255537
    34  H    2.112087   2.668063   3.246258   4.394059   5.167865
    35  H    1.070000   2.045791   2.532574   3.832190   4.109873
    36  H    1.673110   2.633512   3.802774   4.938241   5.578845
    37  H    1.673110   2.729304   3.793795   4.927902   5.278335
    38  H    8.519012   9.675765  10.018451  11.327305  11.955339
    39  H    7.201252   8.289244   8.248638   9.554196  10.041316
    40  H    6.500868   7.369587   7.137798   8.334813   8.848520
    41  H    5.944909   6.831847   7.046276   8.233405   8.941385
    42  H    6.782196   8.045551   8.400911   9.779683  10.327476
    43  H    6.133968   7.180758   7.861219   9.083358   9.823589
    44  H    4.590005   5.960857   6.639393   8.027334   8.552811
    45  H    3.840465   4.725647   5.237108   6.438395   7.187694
                   31         32         33         34         35
    31  H    0.000000
    32  H    2.998689   0.000000
    33  H    2.359958   2.978886   0.000000
    34  H    3.829756   2.575960   2.967981   0.000000
    35  H    2.237865   3.845276   2.369564   2.988637   0.000000
    36  H    4.168019   4.062730   3.835066   1.918098   2.501035
    37  H    3.715785   4.906317   3.851760   3.354547   1.651480
    38  H   10.158096   9.082085   8.001630   7.214277   8.766140
    39  H    8.208739   7.451819   5.869554   6.149647   7.220841
    40  H    7.193969   6.102115   4.880647   5.271164   6.608187
    41  H    7.379673   5.798830   5.357598   4.245321   6.400555
    42  H    8.413249   7.806861   6.291360   5.829386   6.890001
    43  H    8.217596   6.964828   6.533177   4.694158   6.675615
    44  H    6.640545   6.543036   5.015537   4.184123   4.711691
    45  H    5.668488   4.277759   4.094971   2.107119   4.486638
                   36         37         38         39         40
    36  H    0.000000
    37  H    1.859966   0.000000
    38  H    7.738184   8.725271   0.000000
    39  H    7.024565   7.712095   3.046674   0.000000
    40  H    6.540589   7.363631   4.274292   1.742148   0.000000
    41  H    5.365738   6.674637   3.419938   2.979404   2.565014
    42  H    6.149232   6.869825   2.108633   2.321839   3.554409
    43  H    4.947923   6.300155   3.393773   4.543790   4.850683
    44  H    3.766156   4.279039   4.642916   4.424919   4.899708
    45  H    3.069578   4.567756   5.178349   4.614219   4.048965
                   41         42         43         44         45
    41  H    0.000000
    42  H    2.994726   0.000000
    43  H    2.566146   2.977051   0.000000
    44  H    3.880606   2.794478   2.991289   0.000000
    45  H    2.341895   4.035067   2.706061   3.047946   0.000000
 Stoichiometry    C12H22O11
 Framework group  C1[X(C12H22O11)]
 Deg. of freedom   129
 Full point group                 C1      NOp   1
 Largest Abelian subgroup         C1      NOp   1
 Largest concise Abelian subgroup C1      NOp   1
                         Standard orientation:                         
 ---------------------------------------------------------------------
 Center     Atomic      Atomic             Coordinates (Angstroms)
 Number     Number       Type             X           Y           Z
 ---------------------------------------------------------------------
      1          8           0        4.979387   -0.448814   -0.521688
      2          6           0        3.763938   -0.118963    0.166806
      3          6           0        3.270525    1.228520   -0.331638
      4          8           0        4.240846    2.236741   -0.013585
      5          1           0        5.153372    1.854570   -0.165092
      6          6           0        1.851051    1.486318    0.147264
      7          8           0        1.395529    2.569032   -0.676341
      8          1           0        0.579905    2.921254   -0.217381
      9          6           0        3.092300   -2.489613    0.547494
     10          8           0        4.032189   -3.186517   -0.283086
     11          1           0        3.978005   -4.172237   -0.124692
     12          6           0        2.678339   -1.158221   -0.058605
     13          8           0        1.403342   -0.850791    0.525719
     14          6           0        0.907945    0.326272   -0.129284
     15          8           0       -0.287578    0.597323    0.616441
     16          6           0       -1.524294    0.248604   -0.023372
     17          6           0       -2.037006   -1.150866    0.276362
     18          8           0       -1.003631   -2.110045    0.011837
     19          1           0       -0.162009   -1.720992    0.387031
     20          6           0       -3.364701   -1.454899   -0.397917
     21          8           0       -3.928977   -2.723326   -0.034725
     22          1           0       -4.925766   -2.693967   -0.111612
     23          6           0       -2.314511    2.648906    0.059280
     24          8           0       -1.173704    3.459543    0.377506
     25          1           0       -1.281980    4.413543    0.097573
     26          6           0       -2.646125    1.197899    0.366842
     27          8           0       -3.868801    0.925058   -0.332118
     28          6           0       -4.345011   -0.377143    0.035500
     29          8           0       -5.638257   -0.608832   -0.540837
     30          1           0       -6.285169   -0.721450    0.159464
     31          1           0       -4.438355   -0.414308    1.100773
     32          1           0       -3.239986   -1.413975   -1.459836
     33          1           0       -2.220353   -1.187201    1.329910
     34          1           0       -1.378892    0.326162   -1.080606
     35          1           0       -2.823812    1.102552    1.417669
     36          1           0       -1.532849    2.134386   -0.459539
     37          1           0       -2.347401    2.657204    1.128743
     38          1           0        5.669786   -0.634522    0.118985
     39          1           0        3.537599   -2.312925    1.504254
     40          1           0        2.222267   -3.099165    0.675516
     41          1           0        2.547077   -1.288923   -1.112449
     42          1           0        3.966196   -0.049367    1.215208
     43          1           0        3.228065    1.168552   -1.399112
     44          1           0        1.835965    1.758978    1.181831
     45          1           0        0.720879    0.175973   -1.172029
 ---------------------------------------------------------------------
 Rotational constants (GHZ):      0.4168960      0.1447359      0.1103844
 Standard basis: 6-31+G(2d,p) (6D, 7F)
 There are   685 symmetry adapted basis functions of A   symmetry.
 Integral buffers will be    131072 words long.
 Raffenetti 2 integral format.
 Two-electron integral symmetry is turned on.
   685 basis functions,  1028 primitive gaussians,   685 cartesian basis functions
    91 alpha electrons       91 beta electrons
       nuclear repulsion energy      2294.5468914879 Hartrees.
 NAtoms=   45 NActive=   45 NUniq=   45 SFac= 1.00D+00 NAtFMM=   50 NAOKFM=F Big=F
 One-electron integrals computed using PRISM.
 NBasis=   685 RedAO= T  NBF=   685
 NBsUse=   685 1.00D-06 NBFU=   685
 Harris functional with IExCor=  402 diagonalized for initial guess.
 ExpMin= 4.38D-02 ExpMax= 5.48D+03 ExpMxC= 8.25D+02 IAcc=2 IRadAn=         0 AccDes= 0.00D+00
 HarFok:  IExCor=  402 AccDes= 0.00D+00 IRadAn=         0 IDoV= 1
 ScaDFX=  1.000000  1.000000  1.000000  1.000000
 FoFCou: FMM=F IPFlag=           0 FMFlag=      100000 FMFlg1=           0
         NFxFlg=           0 DoJE=T BraDBF=F KetDBF=T FulRan=T
         Omega=  0.000000  0.000000  1.000000  0.000000  0.000000 ICntrl=     500 IOpCl=  0
         NMat0=    1 NMatS0=    1 NMatT0=    0 NMatD0=    1 NMtDS0=    0 NMtDT0=    0
         I1Cent=           4 NGrid=           0.
 Petite list used in FoFCou.
 Initial guess orbital symmetries:
       Occupied  (A) (A) (A) (A) (A) (A) (A) (A) (A) (A) (A) (A)
                 (A) (A) (A) (A) (A) (A) (A) (A) (A) (A) (A) (A)
                 (A) (A) (A) (A) (A) (A) (A) (A) (A) (A) (A) (A)
                 (A) (A) (A) (A) (A) (A) (A) (A) (A) (A) (A) (A)
                 (A) (A) (A) (A) (A) (A) (A) (A) (A) (A) (A) (A)
                 (A) (A) (A) (A) (A) (A) (A) (A) (A) (A) (A) (A)
                 (A) (A) (A) (A) (A) (A) (A) (A) (A) (A) (A) (A)
                 (A) (A) (A) (A) (A) (A) (A)
       Virtual   (A) (A) (A) (A) (A) (A) (A) (A) (A) (A) (A) (A)
                 (A) (A) (A) (A) (A) (A) (A) (A) (A) (A) (A) (A)
                 (A) (A) (A) (A) (A) (A) (A) (A) (A) (A) (A) (A)
                 (A) (A) (A) (A) (A) (A) (A) (A) (A) (A) (A) (A)
                 (A) (A) (A) (A) (A) (A) (A) (A) (A) (A) (A) (A)
                 (A) (A) (A) (A) (A) (A) (A) (A) (A) (A) (A) (A)
                 (A) (A) (A) (A) (A) (A) (A) (A) (A) (A) (A) (A)
                 (A) (A) (A) (A) (A) (A) (A) (A) (A) (A) (A) (A)
                 (A) (A) (A) (A) (A) (A) (A) (A) (A) (A) (A) (A)
                 (A) (A) (A) (A) (A) (A) (A) (A) (A) (A) (A) (A)
                 (A) (A) (A) (A) (A) (A) (A) (A) (A) (A) (A) (A)
                 (A) (A) (A) (A) (A) (A) (A) (A) (A) (A) (A) (A)
                 (A) (A) (A) (A) (A) (A) (A) (A) (A) (A) (A) (A)
                 (A) (A) (A) (A) (A) (A) (A) (A) (A) (A) (A) (A)
                 (A) (A) (A) (A) (A) (A) (A) (A) (A) (A) (A) (A)
                 (A) (A) (A) (A) (A) (A) (A) (A) (A) (A) (A) (A)
                 (A) (A) (A) (A) (A) (A) (A) (A) (A) (A) (A) (A)
                 (A) (A) (A) (A) (A) (A) (A) (A) (A) (A) (A) (A)
                 (A) (A) (A) (A) (A) (A) (A) (A) (A) (A) (A) (A)
                 (A) (A) (A) (A) (A) (A) (A) (A) (A) (A) (A) (A)
                 (A) (A) (A) (A) (A) (A) (A) (A) (A) (A) (A) (A)
                 (A) (A) (A) (A) (A) (A) (A) (A) (A) (A) (A) (A)
                 (A) (A) (A) (A) (A) (A) (A) (A) (A) (A) (A) (A)
                 (A) (A) (A) (A) (A) (A) (A) (A) (A) (A) (A) (A)
                 (A) (A) (A) (A) (A) (A) (A) (A) (A) (A) (A) (A)
                 (A) (A) (A) (A) (A) (A) (A) (A) (A) (A) (A) (A)
                 (A) (A) (A) (A) (A) (A) (A) (A) (A) (A) (A) (A)
                 (A) (A) (A) (A) (A) (A) (A) (A) (A) (A) (A) (A)
                 (A) (A) (A) (A) (A) (A) (A) (A) (A) (A) (A) (A)
                 (A) (A) (A) (A) (A) (A) (A) (A) (A) (A) (A) (A)
                 (A) (A) (A) (A) (A) (A) (A) (A) (A) (A) (A) (A)
                 (A) (A) (A) (A) (A) (A) (A) (A) (A) (A) (A) (A)
                 (A) (A) (A) (A) (A) (A) (A) (A) (A) (A) (A) (A)
                 (A) (A) (A) (A) (A) (A) (A) (A) (A) (A) (A) (A)
                 (A) (A) (A) (A) (A) (A) (A) (A) (A) (A) (A) (A)
                 (A) (A) (A) (A) (A) (A) (A) (A) (A) (A) (A) (A)
                 (A) (A) (A) (A) (A) (A) (A) (A) (A) (A) (A) (A)
                 (A) (A) (A) (A) (A) (A) (A) (A) (A) (A) (A) (A)
                 (A) (A) (A) (A) (A) (A) (A) (A) (A) (A) (A) (A)
                 (A) (A) (A) (A) (A) (A) (A) (A) (A) (A) (A) (A)
                 (A) (A) (A) (A) (A) (A) (A) (A) (A) (A) (A) (A)
                 (A) (A) (A) (A) (A) (A) (A) (A) (A) (A) (A) (A)
                 (A) (A) (A) (A) (A) (A) (A) (A) (A) (A) (A) (A)
                 (A) (A) (A) (A) (A) (A) (A) (A) (A) (A) (A) (A)
                 (A) (A) (A) (A) (A) (A) (A) (A) (A) (A) (A) (A)
                 (A) (A) (A) (A) (A) (A) (A) (A) (A) (A) (A) (A)
                 (A) (A) (A) (A) (A) (A) (A) (A) (A) (A) (A) (A)
                 (A) (A) (A) (A) (A) (A) (A) (A) (A) (A) (A) (A)
                 (A) (A) (A) (A) (A) (A) (A) (A) (A) (A) (A) (A)
                 (A) (A) (A) (A) (A) (A)
 The electronic state of the initial guess is 1-A.
 Requested convergence on RMS density matrix=1.00D-08 within 128 cycles.
 Requested convergence on MAX density matrix=1.00D-06.
 Requested convergence on             energy=1.00D-06.
 No special actions if energy rises.
 SCF Done:  E(RB3LYP) =  -1297.69035085     A.U. after   17 cycles
             Convg  =    0.9261D-09             -V/T =  2.0060
 Range of M.O.s used for correlation:     1   685
 NBasis=   685 NAE=    91 NBE=    91 NFC=     0 NFV=     0
 NROrb=    685 NOA=    91 NOB=    91 NVA=   594 NVB=   594

 **** Warning!!: The largest alpha MO coefficient is  0.75936442D+02


 **** Warning!!: The smallest alpha delta epsilon is  0.97106557D-01

          Differentiating once with respect to electric field.
                with respect to dipole field.
          Electric field/nuclear overlap derivatives assumed to be zero.
          There are     3 degrees of freedom in the 1st order CPHF.  IDoFFX=0.
      3 vectors produced by pass  0 Test12= 1.80D-12 3.33D-08 XBig12= 1.43D+02 1.95D+00.
 AX will form     3 AO Fock derivatives at one time.
      3 vectors produced by pass  1 Test12= 1.80D-12 3.33D-08 XBig12= 3.29D+01 1.21D+00.
      3 vectors produced by pass  2 Test12= 1.80D-12 3.33D-08 XBig12= 1.33D+01 1.49D+00.
      3 vectors produced by pass  3 Test12= 1.80D-12 3.33D-08 XBig12= 3.04D+00 8.40D-01.
      3 vectors produced by pass  4 Test12= 1.80D-12 3.33D-08 XBig12= 1.57D+00 5.23D-01.
      3 vectors produced by pass  5 Test12= 1.80D-12 3.33D-08 XBig12= 5.01D-01 1.45D-01.
      3 vectors produced by pass  6 Test12= 1.80D-12 3.33D-08 XBig12= 1.48D-01 5.52D-02.
      3 vectors produced by pass  7 Test12= 1.80D-12 3.33D-08 XBig12= 2.45D-02 1.66D-02.
      3 vectors produced by pass  8 Test12= 1.80D-12 3.33D-08 XBig12= 6.41D-03 1.34D-02.
      3 vectors produced by pass  9 Test12= 1.80D-12 3.33D-08 XBig12= 2.00D-03 4.38D-03.
      3 vectors produced by pass 10 Test12= 1.80D-12 3.33D-08 XBig12= 4.39D-04 2.66D-03.
      3 vectors produced by pass 11 Test12= 1.80D-12 3.33D-08 XBig12= 8.05D-05 1.05D-03.
      3 vectors produced by pass 12 Test12= 1.80D-12 3.33D-08 XBig12= 2.09D-05 9.17D-04.
      3 vectors produced by pass 13 Test12= 1.80D-12 3.33D-08 XBig12= 5.57D-06 4.15D-04.
      3 vectors produced by pass 14 Test12= 1.80D-12 3.33D-08 XBig12= 8.96D-07 2.19D-04.
      3 vectors produced by pass 15 Test12= 1.80D-12 3.33D-08 XBig12= 1.38D-07 8.00D-05.
      3 vectors produced by pass 16 Test12= 1.80D-12 3.33D-08 XBig12= 2.50D-08 2.73D-05.
      3 vectors produced by pass 17 Test12= 1.80D-12 3.33D-08 XBig12= 3.53D-09 5.92D-06.
      3 vectors produced by pass 18 Test12= 1.80D-12 3.33D-08 XBig12= 2.94D-10 1.57D-06.
      3 vectors produced by pass 19 Test12= 1.80D-12 3.33D-08 XBig12= 6.79D-11 8.41D-07.
      3 vectors produced by pass 20 Test12= 1.80D-12 3.33D-08 XBig12= 2.46D-11 8.45D-07.
      3 vectors produced by pass 21 Test12= 1.80D-12 3.33D-08 XBig12= 6.72D-12 2.39D-07.
      3 vectors produced by pass 22 Test12= 1.80D-12 3.33D-08 XBig12= 1.96D-12 1.21D-07.
      1 vectors produced by pass 23 Test12= 1.80D-12 3.33D-08 XBig12= 2.25D-13 4.31D-08.
 Inverted reduced A of dimension    70 with in-core refinement.
 End of Minotr Frequency-dependent properties file   721 does not exist.
 End of Minotr Frequency-dependent properties file   722 does not exist.
 Symmetrizing basis deriv contribution to polar:
 IMax=3 JMax=2 DiffMx= 0.00D+00
 G2DrvN: will do    16 centers at a time, making    3 passes doing MaxLOS=2.
 Calling FoFCou, ICntrl=  3107 FMM=F I1Cent=   0 AccDes= 0.00D+00.
 Calling FoFCou, ICntrl=  3107 FMM=F I1Cent=   0 AccDes= 0.00D+00.
 Calling FoFCou, ICntrl=  3107 FMM=F I1Cent=   0 AccDes= 0.00D+00.
 FoFDir/FoFCou used for L=0 through L=2.
 End of G2Drv Frequency-dependent properties file   721 does not exist.
 End of G2Drv Frequency-dependent properties file   722 does not exist.
          IDoAtm=111111111111111111111111111111111111111111111
          Differentiating once with respect to electric field.
                with respect to dipole field.
          Differentiating once with respect to nuclear coordinates.
          There are   138 degrees of freedom in the 1st order CPHF.  IDoFFX=5.
 Will reuse    3 saved solutions.
    135 vectors produced by pass  0 Test12= 5.41D-14 1.00D-09 XBig12= 2.90D-01 2.51D-01.
 AX will form    45 AO Fock derivatives at one time.
    135 vectors produced by pass  1 Test12= 5.41D-14 1.00D-09 XBig12= 1.67D-02 1.37D-02.
    132 vectors produced by pass  2 Test12= 5.41D-14 1.00D-09 XBig12= 1.37D-04 1.87D-03.
    132 vectors produced by pass  3 Test12= 5.41D-14 1.00D-09 XBig12= 5.48D-07 7.66D-05.
    132 vectors produced by pass  4 Test12= 5.41D-14 1.00D-09 XBig12= 1.23D-09 3.03D-06.
    132 vectors produced by pass  5 Test12= 5.41D-14 1.00D-09 XBig12= 3.13D-12 1.40D-07.
     95 vectors produced by pass  6 Test12= 5.41D-14 1.00D-09 XBig12= 1.43D-13 2.19D-08.
 Inverted reduced A of dimension   893 with in-core refinement.
 Isotropic polarizability for W=    0.000000      200.32 Bohr**3.
 End of Minotr Frequency-dependent properties file   721 does not exist.
 End of Minotr Frequency-dependent properties file   722 does not exist.

 **********************************************************************

            Population analysis using the SCF density.

 **********************************************************************

 Orbital symmetries:
       Occupied  (A) (A) (A) (A) (A) (A) (A) (A) (A) (A) (A) (A)
                 (A) (A) (A) (A) (A) (A) (A) (A) (A) (A) (A) (A)
                 (A) (A) (A) (A) (A) (A) (A) (A) (A) (A) (A) (A)
                 (A) (A) (A) (A) (A) (A) (A) (A) (A) (A) (A) (A)
                 (A) (A) (A) (A) (A) (A) (A) (A) (A) (A) (A) (A)
                 (A) (A) (A) (A) (A) (A) (A) (A) (A) (A) (A) (A)
                 (A) (A) (A) (A) (A) (A) (A) (A) (A) (A) (A) (A)
                 (A) (A) (A) (A) (A) (A) (A)
       Virtual   (A) (A) (A) (A) (A) (A) (A) (A) (A) (A) (A) (A)
                 (A) (A) (A) (A) (A) (A) (A) (A) (A) (A) (A) (A)
                 (A) (A) (A) (A) (A) (A) (A) (A) (A) (A) (A) (A)
                 (A) (A) (A) (A) (A) (A) (A) (A) (A) (A) (A) (A)
                 (A) (A) (A) (A) (A) (A) (A) (A) (A) (A) (A) (A)
                 (A) (A) (A) (A) (A) (A) (A) (A) (A) (A) (A) (A)
                 (A) (A) (A) (A) (A) (A) (A) (A) (A) (A) (A) (A)
                 (A) (A) (A) (A) (A) (A) (A) (A) (A) (A) (A) (A)
                 (A) (A) (A) (A) (A) (A) (A) (A) (A) (A) (A) (A)
                 (A) (A) (A) (A) (A) (A) (A) (A) (A) (A) (A) (A)
                 (A) (A) (A) (A) (A) (A) (A) (A) (A) (A) (A) (A)
                 (A) (A) (A) (A) (A) (A) (A) (A) (A) (A) (A) (A)
                 (A) (A) (A) (A) (A) (A) (A) (A) (A) (A) (A) (A)
                 (A) (A) (A) (A) (A) (A) (A) (A) (A) (A) (A) (A)
                 (A) (A) (A) (A) (A) (A) (A) (A) (A) (A) (A) (A)
                 (A) (A) (A) (A) (A) (A) (A) (A) (A) (A) (A) (A)
                 (A) (A) (A) (A) (A) (A) (A) (A) (A) (A) (A) (A)
                 (A) (A) (A) (A) (A) (A) (A) (A) (A) (A) (A) (A)
                 (A) (A) (A) (A) (A) (A) (A) (A) (A) (A) (A) (A)
                 (A) (A) (A) (A) (A) (A) (A) (A) (A) (A) (A) (A)
                 (A) (A) (A) (A) (A) (A) (A) (A) (A) (A) (A) (A)
                 (A) (A) (A) (A) (A) (A) (A) (A) (A) (A) (A) (A)
                 (A) (A) (A) (A) (A) (A) (A) (A) (A) (A) (A) (A)
                 (A) (A) (A) (A) (A) (A) (A) (A) (A) (A) (A) (A)
                 (A) (A) (A) (A) (A) (A) (A) (A) (A) (A) (A) (A)
                 (A) (A) (A) (A) (A) (A) (A) (A) (A) (A) (A) (A)
                 (A) (A) (A) (A) (A) (A) (A) (A) (A) (A) (A) (A)
                 (A) (A) (A) (A) (A) (A) (A) (A) (A) (A) (A) (A)
                 (A) (A) (A) (A) (A) (A) (A) (A) (A) (A) (A) (A)
                 (A) (A) (A) (A) (A) (A) (A) (A) (A) (A) (A) (A)
                 (A) (A) (A) (A) (A) (A) (A) (A) (A) (A) (A) (A)
                 (A) (A) (A) (A) (A) (A) (A) (A) (A) (A) (A) (A)
                 (A) (A) (A) (A) (A) (A) (A) (A) (A) (A) (A) (A)
                 (A) (A) (A) (A) (A) (A) (A) (A) (A) (A) (A) (A)
                 (A) (A) (A) (A) (A) (A) (A) (A) (A) (A) (A) (A)
                 (A) (A) (A) (A) (A) (A) (A) (A) (A) (A) (A) (A)
                 (A) (A) (A) (A) (A) (A) (A) (A) (A) (A) (A) (A)
                 (A) (A) (A) (A) (A) (A) (A) (A) (A) (A) (A) (A)
                 (A) (A) (A) (A) (A) (A) (A) (A) (A) (A) (A) (A)
                 (A) (A) (A) (A) (A) (A) (A) (A) (A) (A) (A) (A)
                 (A) (A) (A) (A) (A) (A) (A) (A) (A) (A) (A) (A)
                 (A) (A) (A) (A) (A) (A) (A) (A) (A) (A) (A) (A)
                 (A) (A) (A) (A) (A) (A) (A) (A) (A) (A) (A) (A)
                 (A) (A) (A) (A) (A) (A) (A) (A) (A) (A) (A) (A)
                 (A) (A) (A) (A) (A) (A) (A) (A) (A) (A) (A) (A)
                 (A) (A) (A) (A) (A) (A) (A) (A) (A) (A) (A) (A)
                 (A) (A) (A) (A) (A) (A) (A) (A) (A) (A) (A) (A)
                 (A) (A) (A) (A) (A) (A) (A) (A) (A) (A) (A) (A)
                 (A) (A) (A) (A) (A) (A) (A) (A) (A) (A) (A) (A)
                 (A) (A) (A) (A) (A) (A)
 The electronic state is 1-A.
 Alpha  occ. eigenvalues --  -19.20364 -19.19828 -19.19795 -19.19405 -19.19212
 Alpha  occ. eigenvalues --  -19.17667 -19.16404 -19.16272 -19.15574 -19.15214
 Alpha  occ. eigenvalues --  -19.14588 -10.32186 -10.31883 -10.31585 -10.26920
 Alpha  occ. eigenvalues --  -10.25840 -10.25585 -10.25579 -10.25397 -10.25146
 Alpha  occ. eigenvalues --  -10.24516 -10.24516 -10.18421  -1.11984  -1.10312
 Alpha  occ. eigenvalues --   -1.07252  -1.06262  -1.05398  -1.04977  -1.03307
 Alpha  occ. eigenvalues --   -1.02987  -1.02775  -1.01457  -1.01236  -0.85538
 Alpha  occ. eigenvalues --   -0.81486  -0.81021  -0.79164  -0.73662  -0.70926
 Alpha  occ. eigenvalues --   -0.68296  -0.66151  -0.64696  -0.63446  -0.62964
 Alpha  occ. eigenvalues --   -0.61636  -0.57882  -0.56958  -0.56294  -0.55698
 Alpha  occ. eigenvalues --   -0.55107  -0.54628  -0.53784  -0.52772  -0.52404
 Alpha  occ. eigenvalues --   -0.51206  -0.50597  -0.50207  -0.49269  -0.47850
 Alpha  occ. eigenvalues --   -0.46890  -0.45355  -0.44956  -0.44528  -0.43774
 Alpha  occ. eigenvalues --   -0.43401  -0.42643  -0.41916  -0.41389  -0.40917
 Alpha  occ. eigenvalues --   -0.40590  -0.38639  -0.37485  -0.36798  -0.36166
 Alpha  occ. eigenvalues --   -0.35744  -0.35649  -0.35239  -0.34755  -0.34348
 Alpha  occ. eigenvalues --   -0.32980  -0.32396  -0.31049  -0.30103  -0.29528
 Alpha  occ. eigenvalues --   -0.29110  -0.28823  -0.28770  -0.27373  -0.26712
 Alpha  occ. eigenvalues --   -0.19693
 Alpha virt. eigenvalues --   -0.09982  -0.02609  -0.02248  -0.00517  -0.00243
 Alpha virt. eigenvalues --    0.00715   0.01348   0.01709   0.02078   0.03141
 Alpha virt. eigenvalues --    0.03430   0.03703   0.04215   0.04260   0.05020
 Alpha virt. eigenvalues --    0.05764   0.06115   0.06495   0.07403   0.07731
 Alpha virt. eigenvalues --    0.07935   0.08404   0.08711   0.08826   0.09361
 Alpha virt. eigenvalues --    0.10395   0.10565   0.10765   0.11028   0.11152
 Alpha virt. eigenvalues --    0.11474   0.12386   0.12631   0.12934   0.13454
 Alpha virt. eigenvalues --    0.13742   0.14070   0.14329   0.14651   0.14890
 Alpha virt. eigenvalues --    0.15541   0.15781   0.16045   0.16194   0.16571
 Alpha virt. eigenvalues --    0.16726   0.17064   0.17369   0.17476   0.18024
 Alpha virt. eigenvalues --    0.18149   0.18607   0.18753   0.19534   0.19701
 Alpha virt. eigenvalues --    0.19929   0.20158   0.20465   0.20658   0.20934
 Alpha virt. eigenvalues --    0.21066   0.21379   0.21950   0.22247   0.22439
 Alpha virt. eigenvalues --    0.22682   0.23159   0.23551   0.23849   0.24235
 Alpha virt. eigenvalues --    0.24294   0.24708   0.24898   0.25098   0.25518
 Alpha virt. eigenvalues --    0.25788   0.25947   0.26233   0.26488   0.26773
 Alpha virt. eigenvalues --    0.27307   0.27531   0.27852   0.28121   0.28143
 Alpha virt. eigenvalues --    0.28425   0.28944   0.29408   0.30212   0.30383
 Alpha virt. eigenvalues --    0.30873   0.30955   0.31372   0.31587   0.32023
 Alpha virt. eigenvalues --    0.32099   0.32314   0.32487   0.33140   0.33549
 Alpha virt. eigenvalues --    0.33676   0.33789   0.34232   0.34905   0.35394
 Alpha virt. eigenvalues --    0.35475   0.36053   0.36201   0.36738   0.37397
 Alpha virt. eigenvalues --    0.37477   0.37965   0.38341   0.38768   0.39122
 Alpha virt. eigenvalues --    0.39563   0.40019   0.40387   0.40621   0.41071
 Alpha virt. eigenvalues --    0.41291   0.41891   0.42352   0.42788   0.43715
 Alpha virt. eigenvalues --    0.44123   0.44571   0.45240   0.46371   0.47027
 Alpha virt. eigenvalues --    0.47229   0.47671   0.48023   0.48806   0.49711
 Alpha virt. eigenvalues --    0.50351   0.50902   0.51947   0.56951   0.58177
 Alpha virt. eigenvalues --    0.58868   0.59734   0.60346   0.61722   0.61983
 Alpha virt. eigenvalues --    0.63311   0.63990   0.65506   0.66246   0.66787
 Alpha virt. eigenvalues --    0.67470   0.67956   0.69035   0.69541   0.69659
 Alpha virt. eigenvalues --    0.70479   0.70555   0.71982   0.72286   0.72899
 Alpha virt. eigenvalues --    0.74058   0.75475   0.75573   0.75910   0.76742
 Alpha virt. eigenvalues --    0.77415   0.78017   0.78362   0.79111   0.80473
 Alpha virt. eigenvalues --    0.82339   0.83044   0.83245   0.84881   0.85859
 Alpha virt. eigenvalues --    0.86637   0.87210   0.87492   0.88507   0.88895
 Alpha virt. eigenvalues --    0.89381   0.90200   0.90650   0.91218   0.91508
 Alpha virt. eigenvalues --    0.91840   0.92079   0.92660   0.93432   0.93921
 Alpha virt. eigenvalues --    0.94247   0.94346   0.95275   0.95709   0.96329
 Alpha virt. eigenvalues --    0.96619   0.97043   0.97773   0.98385   0.98654
 Alpha virt. eigenvalues --    0.99622   1.00408   1.01193   1.01907   1.02512
 Alpha virt. eigenvalues --    1.03119   1.03541   1.03780   1.04952   1.05276
 Alpha virt. eigenvalues --    1.05798   1.05806   1.06936   1.07285   1.08495
 Alpha virt. eigenvalues --    1.08895   1.09486   1.10198   1.10896   1.11671
 Alpha virt. eigenvalues --    1.12140   1.12507   1.13008   1.13716   1.13896
 Alpha virt. eigenvalues --    1.14690   1.15089   1.15423   1.15743   1.16259
 Alpha virt. eigenvalues --    1.16438   1.16878   1.17541   1.18178   1.18534
 Alpha virt. eigenvalues --    1.19055   1.19835   1.21081   1.21326   1.21470
 Alpha virt. eigenvalues --    1.22045   1.22850   1.23480   1.24084   1.24310
 Alpha virt. eigenvalues --    1.24575   1.25622   1.25992   1.26436   1.26689
 Alpha virt. eigenvalues --    1.27406   1.28299   1.29723   1.30440   1.30735
 Alpha virt. eigenvalues --    1.31926   1.32147   1.33012   1.33397   1.34479
 Alpha virt. eigenvalues --    1.34783   1.35247   1.35633   1.36402   1.37044
 Alpha virt. eigenvalues --    1.37291   1.37680   1.39303   1.39737   1.40038
 Alpha virt. eigenvalues --    1.40925   1.41244   1.41700   1.42816   1.43687
 Alpha virt. eigenvalues --    1.43875   1.45784   1.46730   1.47005   1.47324
 Alpha virt. eigenvalues --    1.47881   1.49066   1.50084   1.50723   1.51716
 Alpha virt. eigenvalues --    1.52679   1.52938   1.53440   1.54741   1.55216
 Alpha virt. eigenvalues --    1.56916   1.57230   1.58480   1.59588   1.60771
 Alpha virt. eigenvalues --    1.61362   1.62368   1.62587   1.64074   1.64428
 Alpha virt. eigenvalues --    1.65243   1.65447   1.67309   1.68405   1.68985
 Alpha virt. eigenvalues --    1.69430   1.69877   1.70398   1.72786   1.73800
 Alpha virt. eigenvalues --    1.74407   1.75504   1.76260   1.77774   1.79000
 Alpha virt. eigenvalues --    1.80157   1.80953   1.82762   1.83049   1.84418
 Alpha virt. eigenvalues --    1.85087   1.86222   1.87013   1.87169   1.88127
 Alpha virt. eigenvalues --    1.89758   1.90331   1.91576   1.92102   1.92978
 Alpha virt. eigenvalues --    1.93198   1.95813   1.96541   1.97056   1.99184
 Alpha virt. eigenvalues --    2.00810   2.01559   2.02339   2.03948   2.05101
 Alpha virt. eigenvalues --    2.07120   2.07163   2.08613   2.10212   2.10700
 Alpha virt. eigenvalues --    2.12256   2.12751   2.13385   2.15778   2.16558
 Alpha virt. eigenvalues --    2.18418   2.20250   2.21252   2.23388   2.23738
 Alpha virt. eigenvalues --    2.25555   2.27192   2.28148   2.30479   2.31362
 Alpha virt. eigenvalues --    2.32370   2.33760   2.35889   2.36287   2.37221
 Alpha virt. eigenvalues --    2.38297   2.40158   2.41085   2.42047   2.48158
 Alpha virt. eigenvalues --    2.51171   2.51883   2.52761   2.55228   2.55652
 Alpha virt. eigenvalues --    2.60679   2.62487   2.62900   2.64735   2.68242
 Alpha virt. eigenvalues --    2.68405   2.69788   2.70804   2.73665   2.74728
 Alpha virt. eigenvalues --    2.75686   2.76156   2.76497   2.77996   2.79872
 Alpha virt. eigenvalues --    2.80801   2.81231   2.82805   2.83645   2.84647
 Alpha virt. eigenvalues --    2.85326   2.88976   2.89293   2.89671   2.90907
 Alpha virt. eigenvalues --    2.92206   2.93152   2.94275   2.95713   2.96043
 Alpha virt. eigenvalues --    2.96486   2.97595   2.98420   2.99423   2.99866
 Alpha virt. eigenvalues --    3.01421   3.01772   3.02522   3.03266   3.03886
 Alpha virt. eigenvalues --    3.04371   3.04915   3.06035   3.06838   3.08055
 Alpha virt. eigenvalues --    3.09224   3.09893   3.11349   3.13255   3.14805
 Alpha virt. eigenvalues --    3.16485   3.18932   3.19225   3.21069   3.22257
 Alpha virt. eigenvalues --    3.24390   3.27125   3.30555   3.77957   3.81476
 Alpha virt. eigenvalues --    3.93961   3.99762   4.05469   4.08899   4.09787
 Alpha virt. eigenvalues --    4.12488   4.13629   4.14885   4.15070   4.16177
 Alpha virt. eigenvalues --    4.16884   4.18604   4.20705   4.21741   4.22336
 Alpha virt. eigenvalues --    4.22849   4.23265   4.24865   4.25165   4.26542
 Alpha virt. eigenvalues --    4.26964   4.27294   4.27653   4.29413   4.29501
 Alpha virt. eigenvalues --    4.29753   4.30844   4.31990   4.32237   4.33057
 Alpha virt. eigenvalues --    4.33651   4.34526   4.34676   4.34825   4.34910
 Alpha virt. eigenvalues --    4.35515   4.37083   4.37140   4.37960   4.38149
 Alpha virt. eigenvalues --    4.39205   4.39484   4.40344   4.41673   4.42762
 Alpha virt. eigenvalues --    4.44262   4.44951   4.46904   4.47279   4.48966
 Alpha virt. eigenvalues --    4.49167   4.50995   4.52595   4.53625   4.55174
 Alpha virt. eigenvalues --    4.56145   4.57129   4.58306   4.58761   4.59725
 Alpha virt. eigenvalues --    4.60416   4.61250   4.62180   4.63670   4.64103
 Alpha virt. eigenvalues --    4.64575   4.65110   4.65229   4.66645   4.67300
 Alpha virt. eigenvalues --    4.67513   4.67592   4.68171   4.70094   4.70757
 Alpha virt. eigenvalues --    4.70982   4.71835   4.72577   4.72836   4.73689
 Alpha virt. eigenvalues --    4.74607   4.75445   4.76167   4.76652   4.76994
 Alpha virt. eigenvalues --    4.78531   4.78779   4.79846   4.80065   4.81876
 Alpha virt. eigenvalues --    4.82048   4.82748   4.83475   4.84815   4.85167
 Alpha virt. eigenvalues --    4.88462   4.88948   4.90707   4.91084   4.91896
 Alpha virt. eigenvalues --    4.93209   4.93972   4.95858   4.96463   4.97420
 Alpha virt. eigenvalues --    4.97901   4.98542   5.02056   5.02832   5.05999
 Alpha virt. eigenvalues --    5.07111   5.08939   5.12257   5.13240   5.16671
 Alpha virt. eigenvalues --    5.21572   5.25625   5.30252   5.33633   5.40710
 Alpha virt. eigenvalues --    5.50191   5.89615   6.04800   6.34291   6.58266
 Alpha virt. eigenvalues --    6.76039   6.76298   6.78863   6.82166   6.84886
 Alpha virt. eigenvalues --    6.88767   6.91057   6.94676   6.97194   7.04690
 Alpha virt. eigenvalues --    7.14311  11.87038  12.00398  12.02680  12.14788
 Alpha virt. eigenvalues --   12.26133  12.34885  12.66986  12.80162  12.84092
 Alpha virt. eigenvalues --   12.97845  13.14898  13.17654  13.22387  13.27543
 Alpha virt. eigenvalues --   13.35772  13.40187  13.43222  13.45373  13.48225
 Alpha virt. eigenvalues --   13.55941  13.59494  13.72690  13.96025
          Condensed to atoms (all electrons):
              1          2          3          4          5          6
     1  O    8.199125   0.243085  -0.117307  -0.015953   0.020483   0.019540
     2  C    0.243085   7.305838  -0.521609   0.037689  -0.045432  -1.125873
     3  C   -0.117307  -0.521609   6.527694   0.156780  -0.003993   0.605472
     4  O   -0.015953   0.037689   0.156780   8.219827   0.235914  -0.066277
     5  H    0.020483  -0.045432  -0.003993   0.235914   0.426956   0.008105
     6  C    0.019540  -1.125873   0.605472  -0.066277   0.008105   8.650434
     7  O   -0.000016   0.006993  -0.056526   0.005546  -0.000527   0.066520
     8  H    0.000002  -0.004823   0.014784  -0.000705   0.000016   0.081313
     9  C    0.019252   0.234183  -0.257686   0.003050  -0.002135   0.264425
    10  O   -0.018901   0.045208   0.008979  -0.000208  -0.000018   0.000000
    11  H    0.001469  -0.016578  -0.000653   0.000002   0.000000   0.000108
    12  C   -0.069973  -1.123793   0.016609   0.005517   0.015694   0.338273
    13  O    0.003177  -0.027133  -0.059108  -0.002244   0.000006   0.016585
    14  C   -0.003067   0.477995  -0.437308   0.015888   0.005545  -2.241345
    15  O    0.000046   0.007251  -0.032028   0.000798  -0.000029  -0.100181
    16  C    0.001305   0.138876  -0.090450  -0.001507   0.000336  -0.284124
    17  C    0.000225  -0.050791  -0.014340   0.000708   0.000032  -0.286556
    18  O    0.000010   0.006716   0.000486  -0.000013   0.000000   0.013775
    19  H   -0.000032  -0.000937   0.006245   0.000002   0.000000   0.001279
    20  C    0.000032   0.005086  -0.006760  -0.000013   0.000001   0.028486
    21  O    0.000000   0.000048  -0.000016   0.000000   0.000000   0.000565
    22  H    0.000000   0.000000   0.000001   0.000000   0.000000  -0.000029
    23  C   -0.000184   0.018656   0.046175  -0.000406  -0.000014   0.443629
    24  O    0.000000   0.001130   0.000233   0.000090  -0.000001   0.009095
    25  H    0.000000  -0.000154  -0.000948   0.000004   0.000000  -0.014372
    26  C    0.000220  -0.026218  -0.074700   0.000253   0.000014  -0.525927
    27  O    0.000000  -0.000047  -0.000436   0.000001   0.000000  -0.009342
    28  C    0.000012   0.000328  -0.003631   0.000021   0.000000  -0.045404
    29  O    0.000000   0.000006   0.000021   0.000000   0.000000   0.000060
    30  H    0.000000   0.000000   0.000000   0.000000   0.000000   0.000012
    31  H    0.000000   0.000011   0.000005   0.000000   0.000000   0.000132
    32  H    0.000000   0.000149  -0.000011   0.000000   0.000000   0.001992
    33  H    0.000000  -0.000350   0.000546   0.000000   0.000000   0.010665
    34  H   -0.000003  -0.002376   0.005869   0.000000   0.000000   0.031571
    35  H    0.000000  -0.000061   0.000782   0.000000   0.000000   0.010121
    36  H    0.000000  -0.000120   0.001180  -0.000003   0.000000   0.008067
    37  H    0.000000  -0.000048  -0.000949   0.000001   0.000000  -0.008796
    38  H    0.262261   0.045089  -0.018696   0.000727  -0.002614   0.000120
    39  H    0.003502   0.048441  -0.007147  -0.000034  -0.000001   0.006405
    40  H   -0.000429  -0.026799   0.002074   0.000007   0.000000  -0.001682
    41  H    0.003970   0.094478  -0.070747   0.000210   0.000003  -0.015591
    42  H   -0.018616   0.376512  -0.058536   0.000064   0.000014  -0.027549
    43  H   -0.001715   0.038303   0.338551  -0.027014  -0.001240  -0.265245
    44  H   -0.000128   0.026072  -0.077902   0.004315  -0.000166   0.279096
    45  H    0.000004  -0.001601  -0.031895  -0.000072  -0.000001   0.012353
              7          8          9         10         11         12
     1  O   -0.000016   0.000002   0.019252  -0.018901   0.001469  -0.069973
     2  C    0.006993  -0.004823   0.234183   0.045208  -0.016578  -1.123793
     3  C   -0.056526   0.014784  -0.257686   0.008979  -0.000653   0.016609
     4  O    0.005546  -0.000705   0.003050  -0.000208   0.000002   0.005517
     5  H   -0.000527   0.000016  -0.002135  -0.000018   0.000000   0.015694
     6  C    0.066520   0.081313   0.264425   0.000000   0.000108   0.338273
     7  O    8.248409   0.233177   0.001011   0.000003   0.000001  -0.003028
     8  H    0.233177   0.371110   0.000237   0.000000   0.000000   0.001252
     9  C    0.001011   0.000237   7.407435  -0.000648   0.003921  -1.375981
    10  O    0.000003   0.000000  -0.000648   8.274304   0.224713   0.057931
    11  H    0.000001   0.000000   0.003921   0.224713   0.440126   0.021321
    12  C   -0.003028   0.001252  -1.375981   0.057931   0.021321   9.476567
    13  O    0.001220  -0.000469  -0.034133  -0.000991  -0.000775   0.053432
    14  C    0.036010  -0.083848  -0.934104   0.007760  -0.002954  -0.989295
    15  O    0.011966   0.002878  -0.004957   0.000148  -0.000003  -0.029036
    16  C    0.034198   0.005600  -0.134491  -0.000839  -0.000364  -0.297365
    17  C    0.005205  -0.001812  -0.034486  -0.000591   0.000112  -0.099407
    18  O   -0.000048  -0.000025   0.003056  -0.000181  -0.000014   0.006470
    19  H   -0.000138   0.000000  -0.007676   0.000032   0.000000   0.001505
    20  C    0.001986   0.000312  -0.008399  -0.000123   0.000012  -0.013203
    21  O   -0.000003   0.000000   0.000042  -0.000001   0.000000   0.000121
    22  H    0.000000   0.000000  -0.000005   0.000000   0.000000   0.000007
    23  C   -0.045851   0.029729   0.008236  -0.000006   0.000000   0.020244
    24  O   -0.044324   0.028153   0.000140   0.000000   0.000000   0.003174
    25  H    0.006206  -0.005192  -0.000025   0.000000   0.000000  -0.000593
    26  C    0.036555  -0.041212  -0.011742  -0.000142  -0.000004   0.018839
    27  O    0.000280  -0.000071  -0.000136   0.000000   0.000000  -0.000918
    28  C    0.001910  -0.000643  -0.003659   0.000015   0.000000  -0.008696
    29  O   -0.000005   0.000000   0.000003   0.000000   0.000000   0.000039
    30  H    0.000000   0.000000   0.000000   0.000000   0.000000   0.000001
    31  H    0.000002   0.000000  -0.000011   0.000000   0.000000   0.000018
    32  H    0.000007   0.000000  -0.000096   0.000000   0.000000  -0.000056
    33  H   -0.000011   0.000000   0.000451   0.000000   0.000000  -0.000613
    34  H   -0.002698   0.000132   0.000285   0.000001   0.000000   0.002088
    35  H    0.000050   0.000008   0.000064   0.000000   0.000000  -0.000188
    36  H    0.008824  -0.000528  -0.000086   0.000000   0.000000  -0.002009
    37  H   -0.001007   0.000489   0.000016   0.000000   0.000000   0.000340
    38  H   -0.000014   0.000000  -0.011727  -0.000008  -0.000042  -0.019027
    39  H    0.000010   0.000000   0.589393  -0.052580   0.000386  -0.286041
    40  H   -0.000018   0.000000   0.389855  -0.017104  -0.011875   0.003314
    41  H   -0.000088   0.000000   0.047552   0.000346  -0.000277   0.046113
    42  H    0.000515   0.000003  -0.044187  -0.000792  -0.000018  -0.080012
    43  H    0.006296  -0.000186   0.006033  -0.000203   0.000000   0.007771
    44  H   -0.014029  -0.009023   0.016335   0.000015   0.000000   0.054132
    45  H   -0.000962  -0.000260   0.021222   0.000092   0.000000   0.068406
             13         14         15         16         17         18
     1  O    0.003177  -0.003067   0.000046   0.001305   0.000225   0.000010
     2  C   -0.027133   0.477995   0.007251   0.138876  -0.050791   0.006716
     3  C   -0.059108  -0.437308  -0.032028  -0.090450  -0.014340   0.000486
     4  O   -0.002244   0.015888   0.000798  -0.001507   0.000708  -0.000013
     5  H    0.000006   0.005545  -0.000029   0.000336   0.000032   0.000000
     6  C    0.016585  -2.241345  -0.100181  -0.284124  -0.286556   0.013775
     7  O    0.001220   0.036010   0.011966   0.034198   0.005205  -0.000048
     8  H   -0.000469  -0.083848   0.002878   0.005600  -0.001812  -0.000025
     9  C   -0.034133  -0.934104  -0.004957  -0.134491  -0.034486   0.003056
    10  O   -0.000991   0.007760   0.000148  -0.000839  -0.000591  -0.000181
    11  H   -0.000775  -0.002954  -0.000003  -0.000364   0.000112  -0.000014
    12  C    0.053432  -0.989295  -0.029036  -0.297365  -0.099407   0.006470
    13  O    8.183292   0.234461  -0.012075  -0.043827   0.008110  -0.015478
    14  C    0.234461  10.329307   0.267399  -0.856968   0.281997   0.035341
    15  O   -0.012075   0.267399   8.121663   0.143116   0.026087  -0.012819
    16  C   -0.043827  -0.856968   0.143116  11.425345  -2.103026  -0.010246
    17  C    0.008110   0.281997   0.026087  -2.103026   8.005285   0.124966
    18  O   -0.015478   0.035341  -0.012819  -0.010246   0.124966   8.232819
    19  H    0.016591   0.003908   0.016571  -0.086157   0.062051   0.226931
    20  C   -0.002756  -0.293537   0.001643  -1.076266   0.371655  -0.057818
    21  O    0.000037  -0.000960  -0.000105   0.045409  -0.158358   0.014761
    22  H    0.000003  -0.000836  -0.000014  -0.008863  -0.002474  -0.000486
    23  C    0.009730  -0.093581  -0.179556   0.637175  -0.609735   0.028365
    24  O   -0.000136   0.068075  -0.010305  -0.011575  -0.004599   0.000073
    25  H   -0.000010  -0.006754   0.003658  -0.010456   0.001501  -0.000006
    26  C   -0.013861  -0.351329   0.083219  -2.875557   0.708862   0.017474
    27  O    0.000176  -0.016709   0.009013  -0.060030   0.005046  -0.002716
    28  C    0.000050  -0.073987   0.033281   0.954530  -0.450940  -0.026681
    29  O    0.000023  -0.000274  -0.000328  -0.043943  -0.005164   0.000366
    30  H    0.000000   0.000238   0.000000   0.006097   0.006381   0.000021
    31  H    0.000030  -0.001661   0.000200   0.061799  -0.015406   0.000782
    32  H    0.000090  -0.015952  -0.000048   0.127730  -0.261053   0.008731
    33  H   -0.000339   0.029479  -0.005648   0.005632   0.241912  -0.021736
    34  H   -0.000866  -0.014165  -0.053306   0.179545   0.017016   0.001325
    35  H   -0.000468   0.004878  -0.015254   0.096538  -0.004040   0.000464
    36  H    0.000019  -0.046667  -0.003404   0.039215  -0.001165   0.000308
    37  H   -0.000033   0.013658   0.007237  -0.028373   0.004470  -0.000107
    38  H   -0.000589   0.001254   0.000005   0.000195  -0.000056  -0.000001
    39  H   -0.003438   0.006443  -0.000281  -0.001918   0.000420  -0.000030
    40  H   -0.006040  -0.006103  -0.000397   0.004019   0.001977   0.000261
    41  H   -0.026466   0.166748   0.000509   0.005942   0.006001  -0.000384
    42  H    0.006594   0.107085  -0.000463  -0.001915   0.001485   0.000028
    43  H    0.003670   0.141685   0.000129  -0.002162   0.002427   0.000051
    44  H    0.008331   0.003728  -0.007959  -0.019118   0.002697   0.000139
    45  H   -0.030041   0.222644  -0.031890   0.019422   0.001038  -0.002126
             19         20         21         22         23         24
     1  O   -0.000032   0.000032   0.000000   0.000000  -0.000184   0.000000
     2  C   -0.000937   0.005086   0.000048   0.000000   0.018656   0.001130
     3  C    0.006245  -0.006760  -0.000016   0.000001   0.046175   0.000233
     4  O    0.000002  -0.000013   0.000000   0.000000  -0.000406   0.000090
     5  H    0.000000   0.000001   0.000000   0.000000  -0.000014  -0.000001
     6  C    0.001279   0.028486   0.000565  -0.000029   0.443629   0.009095
     7  O   -0.000138   0.001986  -0.000003   0.000000  -0.045851  -0.044324
     8  H    0.000000   0.000312   0.000000   0.000000   0.029729   0.028153
     9  C   -0.007676  -0.008399   0.000042  -0.000005   0.008236   0.000140
    10  O    0.000032  -0.000123  -0.000001   0.000000  -0.000006   0.000000
    11  H    0.000000   0.000012   0.000000   0.000000   0.000000   0.000000
    12  C    0.001505  -0.013203   0.000121   0.000007   0.020244   0.003174
    13  O    0.016591  -0.002756   0.000037   0.000003   0.009730  -0.000136
    14  C    0.003908  -0.293537  -0.000960  -0.000836  -0.093581   0.068075
    15  O    0.016571   0.001643  -0.000105  -0.000014  -0.179556  -0.010305
    16  C   -0.086157  -1.076266   0.045409  -0.008863   0.637175  -0.011575
    17  C    0.062051   0.371655  -0.158358  -0.002474  -0.609735  -0.004599
    18  O    0.226931  -0.057818   0.014761  -0.000486   0.028365   0.000073
    19  H    0.375873   0.001903  -0.000297   0.000009  -0.004880   0.000009
    20  C    0.001903   6.278656   0.255362  -0.004902   0.076893  -0.005685
    21  O   -0.000297   0.255362   8.202188   0.234718   0.004347  -0.000003
    22  H    0.000009  -0.004902   0.234718   0.424275   0.000446   0.000000
    23  C   -0.004880   0.076893   0.004347   0.000446  11.303745   0.077659
    24  O    0.000009  -0.005685  -0.000003   0.000000   0.077659   8.448557
    25  H    0.000000   0.000455   0.000000   0.000000  -0.187378   0.260819
    26  C    0.000462   0.670060  -0.015298   0.004586  -4.000413  -0.123730
    27  O   -0.000026  -0.071988   0.000336  -0.000714  -0.610583   0.003827
    28  C    0.002668  -0.395204   0.007634  -0.004860  -0.738355   0.003232
    29  O   -0.000009  -0.008370  -0.026676   0.020637   0.021960   0.000017
    30  H    0.000000  -0.021985   0.001004  -0.003516   0.000881   0.000000
    31  H   -0.000004  -0.140169   0.000239   0.000333  -0.001109   0.000043
    32  H   -0.000175   0.331513  -0.029409  -0.000067   0.005001   0.000033
    33  H   -0.003768  -0.044521   0.002031  -0.000334   0.012753  -0.000012
    34  H    0.000223   0.042828  -0.000188   0.000001   0.039378  -0.001439
    35  H    0.000030  -0.006607  -0.000085   0.000010   0.141775   0.004487
    36  H   -0.000023   0.013834  -0.000013   0.000000   0.478007  -0.064423
    37  H   -0.000001  -0.004451   0.000009   0.000000   0.151001  -0.057938
    38  H    0.000000   0.000000   0.000000   0.000000   0.000002   0.000000
    39  H    0.000029  -0.000029   0.000000   0.000000  -0.000008   0.000000
    40  H    0.000600  -0.000023   0.000003   0.000000   0.000012   0.000000
    41  H   -0.000086   0.000162  -0.000001   0.000000  -0.000016   0.000000
    42  H   -0.000011   0.000015   0.000000   0.000000  -0.000008   0.000005
    43  H   -0.000002   0.000013   0.000000   0.000000   0.000020   0.000036
    44  H   -0.000025   0.000359   0.000000   0.000000  -0.001434   0.000801
    45  H   -0.000479   0.009021   0.000008   0.000000  -0.001088  -0.000129
             25         26         27         28         29         30
     1  O    0.000000   0.000220   0.000000   0.000012   0.000000   0.000000
     2  C   -0.000154  -0.026218  -0.000047   0.000328   0.000006   0.000000
     3  C   -0.000948  -0.074700  -0.000436  -0.003631   0.000021   0.000000
     4  O    0.000004   0.000253   0.000001   0.000021   0.000000   0.000000
     5  H    0.000000   0.000014   0.000000   0.000000   0.000000   0.000000
     6  C   -0.014372  -0.525927  -0.009342  -0.045404   0.000060   0.000012
     7  O    0.006206   0.036555   0.000280   0.001910  -0.000005   0.000000
     8  H   -0.005192  -0.041212  -0.000071  -0.000643   0.000000   0.000000
     9  C   -0.000025  -0.011742  -0.000136  -0.003659   0.000003   0.000000
    10  O    0.000000  -0.000142   0.000000   0.000015   0.000000   0.000000
    11  H    0.000000  -0.000004   0.000000   0.000000   0.000000   0.000000
    12  C   -0.000593   0.018839  -0.000918  -0.008696   0.000039   0.000001
    13  O   -0.000010  -0.013861   0.000176   0.000050   0.000023   0.000000
    14  C   -0.006754  -0.351329  -0.016709  -0.073987  -0.000274   0.000238
    15  O    0.003658   0.083219   0.009013   0.033281  -0.000328   0.000000
    16  C   -0.010456  -2.875557  -0.060030   0.954530  -0.043943   0.006097
    17  C    0.001501   0.708862   0.005046  -0.450940  -0.005164   0.006381
    18  O   -0.000006   0.017474  -0.002716  -0.026681   0.000366   0.000021
    19  H    0.000000   0.000462  -0.000026   0.002668  -0.000009   0.000000
    20  C    0.000455   0.670060  -0.071988  -0.395204  -0.008370  -0.021985
    21  O    0.000000  -0.015298   0.000336   0.007634  -0.026676   0.001004
    22  H    0.000000   0.004586  -0.000714  -0.004860   0.020637  -0.003516
    23  C   -0.187378  -4.000413  -0.610583  -0.738355   0.021960   0.000881
    24  O    0.260819  -0.123730   0.003827   0.003232   0.000017   0.000000
    25  H    0.417535   0.143063   0.000027   0.002365  -0.000005   0.000000
    26  C    0.143063  12.164188   0.531158  -0.767513   0.007155  -0.002068
    27  O    0.000027   0.531158   8.153382   0.321758  -0.011717   0.000877
    28  C    0.002365  -0.767513   0.321758   6.248421   0.209210  -0.003558
    29  O   -0.000005   0.007155  -0.011717   0.209210   8.153976   0.267414
    30  H    0.000000  -0.002068   0.000877  -0.003558   0.267414   0.414540
    31  H    0.000000  -0.025587  -0.044335   0.450549  -0.022502  -0.010656
    32  H    0.000000  -0.002963   0.000548   0.086786  -0.000734  -0.000077
    33  H    0.000000   0.015138   0.001093  -0.015338   0.000864   0.000018
    34  H   -0.000073   0.009664  -0.000374  -0.019619  -0.000017   0.000002
    35  H   -0.000254   0.056075  -0.047436  -0.001054   0.000694   0.000018
    36  H    0.000194  -0.131163  -0.012991  -0.018168  -0.000004   0.000000
    37  H    0.001335   0.204405   0.000296   0.023608  -0.000131  -0.000001
    38  H    0.000000  -0.000006   0.000000   0.000000   0.000000   0.000000
    39  H    0.000000  -0.000218   0.000000   0.000005   0.000000   0.000000
    40  H    0.000000   0.000491   0.000000  -0.000014   0.000000   0.000000
    41  H    0.000000  -0.000258   0.000001   0.000011   0.000000   0.000000
    42  H    0.000000  -0.000125   0.000000   0.000000   0.000000   0.000000
    43  H    0.000000  -0.000270   0.000000  -0.000001   0.000000   0.000000
    44  H    0.000009  -0.000092   0.000003   0.000070   0.000000   0.000000
    45  H    0.000002   0.026573   0.000161  -0.000946  -0.000002   0.000000
             31         32         33         34         35         36
     1  O    0.000000   0.000000   0.000000  -0.000003   0.000000   0.000000
     2  C    0.000011   0.000149  -0.000350  -0.002376  -0.000061  -0.000120
     3  C    0.000005  -0.000011   0.000546   0.005869   0.000782   0.001180
     4  O    0.000000   0.000000   0.000000   0.000000   0.000000  -0.000003
     5  H    0.000000   0.000000   0.000000   0.000000   0.000000   0.000000
     6  C    0.000132   0.001992   0.010665   0.031571   0.010121   0.008067
     7  O    0.000002   0.000007  -0.000011  -0.002698   0.000050   0.008824
     8  H    0.000000   0.000000   0.000000   0.000132   0.000008  -0.000528
     9  C   -0.000011  -0.000096   0.000451   0.000285   0.000064  -0.000086
    10  O    0.000000   0.000000   0.000000   0.000001   0.000000   0.000000
    11  H    0.000000   0.000000   0.000000   0.000000   0.000000   0.000000
    12  C    0.000018  -0.000056  -0.000613   0.002088  -0.000188  -0.002009
    13  O    0.000030   0.000090  -0.000339  -0.000866  -0.000468   0.000019
    14  C   -0.001661  -0.015952   0.029479  -0.014165   0.004878  -0.046667
    15  O    0.000200  -0.000048  -0.005648  -0.053306  -0.015254  -0.003404
    16  C    0.061799   0.127730   0.005632   0.179545   0.096538   0.039215
    17  C   -0.015406  -0.261053   0.241912   0.017016  -0.004040  -0.001165
    18  O    0.000782   0.008731  -0.021736   0.001325   0.000464   0.000308
    19  H   -0.000004  -0.000175  -0.003768   0.000223   0.000030  -0.000023
    20  C   -0.140169   0.331513  -0.044521   0.042828  -0.006607   0.013834
    21  O    0.000239  -0.029409   0.002031  -0.000188  -0.000085  -0.000013
    22  H    0.000333  -0.000067  -0.000334   0.000001   0.000010   0.000000
    23  C   -0.001109   0.005001   0.012753   0.039378   0.141775   0.478007
    24  O    0.000043   0.000033  -0.000012  -0.001439   0.004487  -0.064423
    25  H    0.000000   0.000000   0.000000  -0.000073  -0.000254   0.000194
    26  C   -0.025587  -0.002963   0.015138   0.009664   0.056075  -0.131163
    27  O   -0.044335   0.000548   0.001093  -0.000374  -0.047436  -0.012991
    28  C    0.450549   0.086786  -0.015338  -0.019619  -0.001054  -0.018168
    29  O   -0.022502  -0.000734   0.000864  -0.000017   0.000694  -0.000004
    30  H   -0.010656  -0.000077   0.000018   0.000002   0.000018   0.000000
    31  H    0.609067   0.005359   0.003125  -0.000027   0.005116  -0.000042
    32  H    0.005359   0.602943   0.006789   0.002163  -0.000065  -0.000033
    33  H    0.003125   0.006789   0.639590   0.006658   0.001626   0.000145
    34  H   -0.000027   0.002163   0.006658   0.605929   0.006255   0.010361
    35  H    0.005116  -0.000065   0.001626   0.006255   0.646258   0.012779
    36  H   -0.000042  -0.000033   0.000145   0.010361   0.012779   0.481793
    37  H    0.000037  -0.000001   0.000080   0.000168  -0.038026  -0.059701
    38  H    0.000000   0.000000   0.000000   0.000000   0.000000   0.000000
    39  H    0.000000   0.000000   0.000000   0.000000   0.000000   0.000000
    40  H    0.000000   0.000000  -0.000002   0.000000   0.000000   0.000000
    41  H    0.000000   0.000000  -0.000001  -0.000023   0.000000  -0.000001
    42  H    0.000000   0.000000   0.000000   0.000000   0.000000   0.000000
    43  H    0.000000   0.000000   0.000000  -0.000002   0.000000   0.000000
    44  H    0.000000   0.000000  -0.000003  -0.000020  -0.000007  -0.000031
    45  H    0.000000  -0.000005  -0.000041   0.006362   0.000001  -0.000270
             37         38         39         40         41         42
     1  O    0.000000   0.262261   0.003502  -0.000429   0.003970  -0.018616
     2  C   -0.000048   0.045089   0.048441  -0.026799   0.094478   0.376512
     3  C   -0.000949  -0.018696  -0.007147   0.002074  -0.070747  -0.058536
     4  O    0.000001   0.000727  -0.000034   0.000007   0.000210   0.000064
     5  H    0.000000  -0.002614  -0.000001   0.000000   0.000003   0.000014
     6  C   -0.008796   0.000120   0.006405  -0.001682  -0.015591  -0.027549
     7  O   -0.001007  -0.000014   0.000010  -0.000018  -0.000088   0.000515
     8  H    0.000489   0.000000   0.000000   0.000000   0.000000   0.000003
     9  C    0.000016  -0.011727   0.589393   0.389855   0.047552  -0.044187
    10  O    0.000000  -0.000008  -0.052580  -0.017104   0.000346  -0.000792
    11  H    0.000000  -0.000042   0.000386  -0.011875  -0.000277  -0.000018
    12  C    0.000340  -0.019027  -0.286041   0.003314   0.046113  -0.080012
    13  O   -0.000033  -0.000589  -0.003438  -0.006040  -0.026466   0.006594
    14  C    0.013658   0.001254   0.006443  -0.006103   0.166748   0.107085
    15  O    0.007237   0.000005  -0.000281  -0.000397   0.000509  -0.000463
    16  C   -0.028373   0.000195  -0.001918   0.004019   0.005942  -0.001915
    17  C    0.004470  -0.000056   0.000420   0.001977   0.006001   0.001485
    18  O   -0.000107  -0.000001  -0.000030   0.000261  -0.000384   0.000028
    19  H   -0.000001   0.000000   0.000029   0.000600  -0.000086  -0.000011
    20  C   -0.004451   0.000000  -0.000029  -0.000023   0.000162   0.000015
    21  O    0.000009   0.000000   0.000000   0.000003  -0.000001   0.000000
    22  H    0.000000   0.000000   0.000000   0.000000   0.000000   0.000000
    23  C    0.151001   0.000002  -0.000008   0.000012  -0.000016  -0.000008
    24  O   -0.057938   0.000000   0.000000   0.000000   0.000000   0.000005
    25  H    0.001335   0.000000   0.000000   0.000000   0.000000   0.000000
    26  C    0.204405  -0.000006  -0.000218   0.000491  -0.000258  -0.000125
    27  O    0.000296   0.000000   0.000000   0.000000   0.000001   0.000000
    28  C    0.023608   0.000000   0.000005  -0.000014   0.000011   0.000000
    29  O   -0.000131   0.000000   0.000000   0.000000   0.000000   0.000000
    30  H   -0.000001   0.000000   0.000000   0.000000   0.000000   0.000000
    31  H    0.000037   0.000000   0.000000   0.000000   0.000000   0.000000
    32  H   -0.000001   0.000000   0.000000   0.000000   0.000000   0.000000
    33  H    0.000080   0.000000   0.000000  -0.000002  -0.000001   0.000000
    34  H    0.000168   0.000000   0.000000   0.000000  -0.000023   0.000000
    35  H   -0.038026   0.000000   0.000000   0.000000   0.000000   0.000000
    36  H   -0.059701   0.000000   0.000000   0.000000  -0.000001   0.000000
    37  H    0.477788   0.000000   0.000000   0.000000   0.000000   0.000000
    38  H    0.000000   0.414708  -0.000430   0.000020  -0.000175  -0.013404
    39  H    0.000000  -0.000430   0.601469  -0.046661   0.005732   0.004046
    40  H    0.000000   0.000020  -0.046661   0.572033  -0.001968   0.000174
    41  H    0.000000  -0.000175   0.005732  -0.001968   0.601442   0.006298
    42  H    0.000000  -0.013404   0.004046   0.000174   0.006298   0.612433
    43  H    0.000000  -0.000087  -0.000004   0.000007   0.001776   0.006096
    44  H    0.000018   0.000010  -0.000013   0.000000  -0.000102   0.001321
    45  H    0.000000   0.000002  -0.000015  -0.000030   0.002124  -0.000045
             43         44         45
     1  O   -0.001715  -0.000128   0.000004
     2  C    0.038303   0.026072  -0.001601
     3  C    0.338551  -0.077902  -0.031895
     4  O   -0.027014   0.004315  -0.000072
     5  H   -0.001240  -0.000166  -0.000001
     6  C   -0.265245   0.279096   0.012353
     7  O    0.006296  -0.014029  -0.000962
     8  H   -0.000186  -0.009023  -0.000260
     9  C    0.006033   0.016335   0.021222
    10  O   -0.000203   0.000015   0.000092
    11  H    0.000000   0.000000   0.000000
    12  C    0.007771   0.054132   0.068406
    13  O    0.003670   0.008331  -0.030041
    14  C    0.141685   0.003728   0.222644
    15  O    0.000129  -0.007959  -0.031890
    16  C   -0.002162  -0.019118   0.019422
    17  C    0.002427   0.002697   0.001038
    18  O    0.000051   0.000139  -0.002126
    19  H   -0.000002  -0.000025  -0.000479
    20  C    0.000013   0.000359   0.009021
    21  O    0.000000   0.000000   0.000008
[...]
 ,0.00018519,0.00118421,-0.00048133,0.00026574,0.00023116,0.00021360,0.
 00007444,-0.00005583,0.00001568,-0.00664034,0.00001932,0.00170765,0.00
 125905,0.00036669,0.00125915,-0.00008406,-0.00019349,-0.00012250,0.000
 09620,0.00002541,0.00014706,0.00000860,0.00000885,-0.00002904,-0.00002
 292,0.00000031,-0.00000527,0.00002290,-0.00003476,0.00003570,-0.000017
 52,0.00005682,-0.00004177,-0.00000406,0.00000556,-0.00000466,0.0000098
 5,-0.00000848,0.00000806,-0.00000339,0.00000041,-0.00000115,0.00003540
 ,0.00000286,0.00001928,0.00002877,0.00001741,0.00003788,-0.00001235,-0
 .00000402,-0.00000201,-0.00003100,0.00000196,-0.00000957,0.00001051,-0
 .00000846,0.00001342,-0.00001104,0.00000678,-0.00001092,0.00000268,-0.
 00000146,0.00000765,-0.00000213,-0.00000014,-0.00000120,0.00000370,0.0
 0000003,0.00000142,0.00000423,-0.00000033,-0.00000203,0.00000801,0.000
 00141,0.00000828,0.00000688,-0.00000250,-0.00000811,0.00000712,0.00000
 056,0.00000673,-0.00000495,-0.00000761,-0.00002202,-0.00001553,-0.0000
 0235,-0.00000390,0.00095371,0.00012327,-0.00034231,0.00097709,-0.00078
 858,-0.00049292,0.00045271,0.00010422,-0.00015316,0.00064174,-0.000417
 86,0.00045513,0.36724669,-0.01061576,-0.00010909,-0.00349233,-0.014414
 03,-0.04420307,0.00402691,0.03308878,-0.00065139,-0.00766219,-0.002055
 53,0.00404787,-0.00056559,0.00053472,-0.00022261,0.00053746,0.00040553
 ,0.00099637,0.00104784,-0.00041574,-0.00028883,-0.00020089,-0.00008494
 ,-0.00001508,0.00000855,-0.00300203,0.00133437,0.00060761,0.00060673,0
 .00004284,-0.00005311,-0.00001537,-0.00006420,0.00002784,-0.02568452,-
 0.00425727,0.00785268,0.00141948,0.00132445,-0.00090466,0.00019222,-0.
 00065805,-0.00010899,0.00002037,0.00013517,-0.00001418,-0.00002619,0.0
 0002291,-0.00001326,0.00000797,-0.00001757,-0.00003050,0.00002712,0.00
 000464,0.00001363,-0.00003848,0.00001229,-0.00001346,-0.00000545,0.000
 00255,0.00000048,0.00000386,0.00000374,-0.00000092,-0.00000072,-0.0000
 0080,0.00000003,-0.00002091,0.00002153,-0.00001476,-0.00003261,-0.0000
 1705,-0.00007424,0.00000987,0.00000281,-0.00000015,0.00001577,-0.00003
 818,0.00000463,0.00000019,0.00002097,-0.00001598,0.00000397,-0.0000134
 1,0.00000681,0.00000106,0.00000336,-0.00000478,0.00000029,0.00000053,0
 .00000090,-0.00000022,0.00000136,0.00000020,0.00000123,-0.00000147,-0.
 00000199,0.00000429,0.00000624,0.00000631,-0.00000099,-0.00000644,0.00
 000457,-0.00000180,0.00000290,-0.00000144,-0.00000397,-0.00000625,0.00
 002782,0.00000764,-0.00000185,0.00001755,-0.00071812,0.00134134,0.0003
 9325,0.00088516,-0.00040843,-0.00025916,0.00028164,0.00023312,-0.00021
 103,-0.00066745,-0.00294363,0.00330692,0.01910167,0.04967682,-0.040516
 84,-0.00642744,-0.01051824,0.07119466,0.00382432,-0.05787735,0.0132446
 7,0.00167378,-0.00198725,-0.00172752,0.00063439,0.00094017,-0.00044569
 ,-0.00033180,-0.00002817,0.00070576,0.00050662,0.00046940,-0.00027710,
 -0.00014952,-0.00006445,-0.00001897,0.00002266,0.00001695,0.00078932,-
 0.00182018,0.00022376,-0.00023912,-0.00003844,0.00022175,0.00002136,-0
 .00002418,0.00004338,0.02523565,0.00395729,-0.00526952,-0.00126898,-0.
 00082709,0.00197820,0.00034070,-0.00017578,-0.00002289,-0.00007557,0.0
 0001306,-0.00023119,-0.00002290,-0.00004383,0.00003274,0.00001896,0.00
 001258,0.00003101,-0.00006074,-0.00000790,-0.00002530,0.00007080,0.000
 00726,-0.00000891,0.00000120,-0.00001261,0.00001424,-0.00000917,0.0000
 1671,-0.00001856,0.00000233,-0.00000145,0.00000305,-0.00003618,-0.0000
 1518,-0.00002306,-0.00001543,-0.00002203,-0.00003115,0.00000827,0.0000
 0623,0.00000565,0.00003313,0.00001761,0.00001465,-0.00000964,0.0000109
 4,-0.00003052,0.00001049,-0.00001021,0.00002857,0.00000091,0.00000170,
 -0.00002328,0.00000246,0.00000028,0.00000440,-0.00000336,0.00000016,-0
 .00000208,-0.00000519,0.00000096,0.00000309,-0.00001204,-0.00000631,-0
 .00001635,-0.00000822,0.00000513,0.00001305,-0.00000718,-0.00000333,-0
 .00000745,-0.00000012,0.00001655,0.00002754,0.00001627,0.00000710,0.00
 000456,-0.00271095,0.00056019,0.00350321,-0.00081980,0.00035741,0.0004
 9285,-0.00017301,-0.00017986,0.00003235,0.00021896,0.00313414,-0.00332
 964,-0.06334786,-0.00213913,0.07200836,0.00187763,-0.00022052,-0.00049
 514,-0.01470957,0.00171309,-0.00004740,-0.35233858,-0.00852834,0.00498
 417,-0.00422012,-0.00892057,0.01044631,-0.00034187,-0.00079988,-0.0001
 7541,-0.01476230,0.00088040,-0.00202533,0.00200675,0.00095419,0.001694
 82,0.00042835,0.00014855,0.00015331,0.00031356,0.00035480,-0.00022642,
 0.00004996,0.00002025,0.00001969,0.00000652,0.00000263,0.00001068,-0.0
 0064204,-0.00074483,0.00053941,0.00043441,0.00022627,0.00003903,-0.001
 07453,-0.00096320,0.00036478,0.00049612,0.00012482,-0.00029148,-0.0000
 9500,0.00008841,-0.00008687,0.00001569,-0.00002505,-0.00007106,0.00004
 447,0.00000282,0.00004360,-0.00003975,0.00000221,0.00000233,-0.0000202
 4,0.00002066,0.00000021,0.00001232,-0.00000662,0.00000519,-0.00000298,
 0.00000241,-0.00000334,0.00005981,0.00000633,0.00004028,0.00005635,0.0
 0005492,0.00013224,-0.00001810,-0.00000769,0.00000459,-0.00002798,0.00
 004002,0.00000150,0.00001247,-0.00001843,0.00000657,-0.00001066,-0.000
 00042,-0.00001351,0.00000202,0.00000063,0.00001389,-0.00000210,-0.0000
 0114,-0.00000316,0.00000395,0.00000020,0.00000205,0.00000648,-0.000001
 27,-0.00000394,0.00001056,-0.00000077,0.00001007,0.00001537,-0.0000028
 1,-0.00003818,0.00000646,0.00000057,0.00000987,-0.00000535,-0.00001318
 ,-0.00002719,-0.00002657,-0.00001356,-0.00001089,0.00042523,-0.0004718
 8,-0.00028372,0.00015119,-0.00025359,-0.00005466,0.00000778,0.00009640
 ,0.00000540,0.00071018,0.00057295,-0.00050109,0.00035619,0.00156694,0.
 00023110,0.38012469,-0.00174633,0.00246767,0.00199249,0.03443164,-0.00
 291126,-0.00228323,-0.00607945,-0.03878982,-0.00429342,-0.03091352,-0.
 01230744,0.01748622,-0.00083447,-0.00017110,-0.00063204,-0.00931713,0.
 00108032,-0.00291086,-0.00071964,0.00046855,0.00074733,0.00000827,-0.0
 0002272,0.00002872,0.00027570,-0.00008074,-0.00019164,-0.00012893,-0.0
 0006723,-0.00005250,-0.00001011,0.00001867,-0.00000987,0.00075581,0.00
 223984,-0.00070364,-0.00020849,-0.00023653,0.00032891,0.00042706,-0.00
 050683,0.00022453,0.00009369,0.00004746,-0.00032954,-0.00006121,0.0000
 4808,-0.00000498,0.00001918,-0.00001742,-0.00004744,-0.00001866,0.0000
 0269,0.00003500,0.00002041,0.00000693,-0.00005570,-0.00000577,0.000012
 28,0.00001028,0.00000160,-0.00000131,-0.00000848,-0.00000022,0.0000035
 2,-0.00000022,0.00004598,-0.00004250,0.00002856,0.00007291,0.00000838,
 0.00010279,-0.00002757,-0.00000219,-0.00001284,-0.00002160,0.00010067,
 0.00000043,0.00000106,-0.00003561,0.00000477,-0.00000702,0.00000956,-0
 .00000134,0.00000032,-0.00000352,0.00000379,-0.00000044,-0.00000008,-0
 .00000065,0.00000089,-0.00000104,-0.00000010,0.00000096,0.00000009,-0.
 00000039,0.00000091,-0.00000236,0.00000043,0.00000718,0.00000680,-0.00
 000945,0.00000165,-0.00000734,0.00000243,-0.00001386,0.00002068,-0.000
 04056,-0.00001203,0.00000905,-0.00002449,-0.00000580,0.00033926,0.0004
 5289,-0.00031949,-0.00004809,0.00016696,-0.00014500,-0.00001905,0.0000
 5848,-0.00029343,-0.00058267,0.00035321,0.00165889,-0.00512925,-0.0024
 1114,0.01347171,0.05393896,-0.00000654,0.00118045,0.00144851,0.0134326
 5,-0.00344219,0.00011420,0.00504940,-0.00459804,-0.03940886,0.02772021
 ,0.01631552,-0.01201727,0.00150735,0.00037049,0.00023279,-0.03482644,-
 0.00271446,-0.00388321,0.00070578,0.00164337,0.00255857,-0.00027379,0.
 00028301,0.00023430,0.00004082,-0.00015407,0.00009568,-0.00002903,-0.0
 0000706,-0.00002624,-0.00000556,0.00001366,-0.00000827,-0.00054445,0.0
 0028276,-0.00054366,0.00010080,0.00042733,-0.00032633,-0.00114803,-0.0
 0057901,0.00123782,0.00045113,0.00006797,-0.00026915,-0.00000316,0.000
 08378,0.00004921,0.00003198,-0.00001478,-0.00005098,0.00001928,0.00001
 639,-0.00001354,-0.00002266,-0.00003321,0.00003617,-0.00001864,0.00000
 590,0.00001775,0.00000399,0.00001218,-0.00002160,-0.00000030,0.0000019
 8,0.00000101,0.00005157,-0.00005365,0.00002274,0.00011611,0.00000315,0
 .00012602,-0.00001501,0.00001113,-0.00003012,-0.00002264,0.00009125,0.
 00003138,0.00000598,-0.00001703,-0.00002440,-0.00000432,-0.00001023,0.
 00002302,0.00000512,0.00000087,-0.00001633,0.00000051,-0.00000002,0.00
 000310,0.00000106,0.00000071,0.00000050,0.00000188,0.00000044,-0.00000
 278,0.00000157,-0.00000340,0.00000473,0.00002962,0.00000896,-0.0000553
 4,0.00000371,-0.00000788,0.00000850,-0.00003061,0.00001951,-0.00002609
 ,-0.00001989,0.00001068,-0.00000849,-0.00002883,0.00035307,0.00009278,
 -0.00009862,0.00005191,0.00003480,-0.00003986,-0.00008821,0.00001414,-
 0.00022493,-0.00005283,0.00014198,0.00097290,-0.00174976,-0.00060134,-
 0.01212488,-0.00661716,0.05678780,0.00036149,-0.00003082,-0.00010167,-
 0.00070668,0.00050275,0.00001509,-0.00890149,-0.00381123,-0.00082838,0
 .00115833,0.00057562,0.00014762,0.00014427,0.00005684,0.00007403,-0.33
 449901,-0.08608056,-0.00581372,-0.01941746,0.00707346,0.00546821,0.000
 08917,0.00019738,-0.00152826,-0.00004368,-0.00004954,0.00002384,0.0000
 4416,0.00004682,0.00002446,-0.00000532,-0.00000428,0.00000374,-0.00012
 696,-0.00012017,-0.00000695,0.00149960,-0.00075722,-0.00038575,-0.0055
 0486,-0.00054756,-0.00109093,0.00104729,0.00054472,-0.00101764,0.00018
 034,0.00017029,0.00022468,0.00007411,0.00003247,-0.00006644,0.00003162
 ,0.00001326,-0.00008598,-0.00000833,-0.00006245,0.00003352,-0.00003352
 ,0.00002561,0.00003488,0.00001179,-0.00000122,-0.00003797,-0.00000268,
 0.00000920,0.00000181,0.00019611,-0.00013384,0.00012007,0.00028255,-0.
 00001138,0.00047242,-0.00006680,-0.00000572,-0.00007078,-0.00011347,0.
 00029979,0.00002452,0.00000912,-0.00010956,0.00001661,-0.00002392,0.00
 003392,0.00001150,0.00000575,-0.00001376,-0.00000947,-0.00000087,0.000
 00003,0.00000188,0.00000510,-0.00000213,0.00000178,0.00000588,0.000000
 72,-0.00000133,-0.00000163,-0.00001394,0.00000867,0.00005517,0.0000424
 3,-0.00024343,0.00000890,-0.00002027,0.00000990,-0.00007303,0.00006319
 ,-0.00016005,-0.00005254,0.00003242,-0.00004607,-0.00002600,-0.0000901
 8,-0.00007684,0.00002612,-0.00001404,-0.00001714,0.00000619,-0.0000125
 7,-0.00001453,0.00004712,0.00009632,-0.00000132,0.00048576,-0.00032753
 ,-0.00017927,0.00030792,-0.00049274,-0.00099992,0.36325417,0.00020560,
 -0.00000413,-0.00003443,-0.00064662,0.00023976,0.00046703,-0.00788878,
 -0.00073591,0.00062252,0.00108753,0.00055070,-0.00036758,-0.00001814,-
 0.00005687,0.00005052,-0.08852535,-0.06714606,-0.00036481,0.03680186,-
 0.00186957,-0.00485015,0.00079328,0.00200064,0.00185349,-0.00011045,0.
 00003148,0.00007706,0.00003221,-0.00002596,-0.00000892,-0.00000188,0.0
 0000094,-0.00000441,-0.00010955,-0.00015583,-0.00011185,0.00115915,0.0
 0179878,-0.00032291,-0.02757308,-0.00712830,-0.00019086,0.00097823,0.0
 0127142,-0.00213647,-0.00010235,0.00041381,0.00002102,0.00005393,-0.00
 008679,-0.00027576,0.00016298,-0.00005686,0.00014423,-0.00015296,0.000
 06056,0.00000282,-0.00002836,0.00004648,0.00001820,0.00001222,0.000016
 54,-0.00001480,-0.00000127,0.00000203,-0.00000182,-0.00018794,0.000054
 23,-0.00000550,-0.00024959,-0.00013647,-0.00025097,0.00008505,0.000041
 09,-0.00000421,0.00009972,-0.00011364,0.00006877,0.00000684,0.00005108
 ,-0.00005954,0.00000851,-0.00005531,0.00002196,0.00000387,0.00001395,-
 0.00000888,0.00000015,0.00000052,0.00000221,-0.00000076,0.00000401,0.0
 0000136,0.00000845,-0.00000116,-0.00000757,0.00002529,-0.00000425,0.00
 003604,0.00019047,-0.00002211,-0.00009181,0.00000946,0.00002530,0.0000
 1895,0.00007952,-0.00005846,0.00021423,0.00001357,-0.00003711,0.000022
 57,0.00001029,0.00000613,-0.00002316,0.00004370,-0.00002965,-0.0000363
 9,0.00001054,-0.00002883,-0.00000910,0.00012197,0.00014445,0.00003907,
 0.00018615,-0.00006171,-0.00018794,0.00017558,0.00000649,-0.00151024,0
 .08294248,0.07401270,0.00057064,0.00002324,-0.00049785,-0.00096110,0.0
 0124111,0.00097697,-0.03310544,-0.00964793,-0.00048646,0.00217117,0.00
 056902,0.00291100,0.00017474,-0.00019399,0.00033778,-0.01030005,-0.000
 84008,-0.04467344,0.01446005,-0.00342537,-0.00009692,0.00152299,0.0004
 0952,0.00100012,-0.00004067,-0.00004414,0.00008543,0.00001407,0.000012
 99,0.00002113,0.00000668,-0.00000294,0.00000409,-0.00025906,-0.0001950
 1,-0.00059327,-0.00116670,-0.00074469,0.00044399,0.02160551,0.00879981
 ,-0.00116394,0.00032332,-0.00063150,0.00184480,0.00040465,-0.00023047,
 -0.00014207,-0.00003913,0.00008339,0.00024705,-0.00012338,0.00002128,-
 0.00015031,0.00010878,-0.00003416,0.00007483,0.00002989,-0.00004094,-0
 .00002033,-0.00001356,-0.00002768,0.00001820,0.00000194,0.00000058,0.0
 0000230,-0.00017742,-0.00008686,0.00001308,-0.00016755,0.00001934,0.00
 001963,0.00002308,-0.00000675,0.00009647,-0.00002878,0.00015299,-0.000
 03110,-0.00002375,-0.00006366,0.00010757,-0.00000031,0.00007356,-0.000
 04317,-0.00001109,-0.00001872,0.00002217,-0.00000027,0.00000014,-0.000
 00532,-0.00000148,-0.00000417,-0.00000130,-0.00000859,-0.00000096,0.00
 000841,-0.00003318,0.00001378,-0.00002890,-0.00026460,-0.00000285,-0.0
 0000051,-0.00002082,-0.00002130,-0.00005254,0.00015259,0.00004549,0.00
 002910,0.00005527,-0.00000130,-0.00010874,0.00005870,-0.00018298,-0.00
 009481,0.00000276,-0.00000746,-0.00000287,0.00001566,-0.00004078,0.000
 00531,0.00007348,0.00004846,-0.00011956,0.00048700,-0.00031643,-0.0001
 2060,-0.00174998,-0.00140362,-0.00550368,0.00599185,0.00430261,0.04791
 602,0.00006969,-0.00007318,0.00014526,-0.00004861,0.00032489,0.0000357
 8,-0.00028081,-0.00022890,0.00000351,0.00019991,0.00004021,-0.00013090
 ,-0.00001830,0.00000917,0.00004188,-0.00389112,0.00096337,0.00096983,0
 .00199758,0.00049641,-0.00123180,-0.00021729,-0.00019811,-0.00007590,0
 .00053802,0.00009657,0.00002705,0.00000679,0.00019449,0.00010899,0.000
 00037,0.00000314,0.00002511,0.00000462,-0.00084410,-0.00121260,-0.0112
 5321,0.00749154,0.00550619,-0.34187301,-0.05210593,0.05686901,-0.01620
 510,-0.00470697,-0.00506999,0.00027486,-0.00008122,0.00361502,0.000137
 50,0.00001489,-0.00050813,0.00081307,-0.00039648,0.00003923,-0.0009203
 5,0.00004825,0.00082549,-0.00002246,0.00011359,0.00002566,0.00002125,-
 0.00001151,-0.00001374,-0.00000236,0.00001129,-0.00000687,0.00031760,0
 .00006505,0.00007202,-0.00005220,0.00001117,0.00006815,-0.00002552,-0.
 00000083,-0.00005922,0.00055150,-0.00006639,-0.00006869,-0.00003447,-0
 .00010136,-0.00011447,-0.00002910,-0.00004413,-0.00001420,0.00000235,0
 .00000883,0.00001899,-0.00000236,-0.00000022,-0.00000220,0.00000568,0.
 00000562,0.00000176,0.00002736,0.00000213,-0.00002242,0.00005658,-0.00
 012488,0.00016519,0.00127304,0.00013347,-0.00099754,0.00006023,0.00015
 313,0.00028749,-0.00011816,-0.00010791,-0.00007218,-0.00010446,-0.0000
 0660,0.00001437,0.00000802,-0.00000120,-0.00000064,0.00007511,-0.00019
 465,-0.00011957,0.00001028,-0.00007745,0.00000265,0.00062196,0.0003397
 7,0.00090859,0.00002519,-0.00005414,-0.00015618,0.00039531,0.00008708,
 0.00023466,0.00027026,0.00028848,0.00024209,0.36733476,-0.00004664,0.0
 0035335,-0.00024643,-0.00038564,-0.00071698,-0.00010290,-0.00101912,-0
 .00022902,-0.00116370,0.00038944,0.00005351,0.00044720,0.00010855,-0.0
 0012967,0.00005728,-0.02244188,-0.00279786,0.00576263,0.00015492,0.002
 75367,-0.00067445,-0.00033556,-0.00025834,-0.00001631,-0.00004753,0.00
 018722,0.00017951,-0.00016329,-0.00026172,-0.00015964,-0.00000478,0.00
 002779,-0.00003113,0.00391516,0.00144215,0.00430899,0.03367778,-0.0067
 6554,-0.01427328,-0.05439155,-0.05097996,0.01158536,-0.00763735,0.0022
 3008,-0.00193163,-0.00035831,-0.00030800,0.00143427,0.00023913,0.00005
 627,0.00008137,-0.00047883,0.00004598,0.00009874,0.00075639,0.00004324
 ,-0.00102480,0.00000563,0.00001631,0.00008370,-0.00001392,0.00004414,-
 0.00007803,0.00000236,0.00000495,0.00000643,0.00025093,-0.00007568,0.0
 0009389,0.00004646,-0.00015021,0.00003987,-0.00004504,-0.00002347,-0.0
 0001366,-0.00001526,0.00017286,-0.00010093,0.00000545,-0.00002934,-0.0
 0010117,-0.00000412,0.00000044,0.00007716,0.00001028,-0.00000205,-0.00
 005526,0.00000361,0.00000051,0.00001077,-0.00000266,-0.00000362,-0.000
 00427,-0.00000896,0.00000742,0.00000401,-0.00001987,-0.00009109,-0.000
 01029,0.00041845,0.00021578,-0.00026709,0.00003418,-0.00000121,0.00004
 706,-0.00018141,0.00005261,-0.00018028,-0.00004836,0.00010977,0.000087
 66,-0.00001278,0.00001783,0.00001831,-0.00011968,0.00002878,0.00006836
 ,0.00003379,0.00005661,-0.00003115,-0.00121033,0.00020632,-0.00002673,
 -0.00000217,-0.00012258,0.00004829,0.00046598,0.00015017,0.00039676,-0
 .00004703,-0.00297812,0.00239941,0.04852361,0.05764670,-0.00009728,-0.
 00004332,-0.00028445,-0.00015413,0.00017933,-0.00013167,0.00118967,-0.
 00028491,0.00121587,-0.00047527,0.00003103,-0.00015588,-0.00004388,-0.
 00000556,-0.00001610,0.02180788,0.00368561,-0.00033087,-0.00171004,-0.
 00195951,0.00114203,-0.00010475,-0.00004087,-0.00009888,-0.00000610,0.
 00003176,0.00006391,-0.00012725,-0.00013084,-0.00008340,0.00000449,0.0
 0001365,-0.00000986,0.00320185,0.00040789,0.00268372,0.01126951,-0.005
 64843,-0.00284749,0.06472658,0.01588422,-0.05780322,-0.03269257,-0.006
 62880,-0.01010435,-0.00630588,-0.00147618,0.00421885,0.00006365,0.0000
 2144,-0.00066346,0.00009254,0.00008263,0.00040447,-0.00009830,0.000038
 66,-0.00044519,-0.00004932,0.00011264,0.00005712,0.00002312,0.00003664
 ,-0.00004029,0.00000352,0.00000482,-0.00000479,0.00015600,-0.00004627,
 0.00000993,-0.00004200,-0.00000439,0.00007341,-0.00000477,0.00002391,-
 0.00005200,-0.00006187,0.00005410,-0.00001664,0.00012305,0.00003693,-0
 .00017608,-0.00000910,-0.00014668,0.00006742,0.00001543,0.00002830,-0.
 00003268,0.00000080,0.00000135,0.00000783,0.00000075,0.00000617,0.0000
 0921,0.00003763,0.00001203,-0.00005190,0.00019322,-0.00009502,0.000054
 00,0.00092802,-0.00024255,-0.00086133,0.00020821,0.00003951,0.00008384
 ,-0.00016392,0.00003048,0.00004579,-0.00004293,0.00000608,-0.00002608,
 -0.00003033,-0.00000511,0.00000769,-0.00011061,0.00003904,0.00001790,-
 0.00000793,0.00005146,-0.00000880,-0.00074972,-0.00012682,-0.00007552,
 -0.00012649,-0.00004306,0.00012438,-0.00052747,0.00001711,-0.00047981,
 0.00007273,0.00289540,-0.00224779,-0.06037675,-0.00684390,0.06676115\\
 0.00075262,-0.00528714,-0.00806290,0.00755374,-0.01152933,-0.00577927,
 -0.00683379,0.01242484,0.02571852,-0.00572938,0.00434300,0.00875685,-0
 .00077952,-0.00752625,-0.03178786,0.03569903,-0.02738904,0.00889920,-0
 .02248680,-0.00905040,-0.02428931,0.01340684,0.00201772,0.01554694,0.0
 1452613,0.01462117,0.00693652,-0.00035617,0.02472591,-0.00031862,0.002
 08076,-0.03393992,-0.00144671,-0.00645236,0.03189808,0.01275666,0.0155
 7058,-0.01444245,0.01690725,-0.06430498,0.00197752,-0.00558734,0.01603
 852,-0.00132892,-0.01171359,0.00265504,0.02283988,-0.01889726,-0.01009
 473,0.02431469,0.03070228,0.00020638,-0.00957642,0.00384180,0.00861435
 ,0.01542749,-0.01841896,-0.00155201,0.00727108,-0.01631626,-0.00599671
 ,-0.00066333,-0.00953641,0.00415853,-0.00532437,0.03269393,0.05406200,
 -0.07556271,-0.04686123,-0.02745938,-0.07713324,0.09818457,-0.00351095
 ,0.03443944,-0.01459121,-0.03059512,0.04732285,0.02330208,0.00306027,-
 0.00431613,0.00998653,0.01214955,-0.00330813,-0.01467701,0.00137750,-0
 .00451655,0.02410627,-0.00298549,-0.00597056,-0.00142241,-0.02050733,0
 .00068690,-0.00232902,0.02018174,-0.00046419,0.00075172,-0.02330635,0.
 00147767,-0.00485968,0.02050641,-0.00307199,0.00050109,-0.01885960,0.0
 1825773,-0.00999403,0.04240469,0.01662162,-0.01371223,-0.02002132,0.00
 280581,-0.04037648,-0.00073007,0.00507133,-0.00006909,-0.01914810,-0.0
 0242948,0.00615043,-0.00344190,0.00717422,-0.01588457,0.01992014,0.003
 94527,-0.00167478,-0.01915157,-0.00181569,0.00210963,0.02116184,0.0018
 6130,-0.00360411,-0.01777008,-0.00088669,-0.00237010,0.01598704,0.0040
 0745,-0.00327184\\\@


 COMMON SENSE IS NOT SO COMMON.   -- VOLTAIRE
 Job cpu time:  1 days  7 hours 11 minutes 57.2 seconds.
 File lengths (MBytes):  RWF=   1774 Int=      0 D2E=      0 Chk=     28 Scr=      1
 Normal termination of Gaussian 09 at Fri Apr  1 07:55:04 2016.
Gaussian '09 finished on node002 at Fri Apr  1 07:55:04 EDT 2016.
