Gaussian '09 started on node020 at Mon Feb  8 13:54:04 EST 2016.
 Entering Gaussian System, Link 0=/usr/local/gaussian/g09/g09
 Initial command:
 /usr/local/gaussian/g09/l1.exe /home/srmcgrat/thesis/gaussian/cellobiose/300/9000/1/2dfp/gaussian15169/Gau-15248.inp -scrdir=/home/srmcgrat/thesis/gaussian/cellobiose/300/9000/1/2dfp/gaussian15169/
 Entering Link 1 = /usr/local/gaussian/g09/l1.exe PID=     15250.
  
 Copyright (c) 1988,1990,1992,1993,1995,1998,2003,2009,2010,
            Gaussian, Inc.  All Rights Reserved.
  
 This is part of the Gaussian(R) 09 program.  It is based on
 the Gaussian(R) 03 system (copyright 2003, Gaussian, Inc.),
 the Gaussian(R) 98 system (copyright 1998, Gaussian, Inc.),
 the Gaussian(R) 94 system (copyright 1995, Gaussian, Inc.),
 the Gaussian 92(TM) system (copyright 1992, Gaussian, Inc.),
 the Gaussian 90(TM) system (copyright 1990, Gaussian, Inc.),
 the Gaussian 88(TM) system (copyright 1988, Gaussian, Inc.),
 the Gaussian 86(TM) system (copyright 1986, Carnegie Mellon
 University), and the Gaussian 82(TM) system (copyright 1983,
 Carnegie Mellon University). Gaussian is a federally registered
 trademark of Gaussian, Inc.
  
 This software contains proprietary and confidential information,
 including trade secrets, belonging to Gaussian, Inc.
  
 This software is provided under written license and may be
 used, copied, transmitted, or stored only in accord with that
 written license.
  
 The following legend is applicable only to US Government
 contracts under FAR:
  
                    RESTRICTED RIGHTS LEGEND
  
 Use, reproduction and disclosure by the US Government is
 subject to restrictions as set forth in subparagraphs (a)
 and (c) of the Commercial Computer Software - Restricted
 Rights clause in FAR 52.227-19.
  
 Gaussian, Inc.
 340 Quinnipiac St., Bldg. 40, Wallingford CT 06492
  
  
 ---------------------------------------------------------------
 Warning -- This program may not be used in any manner that
 competes with the business of Gaussian, Inc. or will provide
 assistance to any competitor of Gaussian, Inc.  The licensee
 of this program is prohibited from giving any competitor of
 Gaussian, Inc. access to this program.  By using this program,
 the user acknowledges that Gaussian, Inc. is engaged in the
 business of creating and licensing software in the field of
 computational chemistry and represents and warrants to the
 licensee that it is not a competitor of Gaussian, Inc. and that
 it will not use this program in any manner prohibited above.
 ---------------------------------------------------------------
  

 Cite this work as:
 Gaussian 09, Revision B.01,
 M. J. Frisch, G. W. Trucks, H. B. Schlegel, G. E. Scuseria, 
 M. A. Robb, J. R. Cheeseman, G. Scalmani, V. Barone, B. Mennucci, 
 G. A. Petersson, H. Nakatsuji, M. Caricato, X. Li, H. P. Hratchian, 
 A. F. Izmaylov, J. Bloino, G. Zheng, J. L. Sonnenberg, M. Hada, 
 M. Ehara, K. Toyota, R. Fukuda, J. Hasegawa, M. Ishida, T. Nakajima, 
 Y. Honda, O. Kitao, H. Nakai, T. Vreven, J. A. Montgomery, Jr., 
 J. E. Peralta, F. Ogliaro, M. Bearpark, J. J. Heyd, E. Brothers, 
 K. N. Kudin, V. N. Staroverov, T. Keith, R. Kobayashi, J. Normand, 
 K. Raghavachari, A. Rendell, J. C. Burant, S. S. Iyengar, J. Tomasi, 
 M. Cossi, N. Rega, J. M. Millam, M. Klene, J. E. Knox, J. B. Cross, 
 V. Bakken, C. Adamo, J. Jaramillo, R. Gomperts, R. E. Stratmann, 
 O. Yazyev, A. J. Austin, R. Cammi, C. Pomelli, J. W. Ochterski, 
 R. L. Martin, K. Morokuma, V. G. Zakrzewski, G. A. Voth, 
 P. Salvador, J. J. Dannenberg, S. Dapprich, A. D. Daniels, 
 O. Farkas, J. B. Foresman, J. V. Ortiz, J. Cioslowski, 
 and D. J. Fox, Gaussian, Inc., Wallingford CT, 2010.
 
 ******************************************
 Gaussian 09:  EM64L-G09RevB.01 12-Aug-2010
                 8-Feb-2016 
 ******************************************
 --------------------------------------------------
 # freq=raman b3lyp/6-31+g(2df,p) geom=connectivity
 --------------------------------------------------
 1/10=4,30=1,38=1,57=2/1,3;
 2/12=2,17=6,18=5,40=1/2;
 3/5=1,6=6,7=114,11=2,16=1,25=1,30=1,71=2,74=-5/1,2,3;
 4//1;
 5/5=2,38=5,98=1/2;
 8/6=4,10=90,11=11/1;
 10/13=10,15=4/2;
 11/6=3,8=1,9=11,15=111,16=1/1,2,10;
 10/6=1/2;
 6/7=2,8=2,9=2,10=2,18=1,28=1/1;
 7/8=1,10=1,25=1/1,2,3,16;
 1/10=4,30=1/3;
 99//99;
 ------------
 300 9000.com
 ------------
 Symbolic Z-matrix:
 Charge =  0 Multiplicity = 1
 O                     7.667     7.716     12.367 
 C                     8.427     7.973     13.557 
 C                     8.103     9.371     14.056 
 O                     8.293     10.422    13.098 
 H                     7.927     10.173    12.201 
 C                     8.65      9.735     15.427 
 O                     7.99      10.912    15.915 
 H                     8.327     11.019    16.851 
 C                     8.37      5.543     14.342 
 O                     7.732     4.85      13.26 
 H                     7.572     3.891     13.494 
 C                     8.045     6.995     14.655 
 O                     8.625     7.342     15.921 
 C                     8.208     8.636     16.38 
 O                     8.962     8.928     17.565 
 C                     8.359     8.59      18.822 
 C                     8.947     7.328     19.431 
 O                     8.928     6.217     18.524 
 H                     9.118     6.67      17.653 
 C                     8.335     6.835     20.732 
 O                     9.075     5.759     21.327 
 H                     8.673     5.547     22.217 
 C                     8.259     11.064    19.441 
 O                     8.89      11.733    18.34 
 H                     8.625     12.695    18.414 
 C                     8.627     9.654     19.874 
 O                     7.884     9.164     21. 
 C                     8.359     8.006     21.701 
 O                     7.569     7.706     22.861 
 H                     8.26532   7.55752   11.63318 
 H                     8.14848   7.51436   23.602 
 H                     9.36931   8.17921   22.00787 
 H                     7.32424   6.52776   20.56212 
 H                     9.97499   7.54142   19.63739 
 H                     7.30361   8.46919   18.69374 
 H                     9.66839   9.63615   20.11914 
 H                     8.3987    11.6905   20.29709 
 H                     7.21044   11.05212   19.22818 
 H                     7.15473   8.6723    16.56494 
 H                     9.7139    9.84862   15.41688 
 H                     7.04336   9.34666   14.20249 
 H                     9.47306   7.89438   13.34609 
 H                     6.9831    7.05833   14.77014 
 H                     8.16974   4.98181   15.23074 
 H                     9.42391   5.49244   14.16417 
 

 GradGradGradGradGradGradGradGradGradGradGradGradGradGradGradGradGradGrad
 Berny optimization.
 Initialization pass.
 Trust Radius=3.00D-01 FncErr=1.00D-07 GrdErr=1.00D-07
 Number of steps in this run=      2 maximum allowed number of steps=      2.
 GradGradGradGradGradGradGradGradGradGradGradGradGradGradGradGradGradGrad

                          Input orientation:                          
 ---------------------------------------------------------------------
 Center     Atomic      Atomic             Coordinates (Angstroms)
 Number     Number       Type             X           Y           Z
 ---------------------------------------------------------------------
      1          8           0        7.667000    7.716000   12.367000
      2          6           0        8.427000    7.973000   13.557000
      3          6           0        8.103000    9.371000   14.056000
      4          8           0        8.293000   10.422000   13.098000
      5          1           0        7.927000   10.173000   12.201000
      6          6           0        8.650000    9.735000   15.427000
      7          8           0        7.990000   10.912000   15.915000
      8          1           0        8.327000   11.019000   16.851000
      9          6           0        8.370000    5.543000   14.342000
     10          8           0        7.732000    4.850000   13.260000
     11          1           0        7.572000    3.891000   13.494000
     12          6           0        8.045000    6.995000   14.655000
     13          8           0        8.625000    7.342000   15.921000
     14          6           0        8.208000    8.636000   16.380000
     15          8           0        8.962000    8.928000   17.565000
     16          6           0        8.359000    8.590000   18.822000
     17          6           0        8.947000    7.328000   19.431000
     18          8           0        8.928000    6.217000   18.524000
     19          1           0        9.118000    6.670000   17.653000
     20          6           0        8.335000    6.835000   20.732000
     21          8           0        9.075000    5.759000   21.327000
     22          1           0        8.673000    5.547000   22.217000
     23          6           0        8.259000   11.064000   19.441000
     24          8           0        8.890000   11.733000   18.340000
     25          1           0        8.625000   12.695000   18.414000
     26          6           0        8.627000    9.654000   19.874000
     27          8           0        7.884000    9.164000   21.000000
     28          6           0        8.359000    8.006000   21.701000
     29          8           0        7.569000    7.706000   22.861000
     30          1           0        8.265319    7.557519   11.633176
     31          1           0        8.148484    7.514363   23.601995
     32          1           0        9.369312    8.179213   22.007866
     33          1           0        7.324235    6.527761   20.562120
     34          1           0        9.974987    7.541415   19.637391
     35          1           0        7.303607    8.469190   18.693738
     36          1           0        9.668387    9.636147   20.119141
     37          1           0        8.398699   11.690497   20.297087
     38          1           0        7.210445   11.052119   19.228183
     39          1           0        7.154730    8.672304   16.564942
     40          1           0        9.713902    9.848625   15.416881
     41          1           0        7.043355    9.346662   14.202493
     42          1           0        9.473058    7.894385   13.346093
     43          1           0        6.983100    7.058328   14.770140
     44          1           0        8.169745    4.981806   15.230741
     45          1           0        9.423908    5.492439   14.164175
 ---------------------------------------------------------------------
                    Distance matrix (angstroms):
                    1          2          3          4          5
     1  O    0.000000
     2  C    1.435183   0.000000
     3  C    2.404546   1.519336   0.000000
     4  O    2.872050   2.495243   1.434735   0.000000
     5  H    2.476289   2.632249   2.028597   1.000283   0.000000
     6  C    3.795557   2.579006   1.520311   2.454314   3.334914
     7  O    4.786131   3.793264   2.417298   2.875308   3.787332
     8  H    5.608178   4.487600   3.252400   3.800339   4.743228
     9  C    3.019398   2.554285   3.847943   5.035683   5.120257
    10  O    3.002604   3.213155   4.605507   5.602513   5.430823
    11  H    3.988706   4.171057   5.534275   6.582600   6.423504
    12  C    2.428512   1.519214   2.451029   3.772278   4.016930
    13  O    3.699805   2.454763   2.804915   4.191176   4.726538
    14  C    4.152499   2.908068   2.439718   3.737452   4.461544
    15  O    5.492283   4.154794   3.639672   4.757487   5.603012
    16  C    6.550555   5.301466   4.836347   6.010387   6.821301
    17  C    7.189509   5.932141   5.811782   7.078661   7.836283
    18  O    6.461097   5.292034   5.530946   6.893963   7.525441
    19  H    5.580440   4.353448   4.611294   5.958704   6.588914
    20  C    8.437749   7.265269   7.145215   8.434826   9.169878
    21  O    9.278681   8.105221   8.176721   9.490602  10.202214
    22  H   10.136030   8.996755   9.030493  10.347279  11.057877
    23  C    7.848633   6.648606   5.647018   6.375498   7.302171
    24  O    7.301284   6.101562   4.954904   5.436331   6.406894
    25  H    7.891414   6.776942   5.505781   5.791080   6.741592
    26  C    7.812330   6.539897   5.848401   6.827559   7.722324
    27  O    8.756282   7.557220   6.950536   8.011957   8.856768
    28  C    9.364108   8.144351   7.770121   8.936052   9.753590
    29  O   10.494462   9.347292   8.976937  10.159577  10.947596
    30  H    0.960000   1.974808   3.030700   3.217411   2.697708
    31  H   11.247115  10.059316   9.724978  10.899961  11.708975
    32  H    9.800955   8.505740   8.139783   9.250635  10.110888
    33  H    8.287907   7.237162   7.142835   8.474473   9.141085
    34  H    7.629932   6.289172   6.164709   7.341014   8.149810
    35  H    6.381768   5.281505   4.791753   6.008714   6.741456
    36  H    8.233359   6.882499   6.267569   7.197616   8.125121
    37  H    8.900466   7.697361   6.664734   7.310754   8.250571
    38  H    7.642903   6.566833   5.511288   6.256846   7.118118
    39  H    4.335857   3.339972   2.771675   4.046824   4.678940
    40  H    4.247313   2.938238   2.162204   2.779376   3.693254
    41  H    2.533185   2.053797   1.070000   1.984407   2.338726
    42  H    2.062108   1.070000   2.135748   2.800522   2.982217
    43  H    2.583666   2.095992   2.666951   3.978213   4.146397
    44  H    3.991187   3.437270   4.544171   5.844611   6.015542
    45  H    3.355710   2.741472   4.098748   5.168777   5.291733
                    6          7          8          9         10
     6  C    0.000000
     7  O    1.434947   0.000000
     8  H    1.944418   1.000557   0.000000
     9  C    4.339181   5.607574   6.023579   0.000000
    10  O    5.422346   6.622947   7.162811   1.434579   0.000000
    11  H    6.249073   7.438441   7.915040   2.021141   1.000018
    12  C    2.910259   4.115035   4.592877   1.520493   2.577793
    13  O    2.443585   3.626039   3.804475   2.407211   3.753456
    14  C    1.520320   2.333222   2.432014   3.707605   4.928973
    15  O    2.306434   2.757452   2.298978   4.711307   6.056072
    16  C    3.594681   3.738782   3.128243   5.418001   6.731759
    17  C    4.681226   5.111082   4.545798   5.423751   6.760026
    18  O    4.695212   5.452499   5.120482   4.272559   5.568555
    19  H    3.816848   4.720974   4.492514   3.576640   4.952963
    20  C    6.054110   6.320162   5.706845   6.519401   7.754651
    21  O    7.127356   7.551184   6.947063   7.023810   8.228391
    22  H    7.977717   8.304512   7.671796   7.880828   9.033224
    23  C    4.246330   3.539511   2.591283   7.516220   8.780449
    24  O    3.540505   2.713792   1.744674   7.387185   8.632674
    25  H    4.205282   3.134855   2.311006   8.233912   9.428955
    26  C    4.447797   4.202620   3.330429   6.897057   8.223408
    27  O    5.654302   5.378101   4.566342   7.594524   8.862353
    28  C    6.514384   6.485275   5.709789   7.760243   9.033490
    29  O    7.781373   7.661762   6.904392   8.825731  10.018109
    30  H    4.391185   5.446317   6.261897   3.377421   3.203380
    31  H    8.486064   8.405888   7.608566   9.470103  10.687804
    32  H    6.800417   6.818624   5.978634   8.167848   9.502084
    33  H    6.197862   6.423435   5.911783   6.383829   7.503474
    34  H    4.928975   5.399741   4.751150   5.883095   7.276388
    35  H    3.753215   3.762956   3.308254   5.351393   6.542749
    36  H    4.802402   4.703146   3.793724   7.198265   8.585139
    37  H    5.254034   4.469428   3.511633   8.558949   9.836538
    38  H    4.272718   3.406541   2.626555   7.454512   8.623080
    39  H    2.158719   2.477164   2.638755   4.026276   5.085852
    40  H    1.070000   2.085839   2.313001   4.636793   5.793645
    41  H    2.057069   2.505814   3.385122   4.030793   4.645696
    42  H    2.897493   4.231400   4.833326   2.781650   3.508130
    43  H    3.220962   4.144315   4.671507   2.098336   2.778144
    44  H    4.781424   5.972245   6.252813   1.070000   2.023070
    45  H    4.493661   5.873085   6.242204   1.070000   2.023070
                   11         12         13         14         15
    11  H    0.000000
    12  C    3.347606   0.000000
    13  O    4.348395   1.435118   0.000000
    14  C    5.590037   2.386436   1.434924   0.000000
    15  O    6.623935   3.611852   2.309048   1.434575   0.000000
    16  C    7.147556   4.472864   3.169237   2.447096   1.434539
    17  C    6.996539   4.871824   3.524767   3.400821   2.458085
    18  O    5.705253   4.044024   2.851849   3.311600   2.875823
    19  H    5.235479   3.200775   1.922097   2.512725   2.265092
    20  C    7.850984   6.086019   4.846325   4.711649   3.847553
    21  O    8.191723   6.863249   5.650949   5.788059   4.920160
    22  H    8.946802   7.724955   6.547056   6.620326   5.758106
    23  C    9.342950   6.285567   5.135917   3.907366   2.928495
    24  O    9.312239   6.061509   5.020226   3.728020   2.910985
    25  H   10.140297   6.852480   5.905054   4.559224   3.876166
    26  C    8.661962   5.886167   4.579471   3.663321   2.443518
    27  O    9.178339   6.707422   5.446559   4.661347   3.607909
    28  C    9.214523   7.125085   5.824092   5.360293   4.280209
    29  O   10.114095   8.250487   7.029312   6.578494   5.610824
    30  H    4.169738   3.081621   4.308278   4.868136   6.127816
    31  H   10.753263   8.962654   7.697692   7.308818   6.253438
    32  H    9.700774   7.564443   6.189092   5.764562   4.523897
    33  H    7.547995   5.969245   4.888248   4.766114   4.174464
    34  H    7.539306   5.371000   3.959014   3.864059   2.691387
    35  H    6.933191   4.362832   3.271806   2.489806   2.057868
    36  H    9.016321   6.282346   4.896545   4.136931   2.743007
    37  H   10.382561   7.348874   6.173393   4.970905   3.925939
    38  H    9.181133   6.170146   5.167534   3.865863   3.216521
    39  H    5.697865   2.693289   2.084722   1.070000   2.081279
    40  H    6.616533   3.392473   2.779031   2.160046   2.455060
    41  H    5.526814   2.595837   3.077911   2.569625   3.893961
    42  H    4.434297   2.135763   2.766673   3.369712   4.373639
    43  H    3.465155   1.070000   2.025040   2.565362   3.901662
    44  H    2.136218   2.097615   2.500846   3.830847   4.652836
    45  H    2.538366   2.097615   2.673119   4.033645   4.856135
                   16         17         18         19         20
    16  C    0.000000
    17  C    1.519628   0.000000
    18  O    2.458393   1.434340   0.000000
    19  H    2.372560   1.903546   0.999975   0.000000
    20  C    2.593974   1.519932   2.368298   3.181282   0.000000
    21  O    3.847368   2.464338   2.843973   3.785505   1.435061
    22  H    4.569953   3.317956   3.761938   4.721149   1.994596
    23  C    2.552222   3.798834   4.978138   4.821002   4.422318
    24  O    3.223776   4.538453   5.519199   5.114482   5.479059
    25  H    4.133793   5.471989   6.486015   6.092848   6.308472
    26  C    1.520074   2.389336   3.704871   3.752090   2.961113
    27  O    2.301909   2.638679   3.988148   4.352609   2.387355
    28  C    2.937635   2.440969   3.690205   4.329813   1.520124
    29  O    4.209403   3.715732   4.782632   5.531362   2.424467
    30  H    7.263194   7.830928   7.051212   6.144350   9.127732
    31  H    4.904046   4.250830   5.298757   6.086333   2.955198
    32  H    3.367375   2.746479   4.022730   4.615814   2.122391
    33  H    2.889911   2.133818   2.612005   3.420644   1.070000
    34  H    2.091842   1.070000   2.022349   2.330579   2.094456
    35  H    1.070000   2.132278   2.782054   2.759029   2.808712
    36  H    2.119314   2.514255   3.844894   3.896512   3.162269
    37  H    3.433736   4.481308   5.777817   5.719614   4.875352
    38  H    2.747034   4.114100   5.179213   5.032190   4.616295
    39  H    2.559561   3.637812   3.607064   3.007910   4.704582
    40  H    3.874885   4.801546   4.843607   3.931791   6.263689
    41  H    4.862438   5.919134   5.658807   4.834736   7.114159
    42  H    5.631214   6.133810   5.470049   4.491618   7.547788
    43  H    4.544964   5.064904   4.310677   3.608252   6.117294
    44  H    5.094313   4.873492   3.598084   3.101052   5.807365
    45  H    5.694230   5.597872   4.447358   3.694879   6.791503
                   21         22         23         24         25
    21  O    0.000000
    22  H    0.999324   0.000000
    23  C    5.689102   6.189900   0.000000
    24  O    6.681697   7.303753   1.434546   0.000000
    25  H    7.536323   8.096852   1.961848   1.000572   0.000000
    26  C    4.181260   4.728553   1.520202   2.597030   3.373320
    27  O    3.622076   3.896960   2.486183   3.832414   4.438968
    28  C    2.387790   2.532101   3.803809   5.046663   5.732525
    29  O    2.900345   2.508951   4.842382   6.196871   6.766171
    30  H    9.892446  10.780804   8.559064   7.925047   8.514850
    31  H    3.019161   2.462488   5.470467   6.784934   7.347201
    32  H    2.531329   2.730775   4.017908   5.129559   5.819124
    33  H    2.059420   2.349401   4.765308   5.872304   6.658922
    34  H    2.615676   3.511018   3.923236   4.519934   5.466131
    35  H    4.173372   4.777846   2.864300   3.646125   4.436417
    36  H    4.104059   4.702439   2.117785   2.857975   3.654141
    37  H    6.058115   6.442349   1.070000   2.018260   2.146219
    38  H    5.991553   6.432607   1.070000   2.018260   2.315798
    39  H    5.903556   6.634638   3.900171   3.940794   4.665061
    40  H    7.215451   8.113512   4.448304   3.574116   4.274375
    41  H    8.231494   9.018065   5.645263   5.120905   5.608009
    42  H    8.271227   9.211043   6.976266   6.325665   7.031984
    43  H    7.004050   7.784318   6.284128   6.183262   6.909821
    44  H    6.211916   7.027128   7.397792   7.467588   8.356659
    45  H    7.176270   8.087944   7.761713   7.527761   8.400962
                   26         27         28         29         30
    26  C    0.000000
    27  O    1.435279   0.000000
    28  C    2.475006   1.434570   0.000000
    29  O    3.719709   2.385018   1.435165   0.000000
    30  H    8.511007   9.511235  10.078244  11.250375   0.000000
    31  H    4.324924   3.092189   1.974793   0.960000  11.969468
    32  H    2.698038   2.047377   1.070000   2.047655  10.451770
    33  H    3.456020   2.730354   2.133770   2.594803   9.037261
    34  H    2.517154   2.976862   2.661904   4.025856   8.184784
    35  H    2.132642   2.477592   3.220563   4.244875   7.183841
    36  H    1.070000   2.045207   2.621861   3.956095   8.848780
    37  H    2.092473   2.672487   3.943103   4.810225   9.600139
    38  H    2.092473   2.675445   4.088134   4.952013   8.426692
    39  H    3.752489   4.521431   5.317266   6.383236   5.176724
    40  H    4.591856   5.915105   6.687389   8.037808   4.654459
    41  H    5.896472   6.851726   7.730194   8.828240   3.360896
    42  H    6.813636   7.919553   8.429594   9.705379   2.122781
    43  H    5.957291   6.637518   7.129377   8.137861   3.425466
    44  H    6.602903   7.131392   7.144636   8.124222   4.425596
    45  H    7.110257   7.910764   8.015969   9.163804   3.465954
                   31         32         33         34         35
    31  H    0.000000
    32  H    2.115111   0.000000
    33  H    3.300547   2.999969   0.000000
    34  H    4.365195   2.528394   2.984812   0.000000
    35  H    5.071144   3.915950   2.694518   2.981194   0.000000
    36  H    4.352281   2.404035   3.918334   2.171172   2.997623
    37  H    5.331521   4.024670   5.280015   4.487177   3.761219
    38  H    5.703145   4.543229   4.718278   4.487224   2.639286
    39  H    7.200589   5.896858   4.539298   4.321192   2.143640
    40  H    8.654213   6.807845   6.573594   4.817062   4.295364
    41  H    9.639983   8.227810   6.962037   6.433622   4.583554
    42  H   10.348065   8.667076   7.652199   6.321151   5.799502
    43  H    8.920076   7.702926   5.826227   5.733664   4.181852
    44  H    8.745982   7.588926   5.615022   5.406391   4.990430
    45  H    9.735879   8.291274   6.812799   5.870101   5.820109
                   36         37         38         39         40
    36  H    0.000000
    37  H    2.421596   0.000000
    38  H    2.973258   1.721055   0.000000
    39  H    4.458676   4.958413   3.572041   0.000000
    40  H    4.707278   5.379467   4.716113   3.041568   0.000000
    41  H    6.479299   6.668928   5.309809   2.459335   2.976328
    42  H    6.996147   7.992562   7.049092   4.042375   2.857486
    43  H    6.516727   7.349018   5.989675   2.419854   3.957438
    44  H    6.914136   8.409924   7.331337   4.053408   5.109304
    45  H    7.258905   8.779499   7.839238   4.585237   4.541996
                   41         42         43         44         45
    41  H    0.000000
    42  H    2.957361   0.000000
    43  H    2.358458   2.987774   0.000000
    44  H    4.623636   3.705892   2.435615   0.000000
    45  H    4.530291   2.537916   2.962557   1.723726   0.000000
 Stoichiometry    C12H22O11
 Framework group  C1[X(C12H22O11)]
 Deg. of freedom   129
 Full point group                 C1      NOp   1
 Largest Abelian subgroup         C1      NOp   1
 Largest concise Abelian subgroup C1      NOp   1
                         Standard orientation:                         
 ---------------------------------------------------------------------
 Center     Atomic      Atomic             Coordinates (Angstroms)
 Number     Number       Type             X           Y           Z
 ---------------------------------------------------------------------
      1          8           0       -4.990371   -0.389075    0.513575
      2          6           0       -3.766290   -0.171053   -0.203252
      3          6           0       -3.231381    1.208072    0.143546
      4          8           0       -4.145541    2.291902   -0.075746
      5          1           0       -5.062854    2.072883    0.257622
      6          6           0       -1.830339    1.526223   -0.353651
      7          8           0       -1.325798    2.683936    0.327680
      8          1           0       -0.375416    2.759619    0.024100
      9          6           0       -3.067493   -2.626751   -0.128382
     10          8           0       -4.194354   -3.283892    0.468583
     11          1           0       -3.999115   -4.250804    0.632895
     12          6           0       -2.716545   -1.187267    0.213113
     13          8           0       -1.419799   -0.882405   -0.320808
     14          6           0       -0.931674    0.393902    0.117120
     15          8           0        0.288402    0.647058   -0.593748
     16          6           0        1.511114    0.264392    0.051576
     17          6           0        2.096808   -1.016181   -0.519707
     18          8           0        1.152170   -2.095391   -0.536878
     19          1           0        0.304417   -1.612196   -0.755482
     20          6           0        3.357841   -1.555292    0.135540
     21          8           0        3.941267   -2.649078   -0.587405
     22          1           0        4.808802   -2.892651   -0.155315
     23          6           0        2.210615    2.715366    0.182964
     24          8           0        1.156038    3.423549   -0.483571
     25          1           0        1.253595    4.381706   -0.212346
     26          6           0        2.607718    1.292328   -0.175205
     27          8           0        3.689461    0.761872    0.604842
     28          6           0        4.366636   -0.418236    0.150122
     29          8           0        5.487195   -0.760103    0.979082
     30          1           0       -5.707712   -0.520593   -0.110703
     31          1           0        6.241097   -0.975510    0.425159
     32          1           0        4.714574   -0.252904   -0.848129
     33          1           0        3.142116   -1.859281    1.138513
     34          1           0        2.346391   -0.807168   -1.538983
     35          1           0        1.341775    0.145169    1.101343
     36          1           0        2.888552    1.268915   -1.207429
     37          1           0        3.092044    3.312442    0.075814
     38          1           0        1.960796    2.707932    1.223366
     39          1           0       -0.782728    0.420937    1.176357
     40          1           0       -1.799162    1.643046   -1.416797
     41          1           0       -3.123140    1.175805    1.207568
     42          1           0       -3.942872   -0.239502   -1.256358
     43          1           0       -2.636696   -1.130848    1.278637
     44          1           0       -2.206088   -3.218713    0.100666
     45          1           0       -3.209796   -2.668278   -1.188063
 ---------------------------------------------------------------------
 Rotational constants (GHZ):      0.3978189      0.1456232      0.1102792
 Standard basis: 6-31+G(2df,p) (6D, 7F)
 There are   846 symmetry adapted basis functions of A   symmetry.
 Integral buffers will be    131072 words long.
 Raffenetti 2 integral format.
 Two-electron integral symmetry is turned on.
   846 basis functions,  1258 primitive gaussians,   915 cartesian basis functions
    91 alpha electrons       91 beta electrons
       nuclear repulsion energy      2284.3995098016 Hartrees.
 NAtoms=   45 NActive=   45 NUniq=   45 SFac= 1.00D+00 NAtFMM=   50 NAOKFM=F Big=F
 One-electron integrals computed using PRISM.
 NBasis=   846 RedAO= T  NBF=   846
 NBsUse=   846 1.00D-06 NBFU=   846
 Harris functional with IExCor=  402 diagonalized for initial guess.
 ExpMin= 4.38D-02 ExpMax= 5.48D+03 ExpMxC= 8.25D+02 IAcc=2 IRadAn=         0 AccDes= 0.00D+00
 HarFok:  IExCor=  402 AccDes= 0.00D+00 IRadAn=         0 IDoV= 1
 ScaDFX=  1.000000  1.000000  1.000000  1.000000
 FoFCou: FMM=F IPFlag=           0 FMFlag=      100000 FMFlg1=           0
         NFxFlg=           0 DoJE=T BraDBF=F KetDBF=T FulRan=T
         Omega=  0.000000  0.000000  1.000000  0.000000  0.000000 ICntrl=     500 IOpCl=  0
         NMat0=    1 NMatS0=    1 NMatT0=    0 NMatD0=    1 NMtDS0=    0 NMtDT0=    0
         I1Cent=           4 NGrid=           0.
 Petite list used in FoFCou.
 Initial guess orbital symmetries:
       Occupied  (A) (A) (A) (A) (A) (A) (A) (A) (A) (A) (A) (A)
                 (A) (A) (A) (A) (A) (A) (A) (A) (A) (A) (A) (A)
                 (A) (A) (A) (A) (A) (A) (A) (A) (A) (A) (A) (A)
                 (A) (A) (A) (A) (A) (A) (A) (A) (A) (A) (A) (A)
                 (A) (A) (A) (A) (A) (A) (A) (A) (A) (A) (A) (A)
                 (A) (A) (A) (A) (A) (A) (A) (A) (A) (A) (A) (A)
                 (A) (A) (A) (A) (A) (A) (A) (A) (A) (A) (A) (A)
                 (A) (A) (A) (A) (A) (A) (A)
       Virtual   (A) (A) (A) (A) (A) (A) (A) (A) (A) (A) (A) (A)
                 (A) (A) (A) (A) (A) (A) (A) (A) (A) (A) (A) (A)
                 (A) (A) (A) (A) (A) (A) (A) (A) (A) (A) (A) (A)
                 (A) (A) (A) (A) (A) (A) (A) (A) (A) (A) (A) (A)
                 (A) (A) (A) (A) (A) (A) (A) (A) (A) (A) (A) (A)
                 (A) (A) (A) (A) (A) (A) (A) (A) (A) (A) (A) (A)
                 (A) (A) (A) (A) (A) (A) (A) (A) (A) (A) (A) (A)
                 (A) (A) (A) (A) (A) (A) (A) (A) (A) (A) (A) (A)
                 (A) (A) (A) (A) (A) (A) (A) (A) (A) (A) (A) (A)
                 (A) (A) (A) (A) (A) (A) (A) (A) (A) (A) (A) (A)
                 (A) (A) (A) (A) (A) (A) (A) (A) (A) (A) (A) (A)
                 (A) (A) (A) (A) (A) (A) (A) (A) (A) (A) (A) (A)
                 (A) (A) (A) (A) (A) (A) (A) (A) (A) (A) (A) (A)
                 (A) (A) (A) (A) (A) (A) (A) (A) (A) (A) (A) (A)
                 (A) (A) (A) (A) (A) (A) (A) (A) (A) (A) (A) (A)
                 (A) (A) (A) (A) (A) (A) (A) (A) (A) (A) (A) (A)
                 (A) (A) (A) (A) (A) (A) (A) (A) (A) (A) (A) (A)
                 (A) (A) (A) (A) (A) (A) (A) (A) (A) (A) (A) (A)
                 (A) (A) (A) (A) (A) (A) (A) (A) (A) (A) (A) (A)
                 (A) (A) (A) (A) (A) (A) (A) (A) (A) (A) (A) (A)
                 (A) (A) (A) (A) (A) (A) (A) (A) (A) (A) (A) (A)
                 (A) (A) (A) (A) (A) (A) (A) (A) (A) (A) (A) (A)
                 (A) (A) (A) (A) (A) (A) (A) (A) (A) (A) (A) (A)
                 (A) (A) (A) (A) (A) (A) (A) (A) (A) (A) (A) (A)
                 (A) (A) (A) (A) (A) (A) (A) (A) (A) (A) (A) (A)
                 (A) (A) (A) (A) (A) (A) (A) (A) (A) (A) (A) (A)
                 (A) (A) (A) (A) (A) (A) (A) (A) (A) (A) (A) (A)
                 (A) (A) (A) (A) (A) (A) (A) (A) (A) (A) (A) (A)
                 (A) (A) (A) (A) (A) (A) (A) (A) (A) (A) (A) (A)
                 (A) (A) (A) (A) (A) (A) (A) (A) (A) (A) (A) (A)
                 (A) (A) (A) (A) (A) (A) (A) (A) (A) (A) (A) (A)
                 (A) (A) (A) (A) (A) (A) (A) (A) (A) (A) (A) (A)
                 (A) (A) (A) (A) (A) (A) (A) (A) (A) (A) (A) (A)
                 (A) (A) (A) (A) (A) (A) (A) (A) (A) (A) (A) (A)
                 (A) (A) (A) (A) (A) (A) (A) (A) (A) (A) (A) (A)
                 (A) (A) (A) (A) (A) (A) (A) (A) (A) (A) (A) (A)
                 (A) (A) (A) (A) (A) (A) (A) (A) (A) (A) (A) (A)
                 (A) (A) (A) (A) (A) (A) (A) (A) (A) (A) (A) (A)
                 (A) (A) (A) (A) (A) (A) (A) (A) (A) (A) (A) (A)
                 (A) (A) (A) (A) (A) (A) (A) (A) (A) (A) (A) (A)
                 (A) (A) (A) (A) (A) (A) (A) (A) (A) (A) (A) (A)
                 (A) (A) (A) (A) (A) (A) (A) (A) (A) (A) (A) (A)
                 (A) (A) (A) (A) (A) (A) (A) (A) (A) (A) (A) (A)
                 (A) (A) (A) (A) (A) (A) (A) (A) (A) (A) (A) (A)
                 (A) (A) (A) (A) (A) (A) (A) (A) (A) (A) (A) (A)
                 (A) (A) (A) (A) (A) (A) (A) (A) (A) (A) (A) (A)
                 (A) (A) (A) (A) (A) (A) (A) (A) (A) (A) (A) (A)
                 (A) (A) (A) (A) (A) (A) (A) (A) (A) (A) (A) (A)
                 (A) (A) (A) (A) (A) (A) (A) (A) (A) (A) (A) (A)
                 (A) (A) (A) (A) (A) (A) (A) (A) (A) (A) (A) (A)
                 (A) (A) (A) (A) (A) (A) (A) (A) (A) (A) (A) (A)
                 (A) (A) (A) (A) (A) (A) (A) (A) (A) (A) (A) (A)
                 (A) (A) (A) (A) (A) (A) (A) (A) (A) (A) (A) (A)
                 (A) (A) (A) (A) (A) (A) (A) (A) (A) (A) (A) (A)
                 (A) (A) (A) (A) (A) (A) (A) (A) (A) (A) (A) (A)
                 (A) (A) (A) (A) (A) (A) (A) (A) (A) (A) (A) (A)
                 (A) (A) (A) (A) (A) (A) (A) (A) (A) (A) (A) (A)
                 (A) (A) (A) (A) (A) (A) (A) (A) (A) (A) (A) (A)
                 (A) (A) (A) (A) (A) (A) (A) (A) (A) (A) (A) (A)
                 (A) (A) (A) (A) (A) (A) (A) (A) (A) (A) (A) (A)
                 (A) (A) (A) (A) (A) (A) (A) (A) (A) (A) (A) (A)
                 (A) (A) (A) (A) (A) (A) (A) (A) (A) (A) (A) (A)
                 (A) (A) (A) (A) (A) (A) (A) (A) (A) (A) (A)
 The electronic state of the initial guess is 1-A.
 Requested convergence on RMS density matrix=1.00D-08 within 128 cycles.
 Requested convergence on MAX density matrix=1.00D-06.
 Requested convergence on             energy=1.00D-06.
 No special actions if energy rises.
 SCF Done:  E(RB3LYP) =  -1298.00673203     A.U. after   13 cycles
             Convg  =    0.3774D-08             -V/T =  2.0066
 Range of M.O.s used for correlation:     1   846
 NBasis=   846 NAE=    91 NBE=    91 NFC=     0 NFV=     0
 NROrb=    846 NOA=    91 NOB=    91 NVA=   755 NVB=   755

 **** Warning!!: The largest alpha MO coefficient is  0.82835185D+02

          Differentiating once with respect to electric field.
                with respect to dipole field.
          Electric field/nuclear overlap derivatives assumed to be zero.
          There are     3 degrees of freedom in the 1st order CPHF.  IDoFFX=0.
      3 vectors produced by pass  0 Test12= 2.29D-12 3.33D-08 XBig12= 1.22D+02 1.08D+00.
 AX will form     3 AO Fock derivatives at one time.
      3 vectors produced by pass  1 Test12= 2.29D-12 3.33D-08 XBig12= 2.51D+01 4.39D-01.
      3 vectors produced by pass  2 Test12= 2.29D-12 3.33D-08 XBig12= 1.04D+01 2.03D-01.
      3 vectors produced by pass  3 Test12= 2.29D-12 3.33D-08 XBig12= 1.17D+00 9.72D-02.
      3 vectors produced by pass  4 Test12= 2.29D-12 3.33D-08 XBig12= 3.84D-01 4.33D-02.
      3 vectors produced by pass  5 Test12= 2.29D-12 3.33D-08 XBig12= 6.69D-02 2.76D-02.
      3 vectors produced by pass  6 Test12= 2.29D-12 3.33D-08 XBig12= 2.31D-02 1.87D-02.
      3 vectors produced by pass  7 Test12= 2.29D-12 3.33D-08 XBig12= 3.10D-03 9.29D-03.
      3 vectors produced by pass  8 Test12= 2.29D-12 3.33D-08 XBig12= 5.64D-04 2.67D-03.
      3 vectors produced by pass  9 Test12= 2.29D-12 3.33D-08 XBig12= 1.55D-04 1.52D-03.
      3 vectors produced by pass 10 Test12= 2.29D-12 3.33D-08 XBig12= 4.09D-05 7.02D-04.
      3 vectors produced by pass 11 Test12= 2.29D-12 3.33D-08 XBig12= 1.09D-05 4.90D-04.
      3 vectors produced by pass 12 Test12= 2.29D-12 3.33D-08 XBig12= 1.06D-06 1.08D-04.
      3 vectors produced by pass 13 Test12= 2.29D-12 3.33D-08 XBig12= 2.57D-07 3.29D-05.
      3 vectors produced by pass 14 Test12= 2.29D-12 3.33D-08 XBig12= 3.33D-08 1.61D-05.
      3 vectors produced by pass 15 Test12= 2.29D-12 3.33D-08 XBig12= 1.17D-08 9.03D-06.
      3 vectors produced by pass 16 Test12= 2.29D-12 3.33D-08 XBig12= 1.59D-09 4.31D-06.
      3 vectors produced by pass 17 Test12= 2.29D-12 3.33D-08 XBig12= 1.36D-10 8.69D-07.
      3 vectors produced by pass 18 Test12= 2.29D-12 3.33D-08 XBig12= 2.96D-11 4.40D-07.
      3 vectors produced by pass 19 Test12= 2.29D-12 3.33D-08 XBig12= 8.81D-12 1.87D-07.
      3 vectors produced by pass 20 Test12= 2.29D-12 3.33D-08 XBig12= 6.42D-12 2.37D-07.
      2 vectors produced by pass 21 Test12= 2.29D-12 3.33D-08 XBig12= 8.69D-13 5.89D-08.
 Inverted reduced A of dimension    65 with in-core refinement.
 End of Minotr Frequency-dependent properties file   721 does not exist.
 End of Minotr Frequency-dependent properties file   722 does not exist.
 Symmetrizing basis deriv contribution to polar:
 IMax=3 JMax=2 DiffMx= 0.00D+00
 G2DrvN: will do     8 centers at a time, making    6 passes doing MaxLOS=3.
 Calling FoFCou, ICntrl=  3107 FMM=F I1Cent=   0 AccDes= 0.00D+00.
 Calling FoFCou, ICntrl=  3107 FMM=F I1Cent=   0 AccDes= 0.00D+00.
 Calling FoFCou, ICntrl=  3107 FMM=F I1Cent=   0 AccDes= 0.00D+00.
 Calling FoFCou, ICntrl=  3107 FMM=F I1Cent=   0 AccDes= 0.00D+00.
 Calling FoFCou, ICntrl=  3107 FMM=F I1Cent=   0 AccDes= 0.00D+00.
 Calling FoFCou, ICntrl=  3107 FMM=F I1Cent=   0 AccDes= 0.00D+00.
 FoFDir/FoFCou used for L=0 through L=3.
 End of G2Drv Frequency-dependent properties file   721 does not exist.
 End of G2Drv Frequency-dependent properties file   722 does not exist.
          IDoAtm=111111111111111111111111111111111111111111111
          Differentiating once with respect to electric field.
                with respect to dipole field.
          Differentiating once with respect to nuclear coordinates.
          There are   138 degrees of freedom in the 1st order CPHF.  IDoFFX=5.
 Will reuse    3 saved solutions.
    135 vectors produced by pass  0 Test12= 6.87D-14 1.00D-09 XBig12= 1.62D-01 9.80D-02.
 AX will form    27 AO Fock derivatives at one time.
    135 vectors produced by pass  1 Test12= 6.87D-14 1.00D-09 XBig12= 2.18D-02 1.24D-02.
    132 vectors produced by pass  2 Test12= 6.87D-14 1.00D-09 XBig12= 1.78D-04 1.49D-03.
    132 vectors produced by pass  3 Test12= 6.87D-14 1.00D-09 XBig12= 1.05D-06 7.32D-05.
    132 vectors produced by pass  4 Test12= 6.87D-14 1.00D-09 XBig12= 2.79D-09 3.20D-06.
    132 vectors produced by pass  5 Test12= 6.87D-14 1.00D-09 XBig12= 6.34D-12 1.77D-07.
     92 vectors produced by pass  6 Test12= 6.87D-14 1.00D-09 XBig12= 2.69D-13 2.66D-08.
      1 vectors produced by pass  7 Test12= 6.87D-14 1.00D-09 XBig12= 1.12D-15 1.54D-09.
 Inverted reduced A of dimension   891 with in-core refinement.
 Isotropic polarizability for W=    0.000000      191.75 Bohr**3.
 End of Minotr Frequency-dependent properties file   721 does not exist.
 End of Minotr Frequency-dependent properties file   722 does not exist.

 **********************************************************************

            Population analysis using the SCF density.

 **********************************************************************

 Orbital symmetries:
       Occupied  (A) (A) (A) (A) (A) (A) (A) (A) (A) (A) (A) (A)
                 (A) (A) (A) (A) (A) (A) (A) (A) (A) (A) (A) (A)
                 (A) (A) (A) (A) (A) (A) (A) (A) (A) (A) (A) (A)
                 (A) (A) (A) (A) (A) (A) (A) (A) (A) (A) (A) (A)
                 (A) (A) (A) (A) (A) (A) (A) (A) (A) (A) (A) (A)
                 (A) (A) (A) (A) (A) (A) (A) (A) (A) (A) (A) (A)
                 (A) (A) (A) (A) (A) (A) (A) (A) (A) (A) (A) (A)
                 (A) (A) (A) (A) (A) (A) (A)
       Virtual   (A) (A) (A) (A) (A) (A) (A) (A) (A) (A) (A) (A)
                 (A) (A) (A) (A) (A) (A) (A) (A) (A) (A) (A) (A)
                 (A) (A) (A) (A) (A) (A) (A) (A) (A) (A) (A) (A)
                 (A) (A) (A) (A) (A) (A) (A) (A) (A) (A) (A) (A)
                 (A) (A) (A) (A) (A) (A) (A) (A) (A) (A) (A) (A)
                 (A) (A) (A) (A) (A) (A) (A) (A) (A) (A) (A) (A)
                 (A) (A) (A) (A) (A) (A) (A) (A) (A) (A) (A) (A)
                 (A) (A) (A) (A) (A) (A) (A) (A) (A) (A) (A) (A)
                 (A) (A) (A) (A) (A) (A) (A) (A) (A) (A) (A) (A)
                 (A) (A) (A) (A) (A) (A) (A) (A) (A) (A) (A) (A)
                 (A) (A) (A) (A) (A) (A) (A) (A) (A) (A) (A) (A)
                 (A) (A) (A) (A) (A) (A) (A) (A) (A) (A) (A) (A)
                 (A) (A) (A) (A) (A) (A) (A) (A) (A) (A) (A) (A)
                 (A) (A) (A) (A) (A) (A) (A) (A) (A) (A) (A) (A)
                 (A) (A) (A) (A) (A) (A) (A) (A) (A) (A) (A) (A)
                 (A) (A) (A) (A) (A) (A) (A) (A) (A) (A) (A) (A)
                 (A) (A) (A) (A) (A) (A) (A) (A) (A) (A) (A) (A)
                 (A) (A) (A) (A) (A) (A) (A) (A) (A) (A) (A) (A)
                 (A) (A) (A) (A) (A) (A) (A) (A) (A) (A) (A) (A)
                 (A) (A) (A) (A) (A) (A) (A) (A) (A) (A) (A) (A)
                 (A) (A) (A) (A) (A) (A) (A) (A) (A) (A) (A) (A)
                 (A) (A) (A) (A) (A) (A) (A) (A) (A) (A) (A) (A)
                 (A) (A) (A) (A) (A) (A) (A) (A) (A) (A) (A) (A)
                 (A) (A) (A) (A) (A) (A) (A) (A) (A) (A) (A) (A)
                 (A) (A) (A) (A) (A) (A) (A) (A) (A) (A) (A) (A)
                 (A) (A) (A) (A) (A) (A) (A) (A) (A) (A) (A) (A)
                 (A) (A) (A) (A) (A) (A) (A) (A) (A) (A) (A) (A)
                 (A) (A) (A) (A) (A) (A) (A) (A) (A) (A) (A) (A)
                 (A) (A) (A) (A) (A) (A) (A) (A) (A) (A) (A) (A)
                 (A) (A) (A) (A) (A) (A) (A) (A) (A) (A) (A) (A)
                 (A) (A) (A) (A) (A) (A) (A) (A) (A) (A) (A) (A)
                 (A) (A) (A) (A) (A) (A) (A) (A) (A) (A) (A) (A)
                 (A) (A) (A) (A) (A) (A) (A) (A) (A) (A) (A) (A)
                 (A) (A) (A) (A) (A) (A) (A) (A) (A) (A) (A) (A)
                 (A) (A) (A) (A) (A) (A) (A) (A) (A) (A) (A) (A)
                 (A) (A) (A) (A) (A) (A) (A) (A) (A) (A) (A) (A)
                 (A) (A) (A) (A) (A) (A) (A) (A) (A) (A) (A) (A)
                 (A) (A) (A) (A) (A) (A) (A) (A) (A) (A) (A) (A)
                 (A) (A) (A) (A) (A) (A) (A) (A) (A) (A) (A) (A)
                 (A) (A) (A) (A) (A) (A) (A) (A) (A) (A) (A) (A)
                 (A) (A) (A) (A) (A) (A) (A) (A) (A) (A) (A) (A)
                 (A) (A) (A) (A) (A) (A) (A) (A) (A) (A) (A) (A)
                 (A) (A) (A) (A) (A) (A) (A) (A) (A) (A) (A) (A)
                 (A) (A) (A) (A) (A) (A) (A) (A) (A) (A) (A) (A)
                 (A) (A) (A) (A) (A) (A) (A) (A) (A) (A) (A) (A)
                 (A) (A) (A) (A) (A) (A) (A) (A) (A) (A) (A) (A)
                 (A) (A) (A) (A) (A) (A) (A) (A) (A) (A) (A) (A)
                 (A) (A) (A) (A) (A) (A) (A) (A) (A) (A) (A) (A)
                 (A) (A) (A) (A) (A) (A) (A) (A) (A) (A) (A) (A)
                 (A) (A) (A) (A) (A) (A) (A) (A) (A) (A) (A) (A)
                 (A) (A) (A) (A) (A) (A) (A) (A) (A) (A) (A) (A)
                 (A) (A) (A) (A) (A) (A) (A) (A) (A) (A) (A) (A)
                 (A) (A) (A) (A) (A) (A) (A) (A) (A) (A) (A) (A)
                 (A) (A) (A) (A) (A) (A) (A) (A) (A) (A) (A) (A)
                 (A) (A) (A) (A) (A) (A) (A) (A) (A) (A) (A) (A)
                 (A) (A) (A) (A) (A) (A) (A) (A) (A) (A) (A) (A)
                 (A) (A) (A) (A) (A) (A) (A) (A) (A) (A) (A) (A)
                 (A) (A) (A) (A) (A) (A) (A) (A) (A) (A) (A) (A)
                 (A) (A) (A) (A) (A) (A) (A) (A) (A) (A) (A) (A)
                 (A) (A) (A) (A) (A) (A) (A) (A) (A) (A) (A) (A)
                 (A) (A) (A) (A) (A) (A) (A) (A) (A) (A) (A) (A)
                 (A) (A) (A) (A) (A) (A) (A) (A) (A) (A) (A) (A)
                 (A) (A) (A) (A) (A) (A) (A) (A) (A) (A) (A)
 The electronic state is 1-A.
 Alpha  occ. eigenvalues --  -19.19335 -19.18724 -19.18664 -19.18453 -19.17922
 Alpha  occ. eigenvalues --  -19.16815 -19.16293 -19.16029 -19.14670 -19.13867
 Alpha  occ. eigenvalues --  -19.13327 -10.30837 -10.30395 -10.26935 -10.25769
 Alpha  occ. eigenvalues --  -10.25570 -10.25437 -10.24958 -10.24485 -10.23967
 Alpha  occ. eigenvalues --  -10.23936 -10.23915 -10.23540  -1.10046  -1.08889
 Alpha  occ. eigenvalues --   -1.05978  -1.05133  -1.04302  -1.03894  -1.02964
 Alpha  occ. eigenvalues --   -1.02224  -1.01602  -1.00705  -0.99830  -0.82360
 Alpha  occ. eigenvalues --   -0.80261  -0.79348  -0.78004  -0.72374  -0.70120
 Alpha  occ. eigenvalues --   -0.67149  -0.64469  -0.62967  -0.62388  -0.61591
 Alpha  occ. eigenvalues --   -0.60135  -0.56496  -0.55871  -0.55289  -0.54840
 Alpha  occ. eigenvalues --   -0.53769  -0.53406  -0.52985  -0.51523  -0.51102
 Alpha  occ. eigenvalues --   -0.50687  -0.50294  -0.49343  -0.48296  -0.46907
 Alpha  occ. eigenvalues --   -0.46709  -0.45395  -0.44164  -0.43694  -0.43215
 Alpha  occ. eigenvalues --   -0.42571  -0.41723  -0.40850  -0.40315  -0.39264
 Alpha  occ. eigenvalues --   -0.38947  -0.38015  -0.37579  -0.36375  -0.35457
 Alpha  occ. eigenvalues --   -0.35250  -0.34927  -0.34070  -0.34044  -0.33883
 Alpha  occ. eigenvalues --   -0.33257  -0.31497  -0.31242  -0.30381  -0.29884
 Alpha  occ. eigenvalues --   -0.29326  -0.28649  -0.27966  -0.27381  -0.26572
 Alpha  occ. eigenvalues --   -0.26374
 Alpha virt. eigenvalues --   -0.02444  -0.02124  -0.01569  -0.00162   0.00308
 Alpha virt. eigenvalues --    0.00849   0.01910   0.02069   0.03310   0.03602
 Alpha virt. eigenvalues --    0.03913   0.04258   0.04757   0.05262   0.05450
 Alpha virt. eigenvalues --    0.06093   0.06523   0.07620   0.07698   0.07971
 Alpha virt. eigenvalues --    0.08435   0.08871   0.08956   0.09111   0.10186
 Alpha virt. eigenvalues --    0.10650   0.11097   0.11171   0.11912   0.11968
 Alpha virt. eigenvalues --    0.12535   0.12920   0.12990   0.13494   0.13601
 Alpha virt. eigenvalues --    0.14021   0.14349   0.14438   0.15053   0.15129
 Alpha virt. eigenvalues --    0.15468   0.16284   0.16596   0.16989   0.17022
 Alpha virt. eigenvalues --    0.17116   0.17487   0.17749   0.17886   0.18529
 Alpha virt. eigenvalues --    0.18816   0.19019   0.19411   0.19596   0.20144
 Alpha virt. eigenvalues --    0.20804   0.21125   0.21263   0.21629   0.21843
 Alpha virt. eigenvalues --    0.22189   0.22480   0.22645   0.22873   0.22891
 Alpha virt. eigenvalues --    0.23463   0.23965   0.24263   0.24610   0.24798
 Alpha virt. eigenvalues --    0.24843   0.25237   0.25293   0.25509   0.25934
 Alpha virt. eigenvalues --    0.26234   0.26433   0.26642   0.26800   0.27210
 Alpha virt. eigenvalues --    0.27500   0.27965   0.28139   0.28232   0.28877
 Alpha virt. eigenvalues --    0.29184   0.29386   0.29495   0.30004   0.30200
 Alpha virt. eigenvalues --    0.30867   0.31012   0.31611   0.31946   0.32283
 Alpha virt. eigenvalues --    0.32536   0.32789   0.33051   0.33139   0.33495
 Alpha virt. eigenvalues --    0.34085   0.34568   0.34771   0.35009   0.35422
 Alpha virt. eigenvalues --    0.35722   0.36175   0.36602   0.37303   0.37339
 Alpha virt. eigenvalues --    0.37482   0.37881   0.38642   0.39119   0.39386
 Alpha virt. eigenvalues --    0.39530   0.39929   0.40583   0.40823   0.41264
 Alpha virt. eigenvalues --    0.42032   0.42340   0.43143   0.43234   0.43720
 Alpha virt. eigenvalues --    0.44051   0.44969   0.45517   0.45881   0.46462
 Alpha virt. eigenvalues --    0.47440   0.48060   0.48283   0.49384   0.50039
 Alpha virt. eigenvalues --    0.50206   0.51064   0.53013   0.56174   0.58199
 Alpha virt. eigenvalues --    0.59098   0.60166   0.60500   0.61094   0.61732
 Alpha virt. eigenvalues --    0.62829   0.63716   0.64025   0.65805   0.66019
 Alpha virt. eigenvalues --    0.66924   0.67678   0.68102   0.68943   0.69442
 Alpha virt. eigenvalues --    0.70039   0.70296   0.71434   0.71949   0.72435
 Alpha virt. eigenvalues --    0.73803   0.75087   0.75466   0.76079   0.76472
 Alpha virt. eigenvalues --    0.77065   0.77472   0.78266   0.79583   0.81257
 Alpha virt. eigenvalues --    0.81570   0.81989   0.82348   0.83178   0.84173
 Alpha virt. eigenvalues --    0.85302   0.85815   0.86768   0.87766   0.88729
 Alpha virt. eigenvalues --    0.89535   0.89724   0.90136   0.90489   0.90901
 Alpha virt. eigenvalues --    0.91860   0.91952   0.92334   0.93050   0.93336
 Alpha virt. eigenvalues --    0.93699   0.94012   0.95008   0.95511   0.96310
 Alpha virt. eigenvalues --    0.96656   0.96970   0.97548   0.97745   0.98278
 Alpha virt. eigenvalues --    0.98678   0.99403   1.00375   1.01565   1.01787
 Alpha virt. eigenvalues --    1.01954   1.03760   1.04290   1.05247   1.05707
 Alpha virt. eigenvalues --    1.06362   1.07263   1.07457   1.07797   1.08446
 Alpha virt. eigenvalues --    1.08602   1.09096   1.10205   1.10580   1.10965
 Alpha virt. eigenvalues --    1.11377   1.11851   1.12706   1.12892   1.13490
 Alpha virt. eigenvalues --    1.14318   1.14510   1.15393   1.15907   1.16210
 Alpha virt. eigenvalues --    1.16941   1.17158   1.17909   1.18408   1.19500
 Alpha virt. eigenvalues --    1.20125   1.20331   1.21043   1.21500   1.22085
 Alpha virt. eigenvalues --    1.22333   1.22913   1.23695   1.24208   1.24816
 Alpha virt. eigenvalues --    1.25116   1.25480   1.25669   1.26474   1.27725
 Alpha virt. eigenvalues --    1.27984   1.28587   1.29399   1.29827   1.30553
 Alpha virt. eigenvalues --    1.31291   1.31604   1.32521   1.33352   1.33631
 Alpha virt. eigenvalues --    1.34415   1.35061   1.35671   1.35992   1.37239
 Alpha virt. eigenvalues --    1.37645   1.37871   1.38824   1.39261   1.40028
 Alpha virt. eigenvalues --    1.40686   1.41556   1.42206   1.42791   1.43067
 Alpha virt. eigenvalues --    1.43568   1.45022   1.46026   1.46190   1.46598
 Alpha virt. eigenvalues --    1.47354   1.48322   1.48982   1.49984   1.50455
 Alpha virt. eigenvalues --    1.52521   1.52983   1.53538   1.54998   1.55955
 Alpha virt. eigenvalues --    1.56375   1.57292   1.57754   1.58480   1.59305
 Alpha virt. eigenvalues --    1.59666   1.60345   1.61760   1.63383   1.64152
 Alpha virt. eigenvalues --    1.64491   1.65216   1.65876   1.66790   1.67356
 Alpha virt. eigenvalues --    1.68043   1.69226   1.69740   1.70655   1.71821
 Alpha virt. eigenvalues --    1.72151   1.72816   1.73408   1.74067   1.75348
 Alpha virt. eigenvalues --    1.77317   1.78354   1.79082   1.80075   1.80994
 Alpha virt. eigenvalues --    1.82549   1.83144   1.84133   1.84782   1.85595
 Alpha virt. eigenvalues --    1.86686   1.86861   1.88886   1.90032   1.90898
 Alpha virt. eigenvalues --    1.91382   1.92850   1.93078   1.93777   1.94466
 Alpha virt. eigenvalues --    1.95192   1.95869   1.96691   1.98207   2.01309
 Alpha virt. eigenvalues --    2.01652   2.02276   2.04118   2.04862   2.05704
 Alpha virt. eigenvalues --    2.06412   2.07400   2.08656   2.10762   2.11577
 Alpha virt. eigenvalues --    2.13278   2.15033   2.15925   2.18383   2.19279
 Alpha virt. eigenvalues --    2.21996   2.22421   2.23076   2.24230   2.24644
 Alpha virt. eigenvalues --    2.26722   2.27874   2.28268   2.30478   2.31244
 Alpha virt. eigenvalues --    2.32112   2.35207   2.36750   2.38368   2.41384
 Alpha virt. eigenvalues --    2.43031   2.43619   2.45185   2.47913   2.50041
 Alpha virt. eigenvalues --    2.50712   2.51920   2.53355   2.54680   2.55198
 Alpha virt. eigenvalues --    2.55886   2.57028   2.58105   2.58723   2.59551
 Alpha virt. eigenvalues --    2.60557   2.61552   2.63261   2.64236   2.66376
 Alpha virt. eigenvalues --    2.67445   2.69446   2.69535   2.70794   2.72622
 Alpha virt. eigenvalues --    2.73137   2.74305   2.76154   2.78614   2.78968
 Alpha virt. eigenvalues --    2.80106   2.80857   2.81713   2.83254   2.83526
 Alpha virt. eigenvalues --    2.83702   2.85467   2.86967   2.88405   2.89041
 Alpha virt. eigenvalues --    2.89663   2.90517   2.90908   2.92558   2.92868
 Alpha virt. eigenvalues --    2.93433   2.93865   2.95555   2.96318   2.97607
 Alpha virt. eigenvalues --    2.99041   2.99409   3.00308   3.02550   3.03139
 Alpha virt. eigenvalues --    3.03732   3.04166   3.04474   3.05325   3.06774
 Alpha virt. eigenvalues --    3.07451   3.07864   3.08732   3.10016   3.10463
 Alpha virt. eigenvalues --    3.12230   3.12604   3.14303   3.15897   3.17590
 Alpha virt. eigenvalues --    3.19000   3.19348   3.21391   3.22331   3.23063
 Alpha virt. eigenvalues --    3.23999   3.24895   3.26140   3.27096   3.27718
 Alpha virt. eigenvalues --    3.28997   3.29721   3.31004   3.31807   3.32934
 Alpha virt. eigenvalues --    3.33677   3.34641   3.36905   3.37934   3.39144
 Alpha virt. eigenvalues --    3.40242   3.41880   3.42861   3.43102   3.44758
 Alpha virt. eigenvalues --    3.45716   3.47823   3.48552   3.50526   3.54019
 Alpha virt. eigenvalues --    3.54649   3.57725   3.58072   3.59016   3.59783
 Alpha virt. eigenvalues --    3.61038   3.62255   3.65285   3.65971   3.67342
 Alpha virt. eigenvalues --    3.68520   3.69222   3.70280   3.72743   3.74417
 Alpha virt. eigenvalues --    3.75248   3.76670   3.77565   3.78166   3.79098
 Alpha virt. eigenvalues --    3.81752   3.82178   3.83534   3.84039   3.85070
 Alpha virt. eigenvalues --    3.86246   3.87041   3.88875   3.91281   3.92718
 Alpha virt. eigenvalues --    3.94262   3.96041   3.98863   3.99466   4.02968
 Alpha virt. eigenvalues --    4.04402   4.06961   4.07625   4.10192   4.14207
 Alpha virt. eigenvalues --    4.16199   4.16498   4.17619   4.18018   4.19305
 Alpha virt. eigenvalues --    4.21711   4.21994   4.23039   4.24360   4.25726
 Alpha virt. eigenvalues --    4.26664   4.26902   4.27671   4.28820   4.29658
 Alpha virt. eigenvalues --    4.30921   4.31160   4.31603   4.33983   4.34859
 Alpha virt. eigenvalues --    4.35757   4.36307   4.37123   4.37550   4.39962
 Alpha virt. eigenvalues --    4.40505   4.40836   4.41911   4.42307   4.44373
 Alpha virt. eigenvalues --    4.44723   4.45322   4.46302   4.47187   4.47852
 Alpha virt. eigenvalues --    4.48663   4.48958   4.49496   4.50316   4.51490
 Alpha virt. eigenvalues --    4.51879   4.52818   4.53128   4.53947   4.54873
 Alpha virt. eigenvalues --    4.55290   4.56430   4.57258   4.57881   4.58434
 Alpha virt. eigenvalues --    4.59059   4.59908   4.60609   4.61241   4.62084
 Alpha virt. eigenvalues --    4.62686   4.63117   4.63861   4.65245   4.65413
 Alpha virt. eigenvalues --    4.65997   4.66092   4.67251   4.67980   4.68869
 Alpha virt. eigenvalues --    4.69212   4.70566   4.70765   4.72116   4.72633
 Alpha virt. eigenvalues --    4.73089   4.73119   4.73801   4.75304   4.75573
 Alpha virt. eigenvalues --    4.76370   4.76771   4.77379   4.78320   4.78636
 Alpha virt. eigenvalues --    4.79700   4.79881   4.80892   4.82095   4.82159
 Alpha virt. eigenvalues --    4.83423   4.84023   4.84550   4.84707   4.85818
 Alpha virt. eigenvalues --    4.86731   4.87540   4.89149   4.89352   4.89856
 Alpha virt. eigenvalues --    4.90451   4.92460   4.93276   4.95187   4.96331
 Alpha virt. eigenvalues --    4.96700   4.97767   4.98335   4.99343   5.00047
 Alpha virt. eigenvalues --    5.02764   5.05211   5.06564   5.07950   5.09679
 Alpha virt. eigenvalues --    5.10645   5.13337   5.15351   5.16907   5.17985
 Alpha virt. eigenvalues --    5.19131   5.20043   5.20669   5.22026   5.22672
 Alpha virt. eigenvalues --    5.23772   5.25186   5.26394   5.27886   5.29585
 Alpha virt. eigenvalues --    5.30687   5.32401   5.32602   5.33298   5.35799
 Alpha virt. eigenvalues --    5.36366   5.36967   5.37523   5.38414   5.39782
 Alpha virt. eigenvalues --    5.40474   5.41117   5.41728   5.42953   5.43195
 Alpha virt. eigenvalues --    5.43767   5.44773   5.45808   5.46659   5.47582
 Alpha virt. eigenvalues --    5.48330   5.48939   5.49640   5.51145   5.52281
 Alpha virt. eigenvalues --    5.53000   5.53740   5.56350   5.56604   5.57975
 Alpha virt. eigenvalues --    5.58795   5.59398   5.61614   5.64923   5.68231
 Alpha virt. eigenvalues --    5.68812   5.71088   5.71644   5.73704   5.74568
 Alpha virt. eigenvalues --    5.75982   5.76875   5.79577   5.81388   5.82402
 Alpha virt. eigenvalues --    5.83921   5.88137   5.88508   5.89062   5.90041
 Alpha virt. eigenvalues --    5.91308   5.91878   5.93727   5.94208   5.94898
 Alpha virt. eigenvalues --    5.95802   5.95885   5.97542   5.97977   6.00122
 Alpha virt. eigenvalues --    6.00486   6.03101   6.03725   6.05339   6.06194
 Alpha virt. eigenvalues --    6.07510   6.07658   6.09507   6.10171   6.11596
 Alpha virt. eigenvalues --    6.13241   6.14626   6.17183   6.19402   6.22291
 Alpha virt. eigenvalues --    6.23383   6.26288   6.27308   6.31960   6.38345
 Alpha virt. eigenvalues --    6.56237   6.66272   7.01871   7.04740   7.10183
 Alpha virt. eigenvalues --    7.12459   7.14379   7.22634   7.25404   7.27826
 Alpha virt. eigenvalues --    7.31308   7.34170   7.52520   7.61682   7.77540
 Alpha virt. eigenvalues --    7.88891   8.11028  12.02824  12.15843  12.23363
 Alpha virt. eigenvalues --   12.30294  12.46409  12.56899  12.77493  12.92775
 Alpha virt. eigenvalues --   13.06024  13.12097  13.27529  13.36888  13.41792
 Alpha virt. eigenvalues --   13.45213  13.47593  13.55051  13.58084  13.66531
 Alpha virt. eigenvalues --   13.69460  13.82365  13.88786  14.10232  14.19989
          Condensed to atoms (all electrons):
              1          2          3          4          5          6
     1  O    8.059967   0.310144  -0.125737  -0.002520   0.016474   0.035429
     2  C    0.310144   6.834339  -0.209988   0.006544  -0.053925  -1.008373
     3  C   -0.125737  -0.209988   7.312136   0.173834  -0.015839   0.214144
     4  O   -0.002520   0.006544   0.173834   8.133171   0.243483  -0.113221
     5  H    0.016474  -0.053925  -0.015839   0.243483   0.414991   0.041958
     6  C    0.035429  -1.008373   0.214144  -0.113221   0.041958   7.852193
     7  O    0.000168   0.037405  -0.132264   0.004800  -0.000578   0.234794
     8  H    0.000006  -0.006499   0.012635  -0.000373   0.000014   0.023344
     9  C   -0.000179  -0.340265  -0.443645   0.014393  -0.002092   0.297272
    10  O   -0.010291   0.035714   0.004702  -0.000043  -0.000009   0.000103
    11  H    0.001159  -0.015283   0.000191   0.000000   0.000000   0.000397
    12  C   -0.079323  -0.646477  -0.529189   0.047349   0.007665   0.367912
    13  O    0.002403  -0.068413  -0.011332  -0.002373  -0.000033   0.002115
    14  C   -0.028858   0.770323  -0.071895   0.000819   0.003043  -1.740508
    15  O   -0.000035  -0.007065  -0.008051   0.000617  -0.000011  -0.035980
    16  C    0.000567   0.103776  -0.203113  -0.000389   0.000547  -0.318821
    17  C    0.000182  -0.046814   0.026015   0.000010   0.000030   0.090389
    18  O    0.000011   0.007540  -0.000989  -0.000009   0.000000   0.004167
    19  H   -0.000005  -0.003501   0.004223   0.000003   0.000000   0.000077
    20  C    0.000029   0.000895  -0.001874  -0.000060   0.000001   0.059914
    21  O    0.000000  -0.000042  -0.000003   0.000000   0.000000  -0.000194
    22  H    0.000000   0.000001   0.000000   0.000000   0.000000  -0.000025
    23  C   -0.000019   0.014209  -0.000634  -0.000160   0.000004  -0.102177
    24  O    0.000002   0.002359  -0.007597  -0.000072  -0.000002   0.003072
    25  H    0.000000   0.000054   0.001036   0.000003   0.000000  -0.000609
    26  C    0.000034  -0.017987  -0.043090   0.000898   0.000005   0.009384
    27  O    0.000000  -0.000174   0.000549   0.000001   0.000000   0.001316
    28  C    0.000002  -0.000284  -0.001203   0.000014   0.000000  -0.014683
    29  O    0.000000   0.000013   0.000006   0.000000   0.000000  -0.000298
    30  H    0.271141   0.041380  -0.035561   0.000771  -0.001744  -0.001083
    31  H    0.000000   0.000000   0.000000   0.000000   0.000000   0.000002
    32  H    0.000000   0.000004   0.000006   0.000000   0.000000  -0.000147
    33  H    0.000000   0.000135  -0.000076   0.000000   0.000000   0.000024
    34  H    0.000000   0.000468  -0.000161   0.000000   0.000000   0.004642
    35  H   -0.000001  -0.002012   0.002544   0.000007   0.000000   0.010444
    36  H    0.000000  -0.000039   0.000803   0.000000   0.000000  -0.002411
    37  H    0.000000   0.000005  -0.000052   0.000000   0.000000   0.001185
    38  H    0.000000   0.000040   0.000733   0.000000   0.000000  -0.005964
    39  H   -0.000002  -0.027486  -0.018152  -0.000007   0.000007   0.059695
    40  H   -0.000432   0.007893  -0.066911   0.003070  -0.000155   0.300980
    41  H   -0.001473   0.000314   0.255624  -0.021099  -0.003317  -0.196675
    42  H   -0.014018   0.334292  -0.045748   0.003008   0.000023  -0.021714
    43  H    0.002503   0.084757  -0.069613   0.000594   0.000011  -0.009080
    44  H    0.000099  -0.004801   0.001149   0.000015   0.000000  -0.001910
    45  H    0.000373   0.005895  -0.017157   0.000034   0.000000   0.009850
              7          8          9         10         11         12
     1  O    0.000168   0.000006  -0.000179  -0.010291   0.001159  -0.079323
     2  C    0.037405  -0.006499  -0.340265   0.035714  -0.015283  -0.646477
     3  C   -0.132264   0.012635  -0.443645   0.004702   0.000191  -0.529189
     4  O    0.004800  -0.000373   0.014393  -0.000043   0.000000   0.047349
     5  H   -0.000578   0.000014  -0.002092  -0.000009   0.000000   0.007665
     6  C    0.234794   0.023344   0.297272   0.000103   0.000397   0.367912
     7  O    8.133488   0.242654   0.002063   0.000008   0.000000   0.009154
     8  H    0.242654   0.339660   0.000170   0.000000   0.000000   0.000675
     9  C    0.002063   0.000170   8.411837   0.139901  -0.001567  -1.798665
    10  O    0.000008   0.000000   0.139901   8.120011   0.242193  -0.011413
    11  H    0.000000   0.000000  -0.001567   0.242193   0.424645   0.013925
    12  C    0.009154   0.000675  -1.798665  -0.011413   0.013925   9.850268
    13  O    0.002468  -0.000075  -0.022542   0.001677  -0.000775   0.068865
    14  C   -0.044244  -0.060819  -0.890239   0.001324  -0.004124  -1.146158
    15  O   -0.005648   0.016983  -0.003677   0.000074  -0.000001   0.000024
    16  C    0.037349   0.018513  -0.110570  -0.000377  -0.000262  -0.053379
    17  C    0.001130   0.002594  -0.009366  -0.000203  -0.000007  -0.068452
    18  O   -0.000155  -0.000027  -0.001051  -0.000077   0.000001  -0.011366
    19  H   -0.000005  -0.000010   0.003722   0.000007   0.000000  -0.008036
    20  C    0.001141   0.001128   0.003464   0.000039   0.000002  -0.007229
    21  O   -0.000003   0.000000   0.000295   0.000000   0.000000   0.000022
    22  H    0.000000   0.000000  -0.000003   0.000000   0.000000   0.000011
    23  C    0.017848   0.011231  -0.002989  -0.000006   0.000000  -0.013486
    24  O   -0.041905  -0.005715   0.000062   0.000000   0.000000  -0.000197
    25  H    0.001940  -0.002747  -0.000011   0.000000   0.000000  -0.000302
    26  C   -0.010887  -0.031791   0.023410   0.000054  -0.000002   0.077537
    27  O    0.000044  -0.000096   0.000123   0.000000   0.000000   0.000390
    28  C   -0.000111  -0.000179  -0.001265  -0.000005   0.000000  -0.000308
    29  O   -0.000002   0.000000  -0.000020   0.000000   0.000000   0.000062
    30  H   -0.000014   0.000000   0.002837  -0.001262  -0.000030  -0.017179
    31  H    0.000000   0.000000   0.000000   0.000000   0.000000   0.000001
    32  H    0.000001   0.000000  -0.000001   0.000000   0.000000   0.000017
    33  H    0.000003   0.000000  -0.000157   0.000000   0.000000   0.000478
    34  H   -0.000012  -0.000005  -0.000150   0.000000   0.000000   0.000140
    35  H   -0.001969  -0.000153   0.000414   0.000001   0.000000   0.004353
    36  H   -0.000205   0.000005   0.000049   0.000000   0.000000   0.000483
    37  H   -0.000589   0.000341  -0.000001   0.000000   0.000000  -0.000017
    38  H    0.001552  -0.000003  -0.000006   0.000000   0.000000   0.000017
    39  H   -0.004591   0.000038   0.019356   0.000063   0.000000   0.079837
    40  H   -0.022535  -0.003700   0.010901   0.000013   0.000000   0.066678
    41  H    0.008654  -0.000192   0.011400  -0.000155   0.000000   0.056325
    42  H    0.000528   0.000001  -0.035631  -0.001523  -0.000008  -0.055552
    43  H    0.000033   0.000002   0.071156  -0.000795  -0.000222   0.042567
    44  H   -0.000012   0.000000   0.398926  -0.014107  -0.013820  -0.036592
    45  H    0.000014   0.000000   0.658447  -0.057578   0.002218  -0.292204
             13         14         15         16         17         18
     1  O    0.002403  -0.028858  -0.000035   0.000567   0.000182   0.000011
     2  C   -0.068413   0.770323  -0.007065   0.103776  -0.046814   0.007540
     3  C   -0.011332  -0.071895  -0.008051  -0.203113   0.026015  -0.000989
     4  O   -0.002373   0.000819   0.000617  -0.000389   0.000010  -0.000009
     5  H   -0.000033   0.003043  -0.000011   0.000547   0.000030   0.000000
     6  C    0.002115  -1.740508  -0.035980  -0.318821   0.090389   0.004167
     7  O    0.002468  -0.044244  -0.005648   0.037349   0.001130  -0.000155
     8  H   -0.000075  -0.060819   0.016983   0.018513   0.002594  -0.000027
     9  C   -0.022542  -0.890239  -0.003677  -0.110570  -0.009366  -0.001051
    10  O    0.001677   0.001324   0.000074  -0.000377  -0.000203  -0.000077
    11  H   -0.000775  -0.004124  -0.000001  -0.000262  -0.000007   0.000001
    12  C    0.068865  -1.146158   0.000024  -0.053379  -0.068452  -0.011366
    13  O    7.920792   0.208785  -0.011659   0.035645  -0.004414  -0.010868
    14  C    0.208785   9.746445   0.284185  -0.747495  -0.090448  -0.007123
    15  O   -0.011659   0.284185   7.857351   0.110079  -0.007239  -0.012632
    16  C    0.035645  -0.747495   0.110079  11.562664  -2.148739   0.022347
    17  C   -0.004414  -0.090448  -0.007239  -2.148739   8.226217   0.210141
    18  O   -0.010868  -0.007123  -0.012632   0.022347   0.210141   8.105515
    19  H    0.011036   0.008264   0.024998  -0.105323   0.055660   0.232526
    20  C   -0.014153  -0.120250   0.011739  -0.705703   0.030428  -0.082568
    21  O   -0.000153   0.004466  -0.000001   0.058987  -0.093541   0.006387
    22  H    0.000002  -0.000852  -0.000013  -0.014863   0.010789  -0.000191
    23  C    0.004463  -0.042048  -0.021900   0.493735  -0.454373   0.016291
    24  O   -0.001218   0.059696  -0.021881  -0.014653  -0.000376  -0.000072
    25  H   -0.000008  -0.008221   0.002167  -0.008427  -0.000358  -0.000001
    26  C   -0.012120  -0.510475  -0.080002  -2.426424   0.107820  -0.006671
    27  O    0.000303   0.015687   0.004758   0.109716  -0.024007  -0.002061
    28  C    0.002077  -0.041710   0.004867   0.385893   0.073624  -0.000459
    29  O    0.000029  -0.002501  -0.000129  -0.037578  -0.022564   0.000288
    30  H   -0.000629   0.002717   0.000002   0.000145  -0.000032   0.000000
    31  H    0.000000   0.000039  -0.000001   0.002828   0.006546  -0.000014
    32  H    0.000008   0.000240   0.000664   0.018830  -0.020468   0.000949
    33  H    0.000178  -0.014784   0.000488   0.066779  -0.210612   0.010112
    34  H   -0.000043  -0.022256  -0.003582  -0.079195   0.207392  -0.017925
    35  H   -0.002910  -0.040377  -0.021960   0.062671   0.046692  -0.000941
    36  H   -0.000203   0.031784   0.002115  -0.043918  -0.028373   0.001165
    37  H    0.000012   0.004685  -0.000377   0.033579   0.004601   0.000021
    38  H    0.000100  -0.001943   0.003549   0.023860   0.000924   0.000063
    39  H   -0.031859   0.211663  -0.029058  -0.045189   0.028637  -0.001711
    40  H    0.005451  -0.017324  -0.005493  -0.021349  -0.000351   0.000124
    41  H    0.003628   0.101101   0.002197  -0.001361   0.000732   0.000045
    42  H    0.003483   0.091468   0.000040  -0.002353   0.000972   0.000018
    43  H   -0.027707   0.150586  -0.000332  -0.003125   0.005453  -0.000312
    44  H   -0.003447  -0.005851  -0.000252   0.006311  -0.001187   0.000082
    45  H   -0.003966  -0.004015  -0.000317  -0.003439   0.001714  -0.000072
             19         20         21         22         23         24
     1  O   -0.000005   0.000029   0.000000   0.000000  -0.000019   0.000002
     2  C   -0.003501   0.000895  -0.000042   0.000001   0.014209   0.002359
     3  C    0.004223  -0.001874  -0.000003   0.000000  -0.000634  -0.007597
     4  O    0.000003  -0.000060   0.000000   0.000000  -0.000160  -0.000072
     5  H    0.000000   0.000001   0.000000   0.000000   0.000004  -0.000002
     6  C    0.000077   0.059914  -0.000194  -0.000025  -0.102177   0.003072
     7  O   -0.000005   0.001141  -0.000003   0.000000   0.017848  -0.041905
     8  H   -0.000010   0.001128   0.000000   0.000000   0.011231  -0.005715
     9  C    0.003722   0.003464   0.000295  -0.000003  -0.002989   0.000062
    10  O    0.000007   0.000039   0.000000   0.000000  -0.000006   0.000000
    11  H    0.000000   0.000002   0.000000   0.000000   0.000000   0.000000
    12  C   -0.008036  -0.007229   0.000022   0.000011  -0.013486  -0.000197
    13  O    0.011036  -0.014153  -0.000153   0.000002   0.004463  -0.001218
    14  C    0.008264  -0.120250   0.004466  -0.000852  -0.042048   0.059696
    15  O    0.024998   0.011739  -0.000001  -0.000013  -0.021900  -0.021881
    16  C   -0.105323  -0.705703   0.058987  -0.014863   0.493735  -0.014653
    17  C    0.055660   0.030428  -0.093541   0.010789  -0.454373  -0.000376
    18  O    0.232526  -0.082568   0.006387  -0.000191   0.016291  -0.000072
    19  H    0.375918   0.008523  -0.000252   0.000015  -0.004748   0.000056
    20  C    0.008523   6.662594   0.140735  -0.014900   0.008070  -0.004475
    21  O   -0.000252   0.140735   8.095397   0.239577   0.001430  -0.000001
    22  H    0.000015  -0.014900   0.239577   0.431430   0.000347   0.000000
    23  C   -0.004748   0.008070   0.001430   0.000347   6.525332   0.020002
    24  O    0.000056  -0.004475  -0.000001   0.000000   0.020002   8.204851
    25  H    0.000000   0.000880   0.000000   0.000000  -0.011149   0.259744
    26  C    0.009274   0.515778  -0.027617   0.008688  -0.854211   0.086392
    27  O    0.000202  -0.126616   0.005499  -0.000020  -0.077542   0.002140
    28  C    0.001831  -0.634602   0.042962  -0.005153  -0.082302   0.004794
    29  O   -0.000004  -0.022367  -0.003195   0.014672   0.000424   0.000000
    30  H    0.000000   0.000000   0.000000   0.000000   0.000002   0.000000
    31  H    0.000000  -0.036677  -0.000044  -0.001843  -0.000477   0.000000
    32  H    0.000004  -0.102103   0.001058  -0.000424   0.002721   0.000009
    33  H   -0.000153   0.354554  -0.020192  -0.004327   0.008698   0.000003
    34  H   -0.003269   0.034236  -0.000988  -0.000247   0.020555  -0.000078
    35  H    0.000294   0.041802  -0.000336   0.000003  -0.042300   0.000738
    36  H    0.000040  -0.023034   0.000203   0.000004   0.073296  -0.000632
    37  H    0.000000  -0.003517  -0.000003   0.000000   0.397187  -0.026060
    38  H    0.000000  -0.000742   0.000001   0.000000   0.560993  -0.060006
    39  H    0.000249   0.008114   0.000002   0.000000  -0.003654  -0.000208
    40  H   -0.000030   0.000091   0.000000   0.000000   0.002447   0.000266
    41  H   -0.000002  -0.000095   0.000000   0.000000   0.000671   0.000091
    42  H   -0.000002  -0.000025   0.000000   0.000000   0.000029   0.000005
    43  H    0.000156   0.000254  -0.000001   0.000000   0.000037  -0.000001
    44  H    0.000294  -0.000445   0.000001   0.000000   0.000000   0.000000
    45  H    0.000033   0.000098   0.000000   0.000000  -0.000017   0.000000
             25         26         27         28         29         30
     1  O    0.000000   0.000034   0.000000   0.000002   0.000000   0.271141
     2  C    0.000054  -0.017987  -0.000174  -0.000284   0.000013   0.041380
     3  C    0.001036  -0.043090   0.000549  -0.001203   0.000006  -0.035561
     4  O    0.000003   0.000898   0.000001   0.000014   0.000000   0.000771
     5  H    0.000000   0.000005   0.000000   0.000000   0.000000  -0.001744
     6  C   -0.000609   0.009384   0.001316  -0.014683  -0.000298  -0.001083
     7  O    0.001940  -0.010887   0.000044  -0.000111  -0.000002  -0.000014
     8  H   -0.002747  -0.031791  -0.000096  -0.000179   0.000000   0.000000
     9  C   -0.000011   0.023410   0.000123  -0.001265  -0.000020   0.002837
    10  O    0.000000   0.000054   0.000000  -0.000005   0.000000  -0.001262
    11  H    0.000000  -0.000002   0.000000   0.000000   0.000000  -0.000030
    12  C   -0.000302   0.077537   0.000390  -0.000308   0.000062  -0.017179
    13  O   -0.000008  -0.012120   0.000303   0.002077   0.000029  -0.000629
    14  C   -0.008221  -0.510475   0.015687  -0.041710  -0.002501   0.002717
    15  O    0.002167  -0.080002   0.004758   0.004867  -0.000129   0.000002
    16  C   -0.008427  -2.426424   0.109716   0.385893  -0.037578   0.000145
    17  C   -0.000358   0.107820  -0.024007   0.073624  -0.022564  -0.000032
    18  O   -0.000001  -0.006671  -0.002061  -0.000459   0.000288   0.000000
    19  H    0.000000   0.009274   0.000202   0.001831  -0.000004   0.000000
    20  C    0.000880   0.515778  -0.126616  -0.634602  -0.022367   0.000000
    21  O    0.000000  -0.027617   0.005499   0.042962  -0.003195   0.000000
    22  H    0.000000   0.008688  -0.000020  -0.005153   0.014672   0.000000
    23  C   -0.011149  -0.854211  -0.077542  -0.082302   0.000424   0.000002
    24  O    0.259744   0.086392   0.002140   0.004794   0.000000   0.000000
    25  H    0.399766   0.014706  -0.000481  -0.001279   0.000000   0.000000
    26  C    0.014706   9.459875   0.091882  -0.654117   0.011496  -0.000004
    27  O   -0.000481   0.091882   7.874413   0.272701  -0.010101   0.000000
    28  C   -0.001279  -0.654117   0.272701   5.942247   0.280276   0.000000
    29  O    0.000000   0.011496  -0.010101   0.280276   8.024565   0.000000
    30  H    0.000000  -0.000004   0.000000   0.000000   0.000000   0.400700
    31  H    0.000000   0.000806   0.002869   0.010905   0.269489   0.000000
    32  H    0.000000  -0.002216  -0.035249   0.424760  -0.022345   0.000000
    33  H    0.000000   0.031513   0.001226   0.030442   0.000833   0.000000
    34  H    0.000000   0.119244  -0.000225  -0.036594   0.000490   0.000000
    35  H   -0.000006   0.188199   0.001713   0.003568  -0.000474   0.000000
    36  H   -0.000171   0.211232  -0.024072   0.044019  -0.000402   0.000000
    37  H   -0.009115  -0.082970  -0.000079   0.004471  -0.000056   0.000000
    38  H   -0.002333  -0.230140   0.002369   0.004122  -0.000054   0.000000
    39  H    0.000007   0.020092   0.000255  -0.000975  -0.000002   0.000001
    40  H   -0.000006  -0.001892   0.000001  -0.000003   0.000000   0.000012
    41  H    0.000000  -0.000151   0.000000  -0.000003   0.000000   0.000038
    42  H    0.000000  -0.000290   0.000000  -0.000001   0.000000  -0.011965
    43  H    0.000000  -0.001472  -0.000001  -0.000017   0.000000  -0.000192
    44  H    0.000000   0.000387   0.000001   0.000069   0.000000   0.000006
    45  H    0.000000  -0.000077   0.000000  -0.000004   0.000000  -0.000052
             31         32         33         34         35         36
     1  O    0.000000   0.000000   0.000000   0.000000  -0.000001   0.000000
     2  C    0.000000   0.000004   0.000135   0.000468  -0.002012  -0.000039
     3  C    0.000000   0.000006  -0.000076  -0.000161   0.002544   0.000803
     4  O    0.000000   0.000000   0.000000   0.000000   0.000007   0.000000
     5  H    0.000000   0.000000   0.000000   0.000000   0.000000   0.000000
     6  C    0.000002  -0.000147   0.000024   0.004642   0.010444  -0.002411
     7  O    0.000000   0.000001   0.000003  -0.000012  -0.001969  -0.000205
     8  H    0.000000   0.000000   0.000000  -0.000005  -0.000153   0.000005
     9  C    0.000000  -0.000001  -0.000157  -0.000150   0.000414   0.000049
    10  O    0.000000   0.000000   0.000000   0.000000   0.000001   0.000000
    11  H    0.000000   0.000000   0.000000   0.000000   0.000000   0.000000
    12  C    0.000001   0.000017   0.000478   0.000140   0.004353   0.000483
    13  O    0.000000   0.000008   0.000178  -0.000043  -0.002910  -0.000203
    14  C    0.000039   0.000240  -0.014784  -0.022256  -0.040377   0.031784
    15  O   -0.000001   0.000664   0.000488  -0.003582  -0.021960   0.002115
    16  C    0.002828   0.018830   0.066779  -0.079195   0.062671  -0.043918
    17  C    0.006546  -0.020468  -0.210612   0.207392   0.046692  -0.028373
    18  O   -0.000014   0.000949   0.010112  -0.017925  -0.000941   0.001165
    19  H    0.000000   0.000004  -0.000153  -0.003269   0.000294   0.000040
    20  C   -0.036677  -0.102103   0.354554   0.034236   0.041802  -0.023034
    21  O   -0.000044   0.001058  -0.020192  -0.000988  -0.000336   0.000203
    22  H   -0.001843  -0.000424  -0.004327  -0.000247   0.000003   0.000004
    23  C   -0.000477   0.002721   0.008698   0.020555  -0.042300   0.073296
    24  O    0.000000   0.000009   0.000003  -0.000078   0.000738  -0.000632
    25  H    0.000000   0.000000   0.000000   0.000000  -0.000006  -0.000171
    26  C    0.000806  -0.002216   0.031513   0.119244   0.188199   0.211232
    27  O    0.002869  -0.035249   0.001226  -0.000225   0.001713  -0.024072
    28  C    0.010905   0.424760   0.030442  -0.036594   0.003568   0.044019
    29  O    0.269489  -0.022345   0.000833   0.000490  -0.000474  -0.000402
    30  H    0.000000   0.000000   0.000000   0.000000   0.000000   0.000000
    31  H    0.401403  -0.009127   0.000006   0.000011   0.000001   0.000001
    32  H   -0.009127   0.597406   0.005122   0.002268  -0.000050   0.004350
    33  H    0.000006   0.005122   0.593461   0.006574   0.001729  -0.000041
    34  H    0.000011   0.002268   0.006574   0.639978   0.006442   0.003489
    35  H    0.000001  -0.000050   0.001729   0.006442   0.601525   0.005574
    36  H    0.000001   0.004350  -0.000041   0.003489   0.005574   0.610475
    37  H    0.000000  -0.000020   0.000001   0.000002  -0.000007  -0.004903
    38  H    0.000000  -0.000005  -0.000006  -0.000012   0.002067   0.006312
    39  H    0.000000   0.000000  -0.000003  -0.000003   0.008461  -0.000007
    40  H    0.000000   0.000000   0.000000  -0.000005  -0.000015  -0.000001
    41  H    0.000000   0.000000   0.000000   0.000000  -0.000007   0.000000
    42  H    0.000000   0.000000   0.000000   0.000000   0.000000   0.000000
    43  H    0.000000   0.000000   0.000000   0.000000  -0.000012   0.000000
    44  H    0.000000   0.000000   0.000000   0.000000  -0.000001   0.000000
    45  H    0.000000   0.000000   0.000000   0.000000   0.000000   0.000000
             37         38         39         40         41         42
     1  O    0.000000   0.000000  -0.000002  -0.000432  -0.001473  -0.014018
[...]
 03779,0.00001664,-0.00991099,0.00085829,0.00246547,0.00161881,0.000391
 69,0.00110307,-0.00009200,-0.00022085,-0.00013961,0.00011938,0.0000113
 5,0.00017566,0.00000503,0.00001932,-0.00005288,-0.00002478,0.00001275,
 0.00001190,0.00005000,-0.00004136,0.00001933,-0.00007130,0.00004395,-0
 .00003000,-0.00000757,0.00000731,-0.00000945,0.00001256,-0.00001396,0.
 00001054,-0.00000217,0.00000139,-0.00000134,-0.00000721,0.00000271,-0.
 00001087,0.00003684,0.00002060,0.00005169,-0.00001238,-0.00000605,-0.0
 0000255,-0.00001318,-0.00000631,-0.00001265,0.00001115,-0.00001342,0.0
 0002580,-0.00001247,0.00001788,-0.00001855,0.00000214,-0.00000390,0.00
 000768,0.00077687,-0.00001049,-0.00017556,-0.00000160,0.00000027,-0.00
 000154,0.00000359,0.00000003,0.00000245,0.00000438,0.00000150,-0.00000
 127,0.00000550,0.00000144,0.00000765,0.00000845,-0.00000065,-0.0000040
 7,0.00000573,-0.00000012,0.00000698,-0.00000016,0.00000050,0.00000439,
 0.00000506,-0.00000159,-0.00000292,0.00001315,-0.00002968,-0.00015195,
 0.00038558,0.00020728,0.00049893,0.00063008,0.00104690,0.00066513,0.36
 532659,-0.00825685,0.00115761,-0.00200429,0.02614165,-0.04546413,-0.00
 441960,0.03405787,-0.00330025,-0.01002570,-0.00260189,0.00319722,0.000
 74149,0.00033218,-0.00018814,0.00022880,0.00071980,0.00115357,0.001361
 41,-0.00049487,-0.00033647,-0.00030280,-0.00007098,-0.00002555,0.00010
 857,-0.00164421,0.00195700,-0.00053631,0.00031543,-0.00006681,0.000108
 85,-0.00001039,-0.00003487,-0.00000405,-0.02481919,0.00061291,0.007282
 96,0.00134513,0.00082248,-0.00106303,0.00033771,-0.00071873,-0.0000617
 6,-0.00001810,0.00014204,-0.00008843,-0.00003580,0.00000702,0.00000355
 ,0.00001100,-0.00001033,-0.00001502,0.00000672,-0.00000348,0.00000552,
 -0.00000882,0.00002054,-0.00002343,-0.00000849,0.00000015,0.00000299,0
 .00000109,0.00000578,-0.00000417,-0.00000064,-0.00000063,-0.00000053,-
 0.00000168,-0.00001506,0.00001965,-0.00003792,-0.00002434,-0.00008660,
 0.00001220,0.00000858,0.00000111,0.00000431,-0.00000862,0.00001094,-0.
 00000280,0.00001289,-0.00001934,0.00000524,-0.00001353,0.00001395,0.00
 000202,0.00000254,-0.00000753,-0.00039711,0.00136187,0.00042304,0.0000
 0047,0.00000045,0.00000151,-0.00000106,0.00000127,-0.00000053,0.000000
 75,-0.00000022,-0.00000104,0.00000044,0.00000142,-0.00000113,0.0000011
 9,-0.00000701,0.00000560,-0.00000217,0.00000214,-0.00000259,0.00000092
 ,0.00000241,-0.00000810,-0.00000228,0.00000155,0.00000427,-0.00014133,
 -0.00011588,-0.00001735,-0.00055191,-0.00010557,-0.00047985,0.00173434
 ,-0.00550588,-0.00228575,-0.02572111,0.04809388,-0.04001106,-0.0006932
 5,-0.00896989,0.07193374,-0.00516643,-0.05853133,0.01322137,0.00014538
 ,-0.00216719,-0.00130245,-0.00025147,0.00127307,-0.00021709,-0.0003631
 7,-0.00008755,0.00071614,0.00049530,0.00062469,-0.00032776,-0.00011578
 ,-0.00008535,0.00000194,0.00003932,0.00005626,0.00010326,-0.00170322,0
 .00064686,-0.00010108,0.00006054,0.00009446,-0.00000458,-0.00002359,0.
 00004920,0.02530312,-0.00089657,-0.00495674,-0.00149127,-0.00060059,0.
 00185346,0.00039832,-0.00020667,-0.00004366,-0.00013035,0.00002923,-0.
 00024304,-0.00000908,-0.00004630,0.00006418,0.00002390,-0.00001124,-0.
 00000277,-0.00005005,0.00002538,-0.00001273,0.00006446,-0.00002434,0.0
 0000939,0.00000762,-0.00001059,0.00001628,-0.00001400,0.00001826,-0.00
 001773,0.00000218,-0.00000170,0.00000266,0.00000864,0.00000364,0.00000
 697,-0.00002564,-0.00002364,-0.00003964,0.00000855,0.00000719,0.000003
 29,0.00001021,0.00001701,0.00002187,-0.00000784,0.00001465,-0.00004246
 ,0.00000854,-0.00002045,0.00003441,0.00000357,0.00000389,-0.00002029,-
 0.00237740,0.00067813,0.00388268,0.00000106,0.00000051,0.00000441,-0.0
 0000335,-0.00000012,-0.00000366,-0.00000500,-0.00000132,0.00000259,-0.
 00000754,-0.00000278,-0.00001013,-0.00001129,0.00000207,0.00001009,-0.
 00000563,-0.00000141,-0.00000828,-0.00000149,-0.00000338,-0.00000475,-
 0.00000519,0.00000308,0.00000440,-0.00018053,0.00006539,0.00011196,-0.
 00031787,-0.00006103,-0.00020618,0.00037253,-0.00251981,-0.00066473,-0
 .06569362,0.00808120,0.07057728,0.00179483,0.00014856,0.00037102,-0.01
 408335,-0.00014625,0.00375402,-0.00075288,0.00153382,-0.00003258,0.000
 76628,0.00024907,-0.00022700,-0.00013479,0.00002652,0.00008166,0.00010
 941,-0.00001709,-0.00019465,0.00011703,-0.00026944,0.00002752,-0.00000
 219,0.00004346,-0.00000458,-0.01032877,0.00239908,0.00233438,0.0015661
 7,0.00030176,0.00072159,-0.00001245,-0.00000965,0.00013883,-0.34038158
 ,0.01908987,0.04441074,-0.01667576,-0.00357272,-0.01465023,-0.00015970
 ,0.00272810,0.00121180,0.00065634,-0.00020483,-0.00032158,-0.00020031,
 -0.00005435,0.00012831,0.00001372,0.00017903,0.00012012,0.00013357,0.0
 0000510,-0.00039575,-0.00007127,-0.00021485,0.00071580,-0.00005573,-0.
 00005179,0.00000912,0.00001957,0.00001787,-0.00002486,-0.00000589,-0.0
 0000551,-0.00000242,-0.00002999,0.00001365,0.00000437,0.00001512,-0.00
 002248,-0.00000780,-0.00000683,0.00000271,-0.00000691,0.00002509,0.000
 01589,0.00003011,0.00002537,0.00000117,-0.00006392,-0.00001376,0.00001
 287,0.00003988,0.00002854,-0.00000312,-0.00005475,0.00030483,0.0001391
 9,-0.00019827,0.00000009,0.00000097,0.00000829,0.00000369,0.00000158,0
 .00000034,0.00001030,0.00000581,-0.00000637,0.00000049,-0.00001800,0.0
 0000143,0.00003861,-0.00000766,-0.00003064,0.00000846,0.00000314,0.000
 00929,0.00000177,-0.00001022,-0.00000209,0.00000775,-0.00000068,0.0000
 0394,0.00036560,-0.00155870,-0.00082091,0.00009245,0.00014319,0.000147
 96,0.00131298,-0.00044880,-0.00039167,0.00037027,-0.00141154,0.0010789
 9,0.37386779,0.00113049,0.00041019,-0.00161111,-0.02467600,-0.00068162
 ,0.00701745,-0.00207836,0.00102133,0.00067531,0.00067213,-0.00004933,-
 0.00031677,-0.00005818,0.00005063,0.00000019,-0.00008115,-0.00031478,0
 .00003452,0.00014264,-0.00004134,-0.00000907,-0.00001135,-0.00001608,-
 0.00002984,0.03742327,-0.00635819,-0.00528382,-0.00250577,0.00253630,0
 .00071239,0.00007181,0.00016131,0.00011699,0.02189880,-0.04556423,-0.0
 0045676,-0.01028692,0.00131269,-0.00539867,-0.00320915,0.00128854,0.00
 005740,0.00038214,-0.00016865,0.00005795,0.00005452,0.00002239,-0.0000
 6400,-0.00000508,0.00006744,0.00005520,-0.00006225,-0.00001664,-0.0000
 7912,0.00005204,-0.00006403,0.00013925,0.00002084,-0.00000610,-0.00000
 213,-0.00001209,-0.00000608,-0.00000475,0.00000433,0.00000163,0.000003
 47,-0.00000310,0.00000548,-0.00001480,0.00000594,0.00000154,0.00002136
 ,-0.00000314,-0.00000267,-0.00000129,0.00000493,-0.00000130,-0.0000113
 8,-0.00000390,-0.00001987,0.00002676,-0.00000534,0.00002965,-0.0000123
 2,-0.00000197,-0.00000744,0.00000094,0.00008644,0.00011631,-0.00036016
 ,0.00000040,0.00000042,0.00000038,-0.00000034,-0.00000408,-0.00000131,
 -0.00000641,0.00000124,0.00000531,-0.00000557,-0.00001917,-0.00001037,
 0.00000108,0.00001914,-0.00002353,-0.00000042,0.00000028,0.00000290,0.
 00000265,-0.00000056,0.00000322,0.00000294,-0.00000304,-0.00000265,0.0
 0049350,0.00024040,0.00002890,0.00012310,0.00008038,-0.00001188,0.0004
 9132,-0.00060352,0.00013857,-0.00077771,-0.00260463,0.00278923,-0.0206
 2320,0.05409061,-0.00101271,-0.00067568,0.00213259,0.02731205,0.001663
 25,-0.00409839,0.00096529,-0.00164594,0.00007659,-0.00068224,0.0001834
 3,0.00008933,0.00015234,-0.00003342,-0.00001059,0.00022727,-0.00014062
 ,-0.00049626,0.00006002,-0.00027612,0.00027150,-0.00001798,0.00008632,
 -0.00001165,0.00798359,-0.00032007,0.00078732,-0.00063865,0.00069277,0
 .00035456,-0.00000104,0.00001947,-0.00003617,0.04850279,-0.00217794,-0
 .04572218,-0.04363342,-0.00467469,-0.01437124,-0.00377801,0.00366518,0
 .00219928,0.00065777,-0.00030251,-0.00050714,-0.00012768,-0.00008261,0
 .00018617,0.00002088,0.00012754,0.00006769,0.00017331,0.00006244,-0.00
 032975,-0.00019019,-0.00034385,0.00083172,-0.00004027,-0.00005548,0.00
 001642,0.00000505,0.00002998,-0.00002992,-0.00000228,-0.00000594,-0.00
 000124,-0.00000650,0.00002369,-0.00000218,-0.00000078,-0.00002981,0.00
 001072,0.00000293,0.00000405,-0.00000626,0.00002360,0.00002038,0.00002
 850,0.00000996,0.00000826,-0.00007059,0.00000065,-0.00000006,0.0000426
 1,0.00001990,0.00000026,-0.00004929,-0.00000505,-0.00019125,0.00052795
 ,0.00000179,-0.00000012,0.00000765,-0.00000056,0.00000182,-0.00000088,
 0.00000558,0.00000393,-0.00000681,0.00000025,-0.00001163,0.00000215,0.
 00002988,-0.00000387,-0.00005739,0.00000296,0.00000342,0.00000448,-0.0
 0000003,-0.00001022,-0.00000087,0.00000102,-0.00000040,0.00000390,0.00
 107753,-0.00011852,-0.00003745,-0.00000276,0.00001162,-0.00011542,-0.0
 0058518,0.00034659,0.00034062,0.00087988,0.00331685,-0.00348634,-0.036
 90733,0.00271114,0.06087119,0.00004698,-0.00019295,0.00010703,-0.00022
 807,0.00128592,0.00110417,0.00060046,0.00016549,-0.00041365,-0.0000600
 3,0.00024304,0.00000241,-0.00000606,0.00001041,0.00001764,-0.00001854,
 0.00001106,0.00003007,-0.00000118,-0.00002481,-0.00003761,0.00000915,0
 .00001094,0.00002873,-0.06125246,-0.03590436,0.05920580,0.00172521,0.0
 0483311,-0.02613818,0.00224987,0.00160820,0.00000630,0.00263866,0.0097
 1204,-0.00936960,0.00022683,-0.00171988,-0.00058327,-0.00017943,0.0001
 4973,-0.00004946,-0.00007790,-0.00006049,-0.00020528,0.00001988,-0.000
 04263,0.00012664,-0.00001093,-0.00015126,-0.00013617,-0.00014462,0.000
 28384,0.00020422,0.00010210,-0.00035647,-0.00010832,0.00003959,0.00002
 215,0.00002138,-0.00001919,0.00002549,0.00000385,0.00000169,-0.0000001
 9,-0.00000110,-0.00000031,-0.00000511,0.00002934,-0.00000476,0.0000027
 0,-0.00002695,0.00000306,-0.00000103,0.00000171,-0.00000568,0.00002241
 ,-0.00000545,-0.00001030,0.00003428,-0.00003758,0.00001652,-0.00005836
 ,0.00000640,-0.00001484,0.00001544,0.00002197,-0.00011940,0.00005949,-
 0.00012171,0.00000080,-0.00000228,-0.00000417,-0.00000416,0.00000114,-
 0.00000192,-0.00000668,-0.00000175,0.00000071,0.00001128,0.00001983,0.
 00001527,-0.00000701,0.00000666,-0.00000499,-0.00000555,-0.00000425,-0
 .00000527,-0.00000099,0.00000513,-0.00000347,-0.00000258,0.00000331,-0
 .00000048,-0.00000756,0.00004204,0.00000991,0.00000317,0.00000336,0.00
 000670,-0.00000339,-0.00011339,-0.00005262,0.00038790,0.00034365,-0.00
 021173,0.00063135,-0.00065886,-0.00058141,0.05895725,0.00004117,0.0006
 0604,-0.00001525,0.00225098,-0.00566560,-0.00427178,-0.00088262,0.0002
 1914,0.00199700,0.00022078,-0.00135523,0.00009098,-0.00010682,0.000116
 44,-0.00016023,0.00001714,0.00022330,0.00054883,-0.00000298,0.00007938
 ,-0.00038878,0.00003804,-0.00003458,0.00012329,-0.03219765,-0.13484001
 ,0.14284240,-0.00263231,0.00431716,-0.02464791,0.00039461,0.00358816,-
 0.00200439,-0.00773103,-0.02204500,0.02806461,0.00012563,0.00300527,0.
 00053023,0.00021434,-0.00034004,-0.00018883,0.00002095,0.00011420,-0.0
 0018388,-0.00005245,-0.00003114,0.00008762,0.00003509,-0.00028108,-0.0
 0024861,0.00009923,0.00035469,0.00038048,-0.00024878,-0.00040636,-0.00
 027329,-0.00001613,0.00006065,-0.00001626,0.00001871,-0.00000348,0.000
 04259,-0.00000607,0.00000339,-0.00000993,-0.00002466,-0.00004812,0.000
 07678,-0.00000845,0.00002610,-0.00011316,0.00000278,-0.00000589,0.0000
 1301,-0.00000154,-0.00001458,-0.00002835,-0.00000138,0.00005890,-0.000
 02411,0.00002753,-0.00008785,-0.00002735,-0.00002363,0.00002284,0.0000
 5953,0.00002744,-0.00013901,-0.00010486,-0.00000058,-0.00000273,-0.000
 01284,-0.00000060,0.00000753,0.00000465,0.00001123,-0.00000522,-0.0000
 1201,0.00003320,0.00006552,0.00005467,0.00001667,-0.00001428,-0.000011
 03,-0.00000168,0.00000034,0.00000203,0.00000247,0.00001759,-0.00001022
 ,0.00000258,0.00000372,-0.00000225,-0.00003975,0.00002555,0.00002197,-
 0.00000882,-0.00002315,-0.00004529,0.00012372,0.00000888,-0.00004982,0
 .00004634,0.00026928,-0.00020703,0.00021456,0.00142180,-0.00001611,0.0
 3882065,0.14816293,0.00007733,0.00034988,0.00007987,-0.00044599,-0.001
 36686,-0.00021697,-0.00003845,-0.00016079,0.00019905,0.00003348,-0.000
 12893,0.00006821,-0.00000203,-0.00004227,-0.00001981,0.00003378,-0.000
 03539,-0.00011208,0.00000163,-0.00003997,0.00006123,-0.00000032,0.0000
 1520,-0.00000962,0.05429728,0.13765481,-0.24722531,-0.00497154,0.00132
 235,-0.03653027,-0.00035134,0.00056939,0.00083955,0.00026744,-0.002234
 96,0.00312105,0.00029349,-0.00103792,0.00102844,-0.00014057,-0.0000461
 3,0.00037520,-0.00001019,0.00001787,0.00000569,0.00000651,0.00002165,-
 0.00000093,0.00001500,0.00002603,-0.00000808,0.00001092,-0.00009555,-0
 .00001433,-0.00005738,0.00005591,-0.00002452,-0.00000041,0.00000098,-0
 .00000867,-0.00000142,-0.00001620,-0.00000559,0.00000261,0.00000426,0.
 00000500,0.00000332,0.00000919,-0.00000953,-0.00000146,-0.00001014,0.0
 0001222,-0.00000001,0.00000305,-0.00000216,0.00000012,0.00000617,0.000
 00021,0.00000034,-0.00001945,0.00000689,-0.00000630,0.00002062,0.00000
 548,0.00000484,-0.00000832,-0.00001138,-0.00002634,-0.00019364,0.00002
 750,-0.00000044,0.00000279,0.00000406,0.00000019,-0.00000113,-0.000000
 76,-0.00000194,0.00000081,0.00000209,-0.00000487,0.00000259,0.00000072
 ,-0.00000223,0.00000174,0.00000079,-0.00000015,-0.00000040,-0.00000043
 ,-0.00000084,-0.00000261,0.00000046,-0.00000040,-0.00000010,0.00000101
 ,-0.00000032,0.00000311,-0.00001045,-0.00001076,-0.00000534,0.00000756
 ,0.00000353,0.00001076,0.00000167,-0.00003953,-0.00010674,0.00001040,-
 0.00035432,0.00032773,0.00042313,-0.05082621,-0.13963263,0.28161700,0.
 00034420,-0.00004530,-0.00000245,0.00051994,-0.00117699,0.00032354,0.0
 0047361,0.00000453,-0.00006444,0.00006305,0.00011916,-0.00001721,-0.00
 004387,-0.00000174,0.00001696,-0.00010946,-0.00002312,0.00004731,0.000
 04821,0.00003189,-0.00002533,-0.00001723,-0.00001813,-0.00000483,-0.33
 469934,0.02106138,0.06493505,-0.01696200,-0.01224724,-0.01312934,-0.00
 193699,0.00100010,-0.00084458,-0.01351450,0.00229098,0.00397451,0.0010
 9360,0.00067883,0.00110912,0.00034237,-0.00013003,0.00006139,0.0001098
 5,0.00015995,0.00022306,-0.00001128,0.00003992,-0.00007474,-0.00000896
 ,0.00005225,0.00003700,0.00014748,-0.00010703,-0.00001623,-0.00020280,
 0.00014096,0.00000272,-0.00002619,-0.00000476,-0.00001523,0.00002380,-
 0.00001302,0.00000673,-0.00000428,-0.00000131,-0.00000216,-0.00001098,
 -0.00000730,-0.00000352,0.00001621,0.00000904,0.00000219,-0.00000692,-
 0.00000090,-0.00000011,-0.00001524,-0.00002184,-0.00000218,0.00001495,
 -0.00001084,0.00002551,-0.00001748,0.00002315,-0.00000858,0.00001061,-
 0.00000479,-0.00000659,-0.00019818,0.00014026,-0.00017242,-0.00000248,
 0.00000043,0.00000122,0.00000509,0.00000118,0.00000308,0.00000897,0.00
 000080,-0.00000259,0.00000431,0.00000692,0.00001327,0.00001147,-0.0000
 0677,0.00000014,0.00000744,0.00000242,0.00000730,0.00000076,0.00000061
 ,0.00000066,0.00000550,-0.00000147,-0.00000054,0.00001458,-0.00019118,
 -0.00012751,0.00003644,0.00003504,0.00000762,0.00011428,-0.00030033,-0
 .00008196,0.00054949,0.00086700,-0.00075525,0.00062777,0.00201096,0.00
 009780,-0.00548014,0.00118208,0.00224396,0.36867436,-0.00019656,0.0002
 4706,0.00046294,0.00167322,0.00278523,-0.00141155,0.00023737,-0.000061
 30,-0.00030209,-0.00024190,-0.00005117,0.00019722,0.00003675,-0.000048
 32,-0.00002524,0.00003998,0.00009248,-0.00001919,-0.00004261,-0.000011
 48,0.00003490,0.00000742,0.00002278,0.00001050,0.01960260,-0.04379851,
 0.00255766,-0.02174841,-0.00312469,-0.00918366,-0.00194495,-0.00002247
 ,-0.00022213,0.03790828,-0.00916647,-0.00787138,-0.00119581,0.00202508
 ,0.00122819,0.00012516,0.00004717,0.00010743,-0.00015735,-0.00009655,-
 0.00016990,-0.00002481,-0.00003278,0.00008319,0.00002622,-0.00001236,-
 0.00001225,0.00002209,0.00003596,-0.00001567,-0.00001096,-0.00003964,0
 .00003713,-0.00001185,-0.00000853,0.00000633,0.00000271,0.00001204,-0.
 00000772,-0.00000226,-0.00000235,-0.00000123,0.00000379,0.00000670,0.0
 0000210,-0.00000649,-0.00001136,-0.00000507,0.00000343,0.00000344,-0.0
 0000073,0.00000171,0.00001298,0.00001689,0.00000061,0.00000997,-0.0000
 3324,0.00000398,-0.00001631,0.00002306,0.00000590,0.00000354,-0.000015
 20,0.00003475,-0.00022364,0.00017703,-0.00000021,0.00000038,0.00000273
 ,-0.00000078,0.00000189,-0.00000098,0.00000199,-0.00000239,-0.00000131
 ,-0.00000149,0.00000902,0.00000248,0.00000056,-0.00000086,0.00000698,-
 0.00000099,-0.00000088,-0.00000384,-0.00000167,-0.00000335,-0.00000169
 ,-0.00000261,0.00000178,0.00000256,-0.00019886,0.00014592,0.00008602,-
 0.00003321,-0.00004152,-0.00002115,-0.00040676,0.00005011,0.00013901,-
 0.00089273,-0.00028450,0.00047649,0.00137389,-0.00632635,-0.00186552,-
 0.01844345,0.00256452,0.00475862,-0.01554572,0.05530970,0.00019934,-0.
 00001790,0.00013216,-0.00100977,0.00006845,0.00009508,-0.00005050,0.00
 010494,0.00007275,0.00001464,-0.00014558,0.00001128,-0.00001494,0.0000
 3500,-0.00002055,0.00003827,0.00003664,0.00008476,-0.00002582,-0.00001
 641,-0.00007552,0.00001827,0.00000532,0.00003389,0.06711611,0.00292698
 ,-0.05529285,-0.03758989,-0.01091425,-0.00442812,-0.00242544,0.0001977
 1,-0.00049804,0.00488129,-0.00017270,0.00191019,-0.00048874,0.00058935
 ,0.00086630,0.00013308,-0.00002765,0.00006710,-0.00008197,0.00002847,-
 0.00006560,0.00003159,-0.00001096,0.00002908,-0.00001068,-0.00002849,-
 0.00001164,-0.00016260,0.00005470,-0.00000139,0.00022847,-0.00008344,-
 0.00006484,0.00002648,0.00000121,0.00001761,-0.00002146,0.00001397,-0.
 00001188,0.00000318,-0.00000026,0.00000336,0.00000335,-0.00000363,0.00
 000949,-0.00001288,-0.00000459,-0.00002464,0.00000422,0.00000261,0.000
 00346,0.00000152,0.00000436,0.00001000,-0.00001005,0.00001362,-0.00001
 909,0.00000727,-0.00001688,0.00001645,-0.00000321,0.00000430,-0.000003
 86,-0.00010701,0.00009251,-0.00011263,0.00000119,-0.00000072,0.0000011
 1,-0.00000341,-0.00000146,-0.00000332,-0.00000923,0.00000089,0.0000045
 1,-0.00000439,-0.00001526,-0.00001945,-0.00001342,0.00000589,0.0000035
 6,-0.00000458,-0.00000210,-0.00000641,-0.00000049,-0.00000016,-0.00000
 297,-0.00000242,0.00000239,0.00000102,-0.00010943,0.00005474,0.0000022
 4,-0.00001379,-0.00002108,-0.00000392,-0.00000133,0.00008014,-0.000015
 07,-0.00007395,-0.00015662,0.00024359,-0.00065091,-0.00122085,0.000171
 94,0.02797635,-0.00223448,-0.00369357,-0.05778233,0.01077126,0.0605844
 3\\-0.00047260,-0.00507070,-0.00763140,-0.00214739,-0.00944181,0.00023
 787,0.01819743,-0.02087857,0.01966783,-0.00917193,0.00769111,0.0201756
 7,-0.00840048,-0.00018626,-0.03332465,0.03413451,-0.00863442,0.0073860
 9,-0.01537126,0.00693472,-0.00737866,0.00509383,-0.00724805,0.02136440
 ,-0.00955437,0.02257508,-0.00523767,0.01457776,0.01046179,0.00026700,-
 0.00761389,-0.03588227,0.00200083,0.01655402,0.00728069,0.01128218,-0.
 00225956,-0.00054016,0.00572388,-0.05559968,0.00313042,-0.00761961,0.0
 1517665,0.01609966,-0.00074724,-0.01028898,0.00109404,-0.00322601,-0.0
 0901142,0.04803909,0.01425838,-0.00163609,-0.02840613,0.02300918,0.004
 31389,0.02594574,-0.01525875,-0.00675662,-0.00965170,-0.01754634,0.006
 78482,0.00278742,-0.01320381,-0.00787958,-0.00801966,0.03062582,0.0247
 3873,-0.01584917,-0.01874668,-0.00662598,-0.01166485,-0.00498467,-0.00
 926293,0.03244108,0.00342267,-0.00838215,0.02148126,0.01777030,0.02250
 418,-0.02727947,-0.02257403,0.00947557,0.00115887,0.00754458,0.0006025
 7,-0.01120361,0.02255915,-0.00053522,0.00304465,-0.00054492,-0.0027431
 8,-0.00631352,-0.00088068,-0.01916580,-0.00405972,-0.00607486,0.018250
 98,0.00432491,0.00342035,-0.02254977,-0.00509398,-0.00414938,0.0185620
 7,-0.00123573,0.00266632,-0.02098843,-0.00061762,-0.00362904,-0.000440
 37,-0.00864803,-0.01791882,0.02153194,0.00065614,0.00094540,0.01770572
 ,0.00145495,-0.00276035,-0.01787172,-0.00026828,-0.00267524,0.02411237
 ,0.00222322,-0.00513689,-0.01932755,0.00308294,0.00426980,0.02277808,-
 0.00207648,-0.00010682,0.00069757,0.00515297,-0.01860758,-0.02173574,0
 .00120944,0.00136640\\\@


 YOU ARE IN A MAZE OF TWISTY LITTLE PASSAGES.
 Job cpu time:  3 days 22 hours 31 minutes 24.8 seconds.
 File lengths (MBytes):  RWF=   2351 Int=      0 D2E=      0 Chk=     43 Scr=      1
 Normal termination of Gaussian 09 at Fri Feb 12 12:28:08 2016.
Gaussian '09 finished on node020 at Fri Feb 12 12:28:08 EST 2016.
