Gaussian '09 started on node014 at Mon Feb  8 13:54:04 EST 2016.
 Entering Gaussian System, Link 0=/usr/local/gaussian/g09/g09
 Initial command:
 /usr/local/gaussian/g09/l1.exe /home/srmcgrat/thesis/gaussian/cellobiose/310/9000/1/2dfp/gaussian1364/Gau-1444.inp -scrdir=/home/srmcgrat/thesis/gaussian/cellobiose/310/9000/1/2dfp/gaussian1364/
 Entering Link 1 = /usr/local/gaussian/g09/l1.exe PID=      1446.
  
 Copyright (c) 1988,1990,1992,1993,1995,1998,2003,2009,2010,
            Gaussian, Inc.  All Rights Reserved.
  
 This is part of the Gaussian(R) 09 program.  It is based on
 the Gaussian(R) 03 system (copyright 2003, Gaussian, Inc.),
 the Gaussian(R) 98 system (copyright 1998, Gaussian, Inc.),
 the Gaussian(R) 94 system (copyright 1995, Gaussian, Inc.),
 the Gaussian 92(TM) system (copyright 1992, Gaussian, Inc.),
 the Gaussian 90(TM) system (copyright 1990, Gaussian, Inc.),
 the Gaussian 88(TM) system (copyright 1988, Gaussian, Inc.),
 the Gaussian 86(TM) system (copyright 1986, Carnegie Mellon
 University), and the Gaussian 82(TM) system (copyright 1983,
 Carnegie Mellon University). Gaussian is a federally registered
 trademark of Gaussian, Inc.
  
 This software contains proprietary and confidential information,
 including trade secrets, belonging to Gaussian, Inc.
  
 This software is provided under written license and may be
 used, copied, transmitted, or stored only in accord with that
 written license.
  
 The following legend is applicable only to US Government
 contracts under FAR:
  
                    RESTRICTED RIGHTS LEGEND
  
 Use, reproduction and disclosure by the US Government is
 subject to restrictions as set forth in subparagraphs (a)
 and (c) of the Commercial Computer Software - Restricted
 Rights clause in FAR 52.227-19.
  
 Gaussian, Inc.
 340 Quinnipiac St., Bldg. 40, Wallingford CT 06492
  
  
 ---------------------------------------------------------------
 Warning -- This program may not be used in any manner that
 competes with the business of Gaussian, Inc. or will provide
 assistance to any competitor of Gaussian, Inc.  The licensee
 of this program is prohibited from giving any competitor of
 Gaussian, Inc. access to this program.  By using this program,
 the user acknowledges that Gaussian, Inc. is engaged in the
 business of creating and licensing software in the field of
 computational chemistry and represents and warrants to the
 licensee that it is not a competitor of Gaussian, Inc. and that
 it will not use this program in any manner prohibited above.
 ---------------------------------------------------------------
  

 Cite this work as:
 Gaussian 09, Revision B.01,
 M. J. Frisch, G. W. Trucks, H. B. Schlegel, G. E. Scuseria, 
 M. A. Robb, J. R. Cheeseman, G. Scalmani, V. Barone, B. Mennucci, 
 G. A. Petersson, H. Nakatsuji, M. Caricato, X. Li, H. P. Hratchian, 
 A. F. Izmaylov, J. Bloino, G. Zheng, J. L. Sonnenberg, M. Hada, 
 M. Ehara, K. Toyota, R. Fukuda, J. Hasegawa, M. Ishida, T. Nakajima, 
 Y. Honda, O. Kitao, H. Nakai, T. Vreven, J. A. Montgomery, Jr., 
 J. E. Peralta, F. Ogliaro, M. Bearpark, J. J. Heyd, E. Brothers, 
 K. N. Kudin, V. N. Staroverov, T. Keith, R. Kobayashi, J. Normand, 
 K. Raghavachari, A. Rendell, J. C. Burant, S. S. Iyengar, J. Tomasi, 
 M. Cossi, N. Rega, J. M. Millam, M. Klene, J. E. Knox, J. B. Cross, 
 V. Bakken, C. Adamo, J. Jaramillo, R. Gomperts, R. E. Stratmann, 
 O. Yazyev, A. J. Austin, R. Cammi, C. Pomelli, J. W. Ochterski, 
 R. L. Martin, K. Morokuma, V. G. Zakrzewski, G. A. Voth, 
 P. Salvador, J. J. Dannenberg, S. Dapprich, A. D. Daniels, 
 O. Farkas, J. B. Foresman, J. V. Ortiz, J. Cioslowski, 
 and D. J. Fox, Gaussian, Inc., Wallingford CT, 2010.
 
 ******************************************
 Gaussian 09:  EM64L-G09RevB.01 12-Aug-2010
                 8-Feb-2016 
 ******************************************
 --------------------------------------------------
 # freq=raman b3lyp/6-31+g(2df,p) geom=connectivity
 --------------------------------------------------
 1/10=4,30=1,38=1,57=2/1,3;
 2/12=2,17=6,18=5,40=1/2;
 3/5=1,6=6,7=114,11=2,16=1,25=1,30=1,71=2,74=-5/1,2,3;
 4//1;
 5/5=2,38=5,98=1/2;
 8/6=4,10=90,11=11/1;
 10/13=10,15=4/2;
 11/6=3,8=1,9=11,15=111,16=1/1,2,10;
 10/6=1/2;
 6/7=2,8=2,9=2,10=2,18=1,28=1/1;
 7/8=1,10=1,25=1/1,2,3,16;
 1/10=4,30=1/3;
 99//99;
 ------------
 310 9000.com
 ------------
 Symbolic Z-matrix:
 Charge =  0 Multiplicity = 1
 O                     7.209     7.584     12.058 
 C                     7.741     8.01      13.321 
 C                     7.222     9.333     13.859 
 O                     7.56      10.369    12.925 
 H                     7.339     10.013    12.018 
 C                     7.726     9.64      15.26 
 O                     7.113     10.784    15.872 
 H                     7.539     10.782    16.777 
 C                     7.939     5.432     14.067 
 O                     7.289     4.58      13.113 
 H                     7.621     3.647     13.251 
 C                     7.569     6.883     14.327 
 O                     8.063     7.257     15.621 
 C                     7.494     8.45      16.178 
 O                     8.285     8.695     17.35 
 C                     7.771     8.197     18.594 
 C                     8.415     6.884     19.009 
 O                     8.162     5.85      18.047 
 H                     8.296     6.415     17.233 
 C                     8.17      6.445     20.444 
 O                     9.006     5.435     21.026 
 H                     8.636     5.208     21.927 
 C                     7.555     10.523    19.478 
 O                     7.839     11.282    18.294 
 H                     7.704     12.267    18.407 
 C                     8.241     9.178     19.656 
 O                     7.833     8.778     20.973 
 C                     8.421     7.558     21.448 
 O                     7.668     7.386     22.657 
 H                     7.93099   7.38178   11.45847 
 H                     8.27045   7.28073   23.39698 
 H                     9.46448   7.6807    21.65045 
 H                     7.15048   6.13193   20.53037 
 H                     9.46831   7.06392   18.95357 
 H                     6.70369   8.12298   18.57743 
 H                     9.3039    9.29373   19.6142 
 H                     7.81214   11.13057   20.3204 
 H                     6.49896   10.35317   19.50706 
 H                     6.45867   8.3247    16.41737 
 H                     8.77962   9.8175    15.20266 
 H                     6.15481   9.2702    13.90442 
 H                     8.79415   8.13516   13.17921 
 H                     6.50785   6.84094   14.45772 
 H                     7.86057   4.9333    15.01042 
 H                     8.97598   5.43403   13.80325 
 

 GradGradGradGradGradGradGradGradGradGradGradGradGradGradGradGradGradGrad
 Berny optimization.
 Initialization pass.
 Trust Radius=3.00D-01 FncErr=1.00D-07 GrdErr=1.00D-07
 Number of steps in this run=      2 maximum allowed number of steps=      2.
 GradGradGradGradGradGradGradGradGradGradGradGradGradGradGradGradGradGrad

                          Input orientation:                          
 ---------------------------------------------------------------------
 Center     Atomic      Atomic             Coordinates (Angstroms)
 Number     Number       Type             X           Y           Z
 ---------------------------------------------------------------------
      1          8           0        7.209000    7.584000   12.058000
      2          6           0        7.741000    8.010000   13.321000
      3          6           0        7.222000    9.333000   13.859000
      4          8           0        7.560000   10.369000   12.925000
      5          1           0        7.339000   10.013000   12.018000
      6          6           0        7.726000    9.640000   15.260000
      7          8           0        7.113000   10.784000   15.872000
      8          1           0        7.539000   10.782000   16.777000
      9          6           0        7.939000    5.432000   14.067000
     10          8           0        7.289000    4.580000   13.113000
     11          1           0        7.621000    3.647000   13.251000
     12          6           0        7.569000    6.883000   14.327000
     13          8           0        8.063000    7.257000   15.621000
     14          6           0        7.494000    8.450000   16.178000
     15          8           0        8.285000    8.695000   17.350000
     16          6           0        7.771000    8.197000   18.594000
     17          6           0        8.415000    6.884000   19.009000
     18          8           0        8.162000    5.850000   18.047000
     19          1           0        8.296000    6.415000   17.233000
     20          6           0        8.170000    6.445000   20.444000
     21          8           0        9.006000    5.435000   21.026000
     22          1           0        8.636000    5.208000   21.927000
     23          6           0        7.555000   10.523000   19.478000
     24          8           0        7.839000   11.282000   18.294000
     25          1           0        7.704000   12.267000   18.407000
     26          6           0        8.241000    9.178000   19.656000
     27          8           0        7.833000    8.778000   20.973000
     28          6           0        8.421000    7.558000   21.448000
     29          8           0        7.668000    7.386000   22.657000
     30          1           0        7.930993    7.381784   11.458471
     31          1           0        8.270453    7.280726   23.396978
     32          1           0        9.464484    7.680704   21.650450
     33          1           0        7.150476    6.131934   20.530372
     34          1           0        9.468307    7.063919   18.953571
     35          1           0        6.703692    8.122983   18.577434
     36          1           0        9.303902    9.293727   19.614199
     37          1           0        7.812136   11.130571   20.320401
     38          1           0        6.498964   10.353166   19.507064
     39          1           0        6.458673    8.324704   16.417371
     40          1           0        8.779615    9.817502   15.202659
     41          1           0        6.154810    9.270205   13.904424
     42          1           0        8.794153    8.135158   13.179207
     43          1           0        6.507847    6.840945   14.457715
     44          1           0        7.860574    4.933299   15.010423
     45          1           0        8.975982    5.434033   13.803252
 ---------------------------------------------------------------------
                    Distance matrix (angstroms):
                    1          2          3          4          5
     1  O    0.000000
     2  C    1.435155   0.000000
     3  C    2.510532   1.519583   0.000000
     4  O    2.937876   2.398845   1.435234   0.000000
     5  H    2.432805   2.423102   1.966054   0.999113   0.000000
     6  C    3.840212   2.533149   1.520219   2.451779   3.286253
     7  O    4.979539   3.820610   2.483838   3.009459   3.936856
     8  H    5.710085   4.434944   3.273349   3.874134   4.824877
     9  C    3.033164   2.691060   3.971795   5.081513   5.054103
    10  O    3.184877   3.465901   4.811654   5.798388   5.542474
    11  H    4.134364   4.365211   5.732317   6.730177   6.490437
    12  C    2.401950   1.520444   2.518319   3.757377   3.896316
    13  O    3.678480   2.441453   2.849860   4.148008   4.593617
    14  C    4.219666   2.901217   2.496284   3.777423   4.446639
    15  O    5.513380   4.122863   3.704604   4.786285   5.573353
    16  C    6.588696   5.276400   4.900217   6.074510   6.835807
    17  C    7.089488   5.837422   5.826092   7.063378   7.734501
    18  O    6.307383   5.213244   5.527588   6.857015   7.372702
    19  H    5.415603   4.260962   4.588254   5.893613   6.407627
    20  C    8.517384   7.305504   7.252687   8.503249   9.187963
    21  O    9.395341   8.221793   8.351224   9.594867  10.241144
    22  H   10.250798   9.094804   9.171022  10.432147  11.088666
    23  C    7.988356   6.652700   5.753273   6.554811   7.480532
    24  O    7.277348   5.953681   4.883494   5.453217   6.422502
    25  H    7.904765   6.632557   5.433690   5.803056   6.784767
    26  C    7.831696   6.461149   5.887919   6.869396   7.736270
    27  O    9.016221   7.690994   7.161728   8.208295   9.053247
    28  C    9.467931   8.167915   7.885502   9.015796   9.804216
    29  O   10.610782   9.357115   9.021892  10.179478  10.963471
    30  H    0.960000   1.974783   3.173713   3.348403   2.754420
    31  H   11.392589  10.116200   9.812447  10.940956  11.739424
    32  H    9.854525   8.512260   8.274389   9.326707  10.136142
    33  H    8.596104   7.473346   7.399942   8.715625   9.357280
    34  H    7.274878   5.966952   6.012427   7.135044   7.831549
    35  H    6.561163   5.358999   4.898613   6.142302   6.855797
    36  H    8.025455   6.610217   6.120308   6.995912   7.879114
    37  H    9.011615   7.663852   6.732698   7.438785   8.390631
    38  H    7.978783   6.730562   5.784820   6.667054   7.543703
    39  H    4.485059   3.366143   2.853873   4.193892   4.793724
    40  H    4.164642   2.808278   2.113368   2.641844   3.500806
    41  H    2.713647   2.108197   1.070000   2.034989   2.347902
    42  H    2.018313   1.070000   2.090121   2.564723   2.644269
    43  H    2.608137   2.044377   2.660604   3.987908   4.087170
    44  H    4.020891   3.512056   4.592485   5.829767   5.918614
    45  H    3.284888   2.897128   4.275687   5.208669   5.180132
                    6          7          8          9         10
     6  C    0.000000
     7  O    1.434939   0.000000
     8  H    1.907989   1.000252   0.000000
     9  C    4.379028   5.708258   6.010541   0.000000
    10  O    5.513998   6.792104   7.207787   1.434754   0.000000
    11  H    6.321642   7.620005   7.959122   1.988267   0.999878
    12  C    2.914822   4.220517   4.604954   1.519836   2.618397
    13  O    2.433635   3.661315   3.746537   2.400191   3.749062
    14  C    1.520739   2.384608   2.408122   3.709807   4.940967
    15  O    2.360849   2.814603   2.289195   4.641656   5.989775
    16  C    3.633157   3.812456   3.168207   5.307276   6.584556
    17  C    4.703749   5.171651   4.576418   5.172837   6.429550
    18  O    4.724570   5.493212   5.130853   4.008098   5.169080
    19  H    3.823383   4.726518   4.455522   3.334261   4.621220
    20  C    6.105655   6.391193   5.714422   6.461088   7.615638
    21  O    7.250323   7.665440   6.985449   7.040325   8.142155
    22  H    8.057271   8.371041   7.667815   7.894022   8.938422
    23  C    4.312824   3.642351   2.713437   7.439399   8.712246
    24  O    3.451679   2.577046   1.625204   7.218035   8.488938
    25  H    4.099417   2.995796   2.211187   8.099880   9.342838
    26  C    4.450111   4.262661   3.369608   6.735031   8.053493
    27  O    5.778656   5.528348   4.659278   7.674620   8.927415
    28  C    6.565752   6.573410   5.743722   7.696191   8.923124
    29  O    7.733013   7.608591   6.791455   8.813606   9.955160
    30  H    4.426419   5.632356   6.324704   3.256708   3.316566
    31  H    8.489583   8.380807   7.524497   9.517150  10.677892
    32  H    6.906448   6.967812   6.089010   8.055587   9.339976
    33  H    6.357246   6.583582   5.988478   6.548806   7.579254
    34  H    4.828487   5.374249   4.720573   5.374059   6.710551
    35  H    3.788380   3.816794   3.318083   5.395497   6.538757
    36  H    4.644214   4.585304   3.657804   6.895455   8.279169
    37  H    5.276066   4.516323   3.570965   8.461372   9.753475
    38  H    4.477921   3.711650   2.952765   7.475685   8.650876
    39  H    2.162321   2.602636   2.708273   4.010405   5.062718
    40  H    1.070000   2.039545   2.224395   4.607492   5.832669
    41  H    2.107836   2.661026   3.528909   4.235750   4.889863
    42  H    2.781222   4.134461   4.639536   2.970947   3.861220
    43  H    3.156306   4.232505   4.687672   2.045967   2.744145
    44  H    4.715234   5.960863   6.118130   1.070000   2.012891
    45  H    4.623281   6.030967   6.285606   1.070000   2.012891
                   11         12         13         14         15
    11  H    0.000000
    12  C    3.410598   0.000000
    13  O    4.341010   1.434694   0.000000
    14  C    5.626035   2.426379   1.434315   0.000000
    15  O    6.536436   3.596461   2.259772   1.435023   0.000000
    16  C    7.019448   4.469305   3.131708   2.444953   1.435178
    17  C    6.653057   4.757819   3.426598   3.363801   2.459452
    18  O    5.305422   3.906039   2.806230   3.270991   2.931717
    19  H    4.896302   3.031895   1.833520   2.428467   2.283027
    20  C    7.737535   6.162040   4.892047   4.761907   3.827344
    21  O    8.097271   7.002733   5.781259   5.905885   4.965926
    22  H    8.873552   7.855197   6.655251   6.698188   5.764659
    23  C    9.276813   6.307345   5.079495   3.897570   2.898770
    24  O    9.152737   5.929687   4.836913   3.552000   2.789735
    25  H   10.044681   6.756632   5.743760   4.425159   3.770145
    26  C    8.485304   5.840963   4.472488   3.631044   2.356451
    27  O    9.273693   6.915926   5.568684   4.818146   3.652030
    28  C    9.117386   7.203483   5.845742   5.424748   4.254982
    29  O   10.122014   8.345760   7.048260   6.568091   5.500765
    30  H    4.154259   2.933988   4.166491   4.858601   6.046484
    31  H   10.796603   9.105753   7.778781   7.354164   6.210180
    32  H    9.498419   7.606715   6.204671   5.867055   4.573166
    33  H    7.706202   6.262674   5.118634   4.943135   4.239248
    34  H    6.899797   5.004524   3.621905   3.677350   2.575282
    35  H    7.017604   4.511375   3.367216   2.547314   2.081906
    36  H    8.672254   6.064319   4.651207   3.974303   2.554062
    37  H   10.296446   7.349954   6.095232   4.944305   3.870257
    38  H    9.239587   6.326143   5.209025   3.961667   3.254591
    39  H    5.766960   2.771460   2.085201   1.070000   2.083839
    40  H    6.574683   3.292972   2.691601   2.115221   2.473000
    41  H    5.847829   2.806644   3.262026   2.763207   4.091523
    42  H    4.639505   2.094356   2.695941   3.283638   4.238888
    43  H    3.591177   1.070000   1.986160   2.553612   3.867958
    44  H    2.192608   2.086484   2.411093   3.723547   4.450186
    45  H    2.309642   2.086484   2.731475   4.114822   4.867318
                   16         17         18         19         20
    16  C    0.000000
    17  C    1.520174   0.000000
    18  O    2.441413   1.434785   0.000000
    19  H    2.302926   1.840733   0.999888   0.000000
    20  C    2.578993   1.520517   2.469757   3.213611   0.000000
    21  O    3.881816   2.552875   3.123940   3.981375   1.434476
    22  H    4.559741   3.372320   3.961217   4.858609   1.986609
    23  C    2.497677   3.768538   4.924748   4.739701   4.235737
    24  O    3.100298   4.492817   5.447198   5.002225   5.303643
    25  H    4.074845   5.463022   6.443388   5.997887   6.185645
    26  C    1.520232   2.389837   3.697392   3.675340   2.845219
    27  O    2.449703   2.789849   4.152457   4.448116   2.415843
    28  C    2.996020   2.530422   3.814596   4.369016   1.519798
    29  O    4.144430   3.757382   4.884202   5.545899   2.456594
    30  H    7.183728   7.582384   6.768193   5.866267   9.037390
    31  H    4.915039   4.408247   5.539044   6.224529   3.070604
    32  H    3.532186   2.951849   4.246503   4.741437   2.158280
    33  H    2.898118   2.116412   2.696258   3.502144   1.070000
    34  H    2.072201   1.070000   2.000477   2.180771   2.071242
    35  H    1.070000   2.156363   2.752176   2.694467   2.906846
    36  H    2.143223   2.638787   3.952127   3.869501   3.176405
    37  H    3.404113   4.485151   5.759790   5.657100   4.700842
    38  H    2.664735   3.994292   5.017567   4.889770   4.352467
    39  H    2.544842   3.552377   3.417773   2.772722   4.761897
    40  H    3.891597   4.819400   4.920650   3.991640   6.262352
    41  H    5.075033   6.071172   5.734767   4.880195   7.403298
    42  H    5.510957   5.974583   5.414515   4.431742   7.484879
    43  H    4.532471   4.934904   4.074452   3.328832   6.225362
    44  H    4.847865   4.483441   3.186220   2.706452   5.648429
    45  H    5.660145   5.432948   4.341082   3.631507   6.765442
                   21         22         23         24         25
    21  O    0.000000
    22  H    1.000115   0.000000
    23  C    5.512663   5.951083   0.000000
    24  O    6.558439   7.122315   1.434780   0.000000
    25  H    7.431729   7.942827   2.052018   1.000609   0.000000
    26  C    4.058593   4.590683   1.520298   2.538398   3.374951
    27  O    3.543217   3.781511   2.314592   3.667028   4.332911
    28  C    2.242195   2.407938   3.663616   4.914735   5.651234
    29  O    2.873466   2.492711   4.467614   5.851822   6.472091
    30  H    9.822587  10.715058   8.620989   7.870490   8.496995
    31  H    3.093424   2.567227   5.136400   6.498979   7.076982
    32  H    2.375569   2.622428   4.055159   5.184331   5.886712
    33  H    2.043119   2.238527   4.533496   5.656731   6.515684
    34  H    2.676204   3.602562   3.987607   4.569670   5.521193
    35  H    4.303644   4.842575   2.701079   3.368776   4.266444
    36  H    4.119672   4.742184   2.142036   2.800374   3.585717
    37  H    5.861971   6.191668   1.070000   2.032229   2.228064
    38  H    5.725448   6.074187   1.070000   2.032229   2.514958
    39  H    6.006556   6.694072   3.924524   3.764657   4.588155
    40  H    7.291699   8.153827   4.502883   3.547662   4.174302
    41  H    8.576417   9.328426   5.881733   5.113922   5.626186
    42  H    8.301078   9.225896   6.849239   6.080792   6.752064
    43  H    7.166576   7.936357   6.313265   6.017642   6.816869
    44  H    6.144174   6.965327   7.162219   7.147611   8.083590
    45  H    7.222811   8.134001   7.753679   7.460447   8.336778
                   26         27         28         29         30
    26  C    0.000000
    27  O    1.435602   0.000000
    28  C    2.422409   1.435190   0.000000
    29  O    3.541976   2.191060   1.434669   0.000000
    30  H    8.397737   9.616927  10.003092  11.201618   0.000000
    31  H    4.194691   2.882510   1.974351   0.960000  11.943760
    32  H    2.777884   2.079600   1.070000   2.080227  10.311032
    33  H    3.351461   2.768289   2.118947   2.522510   9.190796
    34  H    2.543428   3.112940   2.750118   4.130403   7.657734
    35  H    2.153992   2.728209   3.392418   4.256277   7.261906
    36  H    1.070000   2.067817   2.674900   3.946420   8.488599
    37  H    2.106629   2.441497   3.795452   4.416139   9.622959
    38  H    2.106629   2.531752   3.908248   4.482501   8.698257
    39  H    3.793879   4.779959   5.453970   6.424687   5.258091
    40  H    4.531150   5.939148   6.651184   7.919286   4.546628
    41  H    6.118931   7.281714   8.060571   9.080064   3.564217
    42  H    6.583490   7.879103   8.297306   9.573819   2.067257
    43  H    5.957164   6.925110   7.282747   8.298874   3.363527
    44  H    6.304252   7.094703   6.974635   8.032619   4.314672
    45  H    6.986569   7.993361   7.953705   9.160232   3.222380
                   31         32         33         34         35
    31  H    0.000000
    32  H    2.153150   0.000000
    33  H    3.285042   3.001315   0.000000
    34  H    4.607139   2.766513   2.954191   0.000000
    35  H    5.137329   4.154637   2.824510   2.984325   0.000000
    36  H    4.407903   2.602681   3.933643   2.331416   3.034241
    37  H    4.949413   4.049798   5.046608   4.598781   3.648584
    38  H    5.263981   4.531055   4.392087   4.465702   2.424839
    39  H    7.286107   6.069163   4.712070   4.132770   2.183254
    40  H    8.593099   6.827076   6.679973   4.703813   4.309288
    41  H    9.926861   8.572128   7.398871   6.429684   4.842976
    42  H   10.266799   8.509867   7.794499   5.911456   5.788871
    43  H    9.121985   7.821913   6.147587   5.387648   4.319034
    44  H    8.718528   7.362793   5.693049   4.761593   4.923010
    45  H    9.795286   8.177083   7.005262   5.424454   5.931827
                   36         37         38         39         40
    36  H    0.000000
    37  H    2.469430   0.000000
    38  H    3.000261   1.729247   0.000000
    39  H    4.387942   4.993835   3.696280   0.000000
    40  H    4.473355   5.371355   4.900634   3.015086   0.000000
    41  H    6.520649   6.882765   5.716714   2.702075   2.979018
    42  H    6.558296   7.805991   7.087258   3.997011   2.631511
    43  H    6.357938   7.380592   6.150748   2.458497   3.817821
    44  H    6.503175   8.161151   7.172776   3.930198   4.973633
    45  H    6.983686   8.733745   7.928869   4.639660   4.605616
                   41         42         43         44         45
    41  H    0.000000
    42  H    2.963173   0.000000
    43  H    2.516360   2.921774   0.000000
    44  H    4.789740   3.804842   2.403012   0.000000
    45  H    4.762925   2.778231   2.915375   1.718177   0.000000
 Stoichiometry    C12H22O11
 Framework group  C1[X(C12H22O11)]
 Deg. of freedom   129
 Full point group                 C1      NOp   1
 Largest Abelian subgroup         C1      NOp   1
 Largest concise Abelian subgroup C1      NOp   1
                         Standard orientation:                         
 ---------------------------------------------------------------------
 Center     Atomic      Atomic             Coordinates (Angstroms)
 Number     Number       Type             X           Y           Z
 ---------------------------------------------------------------------
      1          8           0        5.078325    0.451707    0.232537
      2          6           0        3.777142    0.056712   -0.226341
      3          6           0        3.297107   -1.317343    0.210320
      4          8           0        4.206277   -2.302195   -0.302877
      5          1           0        5.126235   -1.953703   -0.128361
      6          6           0        1.859948   -1.598702   -0.197698
      7          8           0        1.312975   -2.804495    0.355413
      8          1           0        0.374248   -2.777484    0.011079
      9          6           0        2.996120    2.629573   -0.115900
     10          8           0        3.996392    3.432700    0.526722
     11          1           0        3.822477    4.390189    0.297103
     12          6           0        2.781027    1.146438    0.136979
     13          8           0        1.451865    0.799175   -0.276646
     14          6           0        0.956230   -0.450418    0.223474
     15          8           0       -0.278366   -0.639659   -0.483102
     16          6           0       -1.476674   -0.211780    0.180760
     17          6           0       -1.956803    1.148564   -0.298687
     18          8           0       -0.984681    2.169938   -0.033388
     19          1           0       -0.181001    1.633068   -0.289601
     20          6           0       -3.368392    1.539648    0.109285
     21          8           0       -4.029221    2.613511   -0.574706
     22          1           0       -4.896257    2.790533   -0.108723
     23          6           0       -2.319817   -2.561753    0.252359
     24          8           0       -1.159109   -3.271830   -0.202766
     25          1           0       -1.252012   -4.266813   -0.151797
     26          6           0       -2.567782   -1.161819   -0.286160
     27          8           0       -3.847281   -0.822819    0.269641
     28          6           0       -4.381545    0.438762   -0.157843
     29          8           0       -5.521513    0.520430    0.709381
     30          1           0        5.610886    0.729862   -0.516201
     31          1           0       -6.312088    0.669332    0.185530
     32          1           0       -4.673350    0.410410   -1.186894
     33          1           0       -3.367911    1.755079    1.157373
     34          1           0       -1.992121    1.068328   -1.365090
     35          1           0       -1.367568   -0.237113    1.244882
     36          1           0       -2.618027   -1.177477   -1.354865
     37          1           0       -3.176569   -3.156287    0.012768
     38          1           0       -2.257915   -2.491385    1.318247
     39          1           0        0.807182   -0.425858    1.282758
     40          1           0        1.826488   -1.676472   -1.264344
     41          1           0        3.344541   -1.354837    1.278611
     42          1           0        3.827430    0.032372   -1.294882
     43          1           0        2.743136    1.087481    1.204681
     44          1           0        2.059193    3.103521    0.090110
     45          1           0        3.168322    2.728272   -1.167330
 ---------------------------------------------------------------------
 Rotational constants (GHZ):      0.4055959      0.1452573      0.1095006
 Standard basis: 6-31+G(2df,p) (6D, 7F)
 There are   846 symmetry adapted basis functions of A   symmetry.
 Integral buffers will be    131072 words long.
 Raffenetti 2 integral format.
 Two-electron integral symmetry is turned on.
   846 basis functions,  1258 primitive gaussians,   915 cartesian basis functions
    91 alpha electrons       91 beta electrons
       nuclear repulsion energy      2285.7093435796 Hartrees.
 NAtoms=   45 NActive=   45 NUniq=   45 SFac= 1.00D+00 NAtFMM=   50 NAOKFM=F Big=F
 One-electron integrals computed using PRISM.
 NBasis=   846 RedAO= T  NBF=   846
 NBsUse=   846 1.00D-06 NBFU=   846
 Harris functional with IExCor=  402 diagonalized for initial guess.
 ExpMin= 4.38D-02 ExpMax= 5.48D+03 ExpMxC= 8.25D+02 IAcc=2 IRadAn=         0 AccDes= 0.00D+00
 HarFok:  IExCor=  402 AccDes= 0.00D+00 IRadAn=         0 IDoV= 1
 ScaDFX=  1.000000  1.000000  1.000000  1.000000
 FoFCou: FMM=F IPFlag=           0 FMFlag=      100000 FMFlg1=           0
         NFxFlg=           0 DoJE=T BraDBF=F KetDBF=T FulRan=T
         Omega=  0.000000  0.000000  1.000000  0.000000  0.000000 ICntrl=     500 IOpCl=  0
         NMat0=    1 NMatS0=    1 NMatT0=    0 NMatD0=    1 NMtDS0=    0 NMtDT0=    0
         I1Cent=           4 NGrid=           0.
 Petite list used in FoFCou.
 Initial guess orbital symmetries:
       Occupied  (A) (A) (A) (A) (A) (A) (A) (A) (A) (A) (A) (A)
                 (A) (A) (A) (A) (A) (A) (A) (A) (A) (A) (A) (A)
                 (A) (A) (A) (A) (A) (A) (A) (A) (A) (A) (A) (A)
                 (A) (A) (A) (A) (A) (A) (A) (A) (A) (A) (A) (A)
                 (A) (A) (A) (A) (A) (A) (A) (A) (A) (A) (A) (A)
                 (A) (A) (A) (A) (A) (A) (A) (A) (A) (A) (A) (A)
                 (A) (A) (A) (A) (A) (A) (A) (A) (A) (A) (A) (A)
                 (A) (A) (A) (A) (A) (A) (A)
       Virtual   (A) (A) (A) (A) (A) (A) (A) (A) (A) (A) (A) (A)
                 (A) (A) (A) (A) (A) (A) (A) (A) (A) (A) (A) (A)
                 (A) (A) (A) (A) (A) (A) (A) (A) (A) (A) (A) (A)
                 (A) (A) (A) (A) (A) (A) (A) (A) (A) (A) (A) (A)
                 (A) (A) (A) (A) (A) (A) (A) (A) (A) (A) (A) (A)
                 (A) (A) (A) (A) (A) (A) (A) (A) (A) (A) (A) (A)
                 (A) (A) (A) (A) (A) (A) (A) (A) (A) (A) (A) (A)
                 (A) (A) (A) (A) (A) (A) (A) (A) (A) (A) (A) (A)
                 (A) (A) (A) (A) (A) (A) (A) (A) (A) (A) (A) (A)
                 (A) (A) (A) (A) (A) (A) (A) (A) (A) (A) (A) (A)
                 (A) (A) (A) (A) (A) (A) (A) (A) (A) (A) (A) (A)
                 (A) (A) (A) (A) (A) (A) (A) (A) (A) (A) (A) (A)
                 (A) (A) (A) (A) (A) (A) (A) (A) (A) (A) (A) (A)
                 (A) (A) (A) (A) (A) (A) (A) (A) (A) (A) (A) (A)
                 (A) (A) (A) (A) (A) (A) (A) (A) (A) (A) (A) (A)
                 (A) (A) (A) (A) (A) (A) (A) (A) (A) (A) (A) (A)
                 (A) (A) (A) (A) (A) (A) (A) (A) (A) (A) (A) (A)
                 (A) (A) (A) (A) (A) (A) (A) (A) (A) (A) (A) (A)
                 (A) (A) (A) (A) (A) (A) (A) (A) (A) (A) (A) (A)
                 (A) (A) (A) (A) (A) (A) (A) (A) (A) (A) (A) (A)
                 (A) (A) (A) (A) (A) (A) (A) (A) (A) (A) (A) (A)
                 (A) (A) (A) (A) (A) (A) (A) (A) (A) (A) (A) (A)
                 (A) (A) (A) (A) (A) (A) (A) (A) (A) (A) (A) (A)
                 (A) (A) (A) (A) (A) (A) (A) (A) (A) (A) (A) (A)
                 (A) (A) (A) (A) (A) (A) (A) (A) (A) (A) (A) (A)
                 (A) (A) (A) (A) (A) (A) (A) (A) (A) (A) (A) (A)
                 (A) (A) (A) (A) (A) (A) (A) (A) (A) (A) (A) (A)
                 (A) (A) (A) (A) (A) (A) (A) (A) (A) (A) (A) (A)
                 (A) (A) (A) (A) (A) (A) (A) (A) (A) (A) (A) (A)
                 (A) (A) (A) (A) (A) (A) (A) (A) (A) (A) (A) (A)
                 (A) (A) (A) (A) (A) (A) (A) (A) (A) (A) (A) (A)
                 (A) (A) (A) (A) (A) (A) (A) (A) (A) (A) (A) (A)
                 (A) (A) (A) (A) (A) (A) (A) (A) (A) (A) (A) (A)
                 (A) (A) (A) (A) (A) (A) (A) (A) (A) (A) (A) (A)
                 (A) (A) (A) (A) (A) (A) (A) (A) (A) (A) (A) (A)
                 (A) (A) (A) (A) (A) (A) (A) (A) (A) (A) (A) (A)
                 (A) (A) (A) (A) (A) (A) (A) (A) (A) (A) (A) (A)
                 (A) (A) (A) (A) (A) (A) (A) (A) (A) (A) (A) (A)
                 (A) (A) (A) (A) (A) (A) (A) (A) (A) (A) (A) (A)
                 (A) (A) (A) (A) (A) (A) (A) (A) (A) (A) (A) (A)
                 (A) (A) (A) (A) (A) (A) (A) (A) (A) (A) (A) (A)
                 (A) (A) (A) (A) (A) (A) (A) (A) (A) (A) (A) (A)
                 (A) (A) (A) (A) (A) (A) (A) (A) (A) (A) (A) (A)
                 (A) (A) (A) (A) (A) (A) (A) (A) (A) (A) (A) (A)
                 (A) (A) (A) (A) (A) (A) (A) (A) (A) (A) (A) (A)
                 (A) (A) (A) (A) (A) (A) (A) (A) (A) (A) (A) (A)
                 (A) (A) (A) (A) (A) (A) (A) (A) (A) (A) (A) (A)
                 (A) (A) (A) (A) (A) (A) (A) (A) (A) (A) (A) (A)
                 (A) (A) (A) (A) (A) (A) (A) (A) (A) (A) (A) (A)
                 (A) (A) (A) (A) (A) (A) (A) (A) (A) (A) (A) (A)
                 (A) (A) (A) (A) (A) (A) (A) (A) (A) (A) (A) (A)
                 (A) (A) (A) (A) (A) (A) (A) (A) (A) (A) (A) (A)
                 (A) (A) (A) (A) (A) (A) (A) (A) (A) (A) (A) (A)
                 (A) (A) (A) (A) (A) (A) (A) (A) (A) (A) (A) (A)
                 (A) (A) (A) (A) (A) (A) (A) (A) (A) (A) (A) (A)
                 (A) (A) (A) (A) (A) (A) (A) (A) (A) (A) (A) (A)
                 (A) (A) (A) (A) (A) (A) (A) (A) (A) (A) (A) (A)
                 (A) (A) (A) (A) (A) (A) (A) (A) (A) (A) (A) (A)
                 (A) (A) (A) (A) (A) (A) (A) (A) (A) (A) (A) (A)
                 (A) (A) (A) (A) (A) (A) (A) (A) (A) (A) (A) (A)
                 (A) (A) (A) (A) (A) (A) (A) (A) (A) (A) (A) (A)
                 (A) (A) (A) (A) (A) (A) (A) (A) (A) (A) (A) (A)
                 (A) (A) (A) (A) (A) (A) (A) (A) (A) (A) (A)
 The electronic state of the initial guess is 1-A.
 Requested convergence on RMS density matrix=1.00D-08 within 128 cycles.
 Requested convergence on MAX density matrix=1.00D-06.
 Requested convergence on             energy=1.00D-06.
 No special actions if energy rises.
 SCF Done:  E(RB3LYP) =  -1297.99794298     A.U. after   13 cycles
             Convg  =    0.4007D-08             -V/T =  2.0065
 Range of M.O.s used for correlation:     1   846
 NBasis=   846 NAE=    91 NBE=    91 NFC=     0 NFV=     0
 NROrb=    846 NOA=    91 NOB=    91 NVA=   755 NVB=   755

 **** Warning!!: The largest alpha MO coefficient is  0.69910260D+02

          Differentiating once with respect to electric field.
                with respect to dipole field.
          Electric field/nuclear overlap derivatives assumed to be zero.
          There are     3 degrees of freedom in the 1st order CPHF.  IDoFFX=0.
      3 vectors produced by pass  0 Test12= 2.29D-12 3.33D-08 XBig12= 1.23D+02 1.29D+00.
 AX will form     3 AO Fock derivatives at one time.
      3 vectors produced by pass  1 Test12= 2.29D-12 3.33D-08 XBig12= 2.44D+01 4.15D-01.
      3 vectors produced by pass  2 Test12= 2.29D-12 3.33D-08 XBig12= 1.05D+01 2.49D-01.
      3 vectors produced by pass  3 Test12= 2.29D-12 3.33D-08 XBig12= 1.12D+00 1.15D-01.
      3 vectors produced by pass  4 Test12= 2.29D-12 3.33D-08 XBig12= 3.49D-01 4.63D-02.
      3 vectors produced by pass  5 Test12= 2.29D-12 3.33D-08 XBig12= 5.92D-02 2.17D-02.
      3 vectors produced by pass  6 Test12= 2.29D-12 3.33D-08 XBig12= 2.19D-02 1.81D-02.
      3 vectors produced by pass  7 Test12= 2.29D-12 3.33D-08 XBig12= 2.89D-03 9.57D-03.
      3 vectors produced by pass  8 Test12= 2.29D-12 3.33D-08 XBig12= 5.87D-04 2.91D-03.
      3 vectors produced by pass  9 Test12= 2.29D-12 3.33D-08 XBig12= 1.59D-04 1.54D-03.
      3 vectors produced by pass 10 Test12= 2.29D-12 3.33D-08 XBig12= 4.58D-05 7.30D-04.
      3 vectors produced by pass 11 Test12= 2.29D-12 3.33D-08 XBig12= 9.61D-06 3.74D-04.
      3 vectors produced by pass 12 Test12= 2.29D-12 3.33D-08 XBig12= 1.58D-06 1.12D-04.
      3 vectors produced by pass 13 Test12= 2.29D-12 3.33D-08 XBig12= 4.91D-07 5.64D-05.
      3 vectors produced by pass 14 Test12= 2.29D-12 3.33D-08 XBig12= 7.83D-08 2.45D-05.
      3 vectors produced by pass 15 Test12= 2.29D-12 3.33D-08 XBig12= 1.50D-08 1.43D-05.
      3 vectors produced by pass 16 Test12= 2.29D-12 3.33D-08 XBig12= 2.24D-09 5.18D-06.
      3 vectors produced by pass 17 Test12= 2.29D-12 3.33D-08 XBig12= 3.14D-10 1.76D-06.
      3 vectors produced by pass 18 Test12= 2.29D-12 3.33D-08 XBig12= 7.17D-11 8.22D-07.
      3 vectors produced by pass 19 Test12= 2.29D-12 3.33D-08 XBig12= 1.12D-11 2.30D-07.
      2 vectors produced by pass 20 Test12= 2.29D-12 3.33D-08 XBig12= 4.09D-12 1.74D-07.
      2 vectors produced by pass 21 Test12= 2.29D-12 3.33D-08 XBig12= 1.04D-12 8.16D-08.
 Inverted reduced A of dimension    64 with in-core refinement.
 End of Minotr Frequency-dependent properties file   721 does not exist.
 End of Minotr Frequency-dependent properties file   722 does not exist.
 Symmetrizing basis deriv contribution to polar:
 IMax=3 JMax=2 DiffMx= 0.00D+00
 G2DrvN: will do     8 centers at a time, making    6 passes doing MaxLOS=3.
 Calling FoFCou, ICntrl=  3107 FMM=F I1Cent=   0 AccDes= 0.00D+00.
 Calling FoFCou, ICntrl=  3107 FMM=F I1Cent=   0 AccDes= 0.00D+00.
 Calling FoFCou, ICntrl=  3107 FMM=F I1Cent=   0 AccDes= 0.00D+00.
 Calling FoFCou, ICntrl=  3107 FMM=F I1Cent=   0 AccDes= 0.00D+00.
 Calling FoFCou, ICntrl=  3107 FMM=F I1Cent=   0 AccDes= 0.00D+00.
 Calling FoFCou, ICntrl=  3107 FMM=F I1Cent=   0 AccDes= 0.00D+00.
 FoFDir/FoFCou used for L=0 through L=3.
 End of G2Drv Frequency-dependent properties file   721 does not exist.
 End of G2Drv Frequency-dependent properties file   722 does not exist.
          IDoAtm=111111111111111111111111111111111111111111111
          Differentiating once with respect to electric field.
                with respect to dipole field.
          Differentiating once with respect to nuclear coordinates.
          There are   138 degrees of freedom in the 1st order CPHF.  IDoFFX=5.
 Will reuse    3 saved solutions.
    135 vectors produced by pass  0 Test12= 6.87D-14 1.00D-09 XBig12= 1.41D-01 6.02D-02.
 AX will form    27 AO Fock derivatives at one time.
    135 vectors produced by pass  1 Test12= 6.87D-14 1.00D-09 XBig12= 1.95D-02 1.10D-02.
    132 vectors produced by pass  2 Test12= 6.87D-14 1.00D-09 XBig12= 1.42D-04 1.42D-03.
    132 vectors produced by pass  3 Test12= 6.87D-14 1.00D-09 XBig12= 7.19D-07 6.64D-05.
    132 vectors produced by pass  4 Test12= 6.87D-14 1.00D-09 XBig12= 1.74D-09 2.71D-06.
    132 vectors produced by pass  5 Test12= 6.87D-14 1.00D-09 XBig12= 4.35D-12 1.18D-07.
     90 vectors produced by pass  6 Test12= 6.87D-14 1.00D-09 XBig12= 2.45D-13 3.15D-08.
      1 vectors produced by pass  7 Test12= 6.87D-14 1.00D-09 XBig12= 1.12D-15 1.84D-09.
 Inverted reduced A of dimension   889 with in-core refinement.
 Isotropic polarizability for W=    0.000000      192.20 Bohr**3.
 End of Minotr Frequency-dependent properties file   721 does not exist.
 End of Minotr Frequency-dependent properties file   722 does not exist.

 **********************************************************************

            Population analysis using the SCF density.

 **********************************************************************

 Orbital symmetries:
       Occupied  (A) (A) (A) (A) (A) (A) (A) (A) (A) (A) (A) (A)
                 (A) (A) (A) (A) (A) (A) (A) (A) (A) (A) (A) (A)
                 (A) (A) (A) (A) (A) (A) (A) (A) (A) (A) (A) (A)
                 (A) (A) (A) (A) (A) (A) (A) (A) (A) (A) (A) (A)
                 (A) (A) (A) (A) (A) (A) (A) (A) (A) (A) (A) (A)
                 (A) (A) (A) (A) (A) (A) (A) (A) (A) (A) (A) (A)
                 (A) (A) (A) (A) (A) (A) (A) (A) (A) (A) (A) (A)
                 (A) (A) (A) (A) (A) (A) (A)
       Virtual   (A) (A) (A) (A) (A) (A) (A) (A) (A) (A) (A) (A)
                 (A) (A) (A) (A) (A) (A) (A) (A) (A) (A) (A) (A)
                 (A) (A) (A) (A) (A) (A) (A) (A) (A) (A) (A) (A)
                 (A) (A) (A) (A) (A) (A) (A) (A) (A) (A) (A) (A)
                 (A) (A) (A) (A) (A) (A) (A) (A) (A) (A) (A) (A)
                 (A) (A) (A) (A) (A) (A) (A) (A) (A) (A) (A) (A)
                 (A) (A) (A) (A) (A) (A) (A) (A) (A) (A) (A) (A)
                 (A) (A) (A) (A) (A) (A) (A) (A) (A) (A) (A) (A)
                 (A) (A) (A) (A) (A) (A) (A) (A) (A) (A) (A) (A)
                 (A) (A) (A) (A) (A) (A) (A) (A) (A) (A) (A) (A)
                 (A) (A) (A) (A) (A) (A) (A) (A) (A) (A) (A) (A)
                 (A) (A) (A) (A) (A) (A) (A) (A) (A) (A) (A) (A)
                 (A) (A) (A) (A) (A) (A) (A) (A) (A) (A) (A) (A)
                 (A) (A) (A) (A) (A) (A) (A) (A) (A) (A) (A) (A)
                 (A) (A) (A) (A) (A) (A) (A) (A) (A) (A) (A) (A)
                 (A) (A) (A) (A) (A) (A) (A) (A) (A) (A) (A) (A)
                 (A) (A) (A) (A) (A) (A) (A) (A) (A) (A) (A) (A)
                 (A) (A) (A) (A) (A) (A) (A) (A) (A) (A) (A) (A)
                 (A) (A) (A) (A) (A) (A) (A) (A) (A) (A) (A) (A)
                 (A) (A) (A) (A) (A) (A) (A) (A) (A) (A) (A) (A)
                 (A) (A) (A) (A) (A) (A) (A) (A) (A) (A) (A) (A)
                 (A) (A) (A) (A) (A) (A) (A) (A) (A) (A) (A) (A)
                 (A) (A) (A) (A) (A) (A) (A) (A) (A) (A) (A) (A)
                 (A) (A) (A) (A) (A) (A) (A) (A) (A) (A) (A) (A)
                 (A) (A) (A) (A) (A) (A) (A) (A) (A) (A) (A) (A)
                 (A) (A) (A) (A) (A) (A) (A) (A) (A) (A) (A) (A)
                 (A) (A) (A) (A) (A) (A) (A) (A) (A) (A) (A) (A)
                 (A) (A) (A) (A) (A) (A) (A) (A) (A) (A) (A) (A)
                 (A) (A) (A) (A) (A) (A) (A) (A) (A) (A) (A) (A)
                 (A) (A) (A) (A) (A) (A) (A) (A) (A) (A) (A) (A)
                 (A) (A) (A) (A) (A) (A) (A) (A) (A) (A) (A) (A)
                 (A) (A) (A) (A) (A) (A) (A) (A) (A) (A) (A) (A)
                 (A) (A) (A) (A) (A) (A) (A) (A) (A) (A) (A) (A)
                 (A) (A) (A) (A) (A) (A) (A) (A) (A) (A) (A) (A)
                 (A) (A) (A) (A) (A) (A) (A) (A) (A) (A) (A) (A)
                 (A) (A) (A) (A) (A) (A) (A) (A) (A) (A) (A) (A)
                 (A) (A) (A) (A) (A) (A) (A) (A) (A) (A) (A) (A)
                 (A) (A) (A) (A) (A) (A) (A) (A) (A) (A) (A) (A)
                 (A) (A) (A) (A) (A) (A) (A) (A) (A) (A) (A) (A)
                 (A) (A) (A) (A) (A) (A) (A) (A) (A) (A) (A) (A)
                 (A) (A) (A) (A) (A) (A) (A) (A) (A) (A) (A) (A)
                 (A) (A) (A) (A) (A) (A) (A) (A) (A) (A) (A) (A)
                 (A) (A) (A) (A) (A) (A) (A) (A) (A) (A) (A) (A)
                 (A) (A) (A) (A) (A) (A) (A) (A) (A) (A) (A) (A)
                 (A) (A) (A) (A) (A) (A) (A) (A) (A) (A) (A) (A)
                 (A) (A) (A) (A) (A) (A) (A) (A) (A) (A) (A) (A)
                 (A) (A) (A) (A) (A) (A) (A) (A) (A) (A) (A) (A)
                 (A) (A) (A) (A) (A) (A) (A) (A) (A) (A) (A) (A)
                 (A) (A) (A) (A) (A) (A) (A) (A) (A) (A) (A) (A)
                 (A) (A) (A) (A) (A) (A) (A) (A) (A) (A) (A) (A)
                 (A) (A) (A) (A) (A) (A) (A) (A) (A) (A) (A) (A)
                 (A) (A) (A) (A) (A) (A) (A) (A) (A) (A) (A) (A)
                 (A) (A) (A) (A) (A) (A) (A) (A) (A) (A) (A) (A)
                 (A) (A) (A) (A) (A) (A) (A) (A) (A) (A) (A) (A)
                 (A) (A) (A) (A) (A) (A) (A) (A) (A) (A) (A) (A)
                 (A) (A) (A) (A) (A) (A) (A) (A) (A) (A) (A) (A)
                 (A) (A) (A) (A) (A) (A) (A) (A) (A) (A) (A) (A)
                 (A) (A) (A) (A) (A) (A) (A) (A) (A) (A) (A) (A)
                 (A) (A) (A) (A) (A) (A) (A) (A) (A) (A) (A) (A)
                 (A) (A) (A) (A) (A) (A) (A) (A) (A) (A) (A) (A)
                 (A) (A) (A) (A) (A) (A) (A) (A) (A) (A) (A) (A)
                 (A) (A) (A) (A) (A) (A) (A) (A) (A) (A) (A) (A)
                 (A) (A) (A) (A) (A) (A) (A) (A) (A) (A) (A)
 The electronic state is 1-A.
 Alpha  occ. eigenvalues --  -19.19023 -19.18447 -19.18446 -19.18155 -19.17362
 Alpha  occ. eigenvalues --  -19.17203 -19.16437 -19.16189 -19.15372 -19.14341
 Alpha  occ. eigenvalues --  -19.13068 -10.30760 -10.30340 -10.26018 -10.25856
 Alpha  occ. eigenvalues --  -10.25605 -10.25361 -10.25115 -10.24994 -10.24642
 Alpha  occ. eigenvalues --  -10.24599 -10.24273 -10.24163  -1.10425  -1.09126
 Alpha  occ. eigenvalues --   -1.05648  -1.05163  -1.04234  -1.03646  -1.02709
 Alpha  occ. eigenvalues --   -1.02461  -1.02140  -1.01522  -1.00166  -0.82519
 Alpha  occ. eigenvalues --   -0.80231  -0.79162  -0.78322  -0.72022  -0.70077
 Alpha  occ. eigenvalues --   -0.67601  -0.64947  -0.63183  -0.62693  -0.61376
 Alpha  occ. eigenvalues --   -0.60063  -0.56837  -0.55986  -0.55118  -0.54959
 Alpha  occ. eigenvalues --   -0.54056  -0.53436  -0.52735  -0.51936  -0.50668
 Alpha  occ. eigenvalues --   -0.50413  -0.50267  -0.50018  -0.48557  -0.46784
 Alpha  occ. eigenvalues --   -0.46115  -0.45074  -0.44707  -0.44025  -0.43554
 Alpha  occ. eigenvalues --   -0.42788  -0.42339  -0.40879  -0.40565  -0.39343
 Alpha  occ. eigenvalues --   -0.38620  -0.38287  -0.37742  -0.37063  -0.36009
 Alpha  occ. eigenvalues --   -0.35225  -0.34850  -0.34617  -0.34249  -0.33454
 Alpha  occ. eigenvalues --   -0.32838  -0.31755  -0.31199  -0.30532  -0.30203
 Alpha  occ. eigenvalues --   -0.29527  -0.28531  -0.28043  -0.27535  -0.26688
 Alpha  occ. eigenvalues --   -0.26609
 Alpha virt. eigenvalues --   -0.01988  -0.01911  -0.01632  -0.00305   0.00192
 Alpha virt. eigenvalues --    0.00929   0.01785   0.02251   0.02701   0.03422
 Alpha virt. eigenvalues --    0.03878   0.04221   0.04765   0.05276   0.05471
 Alpha virt. eigenvalues --    0.05926   0.06569   0.07530   0.07830   0.08127
 Alpha virt. eigenvalues --    0.08484   0.08543   0.08973   0.09838   0.09987
 Alpha virt. eigenvalues --    0.10397   0.11034   0.11376   0.11761   0.12065
 Alpha virt. eigenvalues --    0.12335   0.12377   0.13147   0.13228   0.13744
 Alpha virt. eigenvalues --    0.13807   0.14136   0.14374   0.14730   0.15089
 Alpha virt. eigenvalues --    0.15823   0.16172   0.16802   0.16873   0.17010
 Alpha virt. eigenvalues --    0.17198   0.17350   0.17573   0.17992   0.18530
 Alpha virt. eigenvalues --    0.18771   0.19109   0.19323   0.19464   0.19944
 Alpha virt. eigenvalues --    0.20403   0.20655   0.20888   0.21020   0.21585
 Alpha virt. eigenvalues --    0.21807   0.22064   0.22959   0.23060   0.23145
 Alpha virt. eigenvalues --    0.23325   0.23663   0.23930   0.24234   0.24710
 Alpha virt. eigenvalues --    0.24946   0.25135   0.25272   0.25708   0.25898
 Alpha virt. eigenvalues --    0.26021   0.26430   0.26728   0.26999   0.27190
 Alpha virt. eigenvalues --    0.27266   0.27915   0.27997   0.28105   0.28577
 Alpha virt. eigenvalues --    0.28694   0.29228   0.29837   0.30010   0.30631
 Alpha virt. eigenvalues --    0.30756   0.31078   0.31229   0.31575   0.32387
 Alpha virt. eigenvalues --    0.32509   0.32733   0.32993   0.33124   0.33595
 Alpha virt. eigenvalues --    0.33996   0.34327   0.34697   0.34956   0.35455
 Alpha virt. eigenvalues --    0.35842   0.36612   0.36702   0.37213   0.37447
 Alpha virt. eigenvalues --    0.37665   0.37937   0.38389   0.38975   0.39145
 Alpha virt. eigenvalues --    0.39765   0.39884   0.40450   0.40708   0.41390
 Alpha virt. eigenvalues --    0.41589   0.42452   0.42652   0.43101   0.43712
 Alpha virt. eigenvalues --    0.43791   0.44162   0.44878   0.46020   0.46650
 Alpha virt. eigenvalues --    0.47090   0.47477   0.48122   0.48566   0.49610
 Alpha virt. eigenvalues --    0.50055   0.51476   0.53992   0.57357   0.58042
 Alpha virt. eigenvalues --    0.58882   0.59442   0.59891   0.60574   0.61801
 Alpha virt. eigenvalues --    0.61991   0.62896   0.64140   0.65353   0.66719
 Alpha virt. eigenvalues --    0.66981   0.67267   0.68064   0.68334   0.68930
 Alpha virt. eigenvalues --    0.70226   0.71141   0.71688   0.72426   0.72763
 Alpha virt. eigenvalues --    0.73423   0.74785   0.75109   0.75617   0.76074
 Alpha virt. eigenvalues --    0.76819   0.78376   0.78639   0.80067   0.81380
 Alpha virt. eigenvalues --    0.81630   0.82500   0.83225   0.83717   0.84593
 Alpha virt. eigenvalues --    0.86458   0.87111   0.87709   0.87945   0.88529
 Alpha virt. eigenvalues --    0.89320   0.90166   0.90430   0.91006   0.91193
 Alpha virt. eigenvalues --    0.91836   0.92056   0.92401   0.92956   0.93065
 Alpha virt. eigenvalues --    0.93493   0.94180   0.94402   0.94712   0.95412
 Alpha virt. eigenvalues --    0.96134   0.96341   0.96657   0.97068   0.97556
 Alpha virt. eigenvalues --    0.97965   0.98814   0.99284   1.00717   1.01334
 Alpha virt. eigenvalues --    1.02824   1.03429   1.03572   1.04813   1.05939
 Alpha virt. eigenvalues --    1.06092   1.06642   1.07002   1.07712   1.08060
 Alpha virt. eigenvalues --    1.08189   1.08530   1.09766   1.09850   1.10585
 Alpha virt. eigenvalues --    1.11254   1.11588   1.11740   1.12698   1.13663
 Alpha virt. eigenvalues --    1.14324   1.14640   1.14744   1.15405   1.15703
 Alpha virt. eigenvalues --    1.16809   1.17465   1.17830   1.18107   1.18270
 Alpha virt. eigenvalues --    1.19385   1.19692   1.20391   1.20786   1.22390
 Alpha virt. eigenvalues --    1.22509   1.22978   1.23263   1.23800   1.24354
 Alpha virt. eigenvalues --    1.24753   1.25471   1.26407   1.26851   1.27339
 Alpha virt. eigenvalues --    1.28297   1.28870   1.29456   1.29732   1.31088
 Alpha virt. eigenvalues --    1.31791   1.32248   1.32713   1.33361   1.33654
 Alpha virt. eigenvalues --    1.34141   1.34718   1.35535   1.35983   1.36834
 Alpha virt. eigenvalues --    1.37562   1.38293   1.38652   1.39090   1.39904
 Alpha virt. eigenvalues --    1.40804   1.41152   1.41675   1.43259   1.43847
 Alpha virt. eigenvalues --    1.44998   1.45743   1.45970   1.46205   1.46996
 Alpha virt. eigenvalues --    1.48177   1.48813   1.50077   1.50799   1.51148
 Alpha virt. eigenvalues --    1.51523   1.52821   1.53757   1.54552   1.55119
 Alpha virt. eigenvalues --    1.56071   1.56583   1.57855   1.58373   1.58719
 Alpha virt. eigenvalues --    1.60128   1.61030   1.61414   1.61694   1.62669
 Alpha virt. eigenvalues --    1.63846   1.64824   1.65693   1.65948   1.66884
 Alpha virt. eigenvalues --    1.68101   1.69195   1.70887   1.71734   1.72876
 Alpha virt. eigenvalues --    1.73103   1.73739   1.74338   1.75168   1.76362
 Alpha virt. eigenvalues --    1.76953   1.77686   1.78930   1.79221   1.80106
 Alpha virt. eigenvalues --    1.81545   1.81827   1.83051   1.84758   1.85742
 Alpha virt. eigenvalues --    1.86949   1.87882   1.88271   1.89425   1.90956
 Alpha virt. eigenvalues --    1.92610   1.93431   1.93959   1.94166   1.94748
 Alpha virt. eigenvalues --    1.95168   1.96128   1.97571   1.98058   1.99193
 Alpha virt. eigenvalues --    2.00501   2.01561   2.02419   2.03507   2.04385
 Alpha virt. eigenvalues --    2.05867   2.08814   2.09406   2.12091   2.13397
 Alpha virt. eigenvalues --    2.13988   2.15038   2.15999   2.17583   2.18693
 Alpha virt. eigenvalues --    2.20383   2.22397   2.23445   2.24100   2.25864
 Alpha virt. eigenvalues --    2.27310   2.28875   2.29425   2.30447   2.30777
 Alpha virt. eigenvalues --    2.32397   2.34573   2.37035   2.39972   2.42937
 Alpha virt. eigenvalues --    2.43085   2.45560   2.48534   2.48823   2.50373
 Alpha virt. eigenvalues --    2.51370   2.53046   2.53438   2.54407   2.54871
 Alpha virt. eigenvalues --    2.55979   2.57305   2.58024   2.59398   2.59849
 Alpha virt. eigenvalues --    2.61292   2.62179   2.62770   2.63137   2.64664
 Alpha virt. eigenvalues --    2.66636   2.67716   2.68983   2.70552   2.71500
 Alpha virt. eigenvalues --    2.73668   2.74163   2.75534   2.77628   2.78803
 Alpha virt. eigenvalues --    2.79439   2.80468   2.82193   2.82271   2.83508
 Alpha virt. eigenvalues --    2.84604   2.84836   2.85742   2.87505   2.87944
 Alpha virt. eigenvalues --    2.89300   2.89726   2.90497   2.90635   2.92389
 Alpha virt. eigenvalues --    2.92798   2.94918   2.95842   2.96820   2.97272
 Alpha virt. eigenvalues --    2.98681   2.99809   3.01001   3.01951   3.03458
 Alpha virt. eigenvalues --    3.03970   3.04375   3.04637   3.05993   3.06893
 Alpha virt. eigenvalues --    3.07428   3.08215   3.09069   3.10176   3.11729
 Alpha virt. eigenvalues --    3.12123   3.13071   3.13862   3.15218   3.16030
 Alpha virt. eigenvalues --    3.17170   3.20268   3.20780   3.22180   3.23796
 Alpha virt. eigenvalues --    3.24152   3.24715   3.25882   3.26245   3.28342
 Alpha virt. eigenvalues --    3.28971   3.29125   3.30704   3.31863   3.32560
 Alpha virt. eigenvalues --    3.34400   3.36302   3.36857   3.38110   3.38720
 Alpha virt. eigenvalues --    3.40966   3.42060   3.43016   3.44053   3.44608
 Alpha virt. eigenvalues --    3.46758   3.47806   3.48458   3.51095   3.52463
 Alpha virt. eigenvalues --    3.53143   3.54125   3.56422   3.57722   3.60234
 Alpha virt. eigenvalues --    3.62109   3.63302   3.64048   3.65835   3.66903
 Alpha virt. eigenvalues --    3.67905   3.68641   3.69634   3.70362   3.71406
 Alpha virt. eigenvalues --    3.74345   3.76267   3.77314   3.77586   3.79075
 Alpha virt. eigenvalues --    3.80740   3.80998   3.83404   3.84153   3.85352
 Alpha virt. eigenvalues --    3.85588   3.88048   3.89159   3.89922   3.91031
 Alpha virt. eigenvalues --    3.95653   3.96741   3.97271   3.99758   4.02735
 Alpha virt. eigenvalues --    4.05030   4.06271   4.07022   4.10514   4.14469
 Alpha virt. eigenvalues --    4.14958   4.15328   4.16452   4.17812   4.19298
 Alpha virt. eigenvalues --    4.20987   4.21980   4.22912   4.23644   4.25140
 Alpha virt. eigenvalues --    4.26409   4.27165   4.28516   4.28826   4.30445
 Alpha virt. eigenvalues --    4.31042   4.32205   4.32675   4.35028   4.35226
 Alpha virt. eigenvalues --    4.35450   4.36391   4.37514   4.39127   4.39281
 Alpha virt. eigenvalues --    4.40042   4.40958   4.41477   4.42132   4.42654
 Alpha virt. eigenvalues --    4.44257   4.44918   4.46025   4.46969   4.47628
 Alpha virt. eigenvalues --    4.49030   4.49360   4.49642   4.50266   4.50707
 Alpha virt. eigenvalues --    4.51867   4.52586   4.53270   4.53778   4.54909
 Alpha virt. eigenvalues --    4.55993   4.56407   4.56895   4.57724   4.58296
 Alpha virt. eigenvalues --    4.58691   4.59577   4.60422   4.60737   4.61584
 Alpha virt. eigenvalues --    4.62276   4.62364   4.63452   4.63913   4.64886
 Alpha virt. eigenvalues --    4.65210   4.66228   4.67442   4.67874   4.68697
 Alpha virt. eigenvalues --    4.69473   4.69947   4.70060   4.70954   4.72002
 Alpha virt. eigenvalues --    4.72503   4.73520   4.73591   4.74761   4.75474
 Alpha virt. eigenvalues --    4.75666   4.76574   4.76939   4.77605   4.78003
 Alpha virt. eigenvalues --    4.79098   4.80671   4.81179   4.81788   4.82837
 Alpha virt. eigenvalues --    4.83520   4.83846   4.85146   4.85577   4.86234
 Alpha virt. eigenvalues --    4.86468   4.88272   4.88450   4.89265   4.91115
 Alpha virt. eigenvalues --    4.91379   4.92631   4.93522   4.95057   4.95691
 Alpha virt. eigenvalues --    4.97221   4.98495   5.00080   5.00889   5.01768
 Alpha virt. eigenvalues --    5.04519   5.05234   5.08051   5.08748   5.11283
 Alpha virt. eigenvalues --    5.12271   5.14120   5.16043   5.17087   5.18034
 Alpha virt. eigenvalues --    5.18880   5.19324   5.21318   5.22457   5.22953
 Alpha virt. eigenvalues --    5.24242   5.24983   5.27031   5.27462   5.29085
 Alpha virt. eigenvalues --    5.31536   5.32233   5.32812   5.33943   5.34657
 Alpha virt. eigenvalues --    5.36405   5.38043   5.38304   5.38896   5.39941
 Alpha virt. eigenvalues --    5.40748   5.41030   5.41728   5.42497   5.43102
 Alpha virt. eigenvalues --    5.43515   5.44842   5.45382   5.46200   5.47313
 Alpha virt. eigenvalues --    5.47781   5.49692   5.50449   5.51602   5.53214
 Alpha virt. eigenvalues --    5.53724   5.54229   5.56004   5.56427   5.57996
 Alpha virt. eigenvalues --    5.59356   5.60639   5.61247   5.62698   5.66847
 Alpha virt. eigenvalues --    5.68531   5.69380   5.71672   5.72512   5.74911
 Alpha virt. eigenvalues --    5.75411   5.77103   5.79071   5.80865   5.82702
 Alpha virt. eigenvalues --    5.85127   5.85615   5.86538   5.87362   5.88399
 Alpha virt. eigenvalues --    5.89571   5.91072   5.92459   5.93758   5.93879
 Alpha virt. eigenvalues --    5.94598   5.95714   5.98091   5.98916   5.99910
 Alpha virt. eigenvalues --    6.01119   6.03411   6.04733   6.05717   6.07576
 Alpha virt. eigenvalues --    6.08149   6.09344   6.11236   6.11457   6.13458
 Alpha virt. eigenvalues --    6.15156   6.17513   6.20617   6.21648   6.23097
 Alpha virt. eigenvalues --    6.25731   6.27445   6.28890   6.32871   6.34298
 Alpha virt. eigenvalues --    6.49742   6.67392   6.97758   7.02988   7.07304
 Alpha virt. eigenvalues --    7.13838   7.17162   7.24420   7.27359   7.30537
 Alpha virt. eigenvalues --    7.35605   7.40665   7.46012   7.48233   7.67683
 Alpha virt. eigenvalues --    7.82625   7.96431  12.00793  12.12610  12.26624
 Alpha virt. eigenvalues --   12.30556  12.45426  12.54392  12.81778  12.92852
 Alpha virt. eigenvalues --   12.96332  13.12497  13.23204  13.31538  13.39777
 Alpha virt. eigenvalues --   13.43957  13.46058  13.57091  13.60092  13.70767
 Alpha virt. eigenvalues --   13.71848  13.74468  13.98535  14.13262  14.28373
          Condensed to atoms (all electrons):
              1          2          3          4          5          6
     1  O    8.049794   0.355591  -0.078067  -0.014129   0.017056   0.005709
     2  C    0.355591   7.363228  -0.523804   0.028861  -0.042414  -1.221314
     3  C   -0.078067  -0.523804   6.555685   0.209810  -0.008605   0.536497
     4  O   -0.014129   0.028861   0.209810   8.079155   0.241473  -0.097522
     5  H    0.017056  -0.042414  -0.008605   0.241473   0.420626   0.014308
     6  C    0.005709  -1.221314   0.536497  -0.097522   0.014308   7.852821
     7  O   -0.000021   0.012183  -0.147500   0.006855  -0.000515   0.341284
     8  H   -0.000001  -0.001027   0.019642  -0.000181   0.000010  -0.002290
     9  C   -0.021471  -0.448898  -0.031693   0.004620  -0.003289   0.244928
    10  O   -0.006943  -0.011259   0.000917  -0.000083  -0.000016   0.001651
    11  H    0.000302  -0.002651  -0.000191   0.000000   0.000000  -0.000015
    12  C   -0.129990  -1.044100   0.172296   0.007817   0.012307   0.568123
    13  O    0.001370  -0.031539  -0.033173  -0.002054   0.000083  -0.055878
    14  C    0.002274   1.142600  -0.591905   0.010684   0.006624  -1.820359
    15  O   -0.000217  -0.015297   0.003075   0.000461  -0.000020  -0.018693
    16  C    0.000972   0.158323  -0.079990  -0.001972   0.000413  -0.272526
    17  C   -0.000131  -0.030140   0.001057   0.000057   0.000035   0.065681
    18  O    0.000020   0.006507  -0.000885  -0.000004   0.000000  -0.001486
    19  H   -0.000033  -0.002536   0.003457   0.000001   0.000000   0.006763
    20  C    0.000037   0.003621  -0.009658  -0.000004   0.000001   0.022224
    21  O    0.000000  -0.000007   0.000005   0.000000   0.000000  -0.000025
    22  H    0.000000   0.000000   0.000001   0.000000   0.000000  -0.000018
    23  C    0.000024   0.007384   0.000972   0.000125  -0.000008  -0.094980
    24  O    0.000003   0.000624  -0.013184  -0.000079  -0.000003   0.007790
    25  H    0.000000   0.000154   0.001484   0.000005   0.000000   0.002007
    26  C    0.000009  -0.001848  -0.026693   0.000194   0.000005  -0.072448
    27  O    0.000000  -0.000061   0.000100   0.000000   0.000000   0.003116
    28  C    0.000003   0.000616  -0.000067  -0.000001   0.000000  -0.004061
    29  O    0.000000   0.000001   0.000013   0.000000   0.000000  -0.000156
    30  H    0.270967   0.025648  -0.012261   0.000772  -0.001673   0.003264
    31  H    0.000000   0.000000   0.000000   0.000000   0.000000   0.000003
    32  H    0.000000   0.000004   0.000000   0.000000   0.000000   0.000023
    33  H    0.000000   0.000090   0.000007   0.000000   0.000000   0.000380
    34  H    0.000000  -0.000094   0.000788   0.000000   0.000000   0.002919
    35  H   -0.000001  -0.003688   0.005376   0.000003   0.000000   0.010842
    36  H    0.000000  -0.000268   0.000808   0.000000   0.000000  -0.000418
    37  H    0.000000  -0.000015   0.000002   0.000000   0.000000   0.001260
    38  H    0.000000   0.000091   0.000238   0.000000   0.000000  -0.004320
    39  H    0.000103  -0.030758  -0.025567   0.000054   0.000004   0.060446
    40  H   -0.000133  -0.013977  -0.080514   0.001784  -0.000163   0.365291
    41  H   -0.002584   0.052533   0.281185  -0.021411  -0.002646  -0.197403
    42  H   -0.018854   0.439014  -0.122710   0.001821  -0.000508  -0.036530
    43  H    0.004323   0.083808  -0.100243   0.001157  -0.000003  -0.045110
    44  H    0.000019  -0.001441   0.000730   0.000009   0.000000  -0.002752
    45  H    0.001550  -0.021315  -0.003740  -0.000004   0.000000   0.006113
              7          8          9         10         11         12
     1  O   -0.000021  -0.000001  -0.021471  -0.006943   0.000302  -0.129990
     2  C    0.012183  -0.001027  -0.448898  -0.011259  -0.002651  -1.044100
     3  C   -0.147500   0.019642  -0.031693   0.000917  -0.000191   0.172296
     4  O    0.006855  -0.000181   0.004620  -0.000083   0.000000   0.007817
     5  H   -0.000515   0.000010  -0.003289  -0.000016   0.000000   0.012307
     6  C    0.341284  -0.002290   0.244928   0.001651  -0.000015   0.568123
     7  O    8.130491   0.250271  -0.000210  -0.000002   0.000000   0.000843
     8  H    0.250271   0.337505  -0.000037   0.000000   0.000000  -0.000920
     9  C   -0.000210  -0.000037   7.227597   0.140263  -0.032391  -0.891292
    10  O   -0.000002   0.000000   0.140263   8.094034   0.245915   0.051120
    11  H    0.000000   0.000000  -0.032391   0.245915   0.430473   0.028206
    12  C    0.000843  -0.000920  -0.891292   0.051120   0.028206   8.900221
    13  O    0.002299   0.000612  -0.067048   0.000609  -0.000458   0.075421
    14  C   -0.043801  -0.055888  -0.752022   0.004329  -0.002534  -1.550740
    15  O   -0.003201   0.012610   0.002143   0.000143   0.000001   0.007012
    16  C    0.008872   0.022360  -0.118692  -0.001476  -0.000066  -0.059727
    17  C    0.001018   0.001732  -0.001253  -0.000090   0.000065  -0.092948
    18  O   -0.000081  -0.000022  -0.001759  -0.000314  -0.000007  -0.009398
    19  H   -0.000026  -0.000012   0.004018   0.000024  -0.000001  -0.006617
    20  C   -0.000022   0.001136   0.005743  -0.000084   0.000015  -0.005967
    21  O   -0.000002   0.000000   0.000190   0.000000   0.000000  -0.000079
    22  H    0.000000   0.000000  -0.000002   0.000000   0.000000   0.000005
    23  C    0.011605   0.013831  -0.003259  -0.000013   0.000000  -0.012248
    24  O   -0.047315  -0.025245   0.000067   0.000000   0.000000   0.002656
    25  H    0.003067  -0.001106  -0.000018   0.000000   0.000000  -0.000472
    26  C   -0.015552  -0.025992   0.000136  -0.000083   0.000001   0.026377
    27  O   -0.000073  -0.000086   0.000085   0.000000   0.000000   0.000300
    28  C    0.000260  -0.000199   0.000104   0.000003   0.000000   0.001360
    29  O   -0.000002   0.000000  -0.000010   0.000000   0.000000   0.000037
    30  H   -0.000008   0.000000   0.010771   0.000531  -0.000003  -0.034566
    31  H    0.000000   0.000000   0.000000   0.000000   0.000000  -0.000001
    32  H    0.000000   0.000000   0.000003   0.000000   0.000000   0.000032
    33  H    0.000001   0.000000  -0.000110   0.000000   0.000000   0.000423
    34  H   -0.000016  -0.000003  -0.000690   0.000000   0.000000   0.000400
    35  H   -0.001600  -0.000123   0.000308   0.000001   0.000000   0.002368
    36  H   -0.000272  -0.000019   0.000129   0.000000   0.000000   0.000616
    37  H   -0.000529   0.000205   0.000003   0.000000   0.000000   0.000120
    38  H    0.000884   0.000077  -0.000021   0.000000   0.000000  -0.000409
    39  H   -0.002444   0.000277   0.032572   0.000074   0.000000   0.091858
    40  H   -0.029099  -0.004227   0.017087   0.000008   0.000000   0.075345
    41  H    0.006983  -0.000091   0.002809  -0.000135   0.000000   0.007805
    42  H    0.000956   0.000001  -0.061523  -0.001210  -0.000005  -0.096312
    43  H    0.000504  -0.000001   0.061884  -0.003330  -0.000151   0.080698
    44  H   -0.000010   0.000000   0.451266  -0.026800  -0.007524  -0.065691
    45  H    0.000005   0.000000   0.543264  -0.050504  -0.003076  -0.181512
             13         14         15         16         17         18
     1  O    0.001370   0.002274  -0.000217   0.000972  -0.000131   0.000020
     2  C   -0.031539   1.142600  -0.015297   0.158323  -0.030140   0.006507
     3  C   -0.033173  -0.591905   0.003075  -0.079990   0.001057  -0.000885
     4  O   -0.002054   0.010684   0.000461  -0.001972   0.000057  -0.000004
     5  H    0.000083   0.006624  -0.000020   0.000413   0.000035   0.000000
     6  C   -0.055878  -1.820359  -0.018693  -0.272526   0.065681  -0.001486
     7  O    0.002299  -0.043801  -0.003201   0.008872   0.001018  -0.000081
     8  H    0.000612  -0.055888   0.012610   0.022360   0.001732  -0.000022
     9  C   -0.067048  -0.752022   0.002143  -0.118692  -0.001253  -0.001759
    10  O    0.000609   0.004329   0.000143  -0.001476  -0.000090  -0.000314
    11  H   -0.000458  -0.002534   0.000001  -0.000066   0.000065  -0.000007
    12  C    0.075421  -1.550740   0.007012  -0.059727  -0.092948  -0.009398
    13  O    7.917542   0.296869  -0.004035   0.001557   0.027706  -0.010252
    14  C    0.296869   9.300594   0.233156  -0.704669   0.186502   0.004927
    15  O   -0.004035   0.233156   7.773446   0.241036  -0.030086  -0.013781
    16  C    0.001557  -0.704669   0.241036   9.819260  -1.402970  -0.023459
    17  C    0.027706   0.186502  -0.030086  -1.402970   7.869995   0.270909
    18  O   -0.010252   0.004927  -0.013781  -0.023459   0.270909   8.120076
    19  H    0.023614  -0.001749   0.015427  -0.066946   0.025012   0.227216
    20  C   -0.012034  -0.169005   0.009384  -0.787601  -0.723047  -0.081584
    21  O   -0.000063   0.000973   0.000233   0.062427  -0.076982   0.006452
    22  H    0.000001  -0.000123  -0.000003  -0.011301   0.027636  -0.000426
    23  C    0.001883   0.092127  -0.025682   0.214100  -0.239056   0.011429
    24  O   -0.001295   0.058256  -0.018739  -0.005986  -0.002617  -0.000139
    25  H   -0.000015  -0.010171   0.002873  -0.004563  -0.000947   0.000000
    26  C   -0.018427  -0.189310  -0.110294  -1.934072  -0.358124  -0.001267
    27  O    0.000036   0.021064   0.003026   0.120605  -0.007589  -0.001298
    28  C    0.001316   0.004585   0.004237   0.677869   0.327787  -0.005095
    29  O    0.000015   0.000683  -0.000097  -0.009219  -0.025580   0.000289
    30  H   -0.000611  -0.003189   0.000000   0.000098  -0.000052   0.000000
    31  H    0.000000  -0.000054   0.000002  -0.002137   0.006828  -0.000015
    32  H    0.000010   0.000769   0.000300   0.026193   0.002008   0.000169
    33  H    0.000062  -0.005671   0.000687   0.052786  -0.147971   0.004021
    34  H   -0.000383  -0.006697  -0.001464  -0.129187   0.270091  -0.029883
    35  H   -0.002469   0.007820  -0.019740   0.098489   0.070374  -0.000535
    36  H   -0.000507   0.042898   0.000534   0.033356  -0.017130   0.000635
    37  H    0.000022   0.006852   0.000677  -0.002188   0.006897   0.000007
    38  H   -0.000007  -0.001677   0.001245   0.088595  -0.002166   0.000091
    39  H   -0.033905   0.203538  -0.024025  -0.034378   0.012605  -0.001472
    40  H    0.006730  -0.058936  -0.004764  -0.028018   0.001750   0.000090
    41  H    0.005174   0.101763   0.000625  -0.001924   0.001145   0.000027
    42  H    0.004902   0.136221  -0.000653  -0.000405   0.001402   0.000020
    43  H   -0.037433   0.176167  -0.001731  -0.000446   0.006778  -0.000513
    44  H   -0.003726  -0.016372  -0.000138   0.002914  -0.002342   0.000768
    45  H   -0.008637   0.012170  -0.000390  -0.003697   0.001984  -0.000106
             19         20         21         22         23         24
     1  O   -0.000033   0.000037   0.000000   0.000000   0.000024   0.000003
     2  C   -0.002536   0.003621  -0.000007   0.000000   0.007384   0.000624
     3  C    0.003457  -0.009658   0.000005   0.000001   0.000972  -0.013184
     4  O    0.000001  -0.000004   0.000000   0.000000   0.000125  -0.000079
     5  H    0.000000   0.000001   0.000000   0.000000  -0.000008  -0.000003
     6  C    0.006763   0.022224  -0.000025  -0.000018  -0.094980   0.007790
     7  O   -0.000026  -0.000022  -0.000002   0.000000   0.011605  -0.047315
     8  H   -0.000012   0.001136   0.000000   0.000000   0.013831  -0.025245
     9  C    0.004018   0.005743   0.000190  -0.000002  -0.003259   0.000067
    10  O    0.000024  -0.000084   0.000000   0.000000  -0.000013   0.000000
    11  H   -0.000001   0.000015   0.000000   0.000000   0.000000   0.000000
    12  C   -0.006617  -0.005967  -0.000079   0.000005  -0.012248   0.002656
    13  O    0.023614  -0.012034  -0.000063   0.000001   0.001883  -0.001295
    14  C   -0.001749  -0.169005   0.000973  -0.000123   0.092127   0.058256
    15  O    0.015427   0.009384   0.000233  -0.000003  -0.025682  -0.018739
    16  C   -0.066946  -0.787601   0.062427  -0.011301   0.214100  -0.005986
    17  C    0.025012  -0.723047  -0.076982   0.027636  -0.239056  -0.002617
    18  O    0.227216  -0.081584   0.006452  -0.000426   0.011429  -0.000139
    19  H    0.365194   0.009343  -0.000225   0.000008  -0.004568   0.000023
    20  C    0.009343   7.921074   0.123148  -0.047127   0.077976  -0.003831
    21  O   -0.000225   0.123148   8.097911   0.250940  -0.001699   0.000010
    22  H    0.000008  -0.047127   0.250940   0.417723  -0.000281   0.000000
    23  C   -0.004568   0.077976  -0.001699  -0.000281   6.344925   0.087270
    24  O    0.000023  -0.003831   0.000010   0.000000   0.087270   8.272940
    25  H    0.000000   0.000883   0.000000   0.000000  -0.039531   0.254762
    26  C    0.003847   0.901335  -0.047653   0.005173  -0.958876   0.008220
    27  O    0.000121  -0.197119   0.006411  -0.000184  -0.091110   0.004613
    28  C    0.001871  -1.312519   0.063122   0.007977  -0.138147   0.003870
    29  O   -0.000003  -0.010822  -0.002886   0.012687   0.015417  -0.000036
    30  H    0.000000   0.000000   0.000000   0.000000   0.000001   0.000000
    31  H    0.000000  -0.026183  -0.002004  -0.001575  -0.000277  -0.000001
    32  H    0.000003  -0.107202  -0.004615  -0.000338  -0.003795   0.000019
    33  H   -0.000106   0.339195  -0.019961  -0.006796   0.007218   0.000009
    34  H   -0.004622   0.033138  -0.003651  -0.000153   0.019445  -0.000042
    35  H    0.000266   0.017551  -0.000388   0.000006  -0.015269   0.000906
    36  H    0.000045  -0.048622   0.000265   0.000002   0.075615   0.002526
    37  H    0.000000  -0.002857  -0.000005   0.000000   0.384662  -0.017655
    38  H    0.000000  -0.005155   0.000001   0.000000   0.599580  -0.055976
    39  H   -0.000238   0.009737   0.000003   0.000000  -0.002699  -0.000145
    40  H   -0.000024   0.000613   0.000000   0.000000   0.001519  -0.000061
    41  H    0.000000   0.000047   0.000000   0.000000   0.000607   0.000055
    42  H   -0.000014   0.000022   0.000000   0.000000   0.000104   0.000013
    43  H    0.000100   0.000155   0.000000   0.000000  -0.000048   0.000001
    44  H    0.000851  -0.000470   0.000002   0.000000   0.000001   0.000000
    45  H    0.000031   0.000025   0.000000   0.000000  -0.000015   0.000000
             25         26         27         28         29         30
     1  O    0.000000   0.000009   0.000000   0.000003   0.000000   0.270967
     2  C    0.000154  -0.001848  -0.000061   0.000616   0.000001   0.025648
     3  C    0.001484  -0.026693   0.000100  -0.000067   0.000013  -0.012261
     4  O    0.000005   0.000194   0.000000  -0.000001   0.000000   0.000772
     5  H    0.000000   0.000005   0.000000   0.000000   0.000000  -0.001673
     6  C    0.002007  -0.072448   0.003116  -0.004061  -0.000156   0.003264
     7  O    0.003067  -0.015552  -0.000073   0.000260  -0.000002  -0.000008
     8  H   -0.001106  -0.025992  -0.000086  -0.000199   0.000000   0.000000
     9  C   -0.000018   0.000136   0.000085   0.000104  -0.000010   0.010771
    10  O    0.000000  -0.000083   0.000000   0.000003   0.000000   0.000531
    11  H    0.000000   0.000001   0.000000   0.000000   0.000000  -0.000003
    12  C   -0.000472   0.026377   0.000300   0.001360   0.000037  -0.034566
    13  O   -0.000015  -0.018427   0.000036   0.001316   0.000015  -0.000611
    14  C   -0.010171  -0.189310   0.021064   0.004585   0.000683  -0.003189
    15  O    0.002873  -0.110294   0.003026   0.004237  -0.000097   0.000000
    16  C   -0.004563  -1.934072   0.120605   0.677869  -0.009219   0.000098
    17  C   -0.000947  -0.358124  -0.007589   0.327787  -0.025580  -0.000052
    18  O    0.000000  -0.001267  -0.001298  -0.005095   0.000289   0.000000
    19  H    0.000000   0.003847   0.000121   0.001871  -0.000003   0.000000
    20  C    0.000883   0.901335  -0.197119  -1.312519  -0.010822   0.000000
    21  O    0.000000  -0.047653   0.006411   0.063122  -0.002886   0.000000
    22  H    0.000000   0.005173  -0.000184   0.007977   0.012687   0.000000
    23  C   -0.039531  -0.958876  -0.091110  -0.138147   0.015417   0.000001
    24  O    0.254762   0.008220   0.004613   0.003870  -0.000036   0.000000
    25  H    0.390814   0.034971  -0.000934  -0.000835  -0.000004   0.000000
    26  C    0.034971   9.837304   0.019327  -0.878826  -0.027593  -0.000002
    27  O   -0.000934   0.019327   7.970617   0.289246  -0.059076   0.000000
    28  C   -0.000835  -0.878826   0.289246   6.273495   0.315522   0.000000
    29  O   -0.000004  -0.027593  -0.059076   0.315522   8.011538   0.000000
    30  H    0.000000  -0.000002   0.000000   0.000000   0.000000   0.401479
    31  H    0.000000  -0.000088   0.001595   0.009408   0.267163   0.000000
    32  H    0.000000  -0.010562  -0.039149   0.436919  -0.022545   0.000000
    33  H    0.000000   0.017016   0.002802   0.011483  -0.002036   0.000000
    34  H    0.000000   0.123982   0.000177  -0.051961   0.000309   0.000000
    35  H   -0.000026   0.076245   0.003669   0.002791  -0.000208   0.000000
    36  H   -0.000209   0.121026  -0.016175   0.053900  -0.000565   0.000000
    37  H   -0.010170  -0.033731  -0.007234   0.000533  -0.000150   0.000000
    38  H    0.000536  -0.326256   0.002942   0.005865  -0.000161   0.000000
    39  H    0.000009   0.007599   0.000184  -0.000160  -0.000003   0.000002
    40  H   -0.000006  -0.002808  -0.000003  -0.000009   0.000000   0.000012
    41  H    0.000000  -0.000754   0.000000  -0.000007   0.000000  -0.000130
    42  H    0.000000  -0.000122   0.000000  -0.000002   0.000000  -0.012695
    43  H    0.000000  -0.000238   0.000001   0.000034   0.000000  -0.000054
    44  H    0.000000   0.000393   0.000000   0.000042   0.000000   0.000019
    45  H    0.000000  -0.000278   0.000000   0.000009   0.000000  -0.000199
             31         32         33         34         35         36
     1  O    0.000000   0.000000   0.000000   0.000000  -0.000001   0.000000
     2  C    0.000000   0.000004   0.000090  -0.000094  -0.003688  -0.000268
     3  C    0.000000   0.000000   0.000007   0.000788   0.005376   0.000808
     4  O    0.000000   0.000000   0.000000   0.000000   0.000003   0.000000
     5  H    0.000000   0.000000   0.000000   0.000000   0.000000   0.000000
     6  C    0.000003   0.000023   0.000380   0.002919   0.010842  -0.000418
     7  O    0.000000   0.000000   0.000001  -0.000016  -0.001600  -0.000272
     8  H    0.000000   0.000000   0.000000  -0.000003  -0.000123  -0.000019
     9  C    0.000000   0.000003  -0.000110  -0.000690   0.000308   0.000129
    10  O    0.000000   0.000000   0.000000   0.000000   0.000001   0.000000
    11  H    0.000000   0.000000   0.000000   0.000000   0.000000   0.000000
    12  C   -0.000001   0.000032   0.000423   0.000400   0.002368   0.000616
    13  O    0.000000   0.000010   0.000062  -0.000383  -0.002469  -0.000507
    14  C   -0.000054   0.000769  -0.005671  -0.006697   0.007820   0.042898
    15  O    0.000002   0.000300   0.000687  -0.001464  -0.019740   0.000534
    16  C   -0.002137   0.026193   0.052786  -0.129187   0.098489   0.033356
    17  C    0.006828   0.002008  -0.147971   0.270091   0.070374  -0.017130
    18  O   -0.000015   0.000169   0.004021  -0.029883  -0.000535   0.000635
    19  H    0.000000   0.000003  -0.000106  -0.004622   0.000266   0.000045
    20  C   -0.026183  -0.107202   0.339195   0.033138   0.017551  -0.048622
    21  O   -0.002004  -0.004615  -0.019961  -0.003651  -0.000388   0.000265
    22  H   -0.001575  -0.000338  -0.006796  -0.000153   0.000006   0.000002
    23  C   -0.000277  -0.003795   0.007218   0.019445  -0.015269   0.075615
    24  O   -0.000001   0.000019   0.000009  -0.000042   0.000906   0.002526
    25  H    0.000000   0.000000   0.000000   0.000000  -0.000026  -0.000209
    26  C   -0.000088  -0.010562   0.017016   0.123982   0.076245   0.121026
    27  O    0.001595  -0.039149   0.002802   0.000177   0.003669  -0.016175
    28  C    0.009408   0.436919   0.011483  -0.051961   0.002791   0.053900
    29  O    0.267163  -0.022545  -0.002036   0.000309  -0.000208  -0.000565
    30  H    0.000000   0.000000   0.000000   0.000000   0.000000   0.000000
    31  H    0.410449  -0.008240  -0.000013   0.000008   0.000002   0.000018
    32  H   -0.008240   0.577692   0.004615   0.001751  -0.000023   0.003044
    33  H   -0.000013   0.004615   0.589560   0.007132   0.001517  -0.000056
    34  H    0.000008   0.001751   0.007132   0.635995   0.006208   0.001858
    35  H    0.000002  -0.000023   0.001517   0.006208   0.593220   0.005284
    36  H    0.000018   0.003044  -0.000056   0.001858   0.005284   0.604793
    37  H    0.000000  -0.000033   0.000001   0.000009   0.000136  -0.003572
    38  H    0.000000  -0.000012  -0.000015  -0.000016   0.003103   0.005767
    39  H    0.000000   0.000000  -0.000003  -0.000017   0.006222  -0.000011
    40  H    0.000000   0.000000   0.000000  -0.000007  -0.000013  -0.000006
    41  H    0.000000   0.000000   0.000000   0.000000  -0.000001   0.000000
    42  H    0.000000   0.000000   0.000000   0.000000   0.000000   0.000000
    43  H    0.000000   0.000000   0.000000  -0.000001  -0.000006   0.000000
    44  H    0.000000   0.000000   0.000000   0.000000  -0.000001   0.000000
    45  H    0.000000   0.000000   0.000000   0.000000   0.000000   0.000000
             37         38         39         40         41         42
     1  O    0.000000   0.000000   0.000103  -0.000133  -0.002584  -0.018854
[...]
 ,-0.00000628,0.00004265,-0.00001847,0.00004186,-0.00004967,0.00003362,
 -0.00004331,-0.00000449,0.00000540,-0.00000251,0.00001178,-0.00000543,
 0.00000734,-0.00000196,-0.00000079,-0.00000183,-0.00000937,0.00000068,
 0.00000532,0.00003342,0.00001554,0.00004357,-0.00001713,-0.00000374,0.
 00000274,-0.00002389,-0.00001195,-0.00000527,0.00001609,-0.00000051,0.
 00001138,-0.00001478,0.00000440,-0.00000849,0.00000444,0.00000014,0.00
 000439,0.00160878,0.00011350,-0.00071815,-0.00000197,-0.00000047,-0.00
 000030,0.00000338,0.00000062,0.00000255,0.00000373,0.00000145,-0.00000
 373,0.00001224,0.00000502,0.00001027,0.00000907,-0.00000111,-0.0000079
 7,0.00000762,0.00000071,0.00000635,-0.00000046,0.00000019,0.00000441,0
 .00000522,0.00000066,-0.00000394,0.00001426,0.00002718,-0.00016654,0.0
 0081953,0.00015615,0.00057819,0.00009433,0.00242640,0.00123711,0.36705
 068,-0.01092566,-0.00165999,-0.00645543,-0.03150353,-0.04627074,0.0064
 1262,0.03302084,-0.00161648,-0.00720986,-0.00153239,0.00360642,-0.0006
 7043,0.00051622,-0.00018860,0.00031463,0.00067596,0.00128053,0.0010563
 8,-0.00042893,-0.00024441,-0.00010926,-0.00005856,-0.00000498,0.000100
 40,-0.00141365,0.00202044,-0.00070125,0.00039572,0.00004201,0.00009268
 ,0.00000209,-0.00005136,0.00001086,-0.03022161,-0.00605882,0.00864192,
 0.00170831,0.00141383,-0.00160380,0.00018872,-0.00054817,-0.00002392,0
 .00002765,0.00012730,-0.00003117,-0.00004172,0.00001714,-0.00000359,0.
 00000159,0.00000009,-0.00001653,0.00002468,0.00000558,-0.00002123,-0.0
 0002199,-0.00000223,0.00002219,-0.00000684,-0.00000081,0.00000308,0.00
 000330,0.00000387,-0.00000317,-0.00000153,-0.00000122,-0.00000052,-0.0
 0000077,-0.00001487,0.00001083,-0.00001354,-0.00000407,-0.00005685,0.0
 0000832,0.00000385,-0.00000099,0.00000303,-0.00000323,0.00000406,-0.00
 000236,0.00000747,-0.00000824,0.00000184,-0.00000623,0.00000677,0.0000
 0281,0.00000165,-0.00000627,-0.00143543,0.00137812,-0.00023372,-0.0000
 0014,0.00000007,0.00000099,-0.00000003,0.00000097,0.00000003,0.0000015
 0,0.00000008,-0.00000254,0.00000354,0.00000362,0.00000399,0.00000441,-
 0.00000585,0.00000231,0.00000009,0.00000163,0.00000038,0.00000025,0.00
 000254,-0.00000572,0.00000068,0.,0.00000145,-0.00006085,-0.00014301,-0
 .00005112,-0.00041429,-0.00013091,-0.00022361,0.00172812,-0.00503610,-
 0.00174326,0.03960109,0.05560267,-0.04241032,-0.01273163,-0.01603618,0
 .05432465,0.00593705,-0.04795659,0.01402549,0.00073935,-0.00154496,-0.
 00177837,0.00088359,0.00066155,-0.00029551,-0.00023736,-0.00001793,0.0
 0102410,0.00040806,0.00048851,-0.00038615,-0.00006413,-0.00005452,0.00
 002894,0.00002417,0.00003488,-0.00015918,-0.00123843,0.00040003,-0.000
 11861,0.00000565,0.00011953,0.00000912,-0.00002661,0.00004424,0.025645
 47,0.00626680,-0.00502144,-0.00130923,-0.00081517,0.00277627,0.0004421
 4,-0.00020317,-0.00022798,-0.00010065,0.00002270,-0.00016729,-0.000000
 96,-0.00004113,0.00001055,0.00002098,0.00000665,0.00001386,-0.00004636
 ,-0.00001555,0.00000206,0.00004660,0.00002219,-0.00002844,0.00000535,-
 0.00000576,0.00000696,-0.00001114,0.00000923,-0.00001032,0.00000192,-0
 .00000052,0.00000242,0.00000756,0.00000292,-0.00000102,-0.00001888,-0.
 00001412,-0.00002368,0.00000932,0.00000331,-0.00000009,0.00001712,0.00
 001294,0.00000830,-0.00001302,0.00000359,-0.00001933,0.00001073,-0.000
 00822,0.00001693,-0.00000033,0.00000078,-0.00001129,-0.00336607,0.0006
 1698,0.00320985,0.00000094,0.00000044,0.00000194,-0.00000252,-0.000000
 33,-0.00000279,-0.00000325,-0.00000100,0.00000401,-0.00001163,-0.00000
 543,-0.00001189,-0.00000984,0.00000252,0.00001115,-0.00000583,-0.00000
 188,-0.00000620,-0.00000098,-0.00000225,-0.00000316,-0.00000381,0.0000
 0065,0.00000358,-0.00017226,0.00003787,0.00013668,-0.00030207,-0.00024
 877,-0.00006831,0.00053901,-0.00228101,-0.00062395,-0.04546353,-0.0008
 7796,0.06711788,0.00172869,0.00048166,0.00110834,-0.01213832,-0.003940
 52,0.00402972,-0.00009350,0.00128231,-0.00008728,0.00067557,0.00016522
 ,0.00004510,-0.00016531,0.00003517,0.00002219,0.00005905,-0.00005657,-
 0.00012976,0.00011740,-0.00027070,0.00000113,-0.00000430,0.00005660,0.
 00002854,-0.01690106,0.00473869,0.00400339,0.00177949,0.00026072,0.000
 76676,0.00013818,-0.00020521,0.00001700,-0.33207452,-0.00921625,0.0478
 1964,-0.01693446,-0.00570715,-0.01648650,0.00037111,0.00258848,0.00164
 716,0.00061277,-0.00001721,-0.00042459,-0.00019436,-0.00009080,0.00016
 604,0.00002031,0.00013434,0.00008708,0.00018104,0.00011521,-0.00042980
 ,-0.00023088,-0.00038167,0.00078034,-0.00003726,-0.00005333,0.00002717
 ,0.00001073,0.00003066,-0.00003365,-0.00000823,-0.00000825,0.00000058,
 -0.00003435,0.00000714,0.00002010,0.00001883,-0.00002351,-0.00002921,-
 0.00000956,0.00000198,-0.00000634,0.00002522,0.00002153,0.00003808,0.0
 0000572,0.00000648,-0.00007145,-0.00000426,0.00000238,0.00005364,0.000
 02494,0.00000126,-0.00006003,0.00024134,0.00016666,-0.00016053,-0.0000
 0042,-0.00000033,0.00000850,0.00000210,0.00000117,-0.00000220,0.000009
 79,0.00000716,-0.00001412,0.00001848,0.00000115,0.00002731,0.00003481,
 -0.00001206,-0.00003601,0.00001106,0.00000186,0.00000651,0.00000236,-0
 .00000839,-0.00000555,0.00000870,0.00000163,0.00000063,0.00042284,-0.0
 0161752,-0.00113853,0.00008845,0.00015344,0.00010284,0.00100738,-0.000
 92179,-0.00035228,0.00099615,-0.00127450,0.00059660,0.36919297,0.00165
 260,0.00062774,-0.00150009,-0.02975705,-0.00628989,0.01045086,-0.00206
 212,0.00071324,0.00036045,0.00082566,0.00009239,-0.00038293,-0.0001423
 3,0.00009936,-0.00001283,-0.00008021,-0.00035849,-0.00012788,0.0001393
 9,-0.00001349,-0.00001558,-0.00001975,-0.00001093,-0.00004568,0.039388
 07,-0.00603772,-0.00607712,-0.00282166,0.00270239,0.00042235,0.0000356
 4,0.00049963,0.00033463,-0.00588588,-0.04304921,0.00380090,-0.01214133
 ,0.00024013,-0.00782297,-0.00314567,0.00092644,0.00022339,0.00044627,-
 0.00016485,0.00001695,0.00004538,0.00002592,-0.00006336,0.00000272,0.0
 0009855,0.00009860,-0.00007841,-0.00001708,-0.00015884,0.00010959,-0.0
 0007391,0.00021550,0.00000887,-0.00001929,-0.00000578,-0.00000944,-0.0
 0000477,-0.00000470,0.00000323,0.00000165,0.00000307,-0.00000504,0.000
 01132,-0.00001967,0.00000861,-0.00000494,0.00003086,-0.00000434,-0.000
 00280,-0.00000149,0.00000849,-0.00000349,-0.00000224,0.00000252,-0.000
 01872,0.00001697,-0.00000625,0.00003311,-0.00000484,-0.00000077,-0.000
 00812,-0.00000353,0.00005080,0.00006149,-0.00042912,0.00000094,0.00000
 003,0.00000064,-0.00000039,-0.00000387,-0.00000132,-0.00000367,0.00000
 216,0.00000518,-0.00001183,-0.00002445,-0.00001003,0.00000123,0.000016
 00,-0.00002396,0.00000002,-0.00000015,0.00000266,0.00000240,-0.0000019
 8,0.00000330,0.00000118,-0.00000188,-0.00000253,0.00049844,0.00030665,
 0.00009174,0.00013611,0.00014011,0.00006512,0.00067845,-0.00014489,-0.
 00000660,-0.00072913,-0.00346741,0.00351476,0.01099749,0.05842989,-0.0
 0136727,-0.00111433,0.00244776,0.02819110,0.00762003,-0.00536232,0.000
 55238,-0.00141570,0.00059758,-0.00073810,0.00002083,0.00008675,0.00022
 046,-0.00006091,0.00002611,0.00023733,-0.00006054,-0.00043808,0.000066
 92,-0.00023973,0.00022478,-0.00002120,0.00007544,-0.00001913,0.0096284
 2,-0.00068798,0.00087870,-0.00076141,0.00077476,0.00013474,-0.00010820
 ,0.00014372,0.00001088,0.05486246,0.00181670,-0.04488328,-0.04725311,-
 0.00928778,-0.01750367,-0.00394750,0.00252154,0.00268601,0.00074618,-0
 .00009471,-0.00042888,-0.00003408,-0.00008414,0.00014334,-0.00000568,0
 .00006093,0.00004110,0.00019903,0.00012700,-0.00022309,-0.00042814,-0.
 00042527,0.00064874,-0.00000509,-0.00003332,0.00001953,-0.00000411,0.0
 0002536,-0.00002170,-0.00000258,-0.00000435,0.00000042,-0.00000452,0.0
 0002244,-0.00000143,0.00000188,-0.00002786,0.00001806,0.00000291,0.000
 00091,-0.00000696,0.00001887,0.00001666,0.00002707,-0.00000712,0.00000
 431,-0.00004172,0.00000608,-0.00000143,0.00002896,0.00000785,0.0000008
 8,-0.00003008,0.00004381,-0.00015124,0.00060812,0.00000119,-0.00000055
 ,0.00000383,-0.00000129,-0.00000014,-0.00000241,0.00000277,0.00000320,
 -0.00000955,0.00001747,0.00000416,0.00002329,0.00001930,0.00000523,-0.
 00006408,0.00000284,0.00000221,0.00000430,0.00000064,-0.00000664,-0.00
 000065,0.00000079,-0.00000080,0.00000223,0.00109934,0.00019235,0.00003
 331,-0.00001961,0.00003476,-0.00014170,-0.00055798,0.00040256,0.000266
 00,0.00033708,0.00387971,-0.00353774,-0.04066751,-0.00202022,0.0628853
 6,0.00009608,-0.00032145,-0.00001706,-0.00050788,0.00143003,0.00181530
 ,0.00052024,0.00010711,-0.00053222,-0.00008366,0.00041275,-0.00004308,
 0.00000692,-0.00000631,0.00004792,-0.00000788,-0.00001883,-0.00006633,
 0.00000260,-0.00003601,0.00002003,0.00000321,0.00001426,0.00001024,-0.
 04901385,-0.01425046,0.03208381,0.00065864,0.00166593,-0.02810895,0.00
 112797,0.00123748,0.00064799,0.00104765,0.01152961,-0.01209578,0.00074
 215,-0.00224432,-0.00073447,-0.00024036,0.00011696,-0.00001149,-0.0000
 9528,-0.00006558,-0.00020790,0.00004426,-0.00004417,0.00010620,-0.0001
 1095,-0.00009090,-0.00008254,-0.00022918,0.00021679,0.00016311,0.00037
 719,-0.00033695,-0.00014997,0.00003744,0.00002583,0.00001203,-0.000019
 40,0.00001451,0.00000665,0.00000275,0.00000243,-0.00000025,0.00000759,
 -0.00000027,0.00001903,-0.00000375,0.00000192,-0.00001042,0.00000246,-
 0.00000041,-0.00000078,-0.00000505,0.00002475,-0.00000523,-0.00001599,
 0.00002189,-0.00002214,0.00001458,-0.00004776,0.00000069,-0.00000914,0
 .00001100,0.00001489,-0.00016588,0.00014662,-0.00019435,0.00000049,-0.
 00000094,-0.00000270,-0.00000316,0.00000142,-0.00000101,-0.00000820,-0
 .00000096,0.00000548,0.00000216,-0.00002280,-0.00002246,-0.00001055,0.
 00001165,-0.00000273,-0.00000421,-0.00000338,-0.00000278,-0.00000223,0
 .00000270,-0.00000122,-0.00000246,0.00000175,0.00000066,-0.00001663,0.
 00004349,0.00001273,0.00000544,0.00000114,0.00001240,-0.00002440,-0.00
 006617,-0.00001431,0.00015466,0.00035657,-0.00011570,0.00065747,-0.000
 58481,-0.00059303,0.04782490,-0.00007219,0.00034632,-0.00011467,0.0027
 3369,-0.00374705,-0.00424265,-0.00070223,0.00012416,0.00171015,0.00021
 106,-0.00125838,0.00010078,-0.00009714,0.00012769,-0.00018906,-0.00001
 030,0.00015270,0.00057511,-0.00004399,0.00014231,-0.00036121,0.0000383
 4,-0.00005479,0.00013878,-0.00984781,-0.11587136,0.13757720,-0.0059313
 0,0.00281221,-0.03052399,-0.00019586,0.00231110,-0.00137808,-0.0039335
 7,-0.02079612,0.02829799,-0.00017661,0.00200702,0.00079532,0.00011036,
 -0.00030669,-0.00028672,0.00000085,0.00009413,-0.00016676,0.00000252,-
 0.00003079,0.00007712,-0.00007948,-0.00037697,-0.00029219,0.00010668,0
 .00043360,0.00056220,-0.00022525,-0.00066182,-0.00071476,0.00001329,0.
 00013313,-0.00001327,0.00002233,-0.00003414,0.00005346,-0.00000065,0.0
 0000872,-0.00000989,-0.00000348,-0.00006395,0.00008156,-0.00000690,0.0
 0004878,-0.00012064,0.00000025,-0.00000885,0.00001119,-0.00001186,0.00
 000012,-0.00006226,-0.00000844,0.00004738,0.00000373,0.00000915,-0.000
 09907,-0.00005155,-0.00002019,0.00002239,0.00007756,0.00004935,-0.0000
 6579,-0.00016660,-0.00000282,0.00000054,-0.00001174,0.00000146,0.00000
 912,0.00000720,0.00000144,-0.00000810,-0.00000637,0.00005316,0.0000624
 8,0.00003894,0.00000910,-0.00001040,-0.00001549,-0.00000124,0.00000077
 ,0.00000567,-0.00000129,0.00002195,-0.00000737,0.00000421,0.00000419,-
 0.00000557,-0.00003654,0.00003622,0.00003067,-0.00001261,-0.00001006,-
 0.00003478,0.00011392,-0.00005678,-0.00008235,-0.00003996,0.00020523,-
 0.00014123,0.00007931,0.00134761,0.00006178,0.01721898,0.13090860,0.00
 004922,0.00028507,0.00010126,-0.00037078,-0.00128889,-0.00017060,-0.00
 001153,-0.00012575,0.00008794,0.00001609,-0.00009183,0.00007717,0.0000
 0095,-0.00004097,-0.00002206,0.00010101,-0.00006628,-0.00017106,0.0000
 0015,-0.00011300,0.00005114,0.00000500,0.00002474,0.00001026,0.0289033
 3,0.13508488,-0.27590028,-0.00885845,-0.00561834,-0.03265540,-0.000640
 99,0.00005665,0.00024842,0.00112117,-0.00093125,0.00151958,0.00033664,
 -0.00281190,0.00062421,-0.00024818,-0.00014066,0.00060882,-0.00003091,
 0.00002914,-0.00010129,0.00000609,0.00000201,0.00006914,0.00000132,-0.
 00000499,-0.00008892,0.00001985,-0.00012327,-0.00007165,-0.00006815,-0
 .00006699,-0.00006810,-0.00000768,-0.00000123,-0.00000516,-0.00000059,
 -0.00000993,-0.00001270,0.00000188,0.00000268,0.00000497,0.00000067,0.
 00001001,-0.00000181,-0.00000227,-0.00001226,0.00000056,0.00000100,0.0
 0000401,-0.00000209,-0.00000895,0.00001220,0.00000640,-0.00000063,-0.0
 0001034,-0.00001083,-0.00000362,0.00000825,0.00001647,0.00000678,-0.00
 000526,-0.00001772,-0.00001196,-0.00017645,0.00002198,-0.00000042,0.00
 000225,0.00000479,0.00000013,0.00000004,-0.00000096,-0.00000075,0.0000
 0046,0.00000120,0.00000275,0.00001403,0.00001201,-0.00000140,0.0000012
 3,-0.00000273,-0.00000003,-0.00000094,-0.00000108,-0.00000115,-0.00000
 251,-0.00000121,-0.00000066,0.00000055,0.00000154,0.00001264,0.0000062
 0,-0.00001713,-0.00001090,0.00000437,0.00000873,0.00000287,0.00000729,
 0.00000378,0.00000477,-0.00010157,0.00004404,-0.00042364,0.00019737,0.
 00047042,-0.02201123,-0.12993231,0.31213007,0.00025774,-0.00021887,-0.
 00033429,0.00093419,-0.00066239,0.00055104,0.00033334,-0.00003291,-0.0
 0003676,0.00006138,0.00018373,-0.00007163,-0.00004183,0.00000848,0.000
 02724,-0.00012336,-0.00008243,0.00004315,0.00005124,0.00008966,-0.0000
 0020,-0.00002572,-0.00002935,-0.00003242,-0.31959120,0.00724874,0.0841
 7085,-0.02119072,-0.01446497,-0.01063610,-0.00033624,0.00016331,-0.000
 37127,-0.01514058,0.00336703,0.00521319,0.00072695,0.00109350,0.001413
 42,0.00032467,-0.00020736,-0.00005950,0.00012168,0.00016492,0.00031698
 ,0.00000134,0.00007092,-0.00009959,-0.00003785,-0.00000600,0.00000481,
 0.00016609,-0.00007141,0.00005716,-0.00022071,0.00011182,-0.00010411,-
 0.00001667,0.00001584,-0.00001311,0.00002784,-0.00002108,0.00001153,-0
 .00000305,-0.00000082,-0.00000225,-0.00000620,-0.00000516,-0.00000735,
 0.00002172,0.00001437,0.00001793,-0.00001187,-0.00000321,0.00000159,-0
 .00002627,-0.00002617,-0.00001483,0.00002456,-0.00001421,0.00003656,-0
 .00002690,0.00002467,-0.00002018,0.00000665,-0.00000467,0.00000989,-0.
 00030055,0.00033409,-0.00034277,-0.00000316,0.00000015,0.00000007,0.00
 000586,0.00000130,0.00000494,0.00000842,0.00000063,-0.00000626,0.00001
 777,0.00002320,0.00002476,0.00001067,-0.00001149,0.00000228,0.00000764
 ,0.00000396,0.00000659,0.00000042,0.00000338,0.00000374,0.00000493,-0.
 00000159,-0.00000285,0.00001814,-0.00013420,-0.00013384,0.00003691,0.0
 0003874,0.00000369,0.00008648,-0.00022004,-0.00004195,0.00016857,0.001
 08100,-0.00064983,0.00036784,0.00244598,0.00026043,-0.00275677,0.00068
 224,0.00212054,0.35606662,-0.00016714,0.00033448,0.00050444,0.00038382
 ,0.00318176,-0.00089216,0.00004972,-0.00004161,-0.00025854,-0.00018550
 ,-0.00005151,0.00012085,0.00003325,-0.00004924,-0.00001738,0.00002483,
 0.00012987,0.00001288,-0.00002863,-0.00003338,0.00000147,0.00001136,0.
 00002153,0.00002458,0.00812831,-0.04172930,0.00524724,-0.02792235,-0.0
 0796225,-0.00927243,-0.00125102,0.00046437,0.00019298,0.03861968,-0.00
 729562,-0.01027095,-0.00123715,0.00164354,0.00109784,0.00007358,0.0000
 5333,0.00003441,-0.00014335,-0.00011584,-0.00021062,-0.00001365,-0.000
 05156,0.00010481,0.00001775,-0.00003023,-0.00002803,0.00004142,0.00009
 251,0.00001774,-0.00004842,-0.00012708,0.00003217,-0.00000682,0.000001
 74,0.00001179,0.00000163,0.00001406,-0.00000872,-0.00000261,-0.0000035
 2,-0.00000075,0.00000063,0.00000309,0.00001129,-0.00000708,-0.00000965
 ,-0.00001649,0.00000452,0.00000331,-0.00000122,0.00000277,0.00001522,0
 .00001592,-0.00000695,0.00001288,-0.00003384,0.00000764,-0.00002480,0.
 00002183,0.00000487,0.00000586,-0.00001386,0.00008306,-0.00026690,0.00
 022986,-0.00000053,0.00000007,0.00000240,-0.00000075,0.00000241,-0.000
 00102,0.00000168,-0.00000189,-0.00000260,0.00000515,0.00001522,0.00000
 975,0.00000195,0.00000212,0.00000196,-0.00000055,-0.00000082,-0.000003
 11,-0.00000157,-0.00000218,-0.00000306,-0.00000090,0.00000153,0.000002
 73,-0.00018744,0.00011474,0.00012333,-0.00002799,-0.00003869,-0.000012
 84,-0.00028041,0.00014121,0.00008030,-0.00101440,-0.00026560,0.0004394
 8,0.00246608,-0.00665347,-0.00209984,-0.01647513,0.00205259,0.00592353
 ,-0.00095338,0.05644770,0.00018572,-0.00013372,0.00019445,-0.00083618,
 -0.00036535,-0.00024723,-0.00008098,0.00016402,0.00010842,0.00002584,-
 0.00021163,0.00003060,-0.00001711,0.00005612,-0.00003025,0.00004983,0.
 00005402,0.00010096,-0.00002779,-0.00004284,-0.00009701,0.00002671,0.0
 0000959,0.00005958,0.08680772,0.00532640,-0.06818828,-0.03681054,-0.01
 183493,-0.00020017,-0.00041038,0.00098845,0.00094871,0.00396197,-0.000
 64810,0.00227242,-0.00069612,0.00029935,0.00069432,0.00004202,0.000038
 55,0.00012524,-0.00008471,-0.00000045,-0.00010864,0.00001473,-0.000027
 75,0.00002750,0.00001276,0.00004953,0.00004719,-0.00021468,-0.00002229
 ,-0.00013399,0.00033662,0.00003316,0.00006327,0.00001417,-0.00003089,0
 .00001474,-0.00002684,0.00002667,-0.00001756,0.00000167,-0.00000224,0.
 00000357,0.00000074,-0.00000835,0.00000858,-0.00001556,-0.00000376,-0.
 00003824,0.00000637,0.00000325,0.00000330,0.00001691,0.00000331,0.0000
 2629,-0.00001804,0.00001805,-0.00002687,0.00001879,-0.00001275,0.00002
 668,-0.00000047,0.00000372,-0.00002099,-0.00005837,0.00014554,-0.00012
 876,0.00000229,-0.00000149,0.00000183,-0.00000470,-0.00000222,-0.00000
 521,-0.00000741,0.00000179,0.00000815,-0.00002521,-0.00004140,-0.00004
 021,-0.00001299,0.00000902,0.00000339,-0.00000546,-0.00000371,-0.00000
 679,-0.00000011,-0.00000291,-0.00000502,-0.00000195,0.00000301,0.00000
 200,-0.00009094,0.00005296,0.00001649,-0.00001208,-0.00001939,-0.00000
 364,-0.00000018,0.00003793,-0.00002015,0.00002967,-0.00040327,0.000259
 89,-0.00084541,-0.00111199,0.00039906,0.03007097,-0.00127492,-0.006802
 04,-0.08132125,0.00888186,0.07067442\\0.01323804,-0.01620930,-0.006926
 98,-0.03153566,0.02662880,0.00116109,0.00789154,-0.00842236,0.02233040
 ,0.00250975,0.01101104,0.01641758,-0.00462671,-0.01050481,-0.02740256,
 0.01235687,-0.01262774,-0.00221402,-0.01044412,0.02078247,0.00491399,0
 .01371634,-0.01226292,0.01297997,-0.03178955,0.01706268,0.00228385,0.0
 0720655,0.00646178,0.00409607,0.00933172,-0.03405108,0.00080807,0.0525
 2706,-0.00230190,-0.00636241,-0.00963069,0.00235901,0.00388876,-0.0463
 8884,0.00303397,-0.00054427,0.02153761,0.01311622,0.00723734,-0.023153
 02,0.00000770,-0.02030680,-0.02042154,0.03406712,0.01063825,0.00211114
 ,-0.02824774,0.00688489,0.00463212,0.03331149,-0.00422041,0.00316032,-
 0.00245385,-0.03368728,-0.00003477,0.02585648,-0.00050945,-0.00713752,
 -0.00809336,0.03190205,0.00198037,-0.02201411,-0.00246684,-0.01193891,
 -0.02168316,-0.00330088,-0.00228957,0.03603847,-0.00300924,0.02354146,
 -0.01582449,-0.00076105,-0.00889802,-0.00602784,0.01235048,0.05542188,
 -0.03828562,0.00285184,-0.01463433,0.01590230,0.01211139,-0.00057513,0
 .00087737,-0.00121983,-0.00176575,-0.00229854,-0.00227253,-0.01779968,
 -0.00145980,-0.00219374,0.01947374,0.00385424,-0.00145434,-0.02415761,
 -0.00686133,0.00146238,0.01766126,-0.00050083,0.00150066,-0.01936474,-
 0.00046937,0.00313275,-0.00357232,-0.00753215,-0.01585047,0.01882911,0
 .00410308,-0.00285949,0.01786084,0.00450313,-0.00469921,-0.02075061,0.
 00042165,0.00097114,0.02320970,0.00057144,-0.00184028,-0.02168644,-0.0
 0627460,0.00181425,0.02808484,0.00209481,-0.00023114,0.00055814,0.0013
 4842,-0.01981267,-0.02424487,0.00099324,0.00240867\\\@


 TIME IS IN FACT THE HERO OF THE PLOT. THE TIME
 WITH WHICH WE HAVE TO DEAL IS OF THE ORDER OF TWO
 BILLION YEARS...GIVEN SO MUCH TIME, THE "IMPOSSIBLE"
 BECOMES POSSIBLE, THE POSSIBLE PROBABLE, THE PROBABLE
 VIRTUALLY CERTAIN.  ONE HAS ONLY TO WAIT, TIME
 ITSELF PERFORMS THE MIRACLES.
 "ORIGIN OF LIFE" LECTURES, GEORGE WALD, 1954
 Job cpu time:  3 days 20 hours 13 minutes 59.2 seconds.
 File lengths (MBytes):  RWF=   2348 Int=      0 D2E=      0 Chk=     43 Scr=      1
 Normal termination of Gaussian 09 at Fri Feb 12 10:09:57 2016.
Gaussian '09 finished on node014 at Fri Feb 12 10:09:57 EST 2016.
