Gaussian '09 started on node023 at Tue Mar  1 03:28:03 EST 2016.
 Entering Gaussian System, Link 0=/usr/local/gaussian/g09/g09
 Initial command:
 /usr/local/gaussian/g09/l1.exe /home/srmcgrat/thesis/gaussian/cellobiose/500/10000/2/gdp/gaussian25935/Gau-25971.inp -scrdir=/home/srmcgrat/thesis/gaussian/cellobiose/500/10000/2/gdp/gaussian25935/
 Entering Link 1 = /usr/local/gaussian/g09/l1.exe PID=     25973.
  
 Copyright (c) 1988,1990,1992,1993,1995,1998,2003,2009,2010,
            Gaussian, Inc.  All Rights Reserved.
  
 This is part of the Gaussian(R) 09 program.  It is based on
 the Gaussian(R) 03 system (copyright 2003, Gaussian, Inc.),
 the Gaussian(R) 98 system (copyright 1998, Gaussian, Inc.),
 the Gaussian(R) 94 system (copyright 1995, Gaussian, Inc.),
 the Gaussian 92(TM) system (copyright 1992, Gaussian, Inc.),
 the Gaussian 90(TM) system (copyright 1990, Gaussian, Inc.),
 the Gaussian 88(TM) system (copyright 1988, Gaussian, Inc.),
 the Gaussian 86(TM) system (copyright 1986, Carnegie Mellon
 University), and the Gaussian 82(TM) system (copyright 1983,
 Carnegie Mellon University). Gaussian is a federally registered
 trademark of Gaussian, Inc.
  
 This software contains proprietary and confidential information,
 including trade secrets, belonging to Gaussian, Inc.
  
 This software is provided under written license and may be
 used, copied, transmitted, or stored only in accord with that
 written license.
  
 The following legend is applicable only to US Government
 contracts under FAR:
  
                    RESTRICTED RIGHTS LEGEND
  
 Use, reproduction and disclosure by the US Government is
 subject to restrictions as set forth in subparagraphs (a)
 and (c) of the Commercial Computer Software - Restricted
 Rights clause in FAR 52.227-19.
  
 Gaussian, Inc.
 340 Quinnipiac St., Bldg. 40, Wallingford CT 06492
  
  
 ---------------------------------------------------------------
 Warning -- This program may not be used in any manner that
 competes with the business of Gaussian, Inc. or will provide
 assistance to any competitor of Gaussian, Inc.  The licensee
 of this program is prohibited from giving any competitor of
 Gaussian, Inc. access to this program.  By using this program,
 the user acknowledges that Gaussian, Inc. is engaged in the
 business of creating and licensing software in the field of
 computational chemistry and represents and warrants to the
 licensee that it is not a competitor of Gaussian, Inc. and that
 it will not use this program in any manner prohibited above.
 ---------------------------------------------------------------
  

 Cite this work as:
 Gaussian 09, Revision B.01,
 M. J. Frisch, G. W. Trucks, H. B. Schlegel, G. E. Scuseria, 
 M. A. Robb, J. R. Cheeseman, G. Scalmani, V. Barone, B. Mennucci, 
 G. A. Petersson, H. Nakatsuji, M. Caricato, X. Li, H. P. Hratchian, 
 A. F. Izmaylov, J. Bloino, G. Zheng, J. L. Sonnenberg, M. Hada, 
 M. Ehara, K. Toyota, R. Fukuda, J. Hasegawa, M. Ishida, T. Nakajima, 
 Y. Honda, O. Kitao, H. Nakai, T. Vreven, J. A. Montgomery, Jr., 
 J. E. Peralta, F. Ogliaro, M. Bearpark, J. J. Heyd, E. Brothers, 
 K. N. Kudin, V. N. Staroverov, T. Keith, R. Kobayashi, J. Normand, 
 K. Raghavachari, A. Rendell, J. C. Burant, S. S. Iyengar, J. Tomasi, 
 M. Cossi, N. Rega, J. M. Millam, M. Klene, J. E. Knox, J. B. Cross, 
 V. Bakken, C. Adamo, J. Jaramillo, R. Gomperts, R. E. Stratmann, 
 O. Yazyev, A. J. Austin, R. Cammi, C. Pomelli, J. W. Ochterski, 
 R. L. Martin, K. Morokuma, V. G. Zakrzewski, G. A. Voth, 
 P. Salvador, J. J. Dannenberg, S. Dapprich, A. D. Daniels, 
 O. Farkas, J. B. Foresman, J. V. Ortiz, J. Cioslowski, 
 and D. J. Fox, Gaussian, Inc., Wallingford CT, 2010.
 
 ******************************************
 Gaussian 09:  EM64L-G09RevB.01 12-Aug-2010
                 1-Mar-2016 
 ******************************************
 ------------------------------------------------
 # freq=raman b3lyp/6-31+g(d,p) geom=connectivity
 ------------------------------------------------
 1/10=4,30=1,38=1,57=2/1,3;
 2/12=2,17=6,18=5,40=1/2;
 3/5=1,6=6,7=111,11=2,16=1,25=1,30=1,71=2,74=-5/1,2,3;
 4//1;
 5/5=2,38=5,98=1/2;
 8/6=4,10=90,11=11/1;
 10/13=10,15=4/2;
 11/6=3,8=1,9=11,15=111,16=1/1,2,10;
 10/6=1/2;
 6/7=2,8=2,9=2,10=2,18=1,28=1/1;
 7/8=1,10=1,25=1/1,2,3,16;
 1/10=4,30=1/3;
 99//99;
 -------------
 500 10000.com
 -------------
 Symbolic Z-matrix:
 Charge =  0 Multiplicity = 1
 O                     8.42      6.311     22.916 
 C                     9.282     6.37      24.062 
 C                     8.982     7.744     24.639 
 O                     9.331     8.756     23.684 
 H                     9.027     8.672     22.735 
 C                     9.602     8.009     26.001 
 O                     9.011     9.192     26.558 
 H                     9.184     9.984     25.973 
 C                     9.182     3.859     24.428 
 O                     8.756     2.758     25.244 
 H                     8.801     1.849     24.832 
 C                     8.898     5.238     25.001 
 O                     9.57      5.505     26.24 
 C                     9.387     6.781     26.871 
 O                     10.379    6.651     27.899 
 C                     9.944     6.51      29.259 
 C                     9.817     5.043     29.636 
 O                     9.372     4.133     28.62 
 H                     9.543     4.501     27.707 
 C                     9.026     4.743     30.899 
 O                     9.251     3.333     31.05 
 H                     9.021     2.867     30.196 
 C                     10.417    8.73      30.139 
 O                     11.132    9.723     30.888 
 H                     10.709    10.594    30.639 
 C                     10.57     7.247     30.432 
 O                     9.929     6.944     31.679 
 C                     9.685     5.566     31.994 
 O                     8.905     5.601     33.198 
 H                     9.49078   5.6231    33.95825 
 H                     10.62539   5.11      32.22343 
 H                     7.98808   4.97649   30.78453 
 H                     10.81799   4.73735   29.85849 
 H                     8.93726   6.87194   29.23979 
 H                     11.60933   7.00063   30.49527 
 H                     9.37633   8.95879   30.23677 
 H                     10.67811   8.87065   29.11093 
 H                     8.95147   6.2699    22.1176 
 H                     10.23683   3.77174   24.27111 
 H                     8.69257   3.7826    23.47957 
 H                     7.84509   5.30427   25.17957 
 H                     10.30856   6.2943    23.76987 
 H                     7.92143   7.79665   24.77058 
 H                     10.65293   8.16949   25.87977 
 H                     8.41478   6.82367   27.31582 
 

 GradGradGradGradGradGradGradGradGradGradGradGradGradGradGradGradGradGrad
 Berny optimization.
 Initialization pass.
 Trust Radius=3.00D-01 FncErr=1.00D-07 GrdErr=1.00D-07
 Number of steps in this run=      2 maximum allowed number of steps=      2.
 GradGradGradGradGradGradGradGradGradGradGradGradGradGradGradGradGradGrad

                          Input orientation:                          
 ---------------------------------------------------------------------
 Center     Atomic      Atomic             Coordinates (Angstroms)
 Number     Number       Type             X           Y           Z
 ---------------------------------------------------------------------
      1          8           0        8.420000    6.311000   22.916000
      2          6           0        9.282000    6.370000   24.062000
      3          6           0        8.982000    7.744000   24.639000
      4          8           0        9.331000    8.756000   23.684000
      5          1           0        9.027000    8.672000   22.735000
      6          6           0        9.602000    8.009000   26.001000
      7          8           0        9.011000    9.192000   26.558000
      8          1           0        9.184000    9.984000   25.973000
      9          6           0        9.182000    3.859000   24.428000
     10          8           0        8.756000    2.758000   25.244000
     11          1           0        8.801000    1.849000   24.832000
     12          6           0        8.898000    5.238000   25.001000
     13          8           0        9.570000    5.505000   26.240000
     14          6           0        9.387000    6.781000   26.871000
     15          8           0       10.379000    6.651000   27.899000
     16          6           0        9.944000    6.510000   29.259000
     17          6           0        9.817000    5.043000   29.636000
     18          8           0        9.372000    4.133000   28.620000
     19          1           0        9.543000    4.501000   27.707000
     20          6           0        9.026000    4.743000   30.899000
     21          8           0        9.251000    3.333000   31.050000
     22          1           0        9.021000    2.867000   30.196000
     23          6           0       10.417000    8.730000   30.139000
     24          8           0       11.132000    9.723000   30.888000
     25          1           0       10.709000   10.594000   30.639000
     26          6           0       10.570000    7.247000   30.432000
     27          8           0        9.929000    6.944000   31.679000
     28          6           0        9.685000    5.566000   31.994000
     29          8           0        8.905000    5.601000   33.198000
     30          1           0        9.490779    5.623100   33.958246
     31          1           0       10.625387    5.110001   32.223427
     32          1           0        7.988081    4.976495   30.784528
     33          1           0       10.817987    4.737346   29.858486
     34          1           0        8.937256    6.871936   29.239794
     35          1           0       11.609325    7.000627   30.495272
     36          1           0        9.376328    8.958785   30.236774
     37          1           0       10.678113    8.870653   29.110926
     38          1           0        8.951471    6.269895   22.117596
     39          1           0       10.236832    3.771739   24.271110
     40          1           0        8.692567    3.782603   23.479570
     41          1           0        7.845089    5.304271   25.179570
     42          1           0       10.308561    6.294298   23.769867
     43          1           0        7.921427    7.796652   24.770576
     44          1           0       10.652926    8.169490   25.879768
     45          1           0        8.414780    6.823668   27.315822
 ---------------------------------------------------------------------
                    Distance matrix (angstroms):
                    1          2          3          4          5
     1  O    0.000000
     2  C    1.435215   0.000000
     3  C    2.310425   1.520133   0.000000
     4  O    2.719884   2.416254   1.434563   0.000000
     5  H    2.444490   2.669299   2.118590   1.000036   0.000000
     6  C    3.714506   2.558992   1.519760   2.449477   3.381856
     7  O    4.681197   3.777187   2.404185   2.924444   3.858236
     8  H    4.839408   4.089318   2.614949   2.601752   3.497233
     9  C    2.979781   2.539503   3.895863   4.955436   5.104434
    10  O    4.261020   3.836710   5.027653   6.224165   6.429924
    11  H    4.870899   4.611258   5.900935   7.021784   7.141555
    12  C    2.393123   1.520066   2.533404   3.781310   4.116279
    13  O    3.608478   2.361113   2.814616   4.142373   4.754972
    14  C    4.098538   2.840850   2.464390   3.749764   4.562015
    15  O    5.365032   4.000617   3.711315   4.826547   5.707823
    16  C    6.526548   5.240864   4.877766   6.041598   6.933809
    17  C    6.979816   5.754705   5.741310   7.031989   7.836934
    18  O    6.179450   5.078153   5.388857   6.762981   7.440079
    19  H    5.243177   4.104547   4.499377   5.859565   6.510321
    20  C    8.158073   7.032584   6.942301   8.261563   9.060239
    21  O    8.701781   7.619480   7.786540   9.147310   9.884044
    22  H    8.075936   7.068599   7.393707   8.785361   9.453284
    23  C    7.874725   6.617232   5.769005   6.545769   7.533570
    24  O    9.085674   7.826837   6.898474   7.488411   8.485696
    25  H    9.122957   7.945781   6.863310   7.324558   8.306409
    26  C    7.873300   6.557818   6.027238   7.024792   7.978426
    27  O    8.914479   7.665949   7.148315   8.219548   9.153946
    28  C    9.195941   7.982822   7.702851   8.908284   9.788222
    29  O   10.317890   9.176055   8.823540  10.032532  10.905058
    30  H   11.115349   9.926587   9.571072  10.742473  11.639250
    31  H    9.640246   8.366671   8.195255   9.374997  10.260260
    32  H    7.992571   6.986306   6.812817   8.155096   8.918016
    33  H    7.511647   6.214826   6.297130   7.515649   8.332658
    34  H    6.369660   5.213477   4.682927   5.879760   6.749862
    35  H    8.251833   6.870307   6.461529   7.393614   8.347677
    36  H    7.843409   6.696159   5.741627   6.556068   7.515377
    37  H    7.073048   5.804657   4.913682   5.592797   6.589239
    38  H    0.960000   1.974836   2.920855   2.962833   2.481330
    39  H    3.403681   2.776039   4.181962   5.099812   5.275972
    40  H    2.604745   2.716851   4.137719   5.018373   4.957059
    41  H    2.543183   2.109373   2.745371   4.044638   4.326019
    42  H    2.072687   1.070000   2.148672   2.650089   2.892545
    43  H    2.428001   2.094893   1.070000   2.021854   2.476307
    44  H    4.150165   2.902048   2.124275   2.629236   3.575713
    45  H    4.429593   3.397830   2.886889   4.214677   4.977457
                    6          7          8          9         10
     6  C    0.000000
     7  O    1.434928   0.000000
     8  H    2.018944   0.999709   0.000000
     9  C    4.457940   5.745174   6.316855   0.000000
    10  O    5.372315   6.571756   7.275280   1.435107   0.000000
    11  H    6.320899   7.546047   8.223551   2.085300   0.999025
    12  C    3.028871   4.251016   4.852947   1.520074   2.495919
    13  O    2.515584   3.742669   4.503524   2.478549   3.033253
    14  C    1.520233   2.460135   3.332690   3.814231   4.385182
    15  O    2.459735   3.182198   4.030681   4.612582   4.983834
    16  C    3.602573   3.919058   4.841908   5.563003   5.622195
    17  C    4.696446   5.228568   6.183182   5.378508   5.063261
    18  O    4.683528   5.475002   6.424652   4.205240   3.696952
    19  H    3.901279   4.858879   5.761851   3.360703   3.118299
    20  C    5.915145   6.215956   7.194340   6.532965   5.999346
    21  O    6.890615   7.386714   8.367569   6.643216   5.855364
    22  H    6.661513   7.296627   8.277197   5.854896   4.960283
    23  C    4.278681   3.874770   4.521986   7.607062   7.898400
    24  O    5.400136   4.850722   5.293397   8.939832   9.274230
    25  H    5.423902   4.637173   4.946643   9.288082   9.712010
    26  C    4.599068   4.606667   5.412471   7.032290   7.096271
    27  O    5.786263   5.667528   6.508077   7.915316   7.765806
    28  C    6.472340   6.569037   7.484796   7.772465   7.369559
    29  O    7.621095   7.549577   8.455126   8.945624   8.448134
    30  H    8.307987   8.229877   9.103610   9.697061   9.202542
    31  H    6.940470   7.167010   8.056135   8.026024   7.598613
    32  H    5.889224   6.056433   7.046711   6.563512   6.017381
    33  H    5.202167   5.831153   6.730103   5.739175   5.427991
    34  H    3.496368   3.546852   4.518603   5.682521   5.737917
    35  H    5.024405   5.201492   5.935794   7.250760   7.329202
    36  H    4.346815   3.704219   4.389513   7.732233   7.985132
    37  H    3.401779   3.065936   3.649451   7.020314   7.484127
    38  H    4.304475   5.315960   5.358431   3.347167   4.705956
    39  H    4.620596   6.009306   6.526643   1.070000   2.041335
    40  H    5.004709   6.232151   6.701942   1.070000   2.041335
    41  H    3.328219   4.286473   4.931742   2.107367   2.705070
    42  H    2.901273   4.225402   4.442109   2.762781   4.133875
    43  H    2.093648   2.515760   2.797214   4.148675   5.129197
    44  H    1.070000   2.049743   2.336425   4.780333   5.769467
    45  H    2.131493   2.557102   3.518887   4.209205   4.575865
                   11         12         13         14         15
    11  H    0.000000
    12  C    3.394597   0.000000
    13  O    3.992513   1.434571   0.000000
    14  C    5.368942   2.473231   1.435209   0.000000
    15  O    5.912341   3.548004   2.172574   1.434485   0.000000
    16  C    6.529142   4.565377   3.203789   2.467029   1.434819
    17  C    5.857671   4.729251   3.436171   3.294051   2.432833
    18  O    4.460005   3.813510   2.754267   3.173504   2.806103
    19  H    3.981117   2.877782   1.777873   2.433440   2.314792
    20  C    6.725649   5.920119   4.752143   4.528637   3.804086
    21  O    6.408454   6.351695   5.287291   5.419524   4.712781
    22  H    5.464176   5.711812   4.786479   5.148687   4.630230
    23  C    8.838771   6.395347   5.130325   3.941995   3.056352
    24  O   10.203361   7.730637   6.468019   5.276048   4.351817
    25  H   10.669430   7.984579   6.822495   5.521275   4.812873
    26  C    7.976701   6.027224   4.648379   3.781186   2.609173
    27  O    8.608880   6.969152   5.637581   4.841198   3.817951
    28  C    8.117376   7.044785   5.755472   5.273534   4.292771
    29  O    9.169421   8.205037   6.990365   6.454119   5.599516
    30  H    9.899899   8.985096   7.719556   7.181961   6.209668
    31  H    8.282253   7.427227   6.088618   5.742327   4.597397
    32  H    6.773083   5.860506   4.840922   4.530885   4.104477
    33  H    6.138106   5.247111   3.903870   3.892212   2.773872
    34  H    6.684093   4.542979   3.356731   2.412825   1.981203
    35  H    8.154667   6.375356   4.950059   4.257031   2.894230
    36  H    8.949393   6.440992   5.285863   4.008903   3.434591
    37  H    8.434238   5.766841   4.560455   3.324288   2.546584
    38  H    5.189889   3.062954   4.238143   4.800601   5.967220
    39  H    2.464374   2.115451   2.706545   4.066607   4.633783
    40  H    2.362127   2.115451   3.369943   4.579784   5.532008
    41  H    3.601870   1.070000   2.034728   2.723812   3.953439
    42  H    4.812644   2.149683   2.696297   3.271571   4.145110
    43  H    6.012652   2.748361   3.182557   2.755219   4.139954
    44  H    6.669036   3.527837   2.898621   2.124385   2.541288
    45  H    5.573676   2.847147   2.056894   1.070000   2.056228
                   16         17         18         19         20
    16  C    0.000000
    17  C    1.519983   0.000000
    18  O    2.526981   1.434706   0.000000
    19  H    2.570133   2.022345   0.999117   0.000000
    20  C    2.579654   1.520148   2.384462   3.242640   0.000000
    21  O    3.712312   2.289946   2.561160   3.553187   1.435802
    22  H    3.873157   2.383735   2.051763   3.022840   2.003400
    23  C    2.434446   3.769215   4.952958   4.956101   4.290530
    24  O    3.793198   5.019873   6.284069   6.317671   5.407010
    25  H    4.378205   5.710978   6.899888   6.861547   6.093791
    26  C    1.520189   2.461349   3.796781   4.002608   2.978597
    27  O    2.458654   2.792883   4.191593   4.679106   2.503639
    28  C    2.904900   2.418908   3.679040   4.419588   1.520077
    29  O    4.173910   3.718999   4.830238   5.636322   2.456869
    30  H    4.803635   4.373185   5.543589   6.351371   3.217077
    31  H    3.348450   2.711597   3.938299   4.684075   2.108753
    32  H    2.916247   2.160668   2.704052   3.480668   1.070000
    33  H    2.065318   1.070000   1.997489   2.512040   2.072178
    34  H    1.070000   2.067833   2.841640   2.887511   2.700594
    35  H    2.131289   2.789818   4.092133   4.276949   3.454482
    36  H    2.697192   3.986037   5.089418   5.128293   4.281836
    37  H    2.476596   3.958301   4.938855   4.727933   4.792098
    38  H    7.214043   7.666865   6.857436   5.892397   8.913474
    39  H    5.697620   5.529413   4.448740   3.580302   6.807231
    40  H    6.512034   6.383931   5.196963   4.371555   7.488757
    41  H    4.743517   4.880211   3.942066   3.148975   5.866980
    42  H    5.505453   6.018213   5.391859   4.393520   7.407835
    43  H    5.088440   5.903232   5.508591   4.702489   6.935593
    44  H    3.830886   4.958123   5.044095   4.246002   6.291296
    45  H    2.492557   3.243490   3.139561   2.611645   4.188309
                   21         22         23         24         25
    21  O    0.000000
    22  H    0.999686   0.000000
    23  C    5.596167   6.027175   0.000000
    24  O    6.663070   7.206936   1.434669   0.000000
    25  H    7.417331   7.921624   1.951861   0.999785   0.000000
    26  C    4.176252   4.651827   1.519390   2.579604   3.356275
    27  O    3.727552   4.432345   2.408223   3.129813   3.874597
    28  C    2.462881   3.310332   3.740019   4.538468   5.307107
    29  O    3.142840   4.062046   4.629716   5.223649   5.893466
    30  H    3.709440   4.687353   5.009726   5.378587   6.100107
    31  H    2.534483   3.422802   4.182422   4.829056   5.708909
    32  H    2.089621   2.421416   4.517207   5.694229   6.243472
    33  H    2.418128   2.615583   4.022532   5.100514   5.909439
    34  H    3.987398   4.118356   2.539807   3.957531   4.353231
    35  H    4.395556   4.886294   2.130563   2.791664   3.707232
    36  H    5.685640   6.102276   1.070000   2.022499   2.147493
    37  H    6.038399   6.321966   1.070000   2.022499   2.303452
    38  H    9.407599   8.766136   8.517207   9.674638   9.716024
    39  H    6.864234   6.115646   7.684331   8.944387   9.344314
    40  H    7.604301   6.786503   8.473394   9.804284  10.085562
    41  H    6.350152   5.699791   6.553342   7.931905   8.123336
    42  H    7.930199   7.395902   6.819843   7.943668   8.113740
    43  H    7.818127   7.412540   5.993246   7.172271   7.073480
    44  H    7.217224   7.029185   4.302428   5.265481   5.341505
    45  H    5.179586   4.931344   3.951369   5.343207   5.524704
                   26         27         28         29         30
    26  C    0.000000
    27  O    1.434468   0.000000
    28  C    2.459437   1.434449   0.000000
    29  O    3.623851   2.271472   1.435006   0.000000
    30  H    4.029414   2.670539   1.974650   0.960000   0.000000
    31  H    2.789094   2.035905   1.070000   2.037303   2.135463
    32  H    3.456266   2.904879   2.165612   2.656237   3.570530
    33  H    2.586267   2.995645   2.555533   3.944334   4.399327
    34  H    2.056181   2.634099   3.138509   4.157368   4.912206
    35  H    1.070000   2.056189   2.829730   4.071495   4.286958
    36  H    2.095990   2.538665   3.833290   4.501747   4.998924
    37  H    2.095990   3.296690   4.496568   5.526186   5.954231
    38  H    8.526646   9.634855   9.928590  11.100673  11.870560
    39  H    7.081314   8.064418   7.947762   9.209199   9.890639
    40  H    7.991438   8.874336   8.755623   9.889367  10.668984
    41  H    6.227949   7.019543   7.063301   8.093619   8.937287
    42  H    6.734984   7.944845   8.279831   9.557214  10.243160
    43  H    6.274454   7.244562   7.762979   8.764119   9.570814
    44  H    4.645501   5.971347   6.715569   7.950402   8.549648
    45  H    3.812446   4.620028   5.008047   6.027872   6.835271
                   31         32         33         34         35
    31  H    0.000000
    32  H    3.007265   0.000000
    33  H    2.401857   2.987159   0.000000
    34  H    3.854383   2.622943   2.911426   0.000000
    35  H    2.743925   4.158629   2.480756   2.955121   0.000000
    36  H    4.507779   4.252752   4.476832   2.354081   2.981187
    37  H    4.881900   5.020128   4.202693   2.653688   2.506105
    38  H   10.308986   8.815709   8.108882   7.147612   8.819502
    39  H    8.073492   6.995208   5.699904   5.998995   7.144903
    40  H    9.052780   7.435327   6.791135   6.540950   8.251256
    41  H    7.575204   5.616354   5.572412   4.487295   6.730808
    42  H    8.541991   7.505112   6.305148   5.668707   6.886360
    43  H    8.371050   6.642691   6.605773   4.675566   6.856120
    44  H    7.042957   6.430652   5.257095   3.989604   4.856316
    45  H    5.648719   3.952979   4.073486   1.994236   4.510580
                   36         37         38         39         40
    36  H    0.000000
    37  H    1.723353   0.000000
    38  H    8.563393   7.658453   0.000000
    39  H    7.952048   7.043967   3.539853   0.000000
    40  H    8.539333   7.844923   2.847566   1.735341   0.000000
    41  H    6.424600   6.016698   3.395909   2.982346   2.433864
    42  H    7.056163   5.941471   2.138292   2.572877   3.000721
    43  H    5.774653   5.252755   3.229595   4.670170   4.286484
    44  H    4.608274   3.306454   4.545036   4.701184   5.371102
    45  H    3.743696   3.540511   5.255118   4.680216   4.903272
                   41         42         43         44         45
    41  H    0.000000
    42  H    3.006012   0.000000
    43  H    2.526869   2.992807   0.000000
    44  H    4.072310   2.843697   2.971600   0.000000
    45  H    2.682664   4.054681   2.769183   2.980400   0.000000
 Stoichiometry    C12H22O11
 Framework group  C1[X(C12H22O11)]
 Deg. of freedom   129
 Full point group                 C1      NOp   1
 Largest Abelian subgroup         C1      NOp   1
 Largest concise Abelian subgroup C1      NOp   1
                         Standard orientation:                         
 ---------------------------------------------------------------------
 Center     Atomic      Atomic             Coordinates (Angstroms)
 Number     Number       Type             X           Y           Z
 ---------------------------------------------------------------------
      1          8           0       -5.020872   -0.156977    0.540525
      2          6           0       -3.791494    0.043903   -0.172299
      3          6           0       -3.272434    1.347832    0.411781
      4          8           0       -4.202099    2.404985    0.135884
      5          1           0       -5.176331    2.272449    0.318588
      6          6           0       -1.857264    1.711148   -0.006506
      7          8           0       -1.385585    2.778172    0.828957
      8          1           0       -1.962248    3.588600    0.728536
      9          6           0       -3.396108   -2.448928   -0.452546
     10          8           0       -2.611279   -3.606537   -0.130803
     11          1           0       -3.000962   -4.494784   -0.370001
     12          6           0       -2.879420   -1.137393    0.116254
     13          8           0       -1.581096   -0.763280   -0.365811
     14          6           0       -0.994363    0.463511    0.093053
     15          8           0        0.134565    0.499895   -0.791224
     16          6           0        1.443266    0.286682   -0.243001
     17          6           0        1.829268   -1.181343   -0.322079
     18          8           0        0.787373   -2.151751   -0.145601
     19          1           0       -0.108529   -1.759330   -0.349562
     20          6           0        3.006636   -1.610683    0.538340
     21          8           0        3.204103   -2.963453    0.099540
     22          1           0        2.338528   -3.460366    0.156354
     23          6           0        2.330966    2.553511   -0.243712
     24          8           0        3.134477    3.651156   -0.699586
     25          1           0        2.827707    4.439535   -0.166742
     26          6           0        2.663249    1.116580   -0.608901
     27          8           0        3.840580    0.709357    0.102268
     28          6           0        4.151107   -0.690393    0.146056
     29          8           0        5.265365   -0.787537    1.045073
     30          1           0        6.082678   -0.668747    0.555698
     31          1           0        4.486041   -0.983150   -0.827090
     32          1           0        2.779436   -1.553725    1.582388
     33          1           0        2.161176   -1.315737   -1.330383
     34          1           0        1.311926    0.475377    0.802008
     35          1           0        2.839905    1.047217   -1.661936
     36          1           0        2.314587    2.605128    0.824917
     37          1           0        1.333958    2.736962   -0.586088
     38          1           0       -5.757966   -0.107825   -0.072563
     39          1           0       -3.439382   -2.358577   -1.517846
     40          1           0       -4.389457   -2.604946   -0.086739
     41          1           0       -2.814036   -1.248142    1.178496
     42          1           0       -3.972413    0.141080   -1.222406
     43          1           0       -3.254355    1.222428    1.474254
     44          1           0       -1.869642    2.045076   -1.022990
     45          1           0       -0.655343    0.342670    1.100705
 ---------------------------------------------------------------------
 Rotational constants (GHZ):      0.3652270      0.1515938      0.1114133
 Standard basis: 6-31+G(d,p) (6D, 7F)
 There are   547 symmetry adapted basis functions of A   symmetry.
 Integral buffers will be    131072 words long.
 Raffenetti 2 integral format.
 Two-electron integral symmetry is turned on.
   547 basis functions,   890 primitive gaussians,   547 cartesian basis functions
    91 alpha electrons       91 beta electrons
       nuclear repulsion energy      2270.0604950140 Hartrees.
 NAtoms=   45 NActive=   45 NUniq=   45 SFac= 1.00D+00 NAtFMM=   50 NAOKFM=F Big=F
 One-electron integrals computed using PRISM.
 NBasis=   547 RedAO= T  NBF=   547
 NBsUse=   547 1.00D-06 NBFU=   547
 Harris functional with IExCor=  402 diagonalized for initial guess.
 ExpMin= 4.38D-02 ExpMax= 5.48D+03 ExpMxC= 8.25D+02 IAcc=2 IRadAn=         0 AccDes= 0.00D+00
 HarFok:  IExCor=  402 AccDes= 0.00D+00 IRadAn=         0 IDoV= 1
 ScaDFX=  1.000000  1.000000  1.000000  1.000000
 FoFCou: FMM=F IPFlag=           0 FMFlag=      100000 FMFlg1=           0
         NFxFlg=           0 DoJE=T BraDBF=F KetDBF=T FulRan=T
         Omega=  0.000000  0.000000  1.000000  0.000000  0.000000 ICntrl=     500 IOpCl=  0
         NMat0=    1 NMatS0=    1 NMatT0=    0 NMatD0=    1 NMtDS0=    0 NMtDT0=    0
         I1Cent=           4 NGrid=           0.
 Petite list used in FoFCou.
 Initial guess orbital symmetries:
       Occupied  (A) (A) (A) (A) (A) (A) (A) (A) (A) (A) (A) (A)
                 (A) (A) (A) (A) (A) (A) (A) (A) (A) (A) (A) (A)
                 (A) (A) (A) (A) (A) (A) (A) (A) (A) (A) (A) (A)
                 (A) (A) (A) (A) (A) (A) (A) (A) (A) (A) (A) (A)
                 (A) (A) (A) (A) (A) (A) (A) (A) (A) (A) (A) (A)
                 (A) (A) (A) (A) (A) (A) (A) (A) (A) (A) (A) (A)
                 (A) (A) (A) (A) (A) (A) (A) (A) (A) (A) (A) (A)
                 (A) (A) (A) (A) (A) (A) (A)
       Virtual   (A) (A) (A) (A) (A) (A) (A) (A) (A) (A) (A) (A)
                 (A) (A) (A) (A) (A) (A) (A) (A) (A) (A) (A) (A)
                 (A) (A) (A) (A) (A) (A) (A) (A) (A) (A) (A) (A)
                 (A) (A) (A) (A) (A) (A) (A) (A) (A) (A) (A) (A)
                 (A) (A) (A) (A) (A) (A) (A) (A) (A) (A) (A) (A)
                 (A) (A) (A) (A) (A) (A) (A) (A) (A) (A) (A) (A)
                 (A) (A) (A) (A) (A) (A) (A) (A) (A) (A) (A) (A)
                 (A) (A) (A) (A) (A) (A) (A) (A) (A) (A) (A) (A)
                 (A) (A) (A) (A) (A) (A) (A) (A) (A) (A) (A) (A)
                 (A) (A) (A) (A) (A) (A) (A) (A) (A) (A) (A) (A)
                 (A) (A) (A) (A) (A) (A) (A) (A) (A) (A) (A) (A)
                 (A) (A) (A) (A) (A) (A) (A) (A) (A) (A) (A) (A)
                 (A) (A) (A) (A) (A) (A) (A) (A) (A) (A) (A) (A)
                 (A) (A) (A) (A) (A) (A) (A) (A) (A) (A) (A) (A)
                 (A) (A) (A) (A) (A) (A) (A) (A) (A) (A) (A) (A)
                 (A) (A) (A) (A) (A) (A) (A) (A) (A) (A) (A) (A)
                 (A) (A) (A) (A) (A) (A) (A) (A) (A) (A) (A) (A)
                 (A) (A) (A) (A) (A) (A) (A) (A) (A) (A) (A) (A)
                 (A) (A) (A) (A) (A) (A) (A) (A) (A) (A) (A) (A)
                 (A) (A) (A) (A) (A) (A) (A) (A) (A) (A) (A) (A)
                 (A) (A) (A) (A) (A) (A) (A) (A) (A) (A) (A) (A)
                 (A) (A) (A) (A) (A) (A) (A) (A) (A) (A) (A) (A)
                 (A) (A) (A) (A) (A) (A) (A) (A) (A) (A) (A) (A)
                 (A) (A) (A) (A) (A) (A) (A) (A) (A) (A) (A) (A)
                 (A) (A) (A) (A) (A) (A) (A) (A) (A) (A) (A) (A)
                 (A) (A) (A) (A) (A) (A) (A) (A) (A) (A) (A) (A)
                 (A) (A) (A) (A) (A) (A) (A) (A) (A) (A) (A) (A)
                 (A) (A) (A) (A) (A) (A) (A) (A) (A) (A) (A) (A)
                 (A) (A) (A) (A) (A) (A) (A) (A) (A) (A) (A) (A)
                 (A) (A) (A) (A) (A) (A) (A) (A) (A) (A) (A) (A)
                 (A) (A) (A) (A) (A) (A) (A) (A) (A) (A) (A) (A)
                 (A) (A) (A) (A) (A) (A) (A) (A) (A) (A) (A) (A)
                 (A) (A) (A) (A) (A) (A) (A) (A) (A) (A) (A) (A)
                 (A) (A) (A) (A) (A) (A) (A) (A) (A) (A) (A) (A)
                 (A) (A) (A) (A) (A) (A) (A) (A) (A) (A) (A) (A)
                 (A) (A) (A) (A) (A) (A) (A) (A) (A) (A) (A) (A)
                 (A) (A) (A) (A) (A) (A) (A) (A) (A) (A) (A) (A)
                 (A) (A) (A) (A) (A) (A) (A) (A) (A) (A) (A) (A)
 The electronic state of the initial guess is 1-A.
 Requested convergence on RMS density matrix=1.00D-08 within 128 cycles.
 Requested convergence on MAX density matrix=1.00D-06.
 Requested convergence on             energy=1.00D-06.
 No special actions if energy rises.
 SCF Done:  E(RB3LYP) =  -1297.92618366     A.U. after   14 cycles
             Convg  =    0.2657D-08             -V/T =  2.0088
 Range of M.O.s used for correlation:     1   547
 NBasis=   547 NAE=    91 NBE=    91 NFC=     0 NFV=     0
 NROrb=    547 NOA=    91 NOB=    91 NVA=   456 NVB=   456

 **** Warning!!: The largest alpha MO coefficient is  0.67176309D+02

          Differentiating once with respect to electric field.
                with respect to dipole field.
          Electric field/nuclear overlap derivatives assumed to be zero.
          There are     3 degrees of freedom in the 1st order CPHF.  IDoFFX=0.
      3 vectors produced by pass  0 Test12= 1.38D-12 3.33D-08 XBig12= 1.17D+02 1.33D+00.
 AX will form     3 AO Fock derivatives at one time.
      3 vectors produced by pass  1 Test12= 1.38D-12 3.33D-08 XBig12= 2.09D+01 3.86D-01.
      3 vectors produced by pass  2 Test12= 1.38D-12 3.33D-08 XBig12= 8.26D+00 2.06D-01.
      3 vectors produced by pass  3 Test12= 1.38D-12 3.33D-08 XBig12= 8.64D-01 9.22D-02.
      3 vectors produced by pass  4 Test12= 1.38D-12 3.33D-08 XBig12= 2.79D-01 3.46D-02.
      3 vectors produced by pass  5 Test12= 1.38D-12 3.33D-08 XBig12= 5.75D-02 1.56D-02.
      3 vectors produced by pass  6 Test12= 1.38D-12 3.33D-08 XBig12= 1.53D-02 1.18D-02.
      3 vectors produced by pass  7 Test12= 1.38D-12 3.33D-08 XBig12= 2.82D-03 6.22D-03.
      3 vectors produced by pass  8 Test12= 1.38D-12 3.33D-08 XBig12= 4.78D-04 2.46D-03.
      3 vectors produced by pass  9 Test12= 1.38D-12 3.33D-08 XBig12= 1.10D-04 1.47D-03.
      3 vectors produced by pass 10 Test12= 1.38D-12 3.33D-08 XBig12= 2.84D-05 5.02D-04.
      3 vectors produced by pass 11 Test12= 1.38D-12 3.33D-08 XBig12= 7.59D-06 3.56D-04.
      3 vectors produced by pass 12 Test12= 1.38D-12 3.33D-08 XBig12= 6.88D-07 1.11D-04.
      3 vectors produced by pass 13 Test12= 1.38D-12 3.33D-08 XBig12= 1.20D-07 3.61D-05.
      3 vectors produced by pass 14 Test12= 1.38D-12 3.33D-08 XBig12= 3.66D-08 1.83D-05.
      3 vectors produced by pass 15 Test12= 1.38D-12 3.33D-08 XBig12= 6.27D-09 7.29D-06.
      3 vectors produced by pass 16 Test12= 1.38D-12 3.33D-08 XBig12= 7.87D-10 3.80D-06.
      3 vectors produced by pass 17 Test12= 1.38D-12 3.33D-08 XBig12= 8.53D-11 8.72D-07.
      3 vectors produced by pass 18 Test12= 1.38D-12 3.33D-08 XBig12= 2.50D-11 2.88D-07.
      3 vectors produced by pass 19 Test12= 1.38D-12 3.33D-08 XBig12= 1.22D-11 2.43D-07.
      2 vectors produced by pass 20 Test12= 1.38D-12 3.33D-08 XBig12= 3.90D-12 1.50D-07.
      2 vectors produced by pass 21 Test12= 1.38D-12 3.33D-08 XBig12= 1.03D-12 6.32D-08.
      1 vectors produced by pass 22 Test12= 1.38D-12 3.33D-08 XBig12= 5.39D-13 4.03D-08.
 Inverted reduced A of dimension    65 with in-core refinement.
 End of Minotr Frequency-dependent properties file   721 does not exist.
 End of Minotr Frequency-dependent properties file   722 does not exist.
 Symmetrizing basis deriv contribution to polar:
 IMax=3 JMax=2 DiffMx= 0.00D+00
 G2DrvN: will do    23 centers at a time, making    2 passes doing MaxLOS=2.
 Calling FoFCou, ICntrl=  3107 FMM=F I1Cent=   0 AccDes= 0.00D+00.
 Calling FoFCou, ICntrl=  3107 FMM=F I1Cent=   0 AccDes= 0.00D+00.
 FoFDir/FoFCou used for L=0 through L=2.
 End of G2Drv Frequency-dependent properties file   721 does not exist.
 End of G2Drv Frequency-dependent properties file   722 does not exist.
          IDoAtm=111111111111111111111111111111111111111111111
          Differentiating once with respect to electric field.
                with respect to dipole field.
          Differentiating once with respect to nuclear coordinates.
          There are   138 degrees of freedom in the 1st order CPHF.  IDoFFX=5.
 Will reuse    3 saved solutions.
    135 vectors produced by pass  0 Test12= 4.15D-14 1.00D-09 XBig12= 2.69D-01 7.60D-02.
 AX will form    68 AO Fock derivatives at one time.
    135 vectors produced by pass  1 Test12= 4.15D-14 1.00D-09 XBig12= 2.65D-02 1.71D-02.
    132 vectors produced by pass  2 Test12= 4.15D-14 1.00D-09 XBig12= 1.44D-04 1.57D-03.
    132 vectors produced by pass  3 Test12= 4.15D-14 1.00D-09 XBig12= 5.14D-07 5.29D-05.
    132 vectors produced by pass  4 Test12= 4.15D-14 1.00D-09 XBig12= 1.09D-09 2.21D-06.
    129 vectors produced by pass  5 Test12= 4.15D-14 1.00D-09 XBig12= 3.82D-12 1.22D-07.
     80 vectors produced by pass  6 Test12= 4.15D-14 1.00D-09 XBig12= 1.17D-13 2.17D-08.
 Inverted reduced A of dimension   875 with in-core refinement.
 Isotropic polarizability for W=    0.000000      187.86 Bohr**3.
 End of Minotr Frequency-dependent properties file   721 does not exist.
 End of Minotr Frequency-dependent properties file   722 does not exist.

 **********************************************************************

            Population analysis using the SCF density.

 **********************************************************************

 Orbital symmetries:
       Occupied  (A) (A) (A) (A) (A) (A) (A) (A) (A) (A) (A) (A)
                 (A) (A) (A) (A) (A) (A) (A) (A) (A) (A) (A) (A)
                 (A) (A) (A) (A) (A) (A) (A) (A) (A) (A) (A) (A)
                 (A) (A) (A) (A) (A) (A) (A) (A) (A) (A) (A) (A)
                 (A) (A) (A) (A) (A) (A) (A) (A) (A) (A) (A) (A)
                 (A) (A) (A) (A) (A) (A) (A) (A) (A) (A) (A) (A)
                 (A) (A) (A) (A) (A) (A) (A) (A) (A) (A) (A) (A)
                 (A) (A) (A) (A) (A) (A) (A)
       Virtual   (A) (A) (A) (A) (A) (A) (A) (A) (A) (A) (A) (A)
                 (A) (A) (A) (A) (A) (A) (A) (A) (A) (A) (A) (A)
                 (A) (A) (A) (A) (A) (A) (A) (A) (A) (A) (A) (A)
                 (A) (A) (A) (A) (A) (A) (A) (A) (A) (A) (A) (A)
                 (A) (A) (A) (A) (A) (A) (A) (A) (A) (A) (A) (A)
                 (A) (A) (A) (A) (A) (A) (A) (A) (A) (A) (A) (A)
                 (A) (A) (A) (A) (A) (A) (A) (A) (A) (A) (A) (A)
                 (A) (A) (A) (A) (A) (A) (A) (A) (A) (A) (A) (A)
                 (A) (A) (A) (A) (A) (A) (A) (A) (A) (A) (A) (A)
                 (A) (A) (A) (A) (A) (A) (A) (A) (A) (A) (A) (A)
                 (A) (A) (A) (A) (A) (A) (A) (A) (A) (A) (A) (A)
                 (A) (A) (A) (A) (A) (A) (A) (A) (A) (A) (A) (A)
                 (A) (A) (A) (A) (A) (A) (A) (A) (A) (A) (A) (A)
                 (A) (A) (A) (A) (A) (A) (A) (A) (A) (A) (A) (A)
                 (A) (A) (A) (A) (A) (A) (A) (A) (A) (A) (A) (A)
                 (A) (A) (A) (A) (A) (A) (A) (A) (A) (A) (A) (A)
                 (A) (A) (A) (A) (A) (A) (A) (A) (A) (A) (A) (A)
                 (A) (A) (A) (A) (A) (A) (A) (A) (A) (A) (A) (A)
                 (A) (A) (A) (A) (A) (A) (A) (A) (A) (A) (A) (A)
                 (A) (A) (A) (A) (A) (A) (A) (A) (A) (A) (A) (A)
                 (A) (A) (A) (A) (A) (A) (A) (A) (A) (A) (A) (A)
                 (A) (A) (A) (A) (A) (A) (A) (A) (A) (A) (A) (A)
                 (A) (A) (A) (A) (A) (A) (A) (A) (A) (A) (A) (A)
                 (A) (A) (A) (A) (A) (A) (A) (A) (A) (A) (A) (A)
                 (A) (A) (A) (A) (A) (A) (A) (A) (A) (A) (A) (A)
                 (A) (A) (A) (A) (A) (A) (A) (A) (A) (A) (A) (A)
                 (A) (A) (A) (A) (A) (A) (A) (A) (A) (A) (A) (A)
                 (A) (A) (A) (A) (A) (A) (A) (A) (A) (A) (A) (A)
                 (A) (A) (A) (A) (A) (A) (A) (A) (A) (A) (A) (A)
                 (A) (A) (A) (A) (A) (A) (A) (A) (A) (A) (A) (A)
                 (A) (A) (A) (A) (A) (A) (A) (A) (A) (A) (A) (A)
                 (A) (A) (A) (A) (A) (A) (A) (A) (A) (A) (A) (A)
                 (A) (A) (A) (A) (A) (A) (A) (A) (A) (A) (A) (A)
                 (A) (A) (A) (A) (A) (A) (A) (A) (A) (A) (A) (A)
                 (A) (A) (A) (A) (A) (A) (A) (A) (A) (A) (A) (A)
                 (A) (A) (A) (A) (A) (A) (A) (A) (A) (A) (A) (A)
                 (A) (A) (A) (A) (A) (A) (A) (A) (A) (A) (A) (A)
                 (A) (A) (A) (A) (A) (A) (A) (A) (A) (A) (A) (A)
 The electronic state is 1-A.
 Alpha  occ. eigenvalues --  -19.20334 -19.19860 -19.18948 -19.18738 -19.18654
 Alpha  occ. eigenvalues --  -19.17490 -19.17095 -19.16073 -19.15660 -19.14512
 Alpha  occ. eigenvalues --  -19.14420 -10.32872 -10.29280 -10.27590 -10.27449
 Alpha  occ. eigenvalues --  -10.27377 -10.26922 -10.26109 -10.25536 -10.25506
 Alpha  occ. eigenvalues --  -10.23969 -10.23238 -10.22898  -1.10944  -1.07757
 Alpha  occ. eigenvalues --   -1.06974  -1.05224  -1.04306  -1.03157  -1.02878
 Alpha  occ. eigenvalues --   -1.02387  -1.01592  -1.00483  -0.98909  -0.82864
 Alpha  occ. eigenvalues --   -0.82271  -0.79451  -0.77903  -0.73109  -0.69758
 Alpha  occ. eigenvalues --   -0.67929  -0.65713  -0.64198  -0.62300  -0.61653
 Alpha  occ. eigenvalues --   -0.59769  -0.57242  -0.56794  -0.55648  -0.54929
 Alpha  occ. eigenvalues --   -0.54204  -0.53758  -0.52815  -0.52106  -0.51454
 Alpha  occ. eigenvalues --   -0.50572  -0.49810  -0.48671  -0.48632  -0.47176
 Alpha  occ. eigenvalues --   -0.46623  -0.45609  -0.44350  -0.44153  -0.43796
 Alpha  occ. eigenvalues --   -0.42959  -0.42466  -0.41469  -0.40073  -0.39405
 Alpha  occ. eigenvalues --   -0.38358  -0.36931  -0.36702  -0.36495  -0.36191
 Alpha  occ. eigenvalues --   -0.35170  -0.34783  -0.33973  -0.33564  -0.33298
 Alpha  occ. eigenvalues --   -0.32441  -0.31205  -0.30802  -0.30163  -0.29904
 Alpha  occ. eigenvalues --   -0.29751  -0.29489  -0.28071  -0.26952  -0.26545
 Alpha  occ. eigenvalues --   -0.26158
 Alpha virt. eigenvalues --   -0.03695  -0.01993  -0.01114  -0.00201   0.00652
 Alpha virt. eigenvalues --    0.00919   0.01589   0.01987   0.02483   0.03165
 Alpha virt. eigenvalues --    0.03317   0.03996   0.04643   0.05256   0.06022
 Alpha virt. eigenvalues --    0.06453   0.06713   0.06824   0.07174   0.07852
 Alpha virt. eigenvalues --    0.08556   0.08851   0.09084   0.10015   0.10192
 Alpha virt. eigenvalues --    0.10228   0.10639   0.11257   0.11952   0.12014
 Alpha virt. eigenvalues --    0.12121   0.12657   0.12951   0.13256   0.13795
 Alpha virt. eigenvalues --    0.14055   0.14411   0.14642   0.15021   0.15463
 Alpha virt. eigenvalues --    0.15550   0.16098   0.16312   0.16440   0.16643
 Alpha virt. eigenvalues --    0.16934   0.17284   0.17787   0.18121   0.18301
 Alpha virt. eigenvalues --    0.18736   0.19003   0.19487   0.19676   0.19889
 Alpha virt. eigenvalues --    0.20452   0.21027   0.21138   0.21272   0.21448
 Alpha virt. eigenvalues --    0.21986   0.22080   0.22360   0.22708   0.23134
 Alpha virt. eigenvalues --    0.23404   0.23552   0.24132   0.24288   0.24669
 Alpha virt. eigenvalues --    0.24721   0.25087   0.25457   0.25933   0.26042
 Alpha virt. eigenvalues --    0.26179   0.26557   0.26996   0.27192   0.27777
 Alpha virt. eigenvalues --    0.28046   0.28183   0.28330   0.28636   0.29036
 Alpha virt. eigenvalues --    0.29567   0.29649   0.29724   0.30130   0.30316
 Alpha virt. eigenvalues --    0.30524   0.31149   0.31294   0.31856   0.31997
 Alpha virt. eigenvalues --    0.32955   0.33220   0.33450   0.33756   0.34207
 Alpha virt. eigenvalues --    0.34836   0.35039   0.35122   0.35422   0.36164
 Alpha virt. eigenvalues --    0.36383   0.36619   0.36771   0.37334   0.37839
 Alpha virt. eigenvalues --    0.38109   0.38416   0.38708   0.38962   0.39225
 Alpha virt. eigenvalues --    0.39424   0.39941   0.40270   0.40964   0.41543
 Alpha virt. eigenvalues --    0.41840   0.41958   0.42516   0.43191   0.43459
 Alpha virt. eigenvalues --    0.44146   0.44698   0.45359   0.45568   0.46496
 Alpha virt. eigenvalues --    0.46770   0.48680   0.49055   0.49299   0.50903
 Alpha virt. eigenvalues --    0.51812   0.52524   0.53814   0.61794   0.62354
 Alpha virt. eigenvalues --    0.64472   0.65436   0.68515   0.68802   0.69844
 Alpha virt. eigenvalues --    0.70312   0.70800   0.72000   0.72883   0.73654
 Alpha virt. eigenvalues --    0.74323   0.74997   0.76500   0.77687   0.78608
 Alpha virt. eigenvalues --    0.80140   0.80509   0.82354   0.83029   0.84501
 Alpha virt. eigenvalues --    0.85012   0.86170   0.86749   0.87089   0.90398
 Alpha virt. eigenvalues --    0.90661   0.92006   0.93134   0.93177   0.94352
 Alpha virt. eigenvalues --    0.95532   0.97668   0.99852   1.00106   1.01134
 Alpha virt. eigenvalues --    1.01667   1.02142   1.02654   1.03125   1.03820
 Alpha virt. eigenvalues --    1.03900   1.04691   1.05830   1.06113   1.07103
 Alpha virt. eigenvalues --    1.07966   1.08213   1.09143   1.09362   1.09919
 Alpha virt. eigenvalues --    1.10906   1.11841   1.13349   1.14028   1.14836
 Alpha virt. eigenvalues --    1.16057   1.16662   1.17936   1.20029   1.21322
 Alpha virt. eigenvalues --    1.21659   1.22780   1.24070   1.24394   1.24893
 Alpha virt. eigenvalues --    1.25177   1.25999   1.26406   1.26732   1.27138
 Alpha virt. eigenvalues --    1.27859   1.28631   1.29489   1.30697   1.30807
 Alpha virt. eigenvalues --    1.31752   1.31995   1.32841   1.33491   1.33595
 Alpha virt. eigenvalues --    1.33734   1.35520   1.36370   1.36513   1.37949
 Alpha virt. eigenvalues --    1.38505   1.38671   1.39572   1.40632   1.41436
 Alpha virt. eigenvalues --    1.41845   1.42926   1.44601   1.45725   1.47830
 Alpha virt. eigenvalues --    1.49978   1.50597   1.51127   1.53362   1.53626
 Alpha virt. eigenvalues --    1.54951   1.55116   1.55739   1.57067   1.57861
 Alpha virt. eigenvalues --    1.58783   1.59231   1.60263   1.61060   1.61175
 Alpha virt. eigenvalues --    1.61852   1.62779   1.63116   1.63698   1.64165
 Alpha virt. eigenvalues --    1.65300   1.65880   1.67174   1.67946   1.68666
 Alpha virt. eigenvalues --    1.69991   1.70171   1.70566   1.71300   1.72138
 Alpha virt. eigenvalues --    1.74690   1.74966   1.75572   1.76848   1.77827
 Alpha virt. eigenvalues --    1.78051   1.78709   1.80197   1.80941   1.82226
 Alpha virt. eigenvalues --    1.83041   1.84309   1.85364   1.86355   1.86585
 Alpha virt. eigenvalues --    1.87451   1.87834   1.89573   1.89935   1.90876
 Alpha virt. eigenvalues --    1.91433   1.91822   1.92889   1.94811   1.95228
 Alpha virt. eigenvalues --    1.95669   1.96275   1.96816   1.97900   1.98851
 Alpha virt. eigenvalues --    1.99550   2.00608   2.01079   2.01832   2.03289
 Alpha virt. eigenvalues --    2.03741   2.04442   2.04991   2.05650   2.06312
 Alpha virt. eigenvalues --    2.07849   2.08380   2.09301   2.10326   2.11100
 Alpha virt. eigenvalues --    2.11821   2.12435   2.13659   2.13919   2.15003
 Alpha virt. eigenvalues --    2.15548   2.16930   2.17527   2.19689   2.20230
 Alpha virt. eigenvalues --    2.22186   2.23003   2.23818   2.25080   2.26233
 Alpha virt. eigenvalues --    2.27278   2.29620   2.30876   2.32895   2.33831
 Alpha virt. eigenvalues --    2.34277   2.35620   2.35828   2.38103   2.38331
 Alpha virt. eigenvalues --    2.39164   2.39462   2.40053   2.41100   2.42988
 Alpha virt. eigenvalues --    2.45318   2.47341   2.47751   2.48669   2.48900
 Alpha virt. eigenvalues --    2.49680   2.50586   2.52006   2.52460   2.54705
 Alpha virt. eigenvalues --    2.54839   2.55587   2.57068   2.58645   2.59820
 Alpha virt. eigenvalues --    2.60654   2.61095   2.62604   2.62671   2.63793
 Alpha virt. eigenvalues --    2.65003   2.65700   2.65967   2.68413   2.69067
 Alpha virt. eigenvalues --    2.69392   2.70790   2.72943   2.73538   2.75112
 Alpha virt. eigenvalues --    2.76121   2.76775   2.78789   2.78895   2.81125
 Alpha virt. eigenvalues --    2.82060   2.82791   2.83654   2.83904   2.84849
 Alpha virt. eigenvalues --    2.86528   2.87335   2.89075   2.89475   2.90012
 Alpha virt. eigenvalues --    2.90386   2.90672   2.91939   2.93765   2.94197
 Alpha virt. eigenvalues --    2.95204   2.95857   2.96135   2.97555   2.98868
 Alpha virt. eigenvalues --    2.99830   3.00363   3.00434   3.03133   3.05653
 Alpha virt. eigenvalues --    3.07212   3.08330   3.09993   3.10856   3.12652
 Alpha virt. eigenvalues --    3.18192   3.20537   3.22000   3.24318   3.27384
 Alpha virt. eigenvalues --    3.31424   3.35566   3.38483   3.40053   3.41440
 Alpha virt. eigenvalues --    3.42428   3.43785   3.45158   3.46591   3.47441
 Alpha virt. eigenvalues --    3.48009   3.49409   3.50750   3.52196   3.52877
 Alpha virt. eigenvalues --    3.54156   3.56048   3.58397   3.60161   3.62236
 Alpha virt. eigenvalues --    3.63285   3.67034   3.73514   4.26940   4.29784
 Alpha virt. eigenvalues --    4.34410   4.34762   4.36871   4.37449   4.40801
 Alpha virt. eigenvalues --    4.46141   4.47888   4.50005   4.51612   4.57443
 Alpha virt. eigenvalues --    4.58693   4.60219   4.62346   4.65473   4.71901
 Alpha virt. eigenvalues --    4.77959   4.79303   4.82837   4.85456   4.87516
 Alpha virt. eigenvalues --    4.93415
          Condensed to atoms (all electrons):
              1          2          3          4          5          6
     1  O    8.372048   0.285831  -0.183856   0.000507   0.028274   0.040145
     2  C    0.285831   9.110097  -1.499257  -0.047369  -0.055493  -2.000873
     3  C   -0.183856  -1.499257  10.095270   0.193730  -0.013583  -0.593208
     4  O    0.000507  -0.047369   0.193730   8.287902   0.227970  -0.031417
     5  H    0.028274  -0.055493  -0.013583   0.227970   0.389148   0.025702
     6  C    0.040145  -2.000873  -0.593208  -0.031417   0.025702  12.006331
     7  O   -0.001405   0.025105  -0.115411  -0.012246   0.000858   0.126806
     8  H   -0.000181   0.020562  -0.023856   0.011706  -0.000341   0.020545
     9  C   -0.014749   0.539684  -0.146427  -0.002849  -0.003057   0.249882
    10  O   -0.000709   0.015499   0.000559   0.000057  -0.000001  -0.010186
    11  H    0.000173  -0.001212   0.002270   0.000000   0.000000   0.000952
    12  C   -0.178401  -2.084365  -1.203655   0.057936   0.024945   0.798534
    13  O    0.009273  -0.057386   0.061145  -0.002563  -0.000020  -0.025572
    14  C    0.025127   1.020391  -0.262075  -0.043064   0.007613  -3.498891
    15  O    0.000038  -0.005709  -0.033456   0.000762   0.000046  -0.033481
    16  C    0.002414   0.155513  -0.250139  -0.003248   0.000797  -0.183886
    17  C    0.001175  -0.007378  -0.123255   0.002336   0.000064  -0.507180
    18  O   -0.000008   0.004672  -0.005897   0.000005   0.000000   0.020712
    19  H   -0.000035   0.000479   0.003169  -0.000008   0.000000   0.009321
    20  C    0.000140   0.015208  -0.000679  -0.000052   0.000000  -0.002339
    21  O    0.000000   0.000074   0.000128   0.000000   0.000000   0.001544
    22  H    0.000000  -0.000112   0.000050   0.000000   0.000000   0.000206
    23  C   -0.000012   0.004996  -0.011011  -0.000192  -0.000025  -0.054884
    24  O    0.000000   0.000057  -0.002345  -0.000002   0.000000  -0.005543
    25  H    0.000000   0.000004  -0.000047   0.000000   0.000000  -0.000520
    26  C    0.000170   0.054255  -0.054353   0.000319   0.000023  -0.382450
    27  O    0.000000   0.000132   0.000976   0.000001   0.000000  -0.001493
    28  C   -0.000001  -0.002848   0.001026   0.000031   0.000000  -0.009908
    29  O    0.000000  -0.000005   0.000012   0.000000   0.000000  -0.000064
    30  H    0.000000   0.000000   0.000001   0.000000   0.000000   0.000006
    31  H    0.000000   0.000000   0.000018   0.000000   0.000000   0.000357
    32  H    0.000000   0.000029   0.000090   0.000000   0.000000   0.003493
    33  H    0.000000  -0.000103   0.000375   0.000000   0.000000   0.009753
    34  H   -0.000004   0.001763   0.001023   0.000001   0.000000   0.002977
    35  H    0.000000   0.000046   0.000247   0.000000   0.000000   0.001373
    36  H    0.000000  -0.000003  -0.001428  -0.000001   0.000000   0.008898
    37  H    0.000000  -0.000630   0.008798   0.000009   0.000000  -0.023617
    38  H    0.227088   0.099693  -0.055577  -0.001404  -0.002857   0.004359
    39  H   -0.001941   0.025664  -0.005497   0.000010   0.000000   0.013587
    40  H    0.008694   0.042968  -0.002784  -0.000128  -0.000001  -0.007574
    41  H    0.006139  -0.011184  -0.043852  -0.000268  -0.000001   0.033035
    42  H   -0.042660   0.350738  -0.035883  -0.000418  -0.000235  -0.002490
    43  H   -0.009421   0.072707   0.333136  -0.053478  -0.002629  -0.240901
    44  H   -0.001046   0.056013  -0.070722   0.002509   0.000018   0.225701
    45  H    0.000116   0.034611  -0.055371  -0.000135   0.000007  -0.118525
              7          8          9         10         11         12
     1  O   -0.001405  -0.000181  -0.014749  -0.000709   0.000173  -0.178401
     2  C    0.025105   0.020562   0.539684   0.015499  -0.001212  -2.084365
     3  C   -0.115411  -0.023856  -0.146427   0.000559   0.002270  -1.203655
     4  O   -0.012246   0.011706  -0.002849   0.000057   0.000000   0.057936
     5  H    0.000858  -0.000341  -0.003057  -0.000001   0.000000   0.024945
     6  C    0.126806   0.020545   0.249882  -0.010186   0.000952   0.798534
     7  O    8.245189   0.211979  -0.001153  -0.000013   0.000000   0.007993
     8  H    0.211979   0.396134   0.000921   0.000000   0.000000   0.002294
     9  C   -0.001153   0.000921   6.894102   0.076848  -0.014016  -2.089545
    10  O   -0.000013   0.000000   0.076848   8.334825   0.207130   0.030154
    11  H    0.000000   0.000000  -0.014016   0.207130   0.418305   0.025175
    12  C    0.007993   0.002294  -2.089545   0.030154   0.025175  11.813334
    13  O    0.006107  -0.000733   0.024196   0.009705  -0.000272  -0.190063
    14  C    0.065174  -0.000992  -0.328960   0.004326  -0.001466  -0.817458
    15  O   -0.002599   0.000214  -0.004001  -0.002018   0.000017   0.022389
    16  C    0.004394  -0.008740  -0.061400   0.016031  -0.000499   0.067502
    17  C    0.008469  -0.001277  -0.081551  -0.011375  -0.000016  -0.111593
    18  O    0.000155  -0.000001   0.015184  -0.001405   0.000100  -0.029268
    19  H   -0.000049   0.000000  -0.007424   0.003602  -0.000089   0.007502
    20  C    0.001607  -0.000137  -0.005256   0.001526  -0.000117  -0.043487
    21  O    0.000002   0.000000  -0.000003  -0.000068  -0.000001  -0.000628
    22  H    0.000000   0.000000   0.000143   0.000002   0.000000   0.000126
    23  C   -0.005279  -0.001074   0.001236   0.000064  -0.000001   0.006240
    24  O   -0.000034   0.000015  -0.000006   0.000000   0.000000   0.000056
    25  H    0.000036  -0.000002  -0.000001   0.000000   0.000000   0.000002
    26  C    0.000934   0.000435  -0.008123   0.000686  -0.000041  -0.010054
    27  O   -0.000033   0.000001  -0.000282   0.000000   0.000000  -0.001318
    28  C   -0.000115   0.000024  -0.002790   0.000090   0.000006   0.003282
    29  O    0.000001   0.000000   0.000014   0.000000   0.000000   0.000024
    30  H    0.000000   0.000000   0.000000   0.000000   0.000000   0.000000
    31  H    0.000001   0.000000   0.000001   0.000000   0.000000  -0.000037
    32  H    0.000011   0.000000   0.000165   0.000003   0.000000   0.000343
    33  H    0.000012   0.000000   0.001130   0.000013   0.000000   0.000199
    34  H   -0.000261   0.000004  -0.000014   0.000010   0.000000   0.003301
    35  H    0.000011   0.000000  -0.000009   0.000000   0.000000  -0.000308
    36  H    0.000245   0.000006   0.000031   0.000000   0.000000   0.000179
    37  H   -0.000444  -0.000041  -0.000095   0.000000   0.000000  -0.000988
    38  H   -0.000024   0.000001   0.004052   0.000115  -0.000001  -0.026172
    39  H   -0.000002   0.000000   0.594134  -0.058761  -0.002340  -0.278079
    40  H   -0.000003   0.000000   0.431585  -0.052946  -0.005931  -0.105254
    41  H   -0.000311   0.000002   0.060968   0.004014  -0.000035   0.198355
    42  H   -0.000150  -0.000002   0.018176   0.000160  -0.000002  -0.085749
    43  H    0.001203  -0.000674   0.006914  -0.000024   0.000000  -0.035840
    44  H   -0.044996  -0.005152   0.002889  -0.000014   0.000000  -0.005029
    45  H    0.003274  -0.000036   0.002661  -0.000204   0.000000  -0.029407
             13         14         15         16         17         18
     1  O    0.009273   0.025127   0.000038   0.002414   0.001175  -0.000008
     2  C   -0.057386   1.020391  -0.005709   0.155513  -0.007378   0.004672
     3  C    0.061145  -0.262075  -0.033456  -0.250139  -0.123255  -0.005897
     4  O   -0.002563  -0.043064   0.000762  -0.003248   0.002336   0.000005
     5  H   -0.000020   0.007613   0.000046   0.000797   0.000064   0.000000
     6  C   -0.025572  -3.498891  -0.033481  -0.183886  -0.507180   0.020712
     7  O    0.006107   0.065174  -0.002599   0.004394   0.008469   0.000155
     8  H   -0.000733  -0.000992   0.000214  -0.008740  -0.001277  -0.000001
     9  C    0.024196  -0.328960  -0.004001  -0.061400  -0.081551   0.015184
    10  O    0.009705   0.004326  -0.002018   0.016031  -0.011375  -0.001405
    11  H   -0.000272  -0.001466   0.000017  -0.000499  -0.000016   0.000100
    12  C   -0.190063  -0.817458   0.022389   0.067502  -0.111593  -0.029268
    13  O    8.513063   0.102676  -0.042698   0.037102  -0.016865   0.015712
    14  C    0.102676  11.102996   0.216722   0.378259  -1.323078   0.004451
    15  O   -0.042698   0.216722   8.309819  -0.042518   0.035202   0.001779
    16  C    0.037102   0.378259  -0.042518  18.268776  -4.874544  -0.037822
    17  C   -0.016865  -1.323078   0.035202  -4.874544  11.463215   0.221189
    18  O    0.015712   0.004451   0.001779  -0.037822   0.221189   8.351826
    19  H    0.016202   0.012666   0.019376  -0.056595   0.022849   0.198207
    20  C   -0.023946  -0.103078   0.054296  -2.196603  -0.154033  -0.089804
    21  O    0.000205  -0.007319  -0.000139  -0.087913  -0.048749  -0.016643
    22  H   -0.000006   0.009371   0.000023   0.059475  -0.094774   0.029529
    23  C   -0.000874   0.175962  -0.053015   0.526541  -0.381592   0.008320
    24  O    0.000038   0.022036  -0.002028   0.098668  -0.012943   0.000115
    25  H    0.000004  -0.003312   0.000293  -0.033937   0.002313  -0.000001
    26  C    0.026732  -1.730924   0.038008  -7.641572   1.767464  -0.010401
    27  O    0.000344  -0.044930   0.010476  -0.139638   0.093449  -0.000310
    28  C    0.002531   0.035312   0.023425   0.963976  -0.054785  -0.004013
    29  O   -0.000005  -0.000872  -0.000180   0.010723   0.045054  -0.000065
    30  H    0.000000   0.000320   0.000001   0.009684  -0.004009   0.000019
    31  H    0.000017   0.001863  -0.000517   0.100073  -0.042549  -0.000471
    32  H    0.000321   0.010609  -0.002577   0.109073  -0.090432   0.003113
    33  H   -0.000460   0.082815  -0.014888   0.133115   0.221121  -0.052979
    34  H    0.002362   0.042279  -0.077502   0.401415  -0.125036   0.002952
    35  H   -0.000104   0.019488   0.000925   0.179350  -0.050860  -0.000097
    36  H   -0.000007   0.012963  -0.002390   0.161825  -0.004951   0.000103
    37  H   -0.000436   0.016247   0.010503  -0.016692   0.007216  -0.000215
    38  H   -0.001093  -0.003480  -0.000014   0.000305  -0.000079  -0.000001
    39  H    0.001652   0.002818   0.000081  -0.003747   0.001800   0.000762
    40  H    0.005483   0.001782  -0.000081   0.001363  -0.000517  -0.000184
    41  H   -0.047869   0.043958  -0.002076  -0.004196   0.007762   0.000786
    42  H    0.009046   0.042801  -0.000476  -0.003233   0.002281   0.000080
    43  H    0.003691   0.150202  -0.000469   0.005869   0.003157   0.000069
    44  H    0.007756   0.026942  -0.009601   0.041064   0.010832   0.000114
    45  H   -0.052592   0.337762  -0.069538   0.080096   0.040270   0.000643
             19         20         21         22         23         24
     1  O   -0.000035   0.000140   0.000000   0.000000  -0.000012   0.000000
     2  C    0.000479   0.015208   0.000074  -0.000112   0.004996   0.000057
     3  C    0.003169  -0.000679   0.000128   0.000050  -0.011011  -0.002345
     4  O   -0.000008  -0.000052   0.000000   0.000000  -0.000192  -0.000002
     5  H    0.000000   0.000000   0.000000   0.000000  -0.000025   0.000000
     6  C    0.009321  -0.002339   0.001544   0.000206  -0.054884  -0.005543
     7  O   -0.000049   0.001607   0.000002   0.000000  -0.005279  -0.000034
     8  H    0.000000  -0.000137   0.000000   0.000000  -0.001074   0.000015
     9  C   -0.007424  -0.005256  -0.000003   0.000143   0.001236  -0.000006
    10  O    0.003602   0.001526  -0.000068   0.000002   0.000064   0.000000
    11  H   -0.000089  -0.000117  -0.000001   0.000000  -0.000001   0.000000
    12  C    0.007502  -0.043487  -0.000628   0.000126   0.006240   0.000056
    13  O    0.016202  -0.023946   0.000205  -0.000006  -0.000874   0.000038
    14  C    0.012666  -0.103078  -0.007319   0.009371   0.175962   0.022036
    15  O    0.019376   0.054296  -0.000139   0.000023  -0.053015  -0.002028
    16  C   -0.056595  -2.196603  -0.087913   0.059475   0.526541   0.098668
    17  C    0.022849  -0.154033  -0.048749  -0.094774  -0.381592  -0.012943
    18  O    0.198207  -0.089804  -0.016643   0.029529   0.008320   0.000115
    19  H    0.318705   0.005539   0.002223  -0.000302  -0.001977   0.000000
    20  C    0.005539   8.663424   0.350483   0.014253  -0.066660   0.001703
    21  O    0.002223   0.350483   8.195991   0.223184  -0.004710  -0.000029
    22  H   -0.000302   0.014253   0.223184   0.378846   0.000921   0.000000
    23  C   -0.001977  -0.066660  -0.004710   0.000921   5.960984   0.217460
    24  O    0.000000   0.001703  -0.000029   0.000000   0.217460   8.277283
    25  H    0.000000   0.000855   0.000000   0.000000  -0.034447   0.211837
    26  C   -0.005469   0.678556   0.060471  -0.013400  -1.164015  -0.210705
    27  O   -0.000066  -0.171296   0.005336  -0.000551  -0.073964   0.007022
    28  C    0.003647  -0.982118  -0.118544   0.010251   0.048497   0.009965
    29  O    0.000032  -0.206384   0.007093  -0.000573  -0.006787  -0.000531
    30  H    0.000000   0.027733  -0.000739   0.000016   0.000886  -0.000004
    31  H    0.000001  -0.125880   0.003362  -0.000044   0.004589  -0.000144
    32  H    0.000055   0.308878  -0.046055  -0.002458   0.006070  -0.000014
    33  H   -0.000711  -0.082063  -0.008564  -0.000053   0.009642   0.000028
    34  H   -0.000252   0.037958  -0.000602   0.000025   0.046837   0.000695
    35  H   -0.000013   0.005558  -0.000402  -0.000002   0.044206   0.000996
    36  H   -0.000001  -0.002769  -0.000023   0.000000   0.490431  -0.045137
    37  H    0.000000  -0.000224   0.000001   0.000000   0.489414  -0.063814
    38  H    0.000000   0.000000   0.000000   0.000000   0.000002   0.000000
    39  H   -0.000030   0.000022   0.000002   0.000000  -0.000011   0.000000
    40  H    0.000023   0.000074   0.000000   0.000000   0.000004   0.000000
    41  H    0.000381   0.000900   0.000004   0.000000  -0.000088   0.000000
    42  H   -0.000015   0.000045   0.000000   0.000000   0.000017   0.000000
    43  H   -0.000003   0.000041   0.000000   0.000000   0.000252   0.000000
    44  H   -0.000021   0.000591   0.000000   0.000000   0.004335  -0.000030
    45  H   -0.000773   0.010707   0.000010   0.000000  -0.000169  -0.000024
             25         26         27         28         29         30
     1  O    0.000000   0.000170   0.000000  -0.000001   0.000000   0.000000
     2  C    0.000004   0.054255   0.000132  -0.002848  -0.000005   0.000000
     3  C   -0.000047  -0.054353   0.000976   0.001026   0.000012   0.000001
     4  O    0.000000   0.000319   0.000001   0.000031   0.000000   0.000000
     5  H    0.000000   0.000023   0.000000   0.000000   0.000000   0.000000
     6  C   -0.000520  -0.382450  -0.001493  -0.009908  -0.000064   0.000006
     7  O    0.000036   0.000934  -0.000033  -0.000115   0.000001   0.000000
     8  H   -0.000002   0.000435   0.000001   0.000024   0.000000   0.000000
     9  C   -0.000001  -0.008123  -0.000282  -0.002790   0.000014   0.000000
    10  O    0.000000   0.000686   0.000000   0.000090   0.000000   0.000000
    11  H    0.000000  -0.000041   0.000000   0.000006   0.000000   0.000000
    12  C    0.000002  -0.010054  -0.001318   0.003282   0.000024   0.000000
    13  O    0.000004   0.026732   0.000344   0.002531  -0.000005   0.000000
    14  C   -0.003312  -1.730924  -0.044930   0.035312  -0.000872   0.000320
    15  O    0.000293   0.038008   0.010476   0.023425  -0.000180   0.000001
    16  C   -0.033937  -7.641572  -0.139638   0.963976   0.010723   0.009684
    17  C    0.002313   1.767464   0.093449  -0.054785   0.045054  -0.004009
    18  O   -0.000001  -0.010401  -0.000310  -0.004013  -0.000065   0.000019
    19  H    0.000000  -0.005469  -0.000066   0.003647   0.000032   0.000000
    20  C    0.000855   0.678556  -0.171296  -0.982118  -0.206384   0.027733
    21  O    0.000000   0.060471   0.005336  -0.118544   0.007093  -0.000739
    22  H    0.000000  -0.013400  -0.000551   0.010251  -0.000573   0.000016
    23  C   -0.034447  -1.164015  -0.073964   0.048497  -0.006787   0.000886
    24  O    0.211837  -0.210705   0.007022   0.009965  -0.000531  -0.000004
    25  H    0.448094   0.085003  -0.001450  -0.001105  -0.000011   0.000000
    26  C    0.085003  16.063479   0.283394  -1.157054  -0.046856  -0.008395
    27  O   -0.001450   0.283394   8.419013   0.104670  -0.080538  -0.005392
    28  C   -0.001105  -1.157054   0.104670   6.079732   0.431384  -0.014661
    29  O   -0.000011  -0.046856  -0.080538   0.431384   8.161871   0.246426
    30  H    0.000000  -0.008395  -0.005392  -0.014661   0.246426   0.405720
    31  H    0.000000  -0.042505  -0.070302   0.462316  -0.052049  -0.009992
    32  H    0.000000   0.028127   0.004033  -0.087236  -0.002511   0.000100
    33  H    0.000000  -0.091353  -0.003130   0.000274  -0.000693   0.000016
    34  H   -0.000012  -0.155703   0.001044   0.003620  -0.001347   0.000004
    35  H   -0.000104   0.052247  -0.050260   0.025915  -0.001877   0.000005
    36  H   -0.008901  -0.306544  -0.008983   0.006081  -0.000346   0.000001
    37  H   -0.003044  -0.129306   0.009457   0.001444   0.000041   0.000000
    38  H    0.000000   0.000006   0.000000   0.000000   0.000000   0.000000
    39  H    0.000000  -0.000162   0.000000  -0.000015   0.000000   0.000000
    40  H    0.000000   0.000074   0.000000  -0.000001   0.000000   0.000000
    41  H    0.000000   0.000143  -0.000001  -0.000078   0.000000   0.000000
    42  H    0.000000  -0.000349   0.000000  -0.000004   0.000000   0.000000
    43  H    0.000000  -0.000205   0.000000  -0.000008   0.000000   0.000000
    44  H    0.000000  -0.000110   0.000011  -0.000091   0.000000   0.000000
    45  H    0.000001   0.041277   0.000128  -0.001149  -0.000002   0.000000
             31         32         33         34         35         36
     1  O    0.000000   0.000000   0.000000  -0.000004   0.000000   0.000000
     2  C    0.000000   0.000029  -0.000103   0.001763   0.000046  -0.000003
     3  C    0.000018   0.000090   0.000375   0.001023   0.000247  -0.001428
     4  O    0.000000   0.000000   0.000000   0.000001   0.000000  -0.000001
     5  H    0.000000   0.000000   0.000000   0.000000   0.000000   0.000000
     6  C    0.000357   0.003493   0.009753   0.002977   0.001373   0.008898
     7  O    0.000001   0.000011   0.000012  -0.000261   0.000011   0.000245
     8  H    0.000000   0.000000   0.000000   0.000004   0.000000   0.000006
     9  C    0.000001   0.000165   0.001130  -0.000014  -0.000009   0.000031
    10  O    0.000000   0.000003   0.000013   0.000010   0.000000   0.000000
    11  H    0.000000   0.000000   0.000000   0.000000   0.000000   0.000000
    12  C   -0.000037   0.000343   0.000199   0.003301  -0.000308   0.000179
    13  O    0.000017   0.000321  -0.000460   0.002362  -0.000104  -0.000007
    14  C    0.001863   0.010609   0.082815   0.042279   0.019488   0.012963
    15  O   -0.000517  -0.002577  -0.014888  -0.077502   0.000925  -0.002390
    16  C    0.100073   0.109073   0.133115   0.401415   0.179350   0.161825
    17  C   -0.042549  -0.090432   0.221121  -0.125036  -0.050860  -0.004951
    18  O   -0.000471   0.003113  -0.052979   0.002952  -0.000097   0.000103
    19  H    0.000001   0.000055  -0.000711  -0.000252  -0.000013  -0.000001
    20  C   -0.125880   0.308878  -0.082063   0.037958   0.005558  -0.002769
    21  O    0.003362  -0.046055  -0.008564  -0.000602  -0.000402  -0.000023
    22  H   -0.000044  -0.002458  -0.000053   0.000025  -0.000002   0.000000
    23  C    0.004589   0.006070   0.009642   0.046837   0.044206   0.490431
    24  O   -0.000144  -0.000014   0.000028   0.000695   0.000996  -0.045137
    25  H    0.000000   0.000000   0.000000  -0.000012  -0.000104  -0.008901
    26  C   -0.042505   0.028127  -0.091353  -0.155703   0.052247  -0.306544
    27  O   -0.070302   0.004033  -0.003130   0.001044  -0.050260  -0.008983
    28  C    0.462316  -0.087236   0.000274   0.003620   0.025915   0.006081
    29  O   -0.052049  -0.002511  -0.000693  -0.001347  -0.001877  -0.000346
    30  H   -0.009992   0.000100   0.000016   0.000004   0.000005   0.000001
    31  H    0.635702   0.005668   0.004100   0.000106   0.003998   0.000001
    32  H    0.005668   0.597738   0.006010   0.003135  -0.000032  -0.000025
    33  H    0.004100   0.006010   0.639930   0.009213   0.004158  -0.000004
    34  H    0.000106   0.003135   0.009213   0.667965   0.007583   0.006465
    35  H    0.003998  -0.000032   0.004158   0.007583   0.612539   0.006304
    36  H    0.000001  -0.000025  -0.000004   0.006465   0.006304   0.605517
    37  H    0.000013  -0.000001  -0.000045  -0.002470  -0.003033  -0.052778
    38  H    0.000000   0.000000   0.000000   0.000000   0.000000   0.000000
    39  H    0.000000   0.000000   0.000000   0.000000   0.000000   0.000000
    40  H    0.000000   0.000000   0.000000   0.000000   0.000000   0.000000
    41  H    0.000000   0.000000   0.000000  -0.000005   0.000000   0.000000
    42  H    0.000000   0.000000   0.000000   0.000000   0.000000   0.000000
    43  H    0.000000   0.000000   0.000000   0.000000   0.000000   0.000000
    44  H    0.000000   0.000000  -0.000002   0.000043   0.000000  -0.000009
    45  H    0.000000  -0.000105  -0.000066   0.012124  -0.000003  -0.000032
             37         38         39         40         41         42
     1  O    0.000000   0.227088  -0.001941   0.008694   0.006139  -0.042660
     2  C   -0.000630   0.099693   0.025664   0.042968  -0.011184   0.350738
     3  C    0.008798  -0.055577  -0.005497  -0.002784  -0.043852  -0.035883
     4  O    0.000009  -0.001404   0.000010  -0.000128  -0.000268  -0.000418
     5  H    0.000000  -0.002857   0.000000  -0.000001  -0.000001  -0.000235
     6  C   -0.023617   0.004359   0.013587  -0.007574   0.033035  -0.002490
     7  O   -0.000444  -0.000024  -0.000002  -0.000003  -0.000311  -0.000150
     8  H   -0.000041   0.000001   0.000000   0.000000   0.000002  -0.000002
     9  C   -0.000095   0.004052   0.594134   0.431585   0.060968   0.018176
    10  O    0.000000   0.000115  -0.058761  -0.052946   0.004014   0.000160
    11  H    0.000000  -0.000001  -0.002340  -0.005931  -0.000035  -0.000002
    12  C   -0.000988  -0.026172  -0.278079  -0.105254   0.198355  -0.085749
    13  O   -0.000436  -0.001093   0.001652   0.005483  -0.047869   0.009046
    14  C    0.016247  -0.003480   0.002818   0.001782   0.043958   0.042801
    15  O    0.010503  -0.000014   0.000081  -0.000081  -0.002076  -0.000476
    16  C   -0.016692   0.000305  -0.003747   0.001363  -0.004196  -0.003233
    17  C    0.007216  -0.000079   0.001800  -0.000517   0.007762   0.002281
    18  O   -0.000215  -0.000001   0.000762  -0.000184   0.000786   0.000080
    19  H    0.000000   0.000000  -0.000030   0.000023   0.000381  -0.000015
    20  C   -0.000224   0.000000   0.000022   0.000074   0.000900   0.000045
    21  O    0.000001   0.000000   0.000002   0.000000   0.000004   0.000000
    22  H    0.000000   0.000000   0.000000   0.000000   0.000000   0.000000
    23  C    0.489414   0.000002  -0.000011   0.000004  -0.000088   0.000017
    24  O   -0.063814   0.000000   0.000000   0.000000   0.000000   0.000000
    25  H   -0.003044   0.000000   0.000000   0.000000   0.000000   0.000000
    26  C   -0.129306   0.000006  -0.000162   0.000074   0.000143  -0.000349
    27  O    0.009457   0.000000   0.000000   0.000000  -0.000001   0.000000
    28  C    0.001444   0.000000  -0.000015  -0.000001  -0.000078  -0.000004
    29  O    0.000041   0.000000   0.000000   0.000000   0.000000   0.000000
    30  H    0.000000   0.000000   0.000000   0.000000   0.000000   0.000000
    31  H    0.000013   0.000000   0.000000   0.000000   0.000000   0.000000
    32  H   -0.000001   0.000000   0.000000   0.000000   0.000000   0.000000
    33  H   -0.000045   0.000000   0.000000   0.000000   0.000000   0.000000
    34  H   -0.002470   0.000000   0.000000   0.000000  -0.000005   0.000000
    35  H   -0.003033   0.000000   0.000000   0.000000   0.000000   0.000000
    36  H   -0.052778   0.000000   0.000000   0.000000   0.000000   0.000000
    37  H    0.605821   0.000000   0.000000   0.000000   0.000000   0.000000
    38  H    0.000000   0.402354   0.000222  -0.001198   0.000095  -0.011417
    39  H    0.000000   0.000222   0.616507  -0.052820   0.006841   0.004489
    40  H    0.000000  -0.001198  -0.052820   0.593407  -0.005843  -0.000325
    41  H    0.000000   0.000095   0.006841  -0.005843   0.597602   0.005761
    42  H    0.000000  -0.011417   0.004489  -0.000325   0.005761   0.596060
    43  H    0.000001   0.000464   0.000002  -0.000022   0.003115   0.005645
    44  H    0.000243   0.000023  -0.000006   0.000000   0.000001   0.001782
    45  H    0.000220   0.000002   0.000009   0.000006   0.004699   0.000023
             43         44         45
     1  O   -0.009421  -0.001046   0.000116
     2  C    0.072707   0.056013   0.034611
     3  C    0.333136  -0.070722  -0.055371
     4  O   -0.053478   0.002509  -0.000135
     5  H   -0.002629   0.000018   0.000007
     6  C   -0.240901   0.225701  -0.118525
     7  O    0.001203  -0.044996   0.003274
     8  H   -0.000674  -0.005152  -0.000036
     9  C    0.006914   0.002889   0.002661
    10  O   -0.000024  -0.000014  -0.000204
    11  H    0.000000   0.000000   0.000000
    12  C   -0.035840  -0.005029  -0.029407
    13  O    0.003691   0.007756  -0.052592
    14  C    0.150202   0.026942   0.337762
    15  O   -0.000469  -0.009601  -0.069538
    16  C    0.005869   0.041064   0.080096
    17  C    0.003157   0.010832   0.040270
    18  O    0.000069   0.000114   0.000643
    19  H   -0.000003  -0.000021  -0.000773
    20  C    0.000041   0.000591   0.010707
    21  O    0.000000   0.000000   0.000010
    22  H    0.000000   0.000000   0.000000
    23  C    0.000252   0.004335  -0.000169
    24  O    0.000000  -0.000030  -0.000024
    25  H    0.000000   0.000000   0.000001
    26  C   -0.000205  -0.000110   0.041277
    27  O    0.000000   0.000011   0.000128
    28  C   -0.000008  -0.000091  -0.001149
    29  O    0.000000   0.000000  -0.000002
    30  H    0.000000   0.000000   0.000000
    31  H    0.000000   0.000000   0.000000
    32  H    0.000000   0.000000  -0.000105
    33  H    0.000000  -0.000002  -0.000066
    34  H    0.000000   0.000043   0.012124
    35  H    0.000000   0.000000  -0.000003
    36  H    0.000000  -0.000009  -0.000032
    37  H    0.000001   0.000243   0.000220
    38  H    0.000464   0.000023   0.000002
    39  H    0.000002  -0.000006   0.000009
    40  H   -0.000022   0.000000   0.000006
    41  H    0.003115   0.000001   0.004699
    42  H    0.005645   0.001782   0.000023
    43  H    0.595994   0.006297   0.002219
    44  H    0.006297   0.586253   0.005601
    45  H    0.002219   0.005601   0.618620
 Mulliken atomic charges:
              1
     1  O   -0.572923
     2  C   -0.162864
     3  C    0.091599
     4  O   -0.586949
     5  H    0.372777
     6  C    0.130782
     7  O   -0.525037
     8  H    0.378394
     9  C   -0.153205
    10  O   -0.567695
    11  H    0.371914
    12  C    0.256835
    13  O   -0.391798
    14  C    0.193968
    15  O   -0.342424
    16  C   -0.166484
    17  C    0.166201
    18  O   -0.631013
    19  H    0.449853
    20  C    0.076826
    21  O   -0.508981
    22  H    0.385853
    23  C   -0.187118
    24  O   -0.504641
    25  H    0.338450
    26  C   -0.011755
    27  O   -0.285550
    28  C    0.219023
    29  O   -0.500982
    30  H    0.352254
    31  H    0.122305
    32  H    0.144382
    33  H    0.133209
    34  H    0.108304
    35  H    0.142155
    36  H    0.135284
    37  H    0.148444
    38  H    0.364537
    39  H    0.134811
    40  H    0.150150
    41  H    0.141247
    42  H    0.146303
    43  H    0.152698
    44  H    0.157812
    45  H    0.133048
 Sum of Mulliken atomic charges =   0.00000
 Mulliken charges with hydrogens summed into heavy atoms:
              1
     1  O   -0.208386
     2  C   -0.016561
     3  C    0.244297
     4  O   -0.214172
     6  C    0.288594
     7  O   -0.146643
     9  C    0.131756
    10  O   -0.195780
    12  C    0.398082
    13  O   -0.391798
    14  C    0.327016
    15  O   -0.342424
    16  C   -0.058180
    17  C    0.299410
    18  O   -0.181160
    20  C    0.221207
    21  O   -0.123129
    23  C    0.096609
    24  O   -0.166191
    26  C    0.130400
    27  O   -0.285550
    28  C    0.341328
    29  O   -0.148728
 Sum of Mulliken charges with hydrogens summed into heavy atoms =   0.00000
 APT atomic charges:
              1
     1  O   -0.634901
     2  C    0.392737
     3  C    0.434448
     4  O   -0.702477
     5  H    0.285878
     6  C    0.356606
     7  O   -0.620901
     8  H    0.285976
     9  C    0.472801
    10  O   -0.636938
    11  H    0.265813
    12  C    0.455822
    13  O   -0.853777
    14  C    0.934203
    15  O   -0.888236
    16  C    0.440689
    17  C    0.369707
    18  O   -0.758554
    19  H    0.446361
    20  C    0.358009
    21  O   -0.648420
    22  H    0.322564
    23  C    0.483506
    24  O   -0.638888
    25  H    0.242162
    26  C    0.458450
    27  O   -0.768373
    28  C    0.953493
    29  O   -0.676450
    30  H    0.264004
    31  H   -0.081524
    32  H   -0.038199
    33  H   -0.065976
    34  H   -0.043597
    35  H   -0.059219
    36  H   -0.041749
    37  H   -0.039389
    38  H    0.250743
    39  H   -0.052025
    40  H   -0.028061
    41  H   -0.047378
    42  H   -0.038102
    43  H   -0.040350
    44  H   -0.021235
    45  H   -0.049255
 Sum of APT charges=   0.00000
 APT Atomic charges with hydrogens summed into heavy atoms:
[...]
 760,-0.00804814,-0.00017952,0.00228420,0.00178774,0.00049498,0.0006268
 5,-0.00016480,-0.00017711,0.00004402,0.00010817,0.00002694,0.00006696,
 0.00000095,0.00000150,0.00000804,-0.00001351,0.00000531,-0.00000328,0.
 00002882,-0.00002630,0.00001288,-0.00003237,0.00003710,-0.00001607,-0.
 00000866,0.00000350,0.00000175,0.00001114,-0.00000338,-0.00000120,-0.0
 0000851,0.00000251,0.00000057,-0.00000875,-0.00000231,0.00000163,0.000
 00974,0.00000339,-0.00000207,-0.00000450,-0.00000063,0.00000188,-0.000
 01307,-0.00000145,0.00000491,0.00001041,0.00000337,-0.00000313,-0.0000
 0765,-0.00000329,0.00000174,0.00000469,-0.00000036,-0.00000279,-0.0000
 0079,0.00000026,0.00000037,0.00000262,0.00000001,0.00000121,0.00000392
 ,-0.00000155,-0.00000172,0.00000576,-0.00000071,0.00000620,0.00001081,
 -0.00000270,-0.00001063,0.00000481,-0.00000189,0.00000314,0.00000466,-
 0.00000031,-0.00000372,-0.00000410,0.00000244,-0.00000041,0.00058214,0
 .00004094,-0.00004464,0.00048353,-0.00064705,-0.00016011,-0.00005733,0
 .00002522,0.00008574,0.00041252,-0.00082250,0.00057164,0.35967384,-0.0
 0263198,0.00093178,0.00014798,0.02315292,-0.04749334,-0.00569399,0.030
 87601,-0.00274084,-0.01040684,-0.00188899,0.00403812,0.00036031,0.0003
 8719,-0.00034193,0.00025323,0.00066056,0.00073141,0.00104921,-0.000736
 49,-0.00036961,-0.00042609,0.00013539,0.00005823,-0.00000404,-0.001713
 92,0.00154744,0.00043004,0.00058784,0.00025465,-0.00025767,0.00003976,
 -0.00003862,-0.00009687,-0.02658179,0.00141945,0.00845292,0.00135126,0
 .00091368,-0.00166912,0.00023544,-0.00063299,-0.00009283,0.00001045,0.
 00012100,0.00002803,-0.00000876,0.00004069,-0.00000062,-0.00000325,-0.
 00001281,-0.00002357,0.00002838,-0.00000116,0.00000092,-0.00003638,0.0
 0000992,-0.00002058,-0.00000441,0.00000408,0.00000223,0.00000536,-0.00
 000024,0.00000024,-0.00000632,0.00000350,-0.00000201,0.00000402,0.0000
 0519,0.00000929,-0.00001078,-0.00000405,-0.00000528,0.00000494,0.00000
 255,0.00000147,-0.00000407,-0.00000438,0.00000130,0.00000023,0.0000063
 6,0.00000080,-0.00000078,-0.00000500,-0.00000169,0.00000025,0.00000100
 ,0.00000041,-0.00000023,0.00000009,0.00000007,0.00000066,0.00000124,0.
 00000118,0.00000120,-0.00000177,-0.00000213,0.00000419,0.00000500,0.00
 000582,-0.00000378,-0.00000597,0.00000741,-0.00000120,0.00000260,-0.00
 000169,-0.00000522,-0.00000060,0.00000527,0.00001129,-0.00000142,0.000
 00017,0.00005998,0.00135744,0.00017172,0.00069004,-0.00038281,-0.00005
 286,-0.00001748,-0.00008124,-0.00013335,-0.00100079,-0.00332488,0.0031
 5749,-0.02381841,0.04908057,-0.03973167,0.00185129,-0.00409538,0.09575
 007,-0.00835571,-0.07370233,0.01703669,0.00041614,-0.00406794,-0.00190
 320,0.00111086,0.00138673,-0.00032833,-0.00038628,0.00007181,0.0008500
 4,0.00046342,0.00085378,-0.00050152,-0.00015958,-0.00021248,0.00008925
 ,0.00004881,0.00003304,0.00004854,-0.00149218,0.00005646,-0.00020995,0
 .00003387,-0.00001330,-0.00006741,0.00002180,0.00004213,0.02123141,-0.
 00053502,-0.00448063,-0.00094647,-0.00046345,0.00196566,0.00038042,-0.
 00019008,-0.00014716,-0.00013040,0.00002052,-0.00021295,-0.00002082,-0
 .00001831,0.00000126,0.00002933,0.00000226,0.00002890,-0.00006199,-0.0
 0000555,-0.00001076,0.00006430,0.00001456,-0.00000623,0.00000592,-0.00
 000740,0.00000319,-0.00000942,0.00001201,-0.00000961,0.00000785,-0.000
 00623,0.00000808,0.00001676,0.00001608,0.00000455,-0.00001735,-0.00001
 632,-0.00000764,0.00000411,0.00000362,0.00000119,0.00001710,0.00000411
 ,0.00000948,-0.00001097,0.00000164,-0.00001454,0.00000540,-0.00000084,
 0.00001900,0.00000064,0.00000052,-0.00001310,0.00000079,-0.00000117,0.
 00000230,-0.00000290,0.00000041,-0.00000272,-0.00000544,0.00000165,0.0
 0000416,-0.00001230,0.00000033,-0.00001460,-0.00001543,0.00000418,0.00
 001801,-0.00000828,0.00000255,-0.00000656,-0.00000724,0.00000064,0.000
 00672,0.00001035,-0.00000254,-0.00000043,-0.00199842,0.00019590,0.0040
 8841,-0.00041160,0.00041751,0.00027199,-0.00006812,0.00022376,0.000102
 51,0.00025180,0.00283673,-0.00254297,-0.08886979,0.00707504,0.08168086
 ,0.00188232,-0.00056406,-0.00104925,-0.00919487,0.00214773,0.00033727,
 -0.35300065,0.02214466,0.03148694,-0.00548521,-0.00892702,0.01026545,-
 0.00011215,-0.00050807,-0.00038581,-0.01779743,0.00256096,-0.00129131,
 0.00323804,0.00060940,0.00180961,-0.00029196,-0.00015033,-0.00003346,0
 .00047579,0.00012628,-0.00018079,-0.00000118,0.00008612,0.00007204,0.0
 0000250,0.00003441,-0.00001793,-0.00039927,-0.00063444,0.00033819,0.00
 023196,0.00051673,-0.00021999,-0.00104016,-0.00125084,0.00077321,0.000
 37616,0.00018065,-0.00041539,-0.00007927,0.00012091,-0.00001506,0.0000
 0992,-0.00002487,-0.00007728,0.00005206,-0.00000137,0.00003114,-0.0000
 4515,-0.00000096,0.00001977,-0.00002796,0.00002036,0.00000421,0.000017
 79,0.00000304,0.00000304,-0.00001024,0.00000343,-0.00000624,-0.0000314
 1,-0.00001657,0.00002463,0.00003031,0.00001501,-0.00000507,-0.00001443
 ,-0.00000423,0.00000549,-0.00000374,-0.00000657,0.00000591,0.00002078,
 0.00001201,-0.00000849,-0.00000977,-0.00001451,-0.00000682,0.00000529,
 0.00000207,0.00000346,-0.00000013,-0.00000012,-0.00000045,0.00000331,0
 .00000120,0.00000282,0.00000841,-0.00000124,-0.00000624,0.00000883,-0.
 00000480,0.00000945,0.00002076,-0.00001353,-0.00004094,0.00000956,-0.0
 0000470,0.00000914,0.00001620,-0.00000047,-0.00001671,-0.00001493,0.00
 000958,0.00000165,0.00040514,-0.00053898,-0.00035942,0.00003018,-0.000
 25247,-0.00007033,0.00000509,0.00000600,0.00000065,0.00066977,0.000442
 99,-0.00036554,0.00055312,0.00075043,-0.00000538,0.37904873,-0.0007194
 2,0.00195677,0.00242952,0.03361093,-0.00725373,-0.00609706,0.02394350,
 -0.04097814,-0.00620882,-0.03063795,-0.01026231,0.01782132,-0.00119211
 ,0.00045939,-0.00055970,-0.00733192,0.00171115,-0.00199846,-0.00042468
 ,0.00072517,0.00117464,-0.00057648,-0.00027117,0.00001133,0.00000823,0
 .00007704,-0.00016671,-0.00017951,-0.00011694,0.00008378,0.00001259,0.
 00000755,0.00001232,0.00179700,0.00207529,-0.00070951,-0.00039938,-0.0
 0031497,0.00044859,0.00060468,-0.00026197,-0.00002217,-0.00005444,0.00
 008982,-0.00023312,-0.00003141,0.00004193,0.00002999,0.00001179,-0.000
 02581,-0.00003965,-0.00001677,0.00000362,0.00005305,0.00001312,0.00002
 480,-0.00006931,-0.00000063,0.00000210,0.00000797,-0.00000076,0.000007
 82,-0.00000224,0.00000410,-0.00000001,-0.00000463,-0.00001592,-0.00000
 283,0.00000859,0.00001041,-0.00000131,-0.00000252,-0.00000841,-0.00000
 225,-0.00000126,0.00000643,0.00001434,0.00000772,0.00000012,-0.0000061
 6,-0.00000599,0.00000023,0.00000155,0.00000448,0.00000115,-0.00000050,
 0.00000070,-0.00000024,-0.00000005,-0.00000071,-0.00000024,-0.00000030
 ,-0.00000038,-0.00000049,0.00000108,0.00000039,-0.00000104,0.00000032,
 0.00000066,0.00000294,0.00000468,0.00000191,0.00000016,-0.00000508,-0.
 00000114,0.00000819,0.00000255,-0.00000965,-0.00000954,0.00000898,-0.0
 0000270,0.00004898,0.00018556,0.00045244,-0.00025920,0.00009574,0.0000
 8565,0.00002683,-0.00001394,-0.00001913,-0.00061009,-0.00045940,0.0003
 5538,0.00042088,-0.00490934,-0.00300007,-0.01730556,0.05724217,0.00076
 547,0.00045067,0.00092059,0.01352807,-0.00535266,-0.00133402,0.0288336
 9,-0.00596448,-0.04374085,0.02789876,0.01479387,-0.01328628,0.00179154
 ,-0.00018012,0.00042659,-0.03451581,-0.00007491,-0.00031487,0.00159080
 ,0.00195451,0.00302156,-0.00019179,-0.00035200,-0.00029328,-0.00010386
 ,-0.00001677,0.00003497,-0.00003996,-0.00008706,-0.00001029,-0.0000015
 1,-0.00001585,0.00001205,-0.00018675,0.00079782,-0.00001628,0.00018023
 ,0.00021156,-0.00020005,-0.00071926,-0.00080866,0.00143802,0.00034270,
 0.00013499,-0.00020897,0.00000351,0.00004806,0.00007308,0.00002119,-0.
 00001736,-0.00003020,0.00001698,0.00001601,-0.00000081,-0.00001928,-0.
 00001654,0.00001196,-0.00002002,0.00000793,0.00000648,0.00000880,0.000
 01645,-0.00000830,-0.00000481,-0.00000358,0.00000164,-0.00001452,0.000
 01526,0.00007523,0.00000540,-0.00003054,-0.00003167,-0.00001073,0.0000
 0651,0.00000311,0.00000276,-0.00001354,0.00002852,0.00001510,0.0000203
 5,-0.00003376,-0.00000881,-0.00002153,0.00002004,0.00000846,0.00000201
 ,-0.00001573,0.00000008,0.00000019,0.00000291,0.00000074,0.00000174,-0
 .00000032,0.00000363,0.00000104,-0.00000226,0.00000162,-0.00000091,0.0
 0000261,0.00002053,0.00000015,-0.00004090,0.00000465,-0.00000408,0.000
 00449,0.00001526,0.00000185,-0.00002389,-0.00001270,0.00002498,-0.0000
 0269,0.00002144,0.00019016,0.00011781,-0.00005969,0.00009537,0.0000204
 3,0.00000935,-0.00000186,-0.00000983,-0.00030158,-0.00004831,0.0002006
 9,0.00040819,-0.00190936,-0.00099184,-0.03786703,-0.00284433,0.0599546
 1,0.00036011,-0.00018869,-0.00037598,-0.00076794,0.00088779,0.00002765
 ,-0.01492943,-0.00469566,-0.00029999,0.00176786,0.00019775,0.00094489,
 0.00028246,0.00004338,0.00011005,-0.34707802,-0.05618832,0.03126155,-0
 .01283571,0.01083627,0.00612688,0.00007431,0.00009670,0.00064018,-0.00
 003276,-0.00001466,0.00001219,0.00003744,0.00002102,-0.00001182,-0.000
 01105,-0.00000153,-0.00000372,0.00002379,0.00003335,0.00011674,0.00055
 764,-0.00105763,-0.00014472,-0.00467453,-0.00104055,0.00048206,0.00123
 188,0.00058075,-0.00117235,0.00008111,0.00025236,0.00017492,0.00010649
 ,-0.00001516,-0.00015306,0.00003527,0.00000184,-0.00000171,-0.00003475
 ,-0.00001647,-0.00005836,-0.00004616,0.00003937,0.00003253,0.00002688,
 0.00003676,-0.00003447,-0.00001245,-0.00000762,0.00000101,-0.00004850,
 0.00000723,0.00009508,0.00003256,-0.00003988,-0.00002887,-0.00002844,-
 0.00000062,-0.00001014,-0.00001363,0.00000356,0.00006237,0.00001736,-0
 .00000864,-0.00002915,-0.00000837,0.00000199,0.00003477,0.00001062,-0.
 00000656,-0.00002130,-0.00000037,0.00000152,0.00000222,0.00000288,-0.0
 0000068,0.00000002,0.00000908,-0.00000199,-0.00000238,-0.00000081,-0.0
 0001343,0.00000925,-0.00000091,0.00003421,-0.00018433,0.00000931,-0.00
 001795,0.00000104,0.00004315,0.00000444,-0.00006242,-0.00004653,0.0000
 5297,-0.00001057,-0.00003882,-0.00012193,-0.00009302,0.00002896,-0.000
 02872,-0.00001301,0.00000724,0.00000239,0.00000094,0.00006724,0.000099
 89,-0.00002926,0.00040352,-0.00044369,-0.00034666,-0.00003210,-0.00071
 903,-0.00170756,0.37509051,0.00017401,0.00008855,0.00002860,-0.0004720
 5,0.00017757,0.00045378,-0.00706118,0.00110037,0.00187605,0.00104032,0
 .00041179,-0.00044024,0.00000816,-0.00002970,-0.00002761,-0.05863686,-
 0.05257832,0.00902645,0.03853362,-0.01012209,-0.01178750,0.00107596,0.
 00154827,-0.00039229,-0.00004600,0.00005292,0.00001679,0.00002299,-0.0
 0003447,-0.00001112,-0.00000652,0.00000089,-0.00000426,0.00003491,-0.0
 0007693,0.00022614,0.00144939,0.00057213,-0.00048294,-0.02924528,-0.00
 384424,0.00464570,0.00072139,0.00138355,-0.00212016,0.00006832,0.00044
 948,0.00017916,-0.00002983,-0.00006768,-0.00026868,0.00016034,-0.00009
 118,0.00010336,-0.00013446,0.00009443,-0.00004586,-0.00002563,0.000050
 98,0.00001515,0.00001805,0.00002195,0.00000358,-0.00000285,0.00001374,
 -0.00002321,0.00003018,0.00000004,0.00001070,-0.00004447,-0.00000994,-
 0.00001423,0.00003372,0.00000840,-0.00000019,0.00005561,-0.00004309,0.
 00001253,0.00000894,0.00003412,-0.00002963,-0.00001755,-0.00004743,-0.
 00000687,0.00000399,0.00001412,0.00001283,-0.00000065,-0.00000190,0.00
 000027,0.00000146,0.00000511,0.00000285,0.00001293,-0.00000288,-0.0000
 0834,0.00001766,-0.00001336,0.00002764,0.00019775,-0.00010629,-0.00016
 063,0.00001225,0.00002713,0.00003288,-0.00002971,-0.00001461,0.0000464
 3,0.00006280,0.00002085,-0.00003075,0.00002135,0.00002001,-0.00000611,
 0.00002963,-0.00003639,-0.00001724,0.00000479,-0.00001790,-0.00001073,
 0.00008969,0.00007521,0.00001401,0.00012658,-0.00009683,-0.00016764,0.
 00000985,0.00004180,-0.00140650,0.05151118,0.06460494,0.00050214,-0.00
 008053,-0.00062998,-0.00051307,0.00117851,0.00088354,-0.03464216,-0.00
 676447,0.00205512,0.00199803,-0.00024981,0.00323224,0.00023082,-0.0000
 9782,0.00036223,0.02879517,0.00718124,-0.04579850,0.01887938,-0.006282
 14,-0.00210599,-0.00043439,0.00067597,0.00030678,0.00000935,0.00001685
 ,0.00008181,-0.00000106,-0.00003475,0.00000591,0.00000025,-0.00000158,
 0.00000847,-0.00041926,-0.00007248,-0.00048139,-0.00086996,0.00051178,
 0.00054966,0.02308091,0.00666137,-0.00387009,0.00000961,-0.00165489,0.
 00195365,0.00031266,-0.00026096,-0.00047018,-0.00000504,0.00006859,0.0
 0023293,-0.00013353,0.00001821,-0.00009611,0.00011507,-0.00005401,0.00
 011063,0.00004118,-0.00004670,-0.00002751,-0.00002994,-0.00005690,0.00
 001410,0.00000911,-0.00000074,0.00001384,0.00008047,-0.00004183,-0.000
 28901,-0.00001891,0.00008360,0.00014121,0.00003635,-0.00002236,-0.0000
 2469,-0.00012042,0.00007121,-0.00004108,-0.00005380,-0.00009857,0.0001
 2709,0.00004348,0.00010657,-0.00004695,-0.00003004,-0.00002092,0.00003
 753,0.00000085,0.00000292,-0.00000842,-0.00000283,-0.00001077,-0.00000
 051,-0.00001279,0.00000021,0.00000802,-0.00002049,0.00002169,-0.000021
 01,-0.00024821,0.00007221,0.00014713,-0.00002693,0.00000218,-0.0000486
 3,-0.00005328,-0.00000552,0.00009633,0.00003514,-0.00004708,0.00002217
 ,0.00006978,-0.00025301,-0.00013005,0.00000979,-0.00002115,-0.00000520
 ,-0.00000045,0.00003438,0.00001124,0.00010591,0.00001825,-0.00008888,0
 .00031332,-0.00036643,-0.00022579,-0.00222650,-0.00098709,-0.00538680,
 -0.03514661,-0.00199723,0.05156374,0.00007003,-0.00005029,0.00008925,-
 0.00008958,0.00024144,-0.00009134,-0.00057223,-0.00049148,0.00000377,0
 .00028652,0.00003097,0.00009268,-0.00004954,-0.00005370,0.00008114,-0.
 00288086,0.00026610,0.00422383,0.00073096,-0.00003084,-0.00068263,0.00
 021932,0.00000889,-0.00021840,0.00019358,-0.00017740,0.00013915,0.0000
 3399,0.00004812,-0.00002312,-0.00000628,-0.00001154,0.00000148,0.00077
 816,0.00017163,0.00063960,0.00370144,0.00575670,0.00220123,-0.30045955
 ,0.00144098,0.11840197,-0.03161338,0.00264898,-0.00480852,-0.00060828,
 -0.00026191,0.00601942,0.00020594,0.00016170,-0.00056021,0.00055750,-0
 .00039231,-0.00026881,-0.00059536,-0.00002486,0.00056771,-0.00008186,0
 .00013065,0.00008224,0.00005098,0.00005875,-0.00004541,-0.00001771,0.0
 0001028,-0.00001941,-0.00015046,-0.00001380,0.00003919,0.00009144,-0.0
 0000812,-0.00000838,-0.00002592,-0.00001328,0.00000345,0.00074425,-0.0
 0024550,-0.00009068,0.00000593,-0.00005452,-0.00020980,-0.00003738,-0.
 00005007,0.00002969,0.00001801,0.00000806,-0.00000731,-0.00000136,0.00
 000013,0.00000156,0.00001227,0.00000553,0.00000640,0.00005259,0.000007
 74,-0.00004882,0.00002287,-0.00026297,0.00015233,0.00216918,-0.0005203
 4,-0.00168780,0.00016450,0.00010425,0.00032675,0.00008915,-0.00003875,
 -0.00011010,-0.00006523,0.00011012,0.00000287,0.00000338,0.00000383,-0
 .00000253,-0.00004777,-0.00005881,-0.00007780,-0.00002043,0.00006576,0
 .00002993,-0.00011654,0.00053584,0.00106348,-0.00000505,-0.00007904,-0
 .00010974,0.00047000,-0.00003707,0.00028673,0.00033363,0.00021524,0.00
 033094,0.32643915,-0.00000486,0.00045709,-0.00022347,-0.00039639,-0.00
 087798,-0.00013313,-0.00135477,-0.00050498,-0.00143150,0.00044378,-0.0
 0013489,0.00081882,0.00016274,-0.00016052,0.00010468,-0.02464010,0.000
 95364,0.01408092,0.00072419,0.00272416,-0.00136741,0.00016786,0.000397
 78,-0.00019595,-0.00031361,0.00014059,-0.00052268,-0.00007297,-0.00015
 298,0.00010487,0.00000040,0.00003707,-0.00000006,0.00398490,0.00109365
 ,0.00349681,0.02998864,-0.01808961,-0.02423889,-0.00247841,-0.04276676
 ,0.00442027,0.00369443,0.00394929,0.00043578,0.00004294,0.00019937,-0.
 00013125,0.00037881,-0.00003799,0.00032626,-0.00062886,0.00023875,0.00
 011420,0.00081210,-0.00003503,-0.00132181,0.00004166,-0.00003103,0.000
 03933,-0.00000693,0.00006529,-0.00005793,0.00000401,-0.00004962,0.0000
 2566,-0.00010649,0.00005088,-0.00004338,0.00005253,-0.00001815,0.00001
 977,-0.00001996,-0.00001261,0.00000168,-0.00008524,0.00007370,0.000050
 03,-0.00001483,-0.00003684,-0.00001243,0.00000615,0.00005768,0.0000672
 6,0.00000694,-0.00001542,-0.00004635,0.00000071,-0.00000011,0.00000536
 ,-0.00000571,-0.00000829,-0.00001024,-0.00003494,0.00000726,0.00003410
 ,-0.00004857,-0.00002806,-0.00003728,-0.00002082,0.00017159,0.00008495
 ,-0.00001922,-0.00003948,-0.00002483,0.00002166,-0.00002433,-0.0000539
 1,0.00000670,-0.00001045,0.00005729,-0.00001520,-0.00000691,-0.0000097
 6,-0.00010138,0.00014662,0.00014311,-0.00010876,-0.00022998,-0.0000533
 5,-0.00121315,0.00026560,-0.00010688,0.00000054,-0.00008618,0.00002816
 ,0.00042189,0.00010500,0.00037949,-0.00011731,-0.00358309,0.00280403,-
 0.00915507,0.05580627,-0.00016011,0.00003984,-0.00031740,0.00001091,-0
 .00001887,0.00002767,0.00118842,-0.00033444,0.00110345,-0.00042659,0.0
 0018826,-0.00008999,-0.00008211,-0.00004486,-0.00004158,0.02208372,0.0
 0253731,-0.00547067,-0.00151895,-0.00091997,0.00107696,-0.00019766,-0.
 00022993,0.00010184,-0.00032676,0.00002582,-0.00021551,-0.00005788,-0.
 00011161,0.00003487,0.00000829,0.00001732,-0.00000136,0.00264945,0.000
 64381,0.00290701,0.01493089,-0.01334612,-0.00868059,0.12663923,0.00326
 102,-0.10312985,-0.03116534,0.00323566,-0.00244312,-0.00696083,0.00021
 539,0.00383182,-0.00008248,-0.00006754,-0.00026942,-0.00006295,0.00007
 814,0.00048946,-0.00004231,0.00017101,-0.00067305,0.00004017,-0.000000
 66,0.00001327,0.00000972,0.00004945,0.00002747,0.00000773,0.00001057,-
 0.00003178,-0.00000029,0.00005315,0.00012576,-0.00002051,-0.00006158,-
 0.00007207,0.00000041,0.00001255,0.00000174,0.00019060,-0.00012590,-0.
 00014322,0.00010226,0.00004375,-0.00018302,-0.00004767,-0.00010461,0.0
 0004208,0.00001933,0.00002436,-0.00001636,-0.00000105,-0.00000512,0.00
 000670,-0.00000073,0.00001095,0.00000263,0.00002477,0.00002451,-0.0000
 4953,0.00013551,-0.00008672,0.00002049,0.00065778,-0.00056078,-0.00023
 066,0.00016696,0.00004721,0.00006576,0.00001325,-0.00003574,-0.0000163
 0,0.00003672,0.00007716,-0.00005907,-0.00002628,0.00000213,0.00000938,
 -0.00008928,0.00015843,0.00010806,-0.00004294,-0.00012057,-0.00003242,
 -0.00103385,0.00014202,-0.00027565,-0.00009602,0.00000448,0.00011874,-
 0.00053264,-0.00000405,-0.00039350,-0.00019488,0.00272508,-0.00216858,
 -0.12574601,0.00237970,0.11488955\\0.00012560,0.00628475,0.00971793,0.
 02137864,-0.00004877,0.01065151,-0.00035451,0.00331890,0.01919122,-0.0
 1398781,-0.01559752,0.00805419,0.00103822,0.01139129,-0.03758510,-0.00
 072564,-0.01547824,0.02630721,-0.00228530,-0.00961778,0.00040447,0.001
 82541,0.02861978,-0.01241028,-0.00712165,0.01952240,-0.00877200,0.0075
 8942,0.01017592,-0.00860301,-0.00320567,-0.03540075,-0.00284460,0.0043
 6090,-0.00639639,-0.01048435,-0.00638420,0.00259526,0.01394364,-0.0227
 1828,0.01710938,-0.02932042,-0.01727268,-0.02600487,-0.00414399,0.0576
 8387,0.02180981,0.00823206,-0.01300373,0.00829732,0.01984743,0.0070894
 3,-0.01954363,0.01431152,0.00180912,0.00944002,-0.01847034,-0.02311077
 ,0.00892942,0.02340542,0.01393734,0.00965630,-0.00925055,-0.00578511,-
 0.02084337,-0.02041148,0.00244096,-0.01387882,-0.00091019,0.00487261,-
 0.01267323,-0.00236494,-0.01475421,0.02690403,-0.00947860,-0.01860263,
 -0.02632086,-0.00185207,0.01340816,0.00606035,0.02027980,0.01011994,-0
 .00396705,-0.03909483,0.00142184,0.00637598,0.02472801,-0.00449473,-0.
 00185286,-0.00218395,-0.01860410,0.01045660,-0.00170317,0.01865843,-0.
 00425299,-0.00068143,-0.02169409,0.00858843,-0.00710421,0.02169086,-0.
 01045352,-0.00228041,-0.02177410,0.00609784,-0.00329039,0.02096517,0.0
 0036657,-0.00056918,-0.00401789,0.00176829,0.01905156,-0.00114625,0.00
 304671,0.00453742,-0.02152924,0.00021410,0.00406776,0.00834726,-0.0062
 1299,0.01634423,0.02194995,-0.00088836,-0.00246385,-0.01846139,0.00126
 534,0.00390647,0.02107613,0.00207995,-0.00384140,-0.02016764,0.0001599
 4,0.00046993,0.01941232,-0.00110268,-0.00733705\\\@


 ONE THORN OF EXPERIENCE IS WORTH A WHOLE WILDERNESS OF
 WARNING....  LOWELL - AMONG MY BOOKS
 Job cpu time:  0 days 12 hours 53 minutes 56.8 seconds.
 File lengths (MBytes):  RWF=   1327 Int=      0 D2E=      0 Chk=     19 Scr=      1
 Normal termination of Gaussian 09 at Tue Mar  1 16:22:39 2016.
Gaussian '09 finished on node023 at Tue Mar  1 16:22:40 EST 2016.
