Gaussian '09 started on node008 at Wed Jan 20 15:58:15 EST 2016.
 Entering Gaussian System, Link 0=/usr/local/gaussian/g09/g09
 Initial command:
 /usr/local/gaussian/g09/l1.exe /home/srmcgrat/thesis/gaussian/cellobiose/310/9000/gaussian15485/Gau-15521.inp -scrdir=/home/srmcgrat/thesis/gaussian/cellobiose/310/9000/gaussian15485/
 Entering Link 1 = /usr/local/gaussian/g09/l1.exe PID=     15523.
  
 Copyright (c) 1988,1990,1992,1993,1995,1998,2003,2009,2010,
            Gaussian, Inc.  All Rights Reserved.
  
 This is part of the Gaussian(R) 09 program.  It is based on
 the Gaussian(R) 03 system (copyright 2003, Gaussian, Inc.),
 the Gaussian(R) 98 system (copyright 1998, Gaussian, Inc.),
 the Gaussian(R) 94 system (copyright 1995, Gaussian, Inc.),
 the Gaussian 92(TM) system (copyright 1992, Gaussian, Inc.),
 the Gaussian 90(TM) system (copyright 1990, Gaussian, Inc.),
 the Gaussian 88(TM) system (copyright 1988, Gaussian, Inc.),
 the Gaussian 86(TM) system (copyright 1986, Carnegie Mellon
 University), and the Gaussian 82(TM) system (copyright 1983,
 Carnegie Mellon University). Gaussian is a federally registered
 trademark of Gaussian, Inc.
  
 This software contains proprietary and confidential information,
 including trade secrets, belonging to Gaussian, Inc.
  
 This software is provided under written license and may be
 used, copied, transmitted, or stored only in accord with that
 written license.
  
 The following legend is applicable only to US Government
 contracts under FAR:
  
                    RESTRICTED RIGHTS LEGEND
  
 Use, reproduction and disclosure by the US Government is
 subject to restrictions as set forth in subparagraphs (a)
 and (c) of the Commercial Computer Software - Restricted
 Rights clause in FAR 52.227-19.
  
 Gaussian, Inc.
 340 Quinnipiac St., Bldg. 40, Wallingford CT 06492
  
  
 ---------------------------------------------------------------
 Warning -- This program may not be used in any manner that
 competes with the business of Gaussian, Inc. or will provide
 assistance to any competitor of Gaussian, Inc.  The licensee
 of this program is prohibited from giving any competitor of
 Gaussian, Inc. access to this program.  By using this program,
 the user acknowledges that Gaussian, Inc. is engaged in the
 business of creating and licensing software in the field of
 computational chemistry and represents and warrants to the
 licensee that it is not a competitor of Gaussian, Inc. and that
 it will not use this program in any manner prohibited above.
 ---------------------------------------------------------------
  

 Cite this work as:
 Gaussian 09, Revision B.01,
 M. J. Frisch, G. W. Trucks, H. B. Schlegel, G. E. Scuseria, 
 M. A. Robb, J. R. Cheeseman, G. Scalmani, V. Barone, B. Mennucci, 
 G. A. Petersson, H. Nakatsuji, M. Caricato, X. Li, H. P. Hratchian, 
 A. F. Izmaylov, J. Bloino, G. Zheng, J. L. Sonnenberg, M. Hada, 
 M. Ehara, K. Toyota, R. Fukuda, J. Hasegawa, M. Ishida, T. Nakajima, 
 Y. Honda, O. Kitao, H. Nakai, T. Vreven, J. A. Montgomery, Jr., 
 J. E. Peralta, F. Ogliaro, M. Bearpark, J. J. Heyd, E. Brothers, 
 K. N. Kudin, V. N. Staroverov, T. Keith, R. Kobayashi, J. Normand, 
 K. Raghavachari, A. Rendell, J. C. Burant, S. S. Iyengar, J. Tomasi, 
 M. Cossi, N. Rega, J. M. Millam, M. Klene, J. E. Knox, J. B. Cross, 
 V. Bakken, C. Adamo, J. Jaramillo, R. Gomperts, R. E. Stratmann, 
 O. Yazyev, A. J. Austin, R. Cammi, C. Pomelli, J. W. Ochterski, 
 R. L. Martin, K. Morokuma, V. G. Zakrzewski, G. A. Voth, 
 P. Salvador, J. J. Dannenberg, S. Dapprich, A. D. Daniels, 
 O. Farkas, J. B. Foresman, J. V. Ortiz, J. Cioslowski, 
 and D. J. Fox, Gaussian, Inc., Wallingford CT, 2010.
 
 ******************************************
 Gaussian 09:  EM64L-G09RevB.01 12-Aug-2010
                20-Jan-2016 
 ******************************************
 ------------------------------------------------
 # freq=raman b3lyp/6-31+g(d,p) geom=connectivity
 ------------------------------------------------
 1/10=4,30=1,38=1,57=2/1,3;
 2/12=2,17=6,18=5,40=1/2;
 3/5=1,6=6,7=111,11=2,16=1,25=1,30=1,71=2,74=-5/1,2,3;
 4//1;
 5/5=2,38=5,98=1/2;
 8/6=4,10=90,11=11/1;
 10/13=10,15=4/2;
 11/6=3,8=1,9=11,15=111,16=1/1,2,10;
 10/6=1/2;
 6/7=2,8=2,9=2,10=2,18=1,28=1/1;
 7/8=1,10=1,25=1/1,2,3,16;
 1/10=4,30=1/3;
 99//99;
 ------------
 310 9000.com
 ------------
 Symbolic Z-matrix:
 Charge =  0 Multiplicity = 1
 O                     7.209     7.584     12.058 
 C                     7.741     8.01      13.321 
 C                     7.222     9.333     13.859 
 O                     7.56      10.369    12.925 
 H                     7.339     10.013    12.018 
 C                     7.726     9.64      15.26 
 O                     7.113     10.784    15.872 
 H                     7.539     10.782    16.777 
 C                     7.939     5.432     14.067 
 O                     7.289     4.58      13.113 
 H                     7.621     3.647     13.251 
 C                     7.569     6.883     14.327 
 O                     8.063     7.257     15.621 
 C                     7.494     8.45      16.178 
 O                     8.285     8.695     17.35 
 C                     7.771     8.197     18.594 
 C                     8.415     6.884     19.009 
 O                     8.162     5.85      18.047 
 H                     8.296     6.415     17.233 
 C                     8.17      6.445     20.444 
 O                     9.006     5.435     21.026 
 H                     8.636     5.208     21.927 
 C                     7.555     10.523    19.478 
 O                     7.839     11.282    18.294 
 H                     7.704     12.267    18.407 
 C                     8.241     9.178     19.656 
 O                     7.833     8.778     20.973 
 C                     8.421     7.558     21.448 
 O                     7.668     7.386     22.657 
 H                     7.93099   7.38178   11.45847 
 H                     8.27045   7.28073   23.39698 
 H                     9.46448   7.6807    21.65045 
 H                     7.15048   6.13193   20.53037 
 H                     9.46831   7.06392   18.95357 
 H                     6.70369   8.12298   18.57743 
 H                     9.3039    9.29373   19.6142 
 H                     7.81214   11.13057   20.3204 
 H                     6.49896   10.35317   19.50706 
 H                     6.45867   8.3247    16.41737 
 H                     8.77962   9.8175    15.20266 
 H                     6.15481   9.2702    13.90442 
 H                     8.79415   8.13516   13.17921 
 H                     6.50785   6.84094   14.45772 
 H                     7.86057   4.9333    15.01042 
 H                     8.97598   5.43403   13.80325 
 

 GradGradGradGradGradGradGradGradGradGradGradGradGradGradGradGradGradGrad
 Berny optimization.
 Initialization pass.
 Trust Radius=3.00D-01 FncErr=1.00D-07 GrdErr=1.00D-07
 Number of steps in this run=      2 maximum allowed number of steps=      2.
 GradGradGradGradGradGradGradGradGradGradGradGradGradGradGradGradGradGrad

                          Input orientation:                          
 ---------------------------------------------------------------------
 Center     Atomic      Atomic             Coordinates (Angstroms)
 Number     Number       Type             X           Y           Z
 ---------------------------------------------------------------------
      1          8           0        7.209000    7.584000   12.058000
      2          6           0        7.741000    8.010000   13.321000
      3          6           0        7.222000    9.333000   13.859000
      4          8           0        7.560000   10.369000   12.925000
      5          1           0        7.339000   10.013000   12.018000
      6          6           0        7.726000    9.640000   15.260000
      7          8           0        7.113000   10.784000   15.872000
      8          1           0        7.539000   10.782000   16.777000
      9          6           0        7.939000    5.432000   14.067000
     10          8           0        7.289000    4.580000   13.113000
     11          1           0        7.621000    3.647000   13.251000
     12          6           0        7.569000    6.883000   14.327000
     13          8           0        8.063000    7.257000   15.621000
     14          6           0        7.494000    8.450000   16.178000
     15          8           0        8.285000    8.695000   17.350000
     16          6           0        7.771000    8.197000   18.594000
     17          6           0        8.415000    6.884000   19.009000
     18          8           0        8.162000    5.850000   18.047000
     19          1           0        8.296000    6.415000   17.233000
     20          6           0        8.170000    6.445000   20.444000
     21          8           0        9.006000    5.435000   21.026000
     22          1           0        8.636000    5.208000   21.927000
     23          6           0        7.555000   10.523000   19.478000
     24          8           0        7.839000   11.282000   18.294000
     25          1           0        7.704000   12.267000   18.407000
     26          6           0        8.241000    9.178000   19.656000
     27          8           0        7.833000    8.778000   20.973000
     28          6           0        8.421000    7.558000   21.448000
     29          8           0        7.668000    7.386000   22.657000
     30          1           0        7.930993    7.381784   11.458471
     31          1           0        8.270453    7.280726   23.396978
     32          1           0        9.464484    7.680704   21.650450
     33          1           0        7.150476    6.131934   20.530372
     34          1           0        9.468307    7.063919   18.953571
     35          1           0        6.703692    8.122983   18.577434
     36          1           0        9.303902    9.293727   19.614199
     37          1           0        7.812136   11.130571   20.320401
     38          1           0        6.498964   10.353166   19.507064
     39          1           0        6.458673    8.324704   16.417371
     40          1           0        8.779615    9.817502   15.202659
     41          1           0        6.154810    9.270205   13.904424
     42          1           0        8.794153    8.135158   13.179207
     43          1           0        6.507847    6.840945   14.457715
     44          1           0        7.860574    4.933299   15.010423
     45          1           0        8.975982    5.434033   13.803252
 ---------------------------------------------------------------------
                    Distance matrix (angstroms):
                    1          2          3          4          5
     1  O    0.000000
     2  C    1.435155   0.000000
     3  C    2.510532   1.519583   0.000000
     4  O    2.937876   2.398845   1.435234   0.000000
     5  H    2.432805   2.423102   1.966054   0.999113   0.000000
     6  C    3.840212   2.533149   1.520219   2.451779   3.286253
     7  O    4.979539   3.820610   2.483838   3.009459   3.936856
     8  H    5.710085   4.434944   3.273349   3.874134   4.824877
     9  C    3.033164   2.691060   3.971795   5.081513   5.054103
    10  O    3.184877   3.465901   4.811654   5.798388   5.542474
    11  H    4.134364   4.365211   5.732317   6.730177   6.490437
    12  C    2.401950   1.520444   2.518319   3.757377   3.896316
    13  O    3.678480   2.441453   2.849860   4.148008   4.593617
    14  C    4.219666   2.901217   2.496284   3.777423   4.446639
    15  O    5.513380   4.122863   3.704604   4.786285   5.573353
    16  C    6.588696   5.276400   4.900217   6.074510   6.835807
    17  C    7.089488   5.837422   5.826092   7.063378   7.734501
    18  O    6.307383   5.213244   5.527588   6.857015   7.372702
    19  H    5.415603   4.260962   4.588254   5.893613   6.407627
    20  C    8.517384   7.305504   7.252687   8.503249   9.187963
    21  O    9.395341   8.221793   8.351224   9.594867  10.241144
    22  H   10.250798   9.094804   9.171022  10.432147  11.088666
    23  C    7.988356   6.652700   5.753273   6.554811   7.480532
    24  O    7.277348   5.953681   4.883494   5.453217   6.422502
    25  H    7.904765   6.632557   5.433690   5.803056   6.784767
    26  C    7.831696   6.461149   5.887919   6.869396   7.736270
    27  O    9.016221   7.690994   7.161728   8.208295   9.053247
    28  C    9.467931   8.167915   7.885502   9.015796   9.804216
    29  O   10.610782   9.357115   9.021892  10.179478  10.963471
    30  H    0.960000   1.974783   3.173713   3.348403   2.754420
    31  H   11.392589  10.116200   9.812447  10.940956  11.739424
    32  H    9.854525   8.512260   8.274389   9.326707  10.136142
    33  H    8.596104   7.473346   7.399942   8.715625   9.357280
    34  H    7.274878   5.966952   6.012427   7.135044   7.831549
    35  H    6.561163   5.358999   4.898613   6.142302   6.855797
    36  H    8.025455   6.610217   6.120308   6.995912   7.879114
    37  H    9.011615   7.663852   6.732698   7.438785   8.390631
    38  H    7.978783   6.730562   5.784820   6.667054   7.543703
    39  H    4.485059   3.366143   2.853873   4.193892   4.793724
    40  H    4.164642   2.808278   2.113368   2.641844   3.500806
    41  H    2.713647   2.108197   1.070000   2.034989   2.347902
    42  H    2.018313   1.070000   2.090121   2.564723   2.644269
    43  H    2.608137   2.044377   2.660604   3.987908   4.087170
    44  H    4.020891   3.512056   4.592485   5.829767   5.918614
    45  H    3.284888   2.897128   4.275687   5.208669   5.180132
                    6          7          8          9         10
     6  C    0.000000
     7  O    1.434939   0.000000
     8  H    1.907989   1.000252   0.000000
     9  C    4.379028   5.708258   6.010541   0.000000
    10  O    5.513998   6.792104   7.207787   1.434754   0.000000
    11  H    6.321642   7.620005   7.959122   1.988267   0.999878
    12  C    2.914822   4.220517   4.604954   1.519836   2.618397
    13  O    2.433635   3.661315   3.746537   2.400191   3.749062
    14  C    1.520739   2.384608   2.408122   3.709807   4.940967
    15  O    2.360849   2.814603   2.289195   4.641656   5.989775
    16  C    3.633157   3.812456   3.168207   5.307276   6.584556
    17  C    4.703749   5.171651   4.576418   5.172837   6.429550
    18  O    4.724570   5.493212   5.130853   4.008098   5.169080
    19  H    3.823383   4.726518   4.455522   3.334261   4.621220
    20  C    6.105655   6.391193   5.714422   6.461088   7.615638
    21  O    7.250323   7.665440   6.985449   7.040325   8.142155
    22  H    8.057271   8.371041   7.667815   7.894022   8.938422
    23  C    4.312824   3.642351   2.713437   7.439399   8.712246
    24  O    3.451679   2.577046   1.625204   7.218035   8.488938
    25  H    4.099417   2.995796   2.211187   8.099880   9.342838
    26  C    4.450111   4.262661   3.369608   6.735031   8.053493
    27  O    5.778656   5.528348   4.659278   7.674620   8.927415
    28  C    6.565752   6.573410   5.743722   7.696191   8.923124
    29  O    7.733013   7.608591   6.791455   8.813606   9.955160
    30  H    4.426419   5.632356   6.324704   3.256708   3.316566
    31  H    8.489583   8.380807   7.524497   9.517150  10.677892
    32  H    6.906448   6.967812   6.089010   8.055587   9.339976
    33  H    6.357246   6.583582   5.988478   6.548806   7.579254
    34  H    4.828487   5.374249   4.720573   5.374059   6.710551
    35  H    3.788380   3.816794   3.318083   5.395497   6.538757
    36  H    4.644214   4.585304   3.657804   6.895455   8.279169
    37  H    5.276066   4.516323   3.570965   8.461372   9.753475
    38  H    4.477921   3.711650   2.952765   7.475685   8.650876
    39  H    2.162321   2.602636   2.708273   4.010405   5.062718
    40  H    1.070000   2.039545   2.224395   4.607492   5.832669
    41  H    2.107836   2.661026   3.528909   4.235750   4.889863
    42  H    2.781222   4.134461   4.639536   2.970947   3.861220
    43  H    3.156306   4.232505   4.687672   2.045967   2.744145
    44  H    4.715234   5.960863   6.118130   1.070000   2.012891
    45  H    4.623281   6.030967   6.285606   1.070000   2.012891
                   11         12         13         14         15
    11  H    0.000000
    12  C    3.410598   0.000000
    13  O    4.341010   1.434694   0.000000
    14  C    5.626035   2.426379   1.434315   0.000000
    15  O    6.536436   3.596461   2.259772   1.435023   0.000000
    16  C    7.019448   4.469305   3.131708   2.444953   1.435178
    17  C    6.653057   4.757819   3.426598   3.363801   2.459452
    18  O    5.305422   3.906039   2.806230   3.270991   2.931717
    19  H    4.896302   3.031895   1.833520   2.428467   2.283027
    20  C    7.737535   6.162040   4.892047   4.761907   3.827344
    21  O    8.097271   7.002733   5.781259   5.905885   4.965926
    22  H    8.873552   7.855197   6.655251   6.698188   5.764659
    23  C    9.276813   6.307345   5.079495   3.897570   2.898770
    24  O    9.152737   5.929687   4.836913   3.552000   2.789735
    25  H   10.044681   6.756632   5.743760   4.425159   3.770145
    26  C    8.485304   5.840963   4.472488   3.631044   2.356451
    27  O    9.273693   6.915926   5.568684   4.818146   3.652030
    28  C    9.117386   7.203483   5.845742   5.424748   4.254982
    29  O   10.122014   8.345760   7.048260   6.568091   5.500765
    30  H    4.154259   2.933988   4.166491   4.858601   6.046484
    31  H   10.796603   9.105753   7.778781   7.354164   6.210180
    32  H    9.498419   7.606715   6.204671   5.867055   4.573166
    33  H    7.706202   6.262674   5.118634   4.943135   4.239248
    34  H    6.899797   5.004524   3.621905   3.677350   2.575282
    35  H    7.017604   4.511375   3.367216   2.547314   2.081906
    36  H    8.672254   6.064319   4.651207   3.974303   2.554062
    37  H   10.296446   7.349954   6.095232   4.944305   3.870257
    38  H    9.239587   6.326143   5.209025   3.961667   3.254591
    39  H    5.766960   2.771460   2.085201   1.070000   2.083839
    40  H    6.574683   3.292972   2.691601   2.115221   2.473000
    41  H    5.847829   2.806644   3.262026   2.763207   4.091523
    42  H    4.639505   2.094356   2.695941   3.283638   4.238888
    43  H    3.591177   1.070000   1.986160   2.553612   3.867958
    44  H    2.192608   2.086484   2.411093   3.723547   4.450186
    45  H    2.309642   2.086484   2.731475   4.114822   4.867318
                   16         17         18         19         20
    16  C    0.000000
    17  C    1.520174   0.000000
    18  O    2.441413   1.434785   0.000000
    19  H    2.302926   1.840733   0.999888   0.000000
    20  C    2.578993   1.520517   2.469757   3.213611   0.000000
    21  O    3.881816   2.552875   3.123940   3.981375   1.434476
    22  H    4.559741   3.372320   3.961217   4.858609   1.986609
    23  C    2.497677   3.768538   4.924748   4.739701   4.235737
    24  O    3.100298   4.492817   5.447198   5.002225   5.303643
    25  H    4.074845   5.463022   6.443388   5.997887   6.185645
    26  C    1.520232   2.389837   3.697392   3.675340   2.845219
    27  O    2.449703   2.789849   4.152457   4.448116   2.415843
    28  C    2.996020   2.530422   3.814596   4.369016   1.519798
    29  O    4.144430   3.757382   4.884202   5.545899   2.456594
    30  H    7.183728   7.582384   6.768193   5.866267   9.037390
    31  H    4.915039   4.408247   5.539044   6.224529   3.070604
    32  H    3.532186   2.951849   4.246503   4.741437   2.158280
    33  H    2.898118   2.116412   2.696258   3.502144   1.070000
    34  H    2.072201   1.070000   2.000477   2.180771   2.071242
    35  H    1.070000   2.156363   2.752176   2.694467   2.906846
    36  H    2.143223   2.638787   3.952127   3.869501   3.176405
    37  H    3.404113   4.485151   5.759790   5.657100   4.700842
    38  H    2.664735   3.994292   5.017567   4.889770   4.352467
    39  H    2.544842   3.552377   3.417773   2.772722   4.761897
    40  H    3.891597   4.819400   4.920650   3.991640   6.262352
    41  H    5.075033   6.071172   5.734767   4.880195   7.403298
    42  H    5.510957   5.974583   5.414515   4.431742   7.484879
    43  H    4.532471   4.934904   4.074452   3.328832   6.225362
    44  H    4.847865   4.483441   3.186220   2.706452   5.648429
    45  H    5.660145   5.432948   4.341082   3.631507   6.765442
                   21         22         23         24         25
    21  O    0.000000
    22  H    1.000115   0.000000
    23  C    5.512663   5.951083   0.000000
    24  O    6.558439   7.122315   1.434780   0.000000
    25  H    7.431729   7.942827   2.052018   1.000609   0.000000
    26  C    4.058593   4.590683   1.520298   2.538398   3.374951
    27  O    3.543217   3.781511   2.314592   3.667028   4.332911
    28  C    2.242195   2.407938   3.663616   4.914735   5.651234
    29  O    2.873466   2.492711   4.467614   5.851822   6.472091
    30  H    9.822587  10.715058   8.620989   7.870490   8.496995
    31  H    3.093424   2.567227   5.136400   6.498979   7.076982
    32  H    2.375569   2.622428   4.055159   5.184331   5.886712
    33  H    2.043119   2.238527   4.533496   5.656731   6.515684
    34  H    2.676204   3.602562   3.987607   4.569670   5.521193
    35  H    4.303644   4.842575   2.701079   3.368776   4.266444
    36  H    4.119672   4.742184   2.142036   2.800374   3.585717
    37  H    5.861971   6.191668   1.070000   2.032229   2.228064
    38  H    5.725448   6.074187   1.070000   2.032229   2.514958
    39  H    6.006556   6.694072   3.924524   3.764657   4.588155
    40  H    7.291699   8.153827   4.502883   3.547662   4.174302
    41  H    8.576417   9.328426   5.881733   5.113922   5.626186
    42  H    8.301078   9.225896   6.849239   6.080792   6.752064
    43  H    7.166576   7.936357   6.313265   6.017642   6.816869
    44  H    6.144174   6.965327   7.162219   7.147611   8.083590
    45  H    7.222811   8.134001   7.753679   7.460447   8.336778
                   26         27         28         29         30
    26  C    0.000000
    27  O    1.435602   0.000000
    28  C    2.422409   1.435190   0.000000
    29  O    3.541976   2.191060   1.434669   0.000000
    30  H    8.397737   9.616927  10.003092  11.201618   0.000000
    31  H    4.194691   2.882510   1.974351   0.960000  11.943760
    32  H    2.777884   2.079600   1.070000   2.080227  10.311032
    33  H    3.351461   2.768289   2.118947   2.522510   9.190796
    34  H    2.543428   3.112940   2.750118   4.130403   7.657734
    35  H    2.153992   2.728209   3.392418   4.256277   7.261906
    36  H    1.070000   2.067817   2.674900   3.946420   8.488599
    37  H    2.106629   2.441497   3.795452   4.416139   9.622959
    38  H    2.106629   2.531752   3.908248   4.482501   8.698257
    39  H    3.793879   4.779959   5.453970   6.424687   5.258091
    40  H    4.531150   5.939148   6.651184   7.919286   4.546628
    41  H    6.118931   7.281714   8.060571   9.080064   3.564217
    42  H    6.583490   7.879103   8.297306   9.573819   2.067257
    43  H    5.957164   6.925110   7.282747   8.298874   3.363527
    44  H    6.304252   7.094703   6.974635   8.032619   4.314672
    45  H    6.986569   7.993361   7.953705   9.160232   3.222380
                   31         32         33         34         35
    31  H    0.000000
    32  H    2.153150   0.000000
    33  H    3.285042   3.001315   0.000000
    34  H    4.607139   2.766513   2.954191   0.000000
    35  H    5.137329   4.154637   2.824510   2.984325   0.000000
    36  H    4.407903   2.602681   3.933643   2.331416   3.034241
    37  H    4.949413   4.049798   5.046608   4.598781   3.648584
    38  H    5.263981   4.531055   4.392087   4.465702   2.424839
    39  H    7.286107   6.069163   4.712070   4.132770   2.183254
    40  H    8.593099   6.827076   6.679973   4.703813   4.309288
    41  H    9.926861   8.572128   7.398871   6.429684   4.842976
    42  H   10.266799   8.509867   7.794499   5.911456   5.788871
    43  H    9.121985   7.821913   6.147587   5.387648   4.319034
    44  H    8.718528   7.362793   5.693049   4.761593   4.923010
    45  H    9.795286   8.177083   7.005262   5.424454   5.931827
                   36         37         38         39         40
    36  H    0.000000
    37  H    2.469430   0.000000
    38  H    3.000261   1.729247   0.000000
    39  H    4.387942   4.993835   3.696280   0.000000
    40  H    4.473355   5.371355   4.900634   3.015086   0.000000
    41  H    6.520649   6.882765   5.716714   2.702075   2.979018
    42  H    6.558296   7.805991   7.087258   3.997011   2.631511
    43  H    6.357938   7.380592   6.150748   2.458497   3.817821
    44  H    6.503175   8.161151   7.172776   3.930198   4.973633
    45  H    6.983686   8.733745   7.928869   4.639660   4.605616
                   41         42         43         44         45
    41  H    0.000000
    42  H    2.963173   0.000000
    43  H    2.516360   2.921774   0.000000
    44  H    4.789740   3.804842   2.403012   0.000000
    45  H    4.762925   2.778231   2.915375   1.718177   0.000000
 Stoichiometry    C12H22O11
 Framework group  C1[X(C12H22O11)]
 Deg. of freedom   129
 Full point group                 C1      NOp   1
 Largest Abelian subgroup         C1      NOp   1
 Largest concise Abelian subgroup C1      NOp   1
                         Standard orientation:                         
 ---------------------------------------------------------------------
 Center     Atomic      Atomic             Coordinates (Angstroms)
 Number     Number       Type             X           Y           Z
 ---------------------------------------------------------------------
      1          8           0        5.078325    0.451707    0.232537
      2          6           0        3.777142    0.056712   -0.226341
      3          6           0        3.297107   -1.317343    0.210320
      4          8           0        4.206277   -2.302195   -0.302877
      5          1           0        5.126235   -1.953703   -0.128361
      6          6           0        1.859948   -1.598702   -0.197698
      7          8           0        1.312975   -2.804495    0.355413
      8          1           0        0.374248   -2.777484    0.011079
      9          6           0        2.996120    2.629573   -0.115900
     10          8           0        3.996392    3.432700    0.526722
     11          1           0        3.822477    4.390189    0.297103
     12          6           0        2.781027    1.146438    0.136979
     13          8           0        1.451865    0.799175   -0.276646
     14          6           0        0.956230   -0.450418    0.223474
     15          8           0       -0.278366   -0.639659   -0.483102
     16          6           0       -1.476674   -0.211780    0.180760
     17          6           0       -1.956803    1.148564   -0.298687
     18          8           0       -0.984681    2.169938   -0.033388
     19          1           0       -0.181001    1.633068   -0.289601
     20          6           0       -3.368392    1.539648    0.109285
     21          8           0       -4.029221    2.613511   -0.574706
     22          1           0       -4.896257    2.790533   -0.108723
     23          6           0       -2.319817   -2.561753    0.252359
     24          8           0       -1.159109   -3.271830   -0.202766
     25          1           0       -1.252012   -4.266813   -0.151797
     26          6           0       -2.567782   -1.161819   -0.286160
     27          8           0       -3.847281   -0.822819    0.269641
     28          6           0       -4.381545    0.438762   -0.157843
     29          8           0       -5.521513    0.520430    0.709381
     30          1           0        5.610886    0.729862   -0.516201
     31          1           0       -6.312088    0.669332    0.185530
     32          1           0       -4.673350    0.410410   -1.186894
     33          1           0       -3.367911    1.755079    1.157373
     34          1           0       -1.992121    1.068328   -1.365090
     35          1           0       -1.367568   -0.237113    1.244882
     36          1           0       -2.618027   -1.177477   -1.354865
     37          1           0       -3.176569   -3.156287    0.012768
     38          1           0       -2.257915   -2.491385    1.318247
     39          1           0        0.807182   -0.425858    1.282758
     40          1           0        1.826488   -1.676472   -1.264344
     41          1           0        3.344541   -1.354837    1.278611
     42          1           0        3.827430    0.032372   -1.294882
     43          1           0        2.743136    1.087481    1.204681
     44          1           0        2.059193    3.103521    0.090110
     45          1           0        3.168322    2.728272   -1.167330
 ---------------------------------------------------------------------
 Rotational constants (GHZ):      0.4055959      0.1452573      0.1095006
 Standard basis: 6-31+G(d,p) (6D, 7F)
 There are   547 symmetry adapted basis functions of A   symmetry.
 Integral buffers will be    131072 words long.
 Raffenetti 2 integral format.
 Two-electron integral symmetry is turned on.
   547 basis functions,   890 primitive gaussians,   547 cartesian basis functions
    91 alpha electrons       91 beta electrons
       nuclear repulsion energy      2285.7093435796 Hartrees.
 NAtoms=   45 NActive=   45 NUniq=   45 SFac= 1.00D+00 NAtFMM=   50 NAOKFM=F Big=F
 One-electron integrals computed using PRISM.
 NBasis=   547 RedAO= T  NBF=   547
 NBsUse=   547 1.00D-06 NBFU=   547
 Harris functional with IExCor=  402 diagonalized for initial guess.
 ExpMin= 4.38D-02 ExpMax= 5.48D+03 ExpMxC= 8.25D+02 IAcc=2 IRadAn=         0 AccDes= 0.00D+00
 HarFok:  IExCor=  402 AccDes= 0.00D+00 IRadAn=         0 IDoV= 1
 ScaDFX=  1.000000  1.000000  1.000000  1.000000
 FoFCou: FMM=F IPFlag=           0 FMFlag=      100000 FMFlg1=           0
         NFxFlg=           0 DoJE=T BraDBF=F KetDBF=T FulRan=T
         Omega=  0.000000  0.000000  1.000000  0.000000  0.000000 ICntrl=     500 IOpCl=  0
         NMat0=    1 NMatS0=    1 NMatT0=    0 NMatD0=    1 NMtDS0=    0 NMtDT0=    0
         I1Cent=           4 NGrid=           0.
 Petite list used in FoFCou.
 Initial guess orbital symmetries:
       Occupied  (A) (A) (A) (A) (A) (A) (A) (A) (A) (A) (A) (A)
                 (A) (A) (A) (A) (A) (A) (A) (A) (A) (A) (A) (A)
                 (A) (A) (A) (A) (A) (A) (A) (A) (A) (A) (A) (A)
                 (A) (A) (A) (A) (A) (A) (A) (A) (A) (A) (A) (A)
                 (A) (A) (A) (A) (A) (A) (A) (A) (A) (A) (A) (A)
                 (A) (A) (A) (A) (A) (A) (A) (A) (A) (A) (A) (A)
                 (A) (A) (A) (A) (A) (A) (A) (A) (A) (A) (A) (A)
                 (A) (A) (A) (A) (A) (A) (A)
       Virtual   (A) (A) (A) (A) (A) (A) (A) (A) (A) (A) (A) (A)
                 (A) (A) (A) (A) (A) (A) (A) (A) (A) (A) (A) (A)
                 (A) (A) (A) (A) (A) (A) (A) (A) (A) (A) (A) (A)
                 (A) (A) (A) (A) (A) (A) (A) (A) (A) (A) (A) (A)
                 (A) (A) (A) (A) (A) (A) (A) (A) (A) (A) (A) (A)
                 (A) (A) (A) (A) (A) (A) (A) (A) (A) (A) (A) (A)
                 (A) (A) (A) (A) (A) (A) (A) (A) (A) (A) (A) (A)
                 (A) (A) (A) (A) (A) (A) (A) (A) (A) (A) (A) (A)
                 (A) (A) (A) (A) (A) (A) (A) (A) (A) (A) (A) (A)
                 (A) (A) (A) (A) (A) (A) (A) (A) (A) (A) (A) (A)
                 (A) (A) (A) (A) (A) (A) (A) (A) (A) (A) (A) (A)
                 (A) (A) (A) (A) (A) (A) (A) (A) (A) (A) (A) (A)
                 (A) (A) (A) (A) (A) (A) (A) (A) (A) (A) (A) (A)
                 (A) (A) (A) (A) (A) (A) (A) (A) (A) (A) (A) (A)
                 (A) (A) (A) (A) (A) (A) (A) (A) (A) (A) (A) (A)
                 (A) (A) (A) (A) (A) (A) (A) (A) (A) (A) (A) (A)
                 (A) (A) (A) (A) (A) (A) (A) (A) (A) (A) (A) (A)
                 (A) (A) (A) (A) (A) (A) (A) (A) (A) (A) (A) (A)
                 (A) (A) (A) (A) (A) (A) (A) (A) (A) (A) (A) (A)
                 (A) (A) (A) (A) (A) (A) (A) (A) (A) (A) (A) (A)
                 (A) (A) (A) (A) (A) (A) (A) (A) (A) (A) (A) (A)
                 (A) (A) (A) (A) (A) (A) (A) (A) (A) (A) (A) (A)
                 (A) (A) (A) (A) (A) (A) (A) (A) (A) (A) (A) (A)
                 (A) (A) (A) (A) (A) (A) (A) (A) (A) (A) (A) (A)
                 (A) (A) (A) (A) (A) (A) (A) (A) (A) (A) (A) (A)
                 (A) (A) (A) (A) (A) (A) (A) (A) (A) (A) (A) (A)
                 (A) (A) (A) (A) (A) (A) (A) (A) (A) (A) (A) (A)
                 (A) (A) (A) (A) (A) (A) (A) (A) (A) (A) (A) (A)
                 (A) (A) (A) (A) (A) (A) (A) (A) (A) (A) (A) (A)
                 (A) (A) (A) (A) (A) (A) (A) (A) (A) (A) (A) (A)
                 (A) (A) (A) (A) (A) (A) (A) (A) (A) (A) (A) (A)
                 (A) (A) (A) (A) (A) (A) (A) (A) (A) (A) (A) (A)
                 (A) (A) (A) (A) (A) (A) (A) (A) (A) (A) (A) (A)
                 (A) (A) (A) (A) (A) (A) (A) (A) (A) (A) (A) (A)
                 (A) (A) (A) (A) (A) (A) (A) (A) (A) (A) (A) (A)
                 (A) (A) (A) (A) (A) (A) (A) (A) (A) (A) (A) (A)
                 (A) (A) (A) (A) (A) (A) (A) (A) (A) (A) (A) (A)
                 (A) (A) (A) (A) (A) (A) (A) (A) (A) (A) (A) (A)
 The electronic state of the initial guess is 1-A.
 Requested convergence on RMS density matrix=1.00D-08 within 128 cycles.
 Requested convergence on MAX density matrix=1.00D-06.
 Requested convergence on             energy=1.00D-06.
 No special actions if energy rises.
 SCF Done:  E(RB3LYP) =  -1297.92236193     A.U. after   13 cycles
             Convg  =    0.7900D-08             -V/T =  2.0086
 Range of M.O.s used for correlation:     1   547
 NBasis=   547 NAE=    91 NBE=    91 NFC=     0 NFV=     0
 NROrb=    547 NOA=    91 NOB=    91 NVA=   456 NVB=   456

 **** Warning!!: The largest alpha MO coefficient is  0.72306256D+02

          Differentiating once with respect to electric field.
                with respect to dipole field.
          Electric field/nuclear overlap derivatives assumed to be zero.
          There are     3 degrees of freedom in the 1st order CPHF.  IDoFFX=0.
      3 vectors produced by pass  0 Test12= 1.38D-12 3.33D-08 XBig12= 1.20D+02 1.27D+00.
 AX will form     3 AO Fock derivatives at one time.
      3 vectors produced by pass  1 Test12= 1.38D-12 3.33D-08 XBig12= 2.17D+01 3.93D-01.
      3 vectors produced by pass  2 Test12= 1.38D-12 3.33D-08 XBig12= 9.60D+00 2.34D-01.
      3 vectors produced by pass  3 Test12= 1.38D-12 3.33D-08 XBig12= 8.93D-01 1.07D-01.
      3 vectors produced by pass  4 Test12= 1.38D-12 3.33D-08 XBig12= 2.98D-01 4.49D-02.
      3 vectors produced by pass  5 Test12= 1.38D-12 3.33D-08 XBig12= 4.79D-02 1.88D-02.
      3 vectors produced by pass  6 Test12= 1.38D-12 3.33D-08 XBig12= 1.77D-02 1.59D-02.
      3 vectors produced by pass  7 Test12= 1.38D-12 3.33D-08 XBig12= 1.87D-03 7.73D-03.
      3 vectors produced by pass  8 Test12= 1.38D-12 3.33D-08 XBig12= 4.50D-04 2.49D-03.
      3 vectors produced by pass  9 Test12= 1.38D-12 3.33D-08 XBig12= 1.13D-04 1.31D-03.
      3 vectors produced by pass 10 Test12= 1.38D-12 3.33D-08 XBig12= 3.18D-05 6.52D-04.
      3 vectors produced by pass 11 Test12= 1.38D-12 3.33D-08 XBig12= 6.62D-06 3.07D-04.
      3 vectors produced by pass 12 Test12= 1.38D-12 3.33D-08 XBig12= 9.38D-07 8.97D-05.
      3 vectors produced by pass 13 Test12= 1.38D-12 3.33D-08 XBig12= 3.36D-07 4.82D-05.
      3 vectors produced by pass 14 Test12= 1.38D-12 3.33D-08 XBig12= 4.06D-08 1.83D-05.
      3 vectors produced by pass 15 Test12= 1.38D-12 3.33D-08 XBig12= 9.59D-09 1.14D-05.
      3 vectors produced by pass 16 Test12= 1.38D-12 3.33D-08 XBig12= 1.11D-09 3.97D-06.
      3 vectors produced by pass 17 Test12= 1.38D-12 3.33D-08 XBig12= 2.05D-10 1.53D-06.
      3 vectors produced by pass 18 Test12= 1.38D-12 3.33D-08 XBig12= 2.86D-11 3.68D-07.
      3 vectors produced by pass 19 Test12= 1.38D-12 3.33D-08 XBig12= 9.95D-12 3.06D-07.
      3 vectors produced by pass 20 Test12= 1.38D-12 3.33D-08 XBig12= 4.37D-12 1.28D-07.
      1 vectors produced by pass 21 Test12= 1.38D-12 3.33D-08 XBig12= 1.35D-12 6.23D-08.
 Inverted reduced A of dimension    64 with in-core refinement.
 End of Minotr Frequency-dependent properties file   721 does not exist.
 End of Minotr Frequency-dependent properties file   722 does not exist.
 Symmetrizing basis deriv contribution to polar:
 IMax=3 JMax=2 DiffMx= 0.00D+00
 G2DrvN: will do    23 centers at a time, making    2 passes doing MaxLOS=2.
 Calling FoFCou, ICntrl=  3107 FMM=F I1Cent=   0 AccDes= 0.00D+00.
 Calling FoFCou, ICntrl=  3107 FMM=F I1Cent=   0 AccDes= 0.00D+00.
 FoFDir/FoFCou used for L=0 through L=2.
 End of G2Drv Frequency-dependent properties file   721 does not exist.
 End of G2Drv Frequency-dependent properties file   722 does not exist.
          IDoAtm=111111111111111111111111111111111111111111111
          Differentiating once with respect to electric field.
                with respect to dipole field.
          Differentiating once with respect to nuclear coordinates.
          There are   138 degrees of freedom in the 1st order CPHF.  IDoFFX=5.
 Will reuse    3 saved solutions.
    135 vectors produced by pass  0 Test12= 4.15D-14 1.00D-09 XBig12= 1.84D-01 6.24D-02.
 AX will form    68 AO Fock derivatives at one time.
    135 vectors produced by pass  1 Test12= 4.15D-14 1.00D-09 XBig12= 3.88D-02 1.37D-02.
    132 vectors produced by pass  2 Test12= 4.15D-14 1.00D-09 XBig12= 2.64D-04 1.50D-03.
    132 vectors produced by pass  3 Test12= 4.15D-14 1.00D-09 XBig12= 8.02D-07 7.42D-05.
    132 vectors produced by pass  4 Test12= 4.15D-14 1.00D-09 XBig12= 1.37D-09 2.71D-06.
    131 vectors produced by pass  5 Test12= 4.15D-14 1.00D-09 XBig12= 4.42D-12 1.83D-07.
     79 vectors produced by pass  6 Test12= 4.15D-14 1.00D-09 XBig12= 1.36D-13 2.47D-08.
 Inverted reduced A of dimension   876 with in-core refinement.
 Isotropic polarizability for W=    0.000000      187.92 Bohr**3.
 End of Minotr Frequency-dependent properties file   721 does not exist.
 End of Minotr Frequency-dependent properties file   722 does not exist.

 **********************************************************************

            Population analysis using the SCF density.

 **********************************************************************

 Orbital symmetries:
       Occupied  (A) (A) (A) (A) (A) (A) (A) (A) (A) (A) (A) (A)
                 (A) (A) (A) (A) (A) (A) (A) (A) (A) (A) (A) (A)
                 (A) (A) (A) (A) (A) (A) (A) (A) (A) (A) (A) (A)
                 (A) (A) (A) (A) (A) (A) (A) (A) (A) (A) (A) (A)
                 (A) (A) (A) (A) (A) (A) (A) (A) (A) (A) (A) (A)
                 (A) (A) (A) (A) (A) (A) (A) (A) (A) (A) (A) (A)
                 (A) (A) (A) (A) (A) (A) (A) (A) (A) (A) (A) (A)
                 (A) (A) (A) (A) (A) (A) (A)
       Virtual   (A) (A) (A) (A) (A) (A) (A) (A) (A) (A) (A) (A)
                 (A) (A) (A) (A) (A) (A) (A) (A) (A) (A) (A) (A)
                 (A) (A) (A) (A) (A) (A) (A) (A) (A) (A) (A) (A)
                 (A) (A) (A) (A) (A) (A) (A) (A) (A) (A) (A) (A)
                 (A) (A) (A) (A) (A) (A) (A) (A) (A) (A) (A) (A)
                 (A) (A) (A) (A) (A) (A) (A) (A) (A) (A) (A) (A)
                 (A) (A) (A) (A) (A) (A) (A) (A) (A) (A) (A) (A)
                 (A) (A) (A) (A) (A) (A) (A) (A) (A) (A) (A) (A)
                 (A) (A) (A) (A) (A) (A) (A) (A) (A) (A) (A) (A)
                 (A) (A) (A) (A) (A) (A) (A) (A) (A) (A) (A) (A)
                 (A) (A) (A) (A) (A) (A) (A) (A) (A) (A) (A) (A)
                 (A) (A) (A) (A) (A) (A) (A) (A) (A) (A) (A) (A)
                 (A) (A) (A) (A) (A) (A) (A) (A) (A) (A) (A) (A)
                 (A) (A) (A) (A) (A) (A) (A) (A) (A) (A) (A) (A)
                 (A) (A) (A) (A) (A) (A) (A) (A) (A) (A) (A) (A)
                 (A) (A) (A) (A) (A) (A) (A) (A) (A) (A) (A) (A)
                 (A) (A) (A) (A) (A) (A) (A) (A) (A) (A) (A) (A)
                 (A) (A) (A) (A) (A) (A) (A) (A) (A) (A) (A) (A)
                 (A) (A) (A) (A) (A) (A) (A) (A) (A) (A) (A) (A)
                 (A) (A) (A) (A) (A) (A) (A) (A) (A) (A) (A) (A)
                 (A) (A) (A) (A) (A) (A) (A) (A) (A) (A) (A) (A)
                 (A) (A) (A) (A) (A) (A) (A) (A) (A) (A) (A) (A)
                 (A) (A) (A) (A) (A) (A) (A) (A) (A) (A) (A) (A)
                 (A) (A) (A) (A) (A) (A) (A) (A) (A) (A) (A) (A)
                 (A) (A) (A) (A) (A) (A) (A) (A) (A) (A) (A) (A)
                 (A) (A) (A) (A) (A) (A) (A) (A) (A) (A) (A) (A)
                 (A) (A) (A) (A) (A) (A) (A) (A) (A) (A) (A) (A)
                 (A) (A) (A) (A) (A) (A) (A) (A) (A) (A) (A) (A)
                 (A) (A) (A) (A) (A) (A) (A) (A) (A) (A) (A) (A)
                 (A) (A) (A) (A) (A) (A) (A) (A) (A) (A) (A) (A)
                 (A) (A) (A) (A) (A) (A) (A) (A) (A) (A) (A) (A)
                 (A) (A) (A) (A) (A) (A) (A) (A) (A) (A) (A) (A)
                 (A) (A) (A) (A) (A) (A) (A) (A) (A) (A) (A) (A)
                 (A) (A) (A) (A) (A) (A) (A) (A) (A) (A) (A) (A)
                 (A) (A) (A) (A) (A) (A) (A) (A) (A) (A) (A) (A)
                 (A) (A) (A) (A) (A) (A) (A) (A) (A) (A) (A) (A)
                 (A) (A) (A) (A) (A) (A) (A) (A) (A) (A) (A) (A)
                 (A) (A) (A) (A) (A) (A) (A) (A) (A) (A) (A) (A)
 The electronic state is 1-A.
 Alpha  occ. eigenvalues --  -19.20050 -19.19442 -19.19393 -19.19150 -19.18259
 Alpha  occ. eigenvalues --  -19.18159 -19.17346 -19.17036 -19.16224 -19.15159
 Alpha  occ. eigenvalues --  -19.13848 -10.31471 -10.31045 -10.26584 -10.26397
 Alpha  occ. eigenvalues --  -10.26126 -10.25863 -10.25642 -10.25453 -10.25134
 Alpha  occ. eigenvalues --  -10.25059 -10.24729 -10.24629  -1.10727  -1.09426
 Alpha  occ. eigenvalues --   -1.05884  -1.05343  -1.04482  -1.03884  -1.02959
 Alpha  occ. eigenvalues --   -1.02646  -1.02308  -1.01730  -1.00313  -0.82798
 Alpha  occ. eigenvalues --   -0.80456  -0.79427  -0.78561  -0.72266  -0.70319
 Alpha  occ. eigenvalues --   -0.67872  -0.65186  -0.63407  -0.62927  -0.61607
 Alpha  occ. eigenvalues --   -0.60267  -0.57100  -0.56192  -0.55381  -0.55203
 Alpha  occ. eigenvalues --   -0.54274  -0.53652  -0.52952  -0.52144  -0.50849
 Alpha  occ. eigenvalues --   -0.50627  -0.50466  -0.50228  -0.48739  -0.46952
 Alpha  occ. eigenvalues --   -0.46336  -0.45245  -0.44893  -0.44193  -0.43749
 Alpha  occ. eigenvalues --   -0.42883  -0.42509  -0.41064  -0.40723  -0.39444
 Alpha  occ. eigenvalues --   -0.38717  -0.38373  -0.37820  -0.37183  -0.36001
 Alpha  occ. eigenvalues --   -0.35297  -0.34939  -0.34729  -0.34296  -0.33523
 Alpha  occ. eigenvalues --   -0.32915  -0.31845  -0.31284  -0.30595  -0.30272
 Alpha  occ. eigenvalues --   -0.29572  -0.28516  -0.28109  -0.27549  -0.26736
 Alpha  occ. eigenvalues --   -0.26657
 Alpha virt. eigenvalues --   -0.02138  -0.02017  -0.01701  -0.00399   0.00119
 Alpha virt. eigenvalues --    0.00881   0.01722   0.02235   0.02628   0.03417
 Alpha virt. eigenvalues --    0.03858   0.04205   0.04725   0.05239   0.05447
 Alpha virt. eigenvalues --    0.05939   0.06557   0.07517   0.07839   0.08105
 Alpha virt. eigenvalues --    0.08512   0.08569   0.08959   0.09824   0.10035
 Alpha virt. eigenvalues --    0.10404   0.11064   0.11424   0.11787   0.12052
 Alpha virt. eigenvalues --    0.12350   0.12402   0.13163   0.13291   0.13797
 Alpha virt. eigenvalues --    0.13852   0.14200   0.14396   0.14799   0.15166
 Alpha virt. eigenvalues --    0.15916   0.16259   0.16838   0.16935   0.17037
 Alpha virt. eigenvalues --    0.17238   0.17458   0.17596   0.18041   0.18569
 Alpha virt. eigenvalues --    0.18834   0.19188   0.19336   0.19513   0.20028
 Alpha virt. eigenvalues --    0.20487   0.20726   0.21026   0.21067   0.21644
 Alpha virt. eigenvalues --    0.21899   0.22132   0.22988   0.23113   0.23245
 Alpha virt. eigenvalues --    0.23421   0.23745   0.24031   0.24256   0.24775
 Alpha virt. eigenvalues --    0.24964   0.25187   0.25353   0.25759   0.26019
 Alpha virt. eigenvalues --    0.26161   0.26530   0.26798   0.27185   0.27310
 Alpha virt. eigenvalues --    0.27426   0.27945   0.28060   0.28160   0.28722
 Alpha virt. eigenvalues --    0.28765   0.29411   0.30013   0.30239   0.30804
 Alpha virt. eigenvalues --    0.30901   0.31241   0.31400   0.31793   0.32578
 Alpha virt. eigenvalues --    0.32700   0.32880   0.33169   0.33257   0.33756
 Alpha virt. eigenvalues --    0.34212   0.34497   0.34932   0.35126   0.35685
 Alpha virt. eigenvalues --    0.36069   0.36739   0.36990   0.37538   0.37736
 Alpha virt. eigenvalues --    0.38008   0.38353   0.38572   0.39215   0.39640
 Alpha virt. eigenvalues --    0.39985   0.40192   0.40784   0.41051   0.41580
 Alpha virt. eigenvalues --    0.41907   0.42808   0.43124   0.43491   0.44082
 Alpha virt. eigenvalues --    0.44389   0.44656   0.45493   0.46598   0.47070
 Alpha virt. eigenvalues --    0.47534   0.47984   0.48705   0.49121   0.50381
 Alpha virt. eigenvalues --    0.50633   0.52309   0.55399   0.62920   0.63747
 Alpha virt. eigenvalues --    0.64948   0.65655   0.67360   0.69121   0.69505
 Alpha virt. eigenvalues --    0.70957   0.71688   0.72370   0.74102   0.74734
 Alpha virt. eigenvalues --    0.75463   0.76720   0.76927   0.77924   0.78523
 Alpha virt. eigenvalues --    0.79324   0.79973   0.81437   0.82265   0.83519
 Alpha virt. eigenvalues --    0.84969   0.86518   0.87417   0.88095   0.89100
 Alpha virt. eigenvalues --    0.89815   0.90278   0.92509   0.93685   0.94849
 Alpha virt. eigenvalues --    0.95959   0.96847   0.97046   0.99623   1.01093
 Alpha virt. eigenvalues --    1.01170   1.01962   1.03417   1.03885   1.04320
 Alpha virt. eigenvalues --    1.05012   1.05616   1.06693   1.06866   1.07503
 Alpha virt. eigenvalues --    1.08119   1.08704   1.08977   1.09245   1.10137
 Alpha virt. eigenvalues --    1.11639   1.12184   1.13673   1.14029   1.15082
 Alpha virt. eigenvalues --    1.16654   1.17398   1.19020   1.19543   1.20399
 Alpha virt. eigenvalues --    1.20942   1.21847   1.23292   1.23788   1.25232
 Alpha virt. eigenvalues --    1.25539   1.25894   1.27178   1.27487   1.28532
 Alpha virt. eigenvalues --    1.28793   1.29280   1.29793   1.30121   1.31005
 Alpha virt. eigenvalues --    1.31204   1.32397   1.33962   1.34249   1.35035
 Alpha virt. eigenvalues --    1.35716   1.36726   1.36988   1.37467   1.38406
 Alpha virt. eigenvalues --    1.38967   1.40599   1.40657   1.42460   1.43552
 Alpha virt. eigenvalues --    1.44063   1.45235   1.45818   1.46779   1.48880
 Alpha virt. eigenvalues --    1.49325   1.49717   1.50503   1.51561   1.51782
 Alpha virt. eigenvalues --    1.53494   1.55100   1.56360   1.56924   1.57072
 Alpha virt. eigenvalues --    1.58322   1.58413   1.58663   1.60232   1.60754
 Alpha virt. eigenvalues --    1.61341   1.63204   1.64021   1.64964   1.65424
 Alpha virt. eigenvalues --    1.65843   1.66513   1.67333   1.68047   1.69919
 Alpha virt. eigenvalues --    1.70526   1.70991   1.72085   1.73200   1.74640
 Alpha virt. eigenvalues --    1.74751   1.75831   1.76308   1.76752   1.77442
 Alpha virt. eigenvalues --    1.78030   1.78977   1.79377   1.80289   1.82419
 Alpha virt. eigenvalues --    1.84015   1.84390   1.85658   1.85948   1.86976
 Alpha virt. eigenvalues --    1.87877   1.88511   1.89172   1.89681   1.90320
 Alpha virt. eigenvalues --    1.91951   1.92249   1.93294   1.93749   1.94796
 Alpha virt. eigenvalues --    1.95344   1.95991   1.97413   1.97553   1.99208
 Alpha virt. eigenvalues --    1.99540   2.00910   2.01143   2.01972   2.02301
 Alpha virt. eigenvalues --    2.03656   2.03722   2.04304   2.05795   2.06399
 Alpha virt. eigenvalues --    2.07354   2.08551   2.10572   2.11045   2.11406
 Alpha virt. eigenvalues --    2.12473   2.13435   2.13872   2.14824   2.16054
 Alpha virt. eigenvalues --    2.17122   2.17481   2.18099   2.18709   2.20620
 Alpha virt. eigenvalues --    2.21079   2.23046   2.24830   2.26281   2.27523
 Alpha virt. eigenvalues --    2.30169   2.30583   2.31580   2.32083   2.35178
 Alpha virt. eigenvalues --    2.35415   2.36693   2.37117   2.37518   2.40730
 Alpha virt. eigenvalues --    2.41616   2.42856   2.43204   2.43833   2.45686
 Alpha virt. eigenvalues --    2.46029   2.47141   2.47325   2.47914   2.48456
 Alpha virt. eigenvalues --    2.50811   2.51059   2.52870   2.54590   2.54955
 Alpha virt. eigenvalues --    2.56243   2.58132   2.59018   2.59665   2.60158
 Alpha virt. eigenvalues --    2.60720   2.60885   2.62383   2.63191   2.64246
 Alpha virt. eigenvalues --    2.65941   2.66578   2.68350   2.68910   2.69894
 Alpha virt. eigenvalues --    2.70559   2.70966   2.73139   2.73564   2.74193
 Alpha virt. eigenvalues --    2.74704   2.76109   2.77907   2.78152   2.80640
 Alpha virt. eigenvalues --    2.82637   2.82669   2.84215   2.85067   2.85671
 Alpha virt. eigenvalues --    2.86673   2.87137   2.88504   2.89302   2.90223
 Alpha virt. eigenvalues --    2.90350   2.91413   2.92746   2.93267   2.94369
 Alpha virt. eigenvalues --    2.95072   2.97189   2.97317   2.98422   2.98949
 Alpha virt. eigenvalues --    3.00936   3.01651   3.03007   3.04313   3.06678
 Alpha virt. eigenvalues --    3.07342   3.08803   3.09091   3.10849   3.14480
 Alpha virt. eigenvalues --    3.16393   3.17724   3.23721   3.25283   3.27772
 Alpha virt. eigenvalues --    3.31273   3.36614   3.37457   3.39426   3.40683
 Alpha virt. eigenvalues --    3.42454   3.44678   3.46288   3.46563   3.47840
 Alpha virt. eigenvalues --    3.48632   3.51072   3.52112   3.52605   3.54347
 Alpha virt. eigenvalues --    3.56089   3.56631   3.60691   3.61818   3.63957
 Alpha virt. eigenvalues --    3.67083   3.72862   3.76620   4.30105   4.31676
 Alpha virt. eigenvalues --    4.33378   4.35089   4.38954   4.44274   4.44786
 Alpha virt. eigenvalues --    4.47875   4.51607   4.52808   4.54400   4.56281
 Alpha virt. eigenvalues --    4.56574   4.59651   4.62510   4.65186   4.70330
 Alpha virt. eigenvalues --    4.79085   4.82230   4.84125   4.86283   4.86777
 Alpha virt. eigenvalues --    4.90311
          Condensed to atoms (all electrons):
              1          2          3          4          5          6
     1  O    8.231952   0.395355  -0.137176  -0.014509   0.025674   0.022850
     2  C    0.395355   9.419013  -1.718848  -0.017945  -0.069552  -2.337497
     3  C   -0.137176  -1.718848   8.894792   0.226405   0.026531   0.390085
     4  O   -0.014509  -0.017945   0.226405   8.224776   0.194485  -0.116761
     5  H    0.025674  -0.069552   0.026531   0.194485   0.432024   0.025881
     6  C    0.022850  -2.337497   0.390085  -0.116761   0.025881  10.685647
     7  O   -0.000589   0.028295  -0.181305   0.006765  -0.000801   0.406001
     8  H    0.000015  -0.011978   0.039727  -0.000368   0.000010   0.026228
     9  C   -0.036131  -0.300197  -0.033168   0.002911  -0.004094   0.234841
    10  O   -0.003547  -0.026404   0.001554  -0.000023  -0.000020   0.000766
    11  H   -0.000036   0.002005   0.000241   0.000000   0.000000  -0.000245
    12  C   -0.198938  -1.937836   0.169922  -0.004458   0.022765   0.968748
    13  O    0.004653  -0.000390   0.009056   0.000900  -0.000007  -0.188156
    14  C    0.039790   1.709293  -1.180360   0.031040   0.001317  -3.103916
    15  O   -0.000021  -0.037710   0.000831  -0.000822   0.000061   0.209609
    16  C    0.002206   0.266833  -0.277513  -0.000263   0.000899  -0.601769
    17  C    0.000056   0.000561  -0.039320   0.000506   0.000079   0.146950
    18  O    0.000009   0.003920  -0.000663  -0.000004   0.000000   0.004600
    19  H   -0.000015  -0.000476   0.002696  -0.000002   0.000000   0.006677
    20  C    0.000059   0.014430  -0.025226   0.000051   0.000003   0.025564
    21  O    0.000000   0.000002  -0.000013   0.000000   0.000000  -0.000157
    22  H    0.000000   0.000000   0.000001   0.000000   0.000000  -0.000027
    23  C    0.000060   0.010496  -0.004366   0.000827  -0.000021  -0.240580
    24  O    0.000002   0.006425  -0.017977  -0.000102  -0.000006  -0.024643
    25  H    0.000000   0.000029   0.001456   0.000006   0.000000  -0.000611
    26  C   -0.000052   0.037307  -0.077545  -0.000324   0.000010  -0.244126
    27  O    0.000000  -0.000225   0.000509   0.000000   0.000000   0.007195
    28  C    0.000003   0.000001   0.000485  -0.000004   0.000000   0.003984
    29  O    0.000000  -0.000012   0.000044   0.000000   0.000000   0.000011
    30  H    0.236667   0.050163  -0.003727   0.000945  -0.002366   0.004698
    31  H    0.000000   0.000000   0.000000   0.000000   0.000000   0.000000
    32  H    0.000000  -0.000007   0.000006   0.000000   0.000000   0.000165
    33  H    0.000000   0.000032   0.000040   0.000000   0.000000  -0.000036
    34  H    0.000000  -0.000520   0.000869   0.000000   0.000000  -0.000789
    35  H   -0.000002  -0.001611   0.004613   0.000002   0.000000   0.007035
    36  H    0.000000  -0.000377   0.000934   0.000000   0.000000   0.005382
    37  H    0.000000   0.000016   0.000050   0.000000   0.000000  -0.000242
    38  H    0.000000  -0.000167   0.000247   0.000001   0.000000  -0.000137
    39  H    0.000088   0.030462  -0.049791  -0.000147   0.000005  -0.086712
    40  H   -0.000656   0.095123  -0.189479   0.005545  -0.000099   0.245401
    41  H   -0.004662   0.159924   0.206828  -0.040863  -0.004664  -0.285371
    42  H   -0.048940   0.516603  -0.155451   0.001431  -0.001524  -0.033719
    43  H    0.006258   0.030165  -0.089561   0.000814  -0.000021  -0.040433
    44  H    0.000281  -0.010588  -0.009331   0.000027   0.000000   0.001513
    45  H    0.000409  -0.033943   0.002897  -0.000013   0.000000   0.005207
              7          8          9         10         11         12
     1  O   -0.000589   0.000015  -0.036131  -0.003547  -0.000036  -0.198938
     2  C    0.028295  -0.011978  -0.300197  -0.026404   0.002005  -1.937836
     3  C   -0.181305   0.039727  -0.033168   0.001554   0.000241   0.169922
     4  O    0.006765  -0.000368   0.002911  -0.000023   0.000000  -0.004458
     5  H   -0.000801   0.000010  -0.004094  -0.000020   0.000000   0.022765
     6  C    0.406001   0.026228   0.234841   0.000766  -0.000245   0.968748
     7  O    8.247812   0.198084   0.001182   0.000008   0.000000   0.013567
     8  H    0.198084   0.347596   0.000274   0.000000   0.000000   0.003503
     9  C    0.001182   0.000274   7.253150   0.052100  -0.015876  -1.568637
    10  O    0.000008   0.000000   0.052100   8.290075   0.205764   0.110052
    11  H    0.000000   0.000000  -0.015876   0.205764   0.438724   0.031032
    12  C    0.013567   0.003503  -1.568637   0.110052   0.031032  10.702570
    13  O    0.007594   0.001568  -0.054404  -0.000740  -0.000568  -0.141311
    14  C   -0.123393  -0.051096  -0.510860   0.010822  -0.003608  -1.746292
    15  O   -0.004441   0.023394   0.006970   0.000124   0.000008   0.043769
    16  C    0.002844  -0.000719  -0.159397  -0.004034   0.000121  -0.116337
    17  C    0.004126   0.001774   0.002469   0.000220  -0.000023  -0.125966
    18  O   -0.000090   0.000011   0.011690  -0.000196   0.000011  -0.028501
    19  H   -0.000005  -0.000021  -0.006780  -0.000005  -0.000004   0.009285
    20  C    0.001999   0.001012   0.002107  -0.000010   0.000023  -0.030219
    21  O   -0.000004   0.000000   0.000050   0.000000   0.000000   0.000005
    22  H    0.000000   0.000000   0.000000   0.000000   0.000000   0.000014
    23  C    0.007104   0.025317  -0.002341  -0.000033  -0.000001  -0.014693
    24  O   -0.027237  -0.026529   0.000191  -0.000001   0.000000   0.000317
    25  H    0.001720   0.000170  -0.000013   0.000000   0.000000  -0.000321
    26  C   -0.011426  -0.038614  -0.007206  -0.000218   0.000003   0.047230
    27  O    0.000126  -0.000012  -0.000036   0.000000   0.000000  -0.000504
    28  C    0.000530  -0.000303  -0.000628   0.000009   0.000000   0.001067
    29  O   -0.000004   0.000000  -0.000010   0.000000   0.000000   0.000041
    30  H   -0.000012   0.000000   0.003680   0.000989   0.000007  -0.038155
    31  H    0.000000   0.000000   0.000000   0.000000   0.000000  -0.000001
    32  H    0.000000   0.000000   0.000007   0.000000   0.000000   0.000029
    33  H    0.000000   0.000000  -0.000073   0.000000   0.000000   0.000561
    34  H   -0.000023   0.000011   0.000047   0.000000   0.000000   0.003406
    35  H   -0.000850   0.000247  -0.000238   0.000002   0.000000   0.002454
    36  H   -0.000100   0.000037   0.000181   0.000000   0.000000   0.000852
    37  H   -0.000488   0.000199  -0.000004   0.000000   0.000000   0.000006
    38  H    0.001377   0.000699   0.000039   0.000000   0.000000   0.000522
    39  H    0.001709  -0.000821   0.013575   0.000039   0.000000  -0.003510
    40  H   -0.042122  -0.007704   0.010362   0.000002   0.000000  -0.009115
    41  H    0.007740  -0.000111   0.018368  -0.000032   0.000000  -0.050846
    42  H    0.000221   0.000004   0.000008  -0.000870  -0.000002  -0.178281
    43  H    0.000119   0.000001   0.062583   0.001829  -0.000112   0.146879
    44  H   -0.000006   0.000000   0.493354  -0.048212  -0.008682  -0.087716
    45  H   -0.000002   0.000000   0.565429  -0.070223  -0.004054  -0.201888
             13         14         15         16         17         18
     1  O    0.004653   0.039790  -0.000021   0.002206   0.000056   0.000009
     2  C   -0.000390   1.709293  -0.037710   0.266833   0.000561   0.003920
     3  C    0.009056  -1.180360   0.000831  -0.277513  -0.039320  -0.000663
     4  O    0.000900   0.031040  -0.000822  -0.000263   0.000506  -0.000004
     5  H   -0.000007   0.001317   0.000061   0.000899   0.000079   0.000000
     6  C   -0.188156  -3.103916   0.209609  -0.601769   0.146950   0.004600
     7  O    0.007594  -0.123393  -0.004441   0.002844   0.004126  -0.000090
     8  H    0.001568  -0.051096   0.023394  -0.000719   0.001774   0.000011
     9  C   -0.054404  -0.510860   0.006970  -0.159397   0.002469   0.011690
    10  O   -0.000740   0.010822   0.000124  -0.004034   0.000220  -0.000196
    11  H   -0.000568  -0.003608   0.000008   0.000121  -0.000023   0.000011
    12  C   -0.141311  -1.746292   0.043769  -0.116337  -0.125966  -0.028501
    13  O    8.469388   0.321859  -0.026631   0.105864  -0.064445   0.026081
    14  C    0.321859  10.770069   0.010141  -0.783541   0.205672  -0.021246
    15  O   -0.026631   0.010141   8.337647  -0.003797   0.032186  -0.010619
    16  C    0.105864  -0.783541  -0.003797  11.730778  -2.190758  -0.148400
    17  C   -0.064445   0.205672   0.032186  -2.190758   9.145365   0.423960
    18  O    0.026081  -0.021246  -0.010619  -0.148400   0.423960   8.246157
    19  H    0.015127  -0.013196   0.022725  -0.084414   0.038763   0.168406
    20  C   -0.017777  -0.406871   0.035131  -1.048977  -1.508506  -0.139216
    21  O    0.000016  -0.000797   0.000136   0.028911  -0.104495   0.006317
    22  H   -0.000003  -0.000037   0.000034  -0.018185   0.032458  -0.000451
    23  C    0.020621   0.166363  -0.057849   0.221118  -0.407505   0.005715
    24  O   -0.002088   0.059344  -0.020064   0.034750  -0.002788   0.000020
    25  H    0.000055  -0.006238   0.002548  -0.007981  -0.000849   0.000001
    26  C   -0.029614  -0.512945  -0.105671  -2.176504  -0.417077   0.008057
    27  O   -0.000377   0.017093   0.008110  -0.055361   0.041260  -0.000384
    28  C    0.002133  -0.020962   0.012493   0.570355   0.605064   0.006477
    29  O    0.000015   0.003421   0.000180   0.028738   0.002061  -0.000117
    30  H   -0.000585  -0.004578  -0.000009   0.000178  -0.000086   0.000000
    31  H    0.000000   0.000020  -0.000001  -0.006760   0.009618  -0.000026
    32  H    0.000002   0.004781   0.000050   0.078566   0.008921  -0.000907
    33  H    0.000268   0.002870  -0.000726   0.105347  -0.152837   0.001426
    34  H    0.003768   0.043102  -0.011992   0.048558   0.316048  -0.055145
    35  H    0.000512   0.019155  -0.061902   0.351977   0.006244  -0.000903
    36  H   -0.000561   0.055477   0.004966   0.012929   0.014057  -0.000604
    37  H    0.000008   0.002876   0.000579   0.008457  -0.004427   0.000040
    38  H   -0.000017   0.009286   0.001356   0.024353   0.011795  -0.000047
    39  H   -0.065013   0.347740  -0.058314   0.050287   0.021137  -0.000352
    40  H    0.014818   0.071245  -0.008559   0.034821   0.002459   0.000082
    41  H    0.007208   0.184527  -0.000741   0.012146   0.000978   0.000026
    42  H    0.011639   0.112009  -0.000512   0.002737   0.000851   0.000042
    43  H   -0.046636   0.134553  -0.000378   0.006375   0.004668   0.000315
    44  H    0.001398  -0.010858  -0.000167   0.003713   0.000141  -0.000707
    45  H    0.000461   0.016646  -0.000284  -0.003530   0.000625   0.000181
             19         20         21         22         23         24
     1  O   -0.000015   0.000059   0.000000   0.000000   0.000060   0.000002
     2  C   -0.000476   0.014430   0.000002   0.000000   0.010496   0.006425
     3  C    0.002696  -0.025226  -0.000013   0.000001  -0.004366  -0.017977
     4  O   -0.000002   0.000051   0.000000   0.000000   0.000827  -0.000102
     5  H    0.000000   0.000003   0.000000   0.000000  -0.000021  -0.000006
     6  C    0.006677   0.025564  -0.000157  -0.000027  -0.240580  -0.024643
     7  O   -0.000005   0.001999  -0.000004   0.000000   0.007104  -0.027237
     8  H   -0.000021   0.001012   0.000000   0.000000   0.025317  -0.026529
     9  C   -0.006780   0.002107   0.000050   0.000000  -0.002341   0.000191
    10  O   -0.000005  -0.000010   0.000000   0.000000  -0.000033  -0.000001
    11  H   -0.000004   0.000023   0.000000   0.000000  -0.000001   0.000000
    12  C    0.009285  -0.030219   0.000005   0.000014  -0.014693   0.000317
    13  O    0.015127  -0.017777   0.000016  -0.000003   0.020621  -0.002088
    14  C   -0.013196  -0.406871  -0.000797  -0.000037   0.166363   0.059344
    15  O    0.022725   0.035131   0.000136   0.000034  -0.057849  -0.020064
    16  C   -0.084414  -1.048977   0.028911  -0.018185   0.221118   0.034750
    17  C    0.038763  -1.508506  -0.104495   0.032458  -0.407505  -0.002788
    18  O    0.168406  -0.139216   0.006317  -0.000451   0.005715   0.000020
    19  H    0.394310   0.035065  -0.000244   0.000012  -0.005117   0.000043
    20  C    0.035065   9.879372   0.170092  -0.035548   0.081635  -0.003487
    21  O   -0.000244   0.170092   8.253270   0.206556  -0.001571   0.000039
    22  H    0.000012  -0.035548   0.206556   0.429215  -0.000555   0.000001
    23  C   -0.005117   0.081635  -0.001571  -0.000555   6.365395  -0.041336
    24  O    0.000043  -0.003487   0.000039   0.000001  -0.041336   8.564919
    25  H    0.000000   0.000676   0.000000   0.000000  -0.008362   0.214737
    26  C    0.028480   0.916631  -0.007390   0.001761  -0.995493   0.026276
    27  O    0.000276  -0.287196   0.010931   0.001126  -0.108936   0.002920
    28  C   -0.005128  -1.811895  -0.010620   0.026170  -0.106868   0.006729
    29  O    0.000023  -0.148372  -0.005811   0.020579   0.000982   0.000033
    30  H    0.000000   0.000000   0.000000   0.000000   0.000002   0.000000
    31  H    0.000000  -0.015248  -0.002399  -0.002362   0.000734   0.000000
    32  H    0.000004  -0.118006  -0.004632  -0.001791   0.000513   0.000018
    33  H   -0.000129   0.355087  -0.038227  -0.009529   0.015247   0.000000
    34  H   -0.008872  -0.135949  -0.000630  -0.000198   0.037843  -0.000023
    35  H   -0.000953   0.001159  -0.000540   0.000006   0.022694   0.000599
    36  H    0.000015  -0.046423   0.000076   0.000004   0.021926   0.006891
    37  H    0.000000  -0.000185  -0.000004   0.000000   0.439197  -0.040790
    38  H    0.000002  -0.006387  -0.000011   0.000000   0.562981  -0.072150
    39  H   -0.000239   0.013777   0.000000   0.000000   0.003384   0.000986
    40  H   -0.000041   0.001386   0.000000   0.000000   0.006134   0.001883
    41  H   -0.000003   0.000124   0.000000   0.000000   0.000915   0.000159
    42  H   -0.000007   0.000081   0.000000   0.000000   0.000166   0.000015
    43  H    0.000186   0.000879   0.000000   0.000000   0.000227   0.000018
    44  H    0.000867  -0.000920   0.000001   0.000000   0.000033   0.000000
    45  H    0.000011   0.000091   0.000000   0.000000  -0.000004   0.000000
             25         26         27         28         29         30
     1  O    0.000000  -0.000052   0.000000   0.000003   0.000000   0.236667
     2  C    0.000029   0.037307  -0.000225   0.000001  -0.000012   0.050163
     3  C    0.001456  -0.077545   0.000509   0.000485   0.000044  -0.003727
     4  O    0.000006  -0.000324   0.000000  -0.000004   0.000000   0.000945
     5  H    0.000000   0.000010   0.000000   0.000000   0.000000  -0.002366
     6  C   -0.000611  -0.244126   0.007195   0.003984   0.000011   0.004698
     7  O    0.001720  -0.011426   0.000126   0.000530  -0.000004  -0.000012
     8  H    0.000170  -0.038614  -0.000012  -0.000303   0.000000   0.000000
     9  C   -0.000013  -0.007206  -0.000036  -0.000628  -0.000010   0.003680
    10  O    0.000000  -0.000218   0.000000   0.000009   0.000000   0.000989
    11  H    0.000000   0.000003   0.000000   0.000000   0.000000   0.000007
    12  C   -0.000321   0.047230  -0.000504   0.001067   0.000041  -0.038155
    13  O    0.000055  -0.029614  -0.000377   0.002133   0.000015  -0.000585
    14  C   -0.006238  -0.512945   0.017093  -0.020962   0.003421  -0.004578
    15  O    0.002548  -0.105671   0.008110   0.012493   0.000180  -0.000009
    16  C   -0.007981  -2.176504  -0.055361   0.570355   0.028738   0.000178
    17  C   -0.000849  -0.417077   0.041260   0.605064   0.002061  -0.000086
    18  O    0.000001   0.008057  -0.000384   0.006477  -0.000117   0.000000
    19  H    0.000000   0.028480   0.000276  -0.005128   0.000023   0.000000
    20  C    0.000676   0.916631  -0.287196  -1.811895  -0.148372   0.000000
    21  O    0.000000  -0.007390   0.010931  -0.010620  -0.005811   0.000000
    22  H    0.000000   0.001761   0.001126   0.026170   0.020579   0.000000
    23  C   -0.008362  -0.995493  -0.108936  -0.106868   0.000982   0.000002
    24  O    0.214737   0.026276   0.002920   0.006729   0.000033   0.000000
    25  H    0.381423   0.029825  -0.000277  -0.001141   0.000000   0.000000
    26  C    0.029825  10.754783   0.206492  -0.903537  -0.092937  -0.000006
    27  O   -0.000277   0.206492   8.467920   0.163824  -0.103567   0.000000
    28  C   -0.001141  -0.903537   0.163824   6.438826   0.451603   0.000000
    29  O    0.000000  -0.092937  -0.103567   0.451603   8.226129   0.000000
    30  H    0.000000  -0.000006   0.000000   0.000000   0.000000   0.394545
    31  H    0.000000   0.007223  -0.000776   0.014875   0.227896   0.000000
    32  H    0.000000  -0.059607  -0.057259   0.441382  -0.054480   0.000000
    33  H    0.000000  -0.006799   0.006048  -0.031235  -0.005683   0.000000
    34  H    0.000000  -0.016614   0.002614  -0.021593  -0.000106   0.000000
    35  H   -0.000019  -0.130159   0.007360   0.010462  -0.000403   0.000000
    36  H   -0.000225   0.162057  -0.033077   0.037726  -0.000886   0.000000
    37  H   -0.009996  -0.061991  -0.006798   0.000099  -0.000353   0.000000
    38  H   -0.000647  -0.261103   0.010336   0.008981  -0.000082   0.000000
    39  H    0.000014   0.003806   0.000198  -0.000234  -0.000005   0.000002
    40  H    0.000002  -0.000365  -0.000005  -0.000049   0.000000   0.000009
    41  H    0.000000   0.000328   0.000000  -0.000012   0.000000  -0.000073
    42  H    0.000000   0.000033   0.000000  -0.000005   0.000000  -0.011891
    43  H    0.000000  -0.000043   0.000000  -0.000027   0.000000   0.000083
    44  H    0.000000   0.000586   0.000000   0.000033   0.000000  -0.000006
    45  H    0.000000  -0.000335   0.000000   0.000006   0.000000   0.000013
             31         32         33         34         35         36
     1  O    0.000000   0.000000   0.000000   0.000000  -0.000002   0.000000
     2  C    0.000000  -0.000007   0.000032  -0.000520  -0.001611  -0.000377
     3  C    0.000000   0.000006   0.000040   0.000869   0.004613   0.000934
     4  O    0.000000   0.000000   0.000000   0.000000   0.000002   0.000000
     5  H    0.000000   0.000000   0.000000   0.000000   0.000000   0.000000
     6  C    0.000000   0.000165  -0.000036  -0.000789   0.007035   0.005382
     7  O    0.000000   0.000000   0.000000  -0.000023  -0.000850  -0.000100
     8  H    0.000000   0.000000   0.000000   0.000011   0.000247   0.000037
     9  C    0.000000   0.000007  -0.000073   0.000047  -0.000238   0.000181
    10  O    0.000000   0.000000   0.000000   0.000000   0.000002   0.000000
    11  H    0.000000   0.000000   0.000000   0.000000   0.000000   0.000000
    12  C   -0.000001   0.000029   0.000561   0.003406   0.002454   0.000852
    13  O    0.000000   0.000002   0.000268   0.003768   0.000512  -0.000561
    14  C    0.000020   0.004781   0.002870   0.043102   0.019155   0.055477
    15  O   -0.000001   0.000050  -0.000726  -0.011992  -0.061902   0.004966
    16  C   -0.006760   0.078566   0.105347   0.048558   0.351977   0.012929
    17  C    0.009618   0.008921  -0.152837   0.316048   0.006244   0.014057
    18  O   -0.000026  -0.000907   0.001426  -0.055145  -0.000903  -0.000604
    19  H    0.000000   0.000004  -0.000129  -0.008872  -0.000953   0.000015
    20  C   -0.015248  -0.118006   0.355087  -0.135949   0.001159  -0.046423
    21  O   -0.002399  -0.004632  -0.038227  -0.000630  -0.000540   0.000076
    22  H   -0.002362  -0.001791  -0.009529  -0.000198   0.000006   0.000004
    23  C    0.000734   0.000513   0.015247   0.037843   0.022694   0.021926
    24  O    0.000000   0.000018   0.000000  -0.000023   0.000599   0.006891
    25  H    0.000000   0.000000   0.000000   0.000000  -0.000019  -0.000225
    26  C    0.007223  -0.059607  -0.006799  -0.016614  -0.130159   0.162057
    27  O   -0.000776  -0.057259   0.006048   0.002614   0.007360  -0.033077
    28  C    0.014875   0.441382  -0.031235  -0.021593   0.010462   0.037726
    29  O    0.227896  -0.054480  -0.005683  -0.000106  -0.000403  -0.000886
    30  H    0.000000   0.000000   0.000000   0.000000   0.000000   0.000000
    31  H    0.413251  -0.006439   0.000209   0.000005   0.000001   0.000021
    32  H   -0.006439   0.614089   0.004580   0.002399  -0.000005   0.005155
    33  H    0.000209   0.004580   0.589231   0.007620   0.002440   0.000028
    34  H    0.000005   0.002399   0.007620   0.641383   0.006534   0.003196
    35  H    0.000001  -0.000005   0.002440   0.006534   0.595414   0.005201
    36  H    0.000021   0.005155   0.000028   0.003196   0.005201   0.600504
    37  H   -0.000002  -0.000026   0.000002   0.000009   0.000166  -0.005908
    38  H   -0.000001  -0.000007  -0.000006  -0.000008   0.004554   0.005999
    39  H    0.000000   0.000000  -0.000007  -0.000026   0.009482  -0.000017
    40  H    0.000000   0.000000   0.000000  -0.000005  -0.000004  -0.000015
    41  H    0.000000   0.000000   0.000000   0.000000  -0.000003   0.000000
    42  H    0.000000   0.000000   0.000000   0.000000   0.000000   0.000000
    43  H    0.000000   0.000000   0.000000  -0.000001  -0.000007   0.000000
    44  H    0.000000   0.000000   0.000000   0.000000   0.000000   0.000000
    45  H    0.000000   0.000000   0.000000   0.000000   0.000000   0.000000
             37         38         39         40         41         42
     1  O    0.000000   0.000000   0.000088  -0.000656  -0.004662  -0.048940
     2  C    0.000016  -0.000167   0.030462   0.095123   0.159924   0.516603
     3  C    0.000050   0.000247  -0.049791  -0.189479   0.206828  -0.155451
     4  O    0.000000   0.000001  -0.000147   0.005545  -0.040863   0.001431
     5  H    0.000000   0.000000   0.000005  -0.000099  -0.004664  -0.001524
     6  C   -0.000242  -0.000137  -0.086712   0.245401  -0.285371  -0.033719
     7  O   -0.000488   0.001377   0.001709  -0.042122   0.007740   0.000221
     8  H    0.000199   0.000699  -0.000821  -0.007704  -0.000111   0.000004
     9  C   -0.000004   0.000039   0.013575   0.010362   0.018368   0.000008
    10  O    0.000000   0.000000   0.000039   0.000002  -0.000032  -0.000870
    11  H    0.000000   0.000000   0.000000   0.000000   0.000000  -0.000002
    12  C    0.000006   0.000522  -0.003510  -0.009115  -0.050846  -0.178281
    13  O    0.000008  -0.000017  -0.065013   0.014818   0.007208   0.011639
    14  C    0.002876   0.009286   0.347740   0.071245   0.184527   0.112009
    15  O    0.000579   0.001356  -0.058314  -0.008559  -0.000741  -0.000512
    16  C    0.008457   0.024353   0.050287   0.034821   0.012146   0.002737
    17  C   -0.004427   0.011795   0.021137   0.002459   0.000978   0.000851
    18  O    0.000040  -0.000047  -0.000352   0.000082   0.000026   0.000042
    19  H    0.000000   0.000002  -0.000239  -0.000041  -0.000003  -0.000007
    20  C   -0.000185  -0.006387   0.013777   0.001386   0.000124   0.000081
    21  O   -0.000004  -0.000011   0.000000   0.000000   0.000000   0.000000
    22  H    0.000000   0.000000   0.000000   0.000000   0.000000   0.000000
    23  C    0.439197   0.562981   0.003384   0.006134   0.000915   0.000166
    24  O   -0.040790  -0.072150   0.000986   0.001883   0.000159   0.000015
    25  H   -0.009996  -0.000647   0.000014   0.000002   0.000000   0.000000
    26  C   -0.061991  -0.261103   0.003806  -0.000365   0.000328   0.000033
    27  O   -0.006798   0.010336   0.000198  -0.000005   0.000000   0.000000
    28  C    0.000099   0.008981  -0.000234  -0.000049  -0.000012  -0.000005
    29  O   -0.000353  -0.000082  -0.000005   0.000000   0.000000   0.000000
    30  H    0.000000   0.000000   0.000002   0.000009  -0.000073  -0.011891
    31  H   -0.000002  -0.000001   0.000000   0.000000   0.000000   0.000000
    32  H   -0.000026  -0.000007   0.000000   0.000000   0.000000   0.000000
    33  H    0.000002  -0.000006  -0.000007   0.000000   0.000000   0.000000
    34  H    0.000009  -0.000008  -0.000026  -0.000005   0.000000   0.000000
    35  H    0.000166   0.004554   0.009482  -0.000004  -0.000003   0.000000
    36  H   -0.005908   0.005999  -0.000017  -0.000015   0.000000   0.000000
    37  H    0.582599  -0.041691   0.000002   0.000001   0.000000   0.000000
    38  H   -0.041691   0.591698  -0.000006  -0.000003   0.000000   0.000000
    39  H    0.000002  -0.000006   0.617467   0.005060   0.002663   0.000043
    40  H    0.000001  -0.000003   0.005060   0.604478   0.007230   0.003332
    41  H    0.000000   0.000000   0.002663   0.007230   0.629016   0.006983
    42  H    0.000000   0.000000   0.000043   0.003332   0.006983   0.629533
    43  H    0.000000   0.000000   0.006371   0.000110   0.004681   0.008299
    44  H    0.000000   0.000000   0.000001   0.000002   0.000005  -0.000064
    45  H    0.000000   0.000000  -0.000008  -0.000003   0.000005   0.004118
             43         44         45
     1  O    0.006258   0.000281   0.000409
     2  C    0.030165  -0.010588  -0.033943
     3  C   -0.089561  -0.009331   0.002897
     4  O    0.000814   0.000027  -0.000013
     5  H   -0.000021   0.000000   0.000000
     6  C   -0.040433   0.001513   0.005207
     7  O    0.000119  -0.000006  -0.000002
     8  H    0.000001   0.000000   0.000000
     9  C    0.062583   0.493354   0.565429
    10  O    0.001829  -0.048212  -0.070223
    11  H   -0.000112  -0.008682  -0.004054
    12  C    0.146879  -0.087716  -0.201888
    13  O   -0.046636   0.001398   0.000461
    14  C    0.134553  -0.010858   0.016646
    15  O   -0.000378  -0.000167  -0.000284
    16  C    0.006375   0.003713  -0.003530
    17  C    0.004668   0.000141   0.000625
    18  O    0.000315  -0.000707   0.000181
    19  H    0.000186   0.000867   0.000011
    20  C    0.000879  -0.000920   0.000091
    21  O    0.000000   0.000001   0.000000
    22  H    0.000000   0.000000   0.000000
    23  C    0.000227   0.000033  -0.000004
    24  O    0.000018   0.000000   0.000000
    25  H    0.000000   0.000000   0.000000
    26  C   -0.000043   0.000586  -0.000335
    27  O    0.000000   0.000000   0.000000
    28  C   -0.000027   0.000033   0.000006
    29  O    0.000000   0.000000   0.000000
    30  H    0.000083  -0.000006   0.000013
    31  H    0.000000   0.000000   0.000000
    32  H    0.000000   0.000000   0.000000
    33  H    0.000000   0.000000   0.000000
    34  H   -0.000001   0.000000   0.000000
    35  H   -0.000007   0.000000   0.000000
    36  H    0.000000   0.000000   0.000000
    37  H    0.000000   0.000000   0.000000
    38  H    0.000000   0.000000   0.000000
    39  H    0.006371   0.000001  -0.000008
    40  H    0.000110   0.000002  -0.000003
    41  H    0.004681   0.000005   0.000005
    42  H    0.008299  -0.000064   0.004118
    43  H    0.635075  -0.009098   0.008672
    44  H   -0.009098   0.584983  -0.051623
    45  H    0.008672  -0.051623   0.635259
 Mulliken atomic charges:
              1
     1  O   -0.521114
     2  C   -0.270171
     3  C    0.209998
     4  O   -0.500828
     5  H    0.353429
     6  C   -0.129112
     7  O   -0.546028
     8  H    0.468395
     9  C   -0.035473
    10  O   -0.519786
    11  H    0.355273
    12  C    0.204933
    13  O   -0.385691
    14  C    0.150284
    15  O   -0.341838
    16  C   -0.045621
    17  C   -0.061991
    18  O   -0.504964
    19  H    0.402678
    20  C    0.249977
    21  O   -0.498856
    22  H    0.350750
    23  C   -0.022000
    24  O   -0.648098
    25  H    0.404016
    26  C   -0.073186
    27  O   -0.299552
    28  C    0.110923
    29  O   -0.548931
    30  H    0.369514
    31  H    0.360164
    32  H    0.142498
    33  H    0.154250
    34  H    0.135084
    35  H    0.139287
    36  H    0.144582
    37  H    0.138600
    38  H    0.148241
    39  H    0.136904
    40  H    0.148739
    41  H    0.137524
    42  H    0.133119
    43  H    0.127156
    44  H    0.151038
    45  H    0.125879
 Sum of Mulliken atomic charges =   0.00000
 Mulliken charges with hydrogens summed into heavy atoms:
              1
     1  O   -0.151599
     2  C   -0.137052
     3  C    0.347523
     4  O   -0.147398
     6  C    0.019628
     7  O   -0.077633
     9  C    0.241444
    10  O   -0.164514
    12  C    0.332089
    13  O   -0.385691
    14  C    0.287188
    15  O   -0.341838
    16  C    0.093666
    17  C    0.073093
    18  O   -0.102285
    20  C    0.404227
    21  O   -0.148106
    23  C    0.264842
    24  O   -0.244082
    26  C    0.071396
    27  O   -0.299552
    28  C    0.253421
    29  O   -0.188767
 Sum of Mulliken charges with hydrogens summed into heavy atoms =   0.00000
 APT atomic charges:
              1
     1  O   -0.641986
     2  C    0.415817
     3  C    0.414494
     4  O   -0.631793
     5  H    0.265385
     6  C    0.368535
     7  O   -0.750258
     8  H    0.504958
     9  C    0.482773
    10  O   -0.618804
    11  H    0.259522
    12  C    0.460193
    13  O   -0.897678
    14  C    0.921338
    15  O   -0.845395
    16  C    0.419366
    17  C    0.370932
    18  O   -0.695552
    19  H    0.390630
    20  C    0.357579
    21  O   -0.631021
    22  H    0.263799
    23  C    0.467591
    24  O   -0.696637
    25  H    0.265715
    26  C    0.443624
    27  O   -0.795245
    28  C    0.944689
    29  O   -0.660971
    30  H    0.265925
    31  H    0.261412
    32  H   -0.073092
    33  H   -0.035296
    34  H   -0.054270
    35  H   -0.030093
    36  H   -0.045532
    37  H   -0.040743
    38  H   -0.033427
    39  H   -0.054185
    40  H   -0.033744
    41  H   -0.054866
    42  H   -0.058188
    43  H   -0.058384
    44  H   -0.033758
    45  H   -0.073360
 Sum of APT charges=   0.00000
 APT Atomic charges with hydrogens summed into heavy atoms:
              1
     1  O   -0.376061
     2  C    0.357629
     3  C    0.359628
     4  O   -0.366408
[...]
 0000801,-0.00001905,0.00003747,-0.00635805,-0.00236300,0.00214468,0.00
 152880,0.00079288,0.00129505,-0.00011315,-0.00020705,-0.00009871,0.000
 12756,0.00001307,0.00019841,0.00001150,0.00002245,-0.00002328,-0.00003
 533,-0.00001557,-0.00000742,0.00004576,-0.00002145,0.00004554,-0.00005
 534,0.00003931,-0.00005392,-0.00000351,0.00000651,-0.00000311,0.000012
 06,-0.00000642,0.00000821,-0.00000196,-0.00000073,-0.00000215,-0.00000
 999,0.00000048,0.00000441,0.00003774,0.00001765,0.00004741,-0.00001794
 ,-0.00000394,0.00000310,-0.00002491,-0.00001220,-0.00000568,0.00001737
 ,-0.00000133,0.00001298,-0.00001562,0.00000505,-0.00000953,0.00000466,
 0.00000016,0.00000544,0.00154825,0.00007749,-0.00069300,-0.00000219,-0
 .00000063,-0.00000064,0.00000362,0.00000057,0.00000268,0.00000368,0.00
 000127,-0.00000395,0.00001295,0.00000590,0.00001095,0.00000929,-0.0000
 0098,-0.00000770,0.00000796,0.00000051,0.00000626,-0.00000051,0.000000
 30,0.00000475,0.00000506,0.00000059,-0.00000453,0.00001409,0.00002856,
 -0.00017350,0.00079385,0.00015843,0.00058682,0.00006095,0.00233638,0.0
 0123097,0.37045002,-0.01104440,-0.00157375,-0.00647801,-0.03213897,-0.
 04781111,0.00644799,0.03335955,-0.00090475,-0.00704791,-0.00159173,0.0
 0357584,-0.00068681,0.00058096,-0.00024256,0.00034232,0.00070521,0.001
 20683,0.00106965,-0.00042784,-0.00023885,-0.00009610,-0.00006119,-0.00
 000328,0.00010128,-0.00148095,0.00206402,-0.00068823,0.00043544,0.0000
 8353,0.00007912,-0.00000553,-0.00005592,0.00001650,-0.03033902,-0.0056
 5013,0.00822850,0.00178175,0.00138346,-0.00157241,0.00014949,-0.000535
 69,0.00000909,0.00003398,0.00012543,-0.00002683,-0.00004373,0.00001525
 ,-0.00000542,0.00000345,-0.00000049,-0.00001624,0.00002562,0.00000400,
 -0.00002003,-0.00001730,-0.00000305,0.00002447,-0.00000680,-0.00000071
 ,0.00000279,0.00000405,0.00000421,-0.00000206,-0.00000179,-0.00000133,
 -0.00000080,-0.00000106,-0.00001417,0.00001089,-0.00001249,-0.00000298
 ,-0.00005682,0.00000785,0.00000312,-0.00000091,0.00000310,-0.00000322,
 0.00000397,-0.00000260,0.00000775,-0.00000814,0.00000129,-0.00000641,0
 .00000647,0.00000261,0.00000164,-0.00000584,-0.00146890,0.00134447,-0.
 00029316,-0.00000028,0.00000002,0.00000088,0.00000002,0.00000102,-0.00
 000001,0.00000149,-0.00000002,-0.00000204,0.00000376,0.00000466,0.0000
 0399,0.00000490,-0.00000625,0.00000290,0.00000015,0.00000181,0.0000002
 8,0.00000021,0.00000244,-0.00000562,0.00000087,-0.00000058,0.00000111,
 -0.00005868,-0.00014691,-0.00004528,-0.00042313,-0.00014239,-0.0002443
 3,0.00163947,-0.00510169,-0.00179851,0.04012810,0.05619228,-0.04303709
 ,-0.01270479,-0.01582482,0.05474836,0.00587442,-0.04933217,0.01403168,
 0.00091120,-0.00137310,-0.00184198,0.00080493,0.00061659,-0.00029530,-
 0.00025452,-0.00000850,0.00107449,0.00034818,0.00053862,-0.00037242,-0
 .00006401,-0.00007810,0.00003202,0.00002548,0.00003263,-0.00022011,-0.
 00126418,0.00038122,-0.00011031,0.00001916,0.00013381,0.00001136,-0.00
 002400,0.00004331,0.02585608,0.00607884,-0.00465569,-0.00133961,-0.000
 78149,0.00273291,0.00045393,-0.00022404,-0.00024260,-0.00010604,0.0000
 2602,-0.00016034,0.00000299,-0.00003863,0.00000175,0.00002037,0.000006
 93,0.00001464,-0.00004567,-0.00001399,0.00000153,0.00004165,0.00002545
 ,-0.00002775,0.00000646,-0.00000663,0.00000704,-0.00001175,0.00000941,
 -0.00001114,0.00000268,-0.00000068,0.00000255,0.00001076,0.00000327,-0
 .00000041,-0.00002142,-0.00001532,-0.00002360,0.00000968,0.00000362,-0
 .00000094,0.00001515,0.00001073,0.00000920,-0.00001303,0.00000376,-0.0
 0001960,0.00001053,-0.00000814,0.00001766,-0.00000017,0.00000078,-0.00
 001140,-0.00336662,0.00053967,0.00303771,0.00000087,0.00000048,0.00000
 175,-0.00000242,-0.00000020,-0.00000250,-0.00000331,-0.00000057,0.0000
 0392,-0.00001184,-0.00000604,-0.00001218,-0.00000984,0.00000213,0.0000
 1023,-0.00000590,-0.00000122,-0.00000593,-0.00000118,-0.00000222,-0.00
 000315,-0.00000348,0.00000026,0.00000341,-0.00018148,0.00003551,0.0001
 4145,-0.00031476,-0.00023004,-0.00007449,0.00050314,-0.00224348,-0.000
 65170,-0.04530557,-0.00066026,0.06805639,0.00170593,0.00044392,0.00105
 147,-0.01126828,-0.00364682,0.00380122,-0.00006156,0.00140702,-0.00010
 087,0.00066029,0.00014268,0.00003753,-0.00017094,0.00004622,0.00002160
 ,0.00003497,-0.00007710,-0.00013101,0.00013080,-0.00027389,0.00000055,
 -0.00000268,0.00006035,0.00003016,-0.01607009,0.00433164,0.00384702,0.
 00175952,0.00023368,0.00067851,0.00012389,-0.00020560,0.00003043,-0.33
 694433,-0.00941230,0.04834521,-0.01644725,-0.00569448,-0.01641476,0.00
 034560,0.00267736,0.00169738,0.00061173,-0.00003665,-0.00043087,-0.000
 20719,-0.00009258,0.00016552,0.00002003,0.00013487,0.00008668,0.000188
 71,0.00011111,-0.00042839,-0.00023972,-0.00038242,0.00079269,-0.000036
 50,-0.00005383,0.00002812,0.00001079,0.00003175,-0.00003492,-0.0000077
 2,-0.00000921,-0.00000037,-0.00003557,0.00000413,0.00002054,0.00001757
 ,-0.00003016,-0.00003396,-0.00000917,0.00000238,-0.00000508,0.00002855
 ,0.00001930,0.00003520,0.00000676,0.00000619,-0.00007324,-0.00000502,0
 .00000355,0.00005542,0.00002618,0.00000115,-0.00006101,0.00023414,0.00
 016740,-0.00014492,-0.00000112,-0.00000024,0.00000792,0.00000228,0.000
 00133,-0.00000213,0.00000963,0.00000660,-0.00001465,0.00001953,0.00000
 251,0.00002734,0.00003702,-0.00001193,-0.00003745,0.00001104,0.0000023
 7,0.00000765,0.00000253,-0.00000808,-0.00000626,0.00000934,0.00000264,
 -0.00000044,0.00040233,-0.00165179,-0.00117945,0.00008684,0.00016171,0
 .00009908,0.00097777,-0.00093310,-0.00034452,0.00090035,-0.00121369,0.
 00054144,0.37220270,0.00172284,0.00056460,-0.00151411,-0.02992328,-0.0
 0587611,0.01032268,-0.00214850,0.00055032,0.00045385,0.00084037,0.0000
 9161,-0.00041058,-0.00016112,0.00011640,-0.00000940,-0.00004077,-0.000
 31078,-0.00012894,0.00014240,0.00000740,0.00000276,-0.00002402,-0.0000
 1157,-0.00005706,0.03956641,-0.00529573,-0.00597986,-0.00290347,0.0026
 4751,0.00044404,0.00005249,0.00051330,0.00033002,-0.00611630,-0.044541
 41,0.00390706,-0.01213549,0.00027799,-0.00778648,-0.00326215,0.0008391
 2,0.00004154,0.00045270,-0.00019851,0.00002576,0.00004578,0.00003461,-
 0.00007272,0.00000133,0.00010655,0.00010692,-0.00007594,-0.00002128,-0
 .00017004,0.00010849,-0.00008151,0.00023018,0.00001083,-0.00002013,-0.
 00000757,-0.00000988,-0.00000799,-0.00000420,0.00000386,0.00000222,0.0
 0000310,-0.00000468,0.00001305,-0.00002353,0.00001011,-0.00000632,0.00
 003937,-0.00000506,-0.00000324,-0.00000308,0.00000997,-0.00000549,-0.0
 0000546,0.00000402,-0.00002093,0.00002102,-0.00000760,0.00003791,-0.00
 000789,-0.00000122,-0.00000971,-0.00000165,0.00004136,0.00005579,-0.00
 041994,0.00000097,0.00000017,0.00000031,-0.00000018,-0.00000388,-0.000
 00103,-0.00000399,0.00000219,0.00000571,-0.00001218,-0.00002609,-0.000
 01091,0.00000172,0.00001668,-0.00002362,-0.00000016,0.00000045,0.00000
 338,0.00000245,-0.00000208,0.00000427,0.00000119,-0.00000233,-0.000003
 38,0.00050577,0.00030420,0.00009655,0.00013751,0.00014984,0.00007727,0
 .00069205,-0.00015882,-0.00002255,-0.00068144,-0.00351312,0.00351344,0
 .01125962,0.05926929,-0.00141640,-0.00109269,0.00241559,0.02832372,0.0
 0740237,-0.00499208,0.00056987,-0.00137480,0.00054358,-0.00076969,0.00
 002703,0.00008224,0.00024104,-0.00006981,0.00003135,0.00026720,-0.0000
 2402,-0.00046906,0.00005892,-0.00024543,0.00023541,-0.00002011,0.00007
 954,-0.00001996,0.00950209,-0.00051198,0.00084886,-0.00069464,0.000768
 74,0.00017370,-0.00012643,0.00013048,-0.00000738,0.05517302,0.00192697
 ,-0.04590207,-0.04739218,-0.00932975,-0.01733690,-0.00410407,0.0024801
 3,0.00259079,0.00077098,-0.00012159,-0.00043642,-0.00004500,-0.0000860
 6,0.00015131,-0.00000388,0.00006498,0.00005402,0.00020633,0.00012512,-
 0.00021453,-0.00041215,-0.00044437,0.00069685,-0.00000570,-0.00003850,
 0.00002272,-0.00000509,0.00002671,-0.00002276,-0.00000238,-0.00000475,
 -0.00000010,-0.00000786,0.00002149,-0.00000234,0.00000154,-0.00003079,
 0.00001536,0.00000386,0.00000106,-0.00000588,0.00002512,0.00001765,0.0
 0002749,-0.00000691,0.00000385,-0.00004507,0.00000636,-0.00000035,0.00
 003183,0.00000852,0.00000074,-0.00003255,0.00005581,-0.00016459,0.0006
 0560,0.00000112,-0.00000035,0.00000407,-0.00000161,-0.00000014,-0.0000
 0258,0.00000323,0.00000290,-0.00001033,0.00001834,0.00000556,0.0000228
 8,0.00002008,0.00000334,-0.00006624,0.00000305,0.00000185,0.00000324,0
 .00000078,-0.00000693,-0.00000087,0.00000075,-0.00000023,0.00000259,0.
 00111934,0.00017395,0.00004188,-0.00002221,0.00003878,-0.00014599,-0.0
 0055521,0.00042172,0.00026116,0.00029764,0.00388936,-0.00355664,-0.040
 76627,-0.00201463,0.06350313,0.00008692,-0.00030113,-0.00000927,-0.000
 48927,0.00142684,0.00183626,0.00051163,0.00011254,-0.00053056,-0.00008
 192,0.00040237,-0.00004172,0.00000464,-0.00000954,0.00004749,-0.000007
 38,-0.00002019,-0.00006645,0.00000526,-0.00003494,0.00002229,0.0000029
 2,0.00001454,0.00000796,-0.05064017,-0.01418174,0.03189346,0.00067911,
 0.00171350,-0.02830393,0.00117414,0.00120850,0.00058995,0.00106444,0.0
 1141733,-0.01217319,0.00070894,-0.00220791,-0.00066389,-0.00025045,0.0
 0011969,-0.00003919,-0.00009076,-0.00006316,-0.00020070,0.00005028,-0.
 00004510,0.00010256,-0.00010396,-0.00008106,-0.00007241,-0.00023974,0.
 00021370,0.00014977,0.00039623,-0.00034040,-0.00014807,0.00003883,0.00
 002184,0.00001244,-0.00002105,0.00001564,0.00000552,0.00000235,0.00000
 259,0.00000029,0.00000870,0.00000079,0.00001706,-0.00000399,-0.0000018
 3,-0.00001090,0.00000271,0.00000053,-0.00000019,-0.00000785,0.00002680
 ,-0.00000235,-0.00001613,0.00002144,-0.00002266,0.00001366,-0.00004596
 ,0.00000261,-0.00000888,0.00001062,0.00001313,-0.00017153,0.00014301,-
 0.00020130,0.00000063,-0.00000107,-0.00000253,-0.00000338,0.00000103,-
 0.00000170,-0.00000867,-0.00000031,0.00000557,-0.00000089,-0.00002470,
 -0.00002284,-0.00001106,0.00001260,-0.00000153,-0.00000414,-0.00000364
 ,-0.00000268,-0.00000221,0.00000229,-0.00000116,-0.00000266,0.00000177
 ,0.00000041,-0.00001877,0.00004785,0.00001466,0.00000798,0.00000073,0.
 00001281,-0.00002784,-0.00006759,-0.00001655,0.00015892,0.00035903,-0.
 00011276,0.00065962,-0.00050736,-0.00063006,0.04877655,-0.00006758,0.0
 0039468,-0.00008776,0.00281148,-0.00378769,-0.00434768,-0.00069877,0.0
 0012731,0.00170831,0.00021123,-0.00126574,0.00010624,-0.00010157,0.000
 12770,-0.00018777,-0.00001957,0.00015741,0.00058920,-0.00004160,0.0001
 3758,-0.00036786,0.00003608,-0.00005539,0.00014005,-0.00992308,-0.1175
 7241,0.13857131,-0.00575184,0.00314301,-0.03078290,-0.00025223,0.00218
 883,-0.00151997,-0.00410796,-0.02010776,0.02849018,-0.00014607,0.00199
 330,0.00076024,0.00012049,-0.00035058,-0.00032288,-0.00000281,0.000096
 43,-0.00016718,0.00000102,-0.00002773,0.00008433,-0.00007510,-0.000381
 96,-0.00029570,0.00010944,0.00042619,0.00055831,-0.00023827,-0.0006859
 2,-0.00075028,0.00001208,0.00013429,-0.00001468,0.00002138,-0.00003267
 ,0.00005245,-0.00000122,0.00000873,-0.00000906,-0.00000340,-0.00006417
 ,0.00008120,-0.00000586,0.00004968,-0.00012116,-0.00000040,-0.00000906
 ,0.00001155,-0.00001372,0.00000107,-0.00006304,-0.00000748,0.00004727,
 0.00000450,0.00000848,-0.00009894,-0.00005122,-0.00002009,0.00002260,0
 .00007687,0.00004804,-0.00007205,-0.00016785,-0.00000239,0.,-0.0000113
 7,0.00000154,0.00000899,0.00000678,0.00000148,-0.00000853,-0.00000688,
 0.00005125,0.00006565,0.00004052,0.00000964,-0.00001121,-0.00001579,-0
 .00000135,0.00000052,0.00000636,-0.00000129,0.00002172,-0.00000785,0.0
 0000414,0.00000424,-0.00000596,-0.00003871,0.00004420,0.00003721,-0.00
 001144,-0.00001062,-0.00003409,0.00011426,-0.00005175,-0.00008660,-0.0
 0005371,0.00021316,-0.00014563,0.00006327,0.00127007,0.00006341,0.0173
 9468,0.13173759,0.00006680,0.00029014,0.00010123,-0.00034800,-0.001287
 00,-0.00018646,-0.00000903,-0.00011798,0.00010312,0.00001335,-0.000100
 17,0.00007703,0.00000137,-0.00004058,-0.00002261,0.00009212,-0.0000682
 8,-0.00016274,0.00000011,-0.00010662,0.00005092,0.00000401,0.00002380,
 0.00000529,0.02893677,0.13617167,-0.27975540,-0.00891835,-0.00567901,-
 0.03247816,-0.00059206,0.00005720,0.00012101,0.00108867,-0.00129599,0.
 00218860,0.00028549,-0.00275891,0.00058878,-0.00022525,-0.00015368,0.0
 0055990,-0.00002696,0.00002470,-0.00007797,0.00000559,0.00000805,0.000
 05621,0.00000260,-0.00000063,-0.00007727,0.00002376,-0.00014454,-0.000
 08632,-0.00007321,-0.00005211,-0.00009274,-0.00000834,-0.00000380,-0.0
 0000704,-0.00000223,-0.00001187,-0.00001498,0.00000302,0.00000330,0.00
 000620,0.00000053,0.00001175,-0.00000559,-0.00000172,-0.00001354,0.000
 00441,0.00000095,0.00000396,-0.00000235,-0.00000840,0.00000984,0.00000
 813,0.00000050,-0.00001418,-0.00000849,-0.00000527,0.00001552,0.000017
 36,0.00000743,-0.00000753,-0.00001973,-0.00002390,-0.00019534,0.000013
 25,-0.00000057,0.00000274,0.00000517,0.00000032,-0.00000089,-0.0000015
 5,-0.00000101,0.00000065,0.00000205,0.00000084,0.00001266,0.00001013,-
 0.00000151,0.00000070,-0.00000213,0.00000023,-0.00000063,-0.00000102,-
 0.00000118,-0.00000322,-0.00000123,-0.00000040,0.00000027,0.00000154,0
 .00000867,0.00001128,-0.00001311,-0.00001024,0.00000463,0.00000782,0.0
 0000429,0.00000409,0.00000279,0.00000675,-0.00008355,0.00004261,-0.000
 36913,0.00014622,0.00048888,-0.02209179,-0.13035364,0.31498163,0.00024
 794,-0.00018494,-0.00035803,0.00090261,-0.00076544,0.00058858,0.000350
 16,-0.00003540,-0.00003854,0.00006756,0.00018255,-0.00007282,-0.000045
 78,0.00000617,0.00002982,-0.00012533,-0.00008463,0.00004191,0.00005238
 ,0.00009650,0.00000411,-0.00002777,-0.00003237,-0.00003386,-0.32398823
 ,0.00738092,0.08463280,-0.02088254,-0.01449730,-0.01084579,-0.00042042
 ,0.00018746,-0.00028760,-0.01442006,0.00305763,0.00499072,0.00075871,0
 .00110403,0.00139936,0.00030852,-0.00021487,-0.00008777,0.00013153,0.0
 0016590,0.00033493,0.00000376,0.00007528,-0.00010688,-0.00004162,-0.00
 000997,0.00000282,0.00017618,-0.00007626,0.00007030,-0.00023453,0.0001
 2242,-0.00011613,-0.00001694,0.00001927,-0.00001382,0.00002988,-0.0000
 2210,0.00001371,-0.00000352,-0.00000131,-0.00000297,-0.00000701,-0.000
 00558,-0.00000812,0.00002326,0.00001766,0.00002025,-0.00001285,-0.0000
 0387,0.00000109,-0.00002722,-0.00002796,-0.00001441,0.00002585,-0.0000
 1506,0.00003894,-0.00002872,0.00002630,-0.00002131,0.00000687,-0.00000
 510,0.00001130,-0.00030691,0.00033112,-0.00034956,-0.00000343,0.000000
 18,-0.00000039,0.00000649,0.00000128,0.00000501,0.00000892,0.00000009,
 -0.00000732,0.00001910,0.00002536,0.00002699,0.00001100,-0.00001173,0.
 00000318,0.00000804,0.00000379,0.00000647,0.00000048,0.00000369,0.0000
 0409,0.00000501,-0.00000185,-0.00000338,0.00001657,-0.00013071,-0.0001
 3132,0.00003948,0.00004201,0.00000474,0.00008403,-0.00022509,-0.000044
 18,0.00015941,0.00110773,-0.00063960,0.00028071,0.00241054,0.00030915,
 -0.00214178,0.00056754,0.00216440,0.35901023,-0.00016523,0.00036863,0.
 00051730,0.00039597,0.00316171,-0.00092997,0.00003772,-0.00002902,-0.0
 0027746,-0.00018987,-0.00005800,0.00012873,0.00003576,-0.00005316,-0.0
 0001713,0.00002197,0.00013939,0.00001950,-0.00003015,-0.00004123,0.000
 00175,0.00001389,0.00002238,0.00002453,0.00806681,-0.04303838,0.005331
 00,-0.02797336,-0.00785784,-0.00907738,-0.00138289,0.00039284,0.000168
 86,0.03887172,-0.00669918,-0.01017740,-0.00126777,0.00163219,0.0011115
 8,0.00007920,0.00004735,0.00002997,-0.00015058,-0.00011472,-0.00021353
 ,-0.00001613,-0.00004860,0.00010526,0.00001992,-0.00002998,-0.00002867
 ,0.00004570,0.00008751,0.00001466,-0.00005320,-0.00012954,0.00003330,-
 0.00000946,0.00000329,0.00001144,0.00000188,0.00001475,-0.00000970,-0.
 00000249,-0.00000395,-0.00000084,0.00000080,0.00000277,0.00001112,-0.0
 0001027,-0.00000996,-0.00001536,0.00000563,0.00000336,-0.00000111,0.00
 000296,0.00001524,0.00001626,-0.00000619,0.00001104,-0.00003499,0.0000
 0793,-0.00002437,0.00002315,0.00000584,0.00000569,-0.00001537,0.000078
 44,-0.00028694,0.00024348,-0.00000087,0.00000017,0.00000256,-0.0000006
 2,0.00000253,-0.00000100,0.00000178,-0.00000217,-0.00000265,0.00000531
 ,0.00001606,0.00001125,0.00000204,0.00000268,0.00000175,-0.00000030,-0
 .00000085,-0.00000249,-0.00000156,-0.00000241,-0.00000317,-0.00000077,
 0.00000219,0.00000281,-0.00018717,0.00011889,0.00013059,-0.00002704,-0
 .00004225,-0.00001593,-0.00027378,0.00014664,0.00008333,-0.00102223,-0
 .00027559,0.00044642,0.00240914,-0.00675424,-0.00211595,-0.01675461,0.
 00217195,0.00569053,-0.00058388,0.05713313,0.00017572,-0.00013116,0.00
 019115,-0.00088468,-0.00034424,-0.00027142,-0.00008776,0.00016727,0.00
 012807,0.00002882,-0.00022125,0.00002496,-0.00001936,0.00005679,-0.000
 03062,0.00005764,0.00005084,0.00010989,-0.00003097,-0.00003706,-0.0000
 9742,0.00002870,0.00000802,0.00005736,0.08689117,0.00545512,-0.0698194
 6,-0.03701528,-0.01184974,-0.00004163,-0.00052768,0.00092553,0.0009496
 1,0.00389038,-0.00041317,0.00242913,-0.00070759,0.00027492,0.00067937,
 0.00003329,0.00002469,0.00009913,-0.00008602,0.00000239,-0.00010672,0.
 00001767,-0.00002694,0.00002063,0.00001454,0.00004733,0.00004933,-0.00
 022197,-0.00001955,-0.00013771,0.00035157,0.00003467,0.00005941,0.0000
 1294,-0.00003110,0.00001534,-0.00002746,0.00002637,-0.00001758,0.00000
 168,-0.00000193,0.00000356,0.00000229,-0.00000829,0.00000944,-0.000019
 95,-0.00000599,-0.00003981,0.00000767,0.00000388,0.00000350,0.00001583
 ,0.00000338,0.00002726,-0.00001849,0.00001729,-0.00002675,0.00001900,-
 0.00001257,0.00002764,-0.00000041,0.00000352,-0.00002152,-0.00005636,0
 .00014502,-0.00012713,0.00000225,-0.00000147,0.00000182,-0.00000464,-0
 .00000222,-0.00000526,-0.00000741,0.00000237,0.00000870,-0.00002635,-0
 .00004307,-0.00004107,-0.00001347,0.00000912,0.00000332,-0.00000574,-0
 .00000371,-0.00000657,-0.00000011,-0.00000308,-0.00000517,-0.00000187,
 0.00000339,0.00000184,-0.00009390,0.00005439,0.00001876,-0.00001325,-0
 .00002045,-0.00000608,-0.00000234,0.00003898,-0.00002079,0.00003566,-0
 .00039624,0.00024583,-0.00082900,-0.00109679,0.00041525,0.03063611,-0.
 00146425,-0.00642715,-0.08152085,0.00877895,0.07166961\\0.01630731,-0.
 01706598,-0.00737868,-0.03247545,0.02664421,-0.00023940,0.00861523,-0.
 00790823,0.02197927,0.00112643,0.00904052,0.01559235,-0.00377085,-0.00
 978161,-0.02531032,0.01156330,-0.01185524,-0.00196326,-0.00846150,0.01
 947162,0.00567203,0.01267624,-0.01224661,0.01096476,-0.03287578,0.0167
 5529,0.00097494,0.00888071,0.00514818,0.00584620,0.00867961,-0.0318314
 1,0.00061575,0.05444225,-0.00086471,-0.00368363,-0.01193477,0.00350864
 ,0.00219741,-0.04447629,0.00162135,0.00048951,0.01955643,0.01162438,0.
 00735268,-0.02257865,0.00089187,-0.02295627,-0.02136853,0.03360608,0.0
 1055166,0.00317858,-0.02586546,0.00667508,0.00407478,0.03261929,-0.002
 49378,0.00414378,-0.00332865,-0.03354542,-0.00229543,0.02651474,0.0007
 0791,-0.00615107,-0.00729522,0.03006036,0.00264989,-0.02118881,-0.0042
 3144,-0.01285258,-0.02056591,-0.00119502,-0.00203337,0.03367505,-0.003
 00091,0.02303472,-0.01725276,0.00184746,-0.00712186,-0.00711565,0.0110
 7474,0.05438476,-0.03743329,0.00304790,-0.01211743,0.01650505,0.013143
 59,-0.00280407,0.00190776,0.00073169,-0.00356320,-0.00229440,-0.004876
 17,-0.01829256,-0.00125419,-0.00207364,0.01984358,0.00360864,-0.001395
 90,-0.02419800,-0.00696952,0.00121963,0.01817335,-0.00043674,0.0014425
 8,-0.01980743,-0.00070533,0.00324130,-0.00358091,-0.00745695,-0.016045
 71,0.01891951,0.00414683,-0.00294257,0.01823725,0.00441683,-0.00476728
 ,-0.02107044,0.00061797,0.00116637,0.02336134,0.00077590,-0.00200021,-
 0.02204939,-0.00639727,0.00155141,0.02795591,0.00228081,-0.00018158,0.
 00044524,0.00099958,-0.02007412,-0.02437063,0.00073337,0.00220878\\\@


 I DON'T EXACTLY UNDERSTAND WHAT YOU ARE SAYING,
 BUT YOU ARE ABSOLUTELY RIGHT.
     M.S.GORDON, IN A NDSU FACULTY MEETING
 Job cpu time:  0 days 12 hours 48 minutes 49.1 seconds.
 File lengths (MBytes):  RWF=   1326 Int=      0 D2E=      0 Chk=     19 Scr=      1
 Normal termination of Gaussian 09 at Thu Jan 21 04:48:17 2016.
Gaussian '09 finished on node008 at Thu Jan 21 04:48:17 EST 2016.
