Gaussian '09 started on node006 at Mon Feb  8 13:54:05 EST 2016.
 Entering Gaussian System, Link 0=/usr/local/gaussian/g09/g09
 Initial command:
 /usr/local/gaussian/g09/l1.exe /home/srmcgrat/thesis/gaussian/cellobiose/350/5000/1/2dfp/gaussian24855/Gau-24935.inp -scrdir=/home/srmcgrat/thesis/gaussian/cellobiose/350/5000/1/2dfp/gaussian24855/
 Entering Link 1 = /usr/local/gaussian/g09/l1.exe PID=     24937.
  
 Copyright (c) 1988,1990,1992,1993,1995,1998,2003,2009,2010,
            Gaussian, Inc.  All Rights Reserved.
  
 This is part of the Gaussian(R) 09 program.  It is based on
 the Gaussian(R) 03 system (copyright 2003, Gaussian, Inc.),
 the Gaussian(R) 98 system (copyright 1998, Gaussian, Inc.),
 the Gaussian(R) 94 system (copyright 1995, Gaussian, Inc.),
 the Gaussian 92(TM) system (copyright 1992, Gaussian, Inc.),
 the Gaussian 90(TM) system (copyright 1990, Gaussian, Inc.),
 the Gaussian 88(TM) system (copyright 1988, Gaussian, Inc.),
 the Gaussian 86(TM) system (copyright 1986, Carnegie Mellon
 University), and the Gaussian 82(TM) system (copyright 1983,
 Carnegie Mellon University). Gaussian is a federally registered
 trademark of Gaussian, Inc.
  
 This software contains proprietary and confidential information,
 including trade secrets, belonging to Gaussian, Inc.
  
 This software is provided under written license and may be
 used, copied, transmitted, or stored only in accord with that
 written license.
  
 The following legend is applicable only to US Government
 contracts under FAR:
  
                    RESTRICTED RIGHTS LEGEND
  
 Use, reproduction and disclosure by the US Government is
 subject to restrictions as set forth in subparagraphs (a)
 and (c) of the Commercial Computer Software - Restricted
 Rights clause in FAR 52.227-19.
  
 Gaussian, Inc.
 340 Quinnipiac St., Bldg. 40, Wallingford CT 06492
  
  
 ---------------------------------------------------------------
 Warning -- This program may not be used in any manner that
 competes with the business of Gaussian, Inc. or will provide
 assistance to any competitor of Gaussian, Inc.  The licensee
 of this program is prohibited from giving any competitor of
 Gaussian, Inc. access to this program.  By using this program,
 the user acknowledges that Gaussian, Inc. is engaged in the
 business of creating and licensing software in the field of
 computational chemistry and represents and warrants to the
 licensee that it is not a competitor of Gaussian, Inc. and that
 it will not use this program in any manner prohibited above.
 ---------------------------------------------------------------
  

 Cite this work as:
 Gaussian 09, Revision B.01,
 M. J. Frisch, G. W. Trucks, H. B. Schlegel, G. E. Scuseria, 
 M. A. Robb, J. R. Cheeseman, G. Scalmani, V. Barone, B. Mennucci, 
 G. A. Petersson, H. Nakatsuji, M. Caricato, X. Li, H. P. Hratchian, 
 A. F. Izmaylov, J. Bloino, G. Zheng, J. L. Sonnenberg, M. Hada, 
 M. Ehara, K. Toyota, R. Fukuda, J. Hasegawa, M. Ishida, T. Nakajima, 
 Y. Honda, O. Kitao, H. Nakai, T. Vreven, J. A. Montgomery, Jr., 
 J. E. Peralta, F. Ogliaro, M. Bearpark, J. J. Heyd, E. Brothers, 
 K. N. Kudin, V. N. Staroverov, T. Keith, R. Kobayashi, J. Normand, 
 K. Raghavachari, A. Rendell, J. C. Burant, S. S. Iyengar, J. Tomasi, 
 M. Cossi, N. Rega, J. M. Millam, M. Klene, J. E. Knox, J. B. Cross, 
 V. Bakken, C. Adamo, J. Jaramillo, R. Gomperts, R. E. Stratmann, 
 O. Yazyev, A. J. Austin, R. Cammi, C. Pomelli, J. W. Ochterski, 
 R. L. Martin, K. Morokuma, V. G. Zakrzewski, G. A. Voth, 
 P. Salvador, J. J. Dannenberg, S. Dapprich, A. D. Daniels, 
 O. Farkas, J. B. Foresman, J. V. Ortiz, J. Cioslowski, 
 and D. J. Fox, Gaussian, Inc., Wallingford CT, 2010.
 
 ******************************************
 Gaussian 09:  EM64L-G09RevB.01 12-Aug-2010
                 8-Feb-2016 
 ******************************************
 --------------------------------------------------
 # freq=raman b3lyp/6-31+g(2df,p) geom=connectivity
 --------------------------------------------------
 1/10=4,30=1,38=1,57=2/1,3;
 2/12=2,17=6,18=5,40=1/2;
 3/5=1,6=6,7=114,11=2,16=1,25=1,30=1,71=2,74=-5/1,2,3;
 4//1;
 5/5=2,38=5,98=1/2;
 8/6=4,10=90,11=11/1;
 10/13=10,15=4/2;
 11/6=3,8=1,9=11,15=111,16=1/1,2,10;
 10/6=1/2;
 6/7=2,8=2,9=2,10=2,18=1,28=1/1;
 7/8=1,10=1,25=1/1,2,3,16;
 1/10=4,30=1/3;
 99//99;
 ------------
 350 5000.com
 ------------
 Symbolic Z-matrix:
 Charge =  0 Multiplicity = 1
 O                     8.005     7.802     12.225 
 C                     8.585     8.183     13.481 
 C                     8.041     9.514     13.974 
 O                     8.299     10.613    13.088 
 H                     8.316     10.242    12.16 
 C                     8.537     9.817     15.378 
 O                     7.9       11.031    15.799 
 H                     8.164     11.146    16.757 
 C                     8.627     5.726     14.26 
 O                     8.537     4.991     13.031 
 H                     8.607     4.003     13.166 
 C                     8.16      7.15      14.513 
 O                     8.76      7.434     15.785 
 C                     8.2       8.653     16.295 
 O                     9.038     8.69      17.46 
 C                     8.324     8.508     18.691 
 C                     8.585     7.141     19.303 
 O                     8.146     6.053     18.477 
 H                     8.072     6.394     17.54 
 C                     8.2       6.714     20.711 
 O                     8.888     5.546     21.182 
 H                     8.548     5.212     22.061 
 C                     7.925     10.843    19.328 
 O                     8.618     11.638    18.355 
 H                     8.437     12.618    18.439 
 C                     8.639     9.564     19.737 
 O                     8.032     9.249     20.999 
 C                     8.484     7.982     21.499 
 O                     7.648     7.837     22.656 
 H                     8.19712   7.73908   23.43733 
 H                     9.5141    8.03083   21.78433 
 H                     7.14747   6.52309   20.73596 
 H                     9.65262   7.06976   19.2988 
 H                     7.27886   8.5713    18.47062 
 H                     9.69301   9.71943   19.83605 
 H                     7.77413   11.43897   20.20376 
 H                     6.96769   10.58091   18.9283 
 H                     8.70353   7.61084   11.59483 
 H                     9.66653   5.72247   14.5135 
 H                     7.0946    7.16286   14.61128 
 H                     9.65175   8.21901   13.40583 
 H                     6.97788   9.4097    14.03571 
 H                     9.59729   9.95943   15.3582 
 H                     7.15887   8.57271   16.52848 
 H                     8.11071   5.12893   14.9824 
 

 GradGradGradGradGradGradGradGradGradGradGradGradGradGradGradGradGradGrad
 Berny optimization.
 Initialization pass.
 Trust Radius=3.00D-01 FncErr=1.00D-07 GrdErr=1.00D-07
 Number of steps in this run=      2 maximum allowed number of steps=      2.
 GradGradGradGradGradGradGradGradGradGradGradGradGradGradGradGradGradGrad

                          Input orientation:                          
 ---------------------------------------------------------------------
 Center     Atomic      Atomic             Coordinates (Angstroms)
 Number     Number       Type             X           Y           Z
 ---------------------------------------------------------------------
      1          8           0        8.005000    7.802000   12.225000
      2          6           0        8.585000    8.183000   13.481000
      3          6           0        8.041000    9.514000   13.974000
      4          8           0        8.299000   10.613000   13.088000
      5          1           0        8.316000   10.242000   12.160000
      6          6           0        8.537000    9.817000   15.378000
      7          8           0        7.900000   11.031000   15.799000
      8          1           0        8.164000   11.146000   16.757000
      9          6           0        8.627000    5.726000   14.260000
     10          8           0        8.537000    4.991000   13.031000
     11          1           0        8.607000    4.003000   13.166000
     12          6           0        8.160000    7.150000   14.513000
     13          8           0        8.760000    7.434000   15.785000
     14          6           0        8.200000    8.653000   16.295000
     15          8           0        9.038000    8.690000   17.460000
     16          6           0        8.324000    8.508000   18.691000
     17          6           0        8.585000    7.141000   19.303000
     18          8           0        8.146000    6.053000   18.477000
     19          1           0        8.072000    6.394000   17.540000
     20          6           0        8.200000    6.714000   20.711000
     21          8           0        8.888000    5.546000   21.182000
     22          1           0        8.548000    5.212000   22.061000
     23          6           0        7.925000   10.843000   19.328000
     24          8           0        8.618000   11.638000   18.355000
     25          1           0        8.437000   12.618000   18.439000
     26          6           0        8.639000    9.564000   19.737000
     27          8           0        8.032000    9.249000   20.999000
     28          6           0        8.484000    7.982000   21.499000
     29          8           0        7.648000    7.837000   22.656000
     30          1           0        8.197125    7.739081   23.437328
     31          1           0        9.514099    8.030831   21.784328
     32          1           0        7.147465    6.523087   20.735964
     33          1           0        9.652618    7.069764   19.298802
     34          1           0        7.278856    8.571298   18.470619
     35          1           0        9.693007    9.719431   19.836052
     36          1           0        7.774133   11.438970   20.203762
     37          1           0        6.967689   10.580905   18.928297
     38          1           0        8.703526    7.610840   11.594826
     39          1           0        9.666532    5.722469   14.513499
     40          1           0        7.094601    7.162863   14.611281
     41          1           0        9.651748    8.219015   13.405828
     42          1           0        6.977885    9.409702   14.035711
     43          1           0        9.597293    9.959432   15.358204
     44          1           0        7.158874    8.572708   16.528475
     45          1           0        8.110713    5.128931   14.982396
 ---------------------------------------------------------------------
                    Distance matrix (angstroms):
                    1          2          3          4          5
     1  O    0.000000
     2  C    1.434955   0.000000
     3  C    2.447701   1.520048   0.000000
     4  O    2.955152   2.478133   1.435047   0.000000
     5  H    2.460599   2.461074   1.973881   0.999557   0.000000
     6  C    3.779505   2.504170   1.519553   2.436054   3.253458
     7  O    4.817774   3.735432   2.377350   2.771903   3.746718
     8  H    5.634416   4.437205   3.228567   3.709970   4.687508
     9  C    2.972858   2.577878   3.843714   5.036262   4.990088
    10  O    2.972269   3.223921   4.646805   5.627324   5.327334
    11  H    3.959834   4.191910   5.598602   6.617632   6.326282
    12  C    2.384129   1.520769   2.427587   3.747308   3.888626
    13  O    3.657738   2.429000   2.850102   4.194326   4.606802
    14  C    4.162586   2.878840   2.480654   3.759820   4.431321
    15  O    5.409331   4.036669   3.718223   4.833056   5.569559
    16  C    6.512246   5.226648   4.831378   5.985421   6.757276
    17  C    7.132419   5.914512   5.858780   7.124802   7.791727
    18  O    6.493565   5.448820   5.680366   7.061043   7.581630
    19  H    5.498743   4.465330   4.738324   6.137735   6.618991
    20  C    8.557685   7.387766   7.297428   8.562834   9.250937
    21  O    9.278851   8.145611   8.271499   9.567353  10.187055
    22  H   10.185767   9.079901   9.174084  10.476046  11.107859
    23  C    7.727010   6.457446   5.517700   6.255428   7.203770
    24  O    7.257242   5.974445   4.902802   5.375284   6.357519
    25  H    7.873644   6.653788   5.452326   5.715966   6.714600
    26  C    7.741882   6.406841   5.794159   6.739822   7.614128
    27  O    8.892559   7.613310   7.030002   8.032167   8.899136
    28  C    9.288106   8.021155   7.692132   8.814834   9.610034
    29  O   10.437166   9.229210   8.851209   9.983817  10.788710
    30  H   11.214151   9.973765   9.629605  10.741433  11.552353
    31  H    9.680418   8.356532   8.085235   9.152605   9.947482
    32  H    8.649133   7.579995   7.447693   8.748987   9.420348
    33  H    7.299965   6.018797   6.076604   7.277421   7.925410
    34  H    6.334577   5.172338   4.657159   5.846523   6.609903
    35  H    8.028326   6.631363   6.093847   6.948231   7.816073
    36  H    8.771630   7.513612   6.525845   7.182742   8.150366
    37  H    7.330247   6.167551   5.180284   5.990199   6.909605
    38  H    0.960000   1.974606   3.117920   3.377303   2.718933
    39  H    3.510323   2.879232   4.160423   5.274418   5.271532
    40  H    2.632805   2.130611   2.613358   3.959092   4.120883
    41  H    2.068825   1.070000   2.143436   2.768051   2.725579
    42  H    2.630275   2.096502   1.070000   2.022728   2.449809
    43  H    4.123939   2.775670   2.129901   2.695652   3.456887
    44  H    4.453068   3.387154   2.861734   4.159273   4.817577
    45  H    3.841836   3.436055   4.500061   5.805101   5.843932
                    6          7          8          9         10
     6  C    0.000000
     7  O    1.434157   0.000000
     8  H    1.951156   1.000342   0.000000
     9  C    4.241969   5.571362   5.985464   0.000000
    10  O    5.366441   6.674518   7.204598   1.434840   0.000000
    11  H    6.220968   7.538257   8.007121   2.041070   0.999634
    12  C    2.829000   4.096774   4.582965   1.519827   2.645701
    13  O    2.427770   3.698406   3.883162   2.293595   3.688156
    14  C    1.519656   2.447632   2.535703   3.590388   4.917063
    15  O    2.419887   3.087757   2.700004   4.381121   5.792205
    16  C    3.568588   3.861213   3.274905   5.240715   6.667103
    17  C    4.750674   5.280089   4.764387   5.237923   6.630444
    18  O    4.891255   5.657975   5.375628   4.256921   5.562341
    19  H    4.075218   4.956050   4.816955   3.393029   4.745073
    20  C    6.179245   6.546314   5.939532   6.540174   7.878115
    21  O    7.214642   7.748423   7.173897   6.929257   8.177410
    22  H    8.115949   8.572824   7.968201   7.818314   9.032711
    23  C    4.126708   3.534093   2.599802   7.236098   8.618159
    24  O    3.490721   2.723437   1.732566   7.191721   8.516698
    25  H    4.150340   3.126746   2.251763   8.062246   9.350272
    26  C    4.367527   4.266855   3.407161   6.687893   8.117461
    27  O    5.672150   5.498450   4.648720   7.627560   9.048459
    28  C    6.390358   6.490567   5.709629   7.583740   8.980864
    29  O    7.594735   7.568592   6.783357   8.712496  10.076242
    30  H    8.329828   8.322805   7.498999   9.405352  10.768432
    31  H    6.722065   6.886979   6.066388   7.919261   9.317512
    32  H    6.441153   6.727645   6.183593   6.690477   7.977755
    33  H    4.915750   5.568812   5.029159   5.314802   6.697104
    34  H    3.563564   3.684223   3.216995   5.257616   6.632565
    35  H    4.606527   4.607914   3.722032   6.940908   8.366788
    36  H    5.147886   4.425405   3.481091   8.288167   9.675061
    37  H    3.956121   3.296102   2.542641   6.936599   8.275741
    38  H    4.382611   5.478889   6.279848   3.265216   2.992305
    39  H    4.334557   5.740527   6.058514   1.070000   2.002172
    40  H    3.116539   4.125751   4.648989   2.129841   3.048737
    41  H    2.772307   4.086950   4.691587   2.827515   3.435584
    42  H    2.097253   2.566728   3.439042   4.042220   4.792203
    43  H    1.070000   2.055082   2.327854   4.479896   5.587971
    44  H    2.184282   2.669195   2.772063   3.924935   5.192321
    45  H    4.724004   5.962018   6.273530   1.070000   2.002172
                   11         12         13         14         15
    11  H    0.000000
    12  C    3.452221   0.000000
    13  O    4.319066   1.434796   0.000000
    14  C    5.619501   2.331552   1.435152   0.000000
    15  O    6.371198   3.439083   2.111977   1.435562   0.000000
    16  C    7.134475   4.396219   3.128643   2.403584   1.434671
    17  C    6.892771   4.808826   3.534515   3.388574   2.449747
    18  O    5.711545   4.113016   3.087235   3.394708   2.963734
    19  H    5.013480   3.121219   2.152898   2.582536   2.492222
    20  C    8.027590   6.213445   5.009738   4.822943   3.895616
    21  O    8.167990   6.897707   5.719138   5.831772   4.874476
    22  H    8.976981   7.802480   6.661111   6.723715   5.788418
    23  C    9.231520   6.072701   4.987119   3.751108   3.060000
    24  O    9.231417   5.925612   4.929369   3.650829   3.109362
    25  H   10.102062   6.737153   5.832830   4.513771   4.092533
    26  C    8.608356   5.774687   4.491085   3.587479   2.471398
    27  O    9.444947   6.818386   5.568663   4.744582   3.721430
    28  C    9.235067   7.042826   5.746849   5.254761   4.137838
    29  O   10.280046   8.187952   6.972058   6.436838   5.445927
    30  H   10.937389   8.943826   7.679065   7.200563   6.110628
    31  H    9.556245   7.448601   6.075920   5.678615   4.400112
    32  H    8.110822   6.335892   5.286027   5.036519   4.359080
    33  H    6.936110   5.013805   3.643657   3.693177   2.526680
    34  H    7.125468   4.296423   3.271052   2.364001   2.032247
    35  H    8.851360   6.106305   4.743913   3.988156   2.671026
    36  H   10.272167   7.136451   6.044599   4.818860   4.084413
    37  H    8.897204   5.717304   4.795384   3.488504   3.165060
    38  H    3.936295   3.003920   4.194285   4.840586   5.973000
    39  H    2.427949   2.075447   2.316863   3.729943   4.228849
    40  H    3.789581   1.070000   2.055404   2.505459   3.771491
    41  H    4.350149   2.143347   2.659309   3.262397   4.127327
    42  H    5.713391   2.594504   3.184233   2.677788   4.060517
    43  H    6.423824   3.266969   2.694628   2.129972   2.518296
    44  H    5.855385   2.662422   2.100717   1.070000   2.100621
    45  H    2.193927   2.075447   2.525686   3.761644   4.436169
                   16         17         18         19         20
    16  C    0.000000
    17  C    1.520314   0.000000
    18  O    2.470730   1.434831   0.000000
    19  H    2.420186   1.982258   0.999863   0.000000
    20  C    2.704480   1.520861   2.330363   3.189675   0.000000
    21  O    3.911089   2.483239   2.850375   3.827417   1.435064
    22  H    4.719183   3.365854   3.703234   4.697142   2.049295
    23  C    2.452997   3.760456   4.870025   4.797098   4.363136
    24  O    3.161682   4.595955   5.606237   5.334967   5.474599
    25  H    4.119269   5.546704   6.571556   6.299175   6.330511
    26  C    1.519367   2.462154   3.762681   3.898358   3.043665
    27  O    2.441559   2.761501   4.072824   4.485232   2.556833
    28  C    2.861318   2.353699   3.601079   4.285460   1.519679
    29  O    4.077799   3.550351   4.571072   5.332493   2.312760
    30  H    4.809882   4.195333   5.239307   6.050073   2.912673
    31  H    3.348537   2.794997   4.089245   4.772125   2.147774
    32  H    3.083179   2.121723   2.514155   3.329507   1.070000
    33  H    2.050163   1.070000   1.994759   2.459348   2.056932
    34  H    1.070000   2.108227   2.663420   2.497150   3.052437
    35  H    2.157055   2.856594   4.205112   4.354079   3.468028
    36  H    3.343858   4.465582   5.668216   5.712799   4.771163
    37  H    2.488538   3.819561   4.700426   4.547202   4.432784
    38  H    7.162725   7.723390   7.078278   6.101198   9.174012
    39  H    5.197412   5.110896   4.258005   3.486143   6.445376
    40  H    4.468212   4.922803   4.157044   3.181800   6.215300
    41  H    5.457057   6.089065   5.716265   4.787240   7.598565
    42  H    4.929179   5.956019   5.688320   4.750956   7.302044
    43  H    3.851683   4.952748   5.205127   4.449613   6.413866
    44  H    2.457279   3.432435   3.334680   2.569776   4.693852
    45  H    5.021687   4.789675   3.614887   2.853636   5.944520
                   21         22         23         24         25
    21  O    0.000000
    22  H    0.999898   0.000000
    23  C    5.694110   6.290118   0.000000
    24  O    6.721406   7.418410   1.434923   0.000000
    25  H    7.598726   8.245001   2.050144   1.000108   0.000000
    26  C    4.277189   4.934487   1.520828   2.492357   3.324534
    27  O    3.805054   4.206123   2.311823   3.611295   4.250622
    28  C    2.489538   2.827161   3.634700   4.823798   5.555025
    29  O    2.993152   2.838072   4.493145   5.821263   6.423673
    30  H    3.220779   2.898884   5.157029   6.419406   6.988897
    31  H    2.632334   2.992608   4.057964   5.057168   5.778709
    32  H    2.045265   2.331559   4.609617   5.830420   6.639797
    33  H    2.540263   3.507308   4.150039   4.778072   5.744554
    34  H    4.369595   5.078036   2.512615   3.348333   4.209287
    35  H    4.458378   5.155421   2.155544   2.651426   3.454129
    36  H    6.076574   6.543956   1.070000   2.041971   2.223485
    37  H    5.840979   6.413763   1.070000   2.041971   2.558914
    38  H    9.808747  10.738688   8.417538   7.869262   8.484421
    39  H    6.716112   7.646990   7.241007   7.130922   8.029300
    40  H    7.000348   7.836871   6.039901   6.030176   6.797940
    41  H    8.258158   9.228890   6.703662   6.103475   6.794079
    42  H    8.345428   9.191911   5.564143   5.129478   5.640137
    43  H    7.341531   8.280495   4.397333   3.571749   4.231497
    44  H    5.814304   6.620639   3.684904   3.855030   4.652752
    45  H    6.262045   7.092585   7.181180   7.348454   8.254740
                   26         27         28         29         30
    26  C    0.000000
    27  O    1.435381   0.000000
    28  C    2.373056   1.435128   0.000000
    29  O    3.533436   2.210622   1.434772   0.000000
    30  H    4.149459   2.872728   1.974443   0.960000   0.000000
    31  H    2.703323   2.072991   1.070000   2.068746   2.133530
    32  H    3.531254   2.877880   2.120607   2.379798   3.142896
    33  H    2.727755   3.204082   2.653057   3.984711   4.437775
    34  H    2.106934   2.723824   3.312210   4.265311   5.118985
    35  H    1.070000   2.081513   2.691795   3.959508   4.373630
    36  H    2.116926   2.344114   3.759282   4.359309   4.931943
    37  H    2.116926   2.682264   3.957527   4.678419   5.469812
    38  H    8.373410   9.569379   9.913557  11.113724  11.854019
    39  H    6.564918   7.561074   7.436470   8.651360   9.266100
    40  H    5.867164   6.784809   7.074043   8.091861   8.913287
    41  H    6.551213   7.832032   8.180419   9.472414  10.147772
    42  H    5.940354   7.044457   7.746444   8.788164   9.626418
    43  H    4.499839   5.896901   6.546681   7.846164   8.494862
    44  H    3.669886   4.604923   5.177935   6.190886   7.035990
    45  H    6.523434   7.292509   7.123586   8.150579   8.849081
                   31         32         33         34         35
    31  H    0.000000
    32  H    2.995549   0.000000
    33  H    2.668459   2.939401   0.000000
    34  H    4.033495   3.056832   2.928350   0.000000
    35  H    2.584406   4.184046   2.703886   3.001789   0.000000
    36  H    4.140180   4.984161   4.841242   3.387127   2.602711
    37  H    4.598260   4.445882   4.435564   2.084422   2.998918
    38  H   10.230316   9.336217   7.781053   7.087221   8.564054
    39  H    7.629988   6.760603   4.971370   5.429145   6.656273
    40  H    7.619707   6.158234   5.340877   4.112436   6.370712
    41  H    8.381743   7.929597   6.003992   5.604180   6.603085
    42  H    8.268901   7.297581   6.350561   4.523484   6.411846
    43  H    6.709805   6.835966   4.886876   4.121795   4.485296
    44  H    5.784868   4.680175   4.018993   1.945847   4.321674
    45  H    7.527071   5.997922   4.977516   4.970873   6.865444
                   36         37         38         39         40
    36  H    0.000000
    37  H    1.735925   0.000000
    38  H    9.467425   8.100260   0.000000
    39  H    8.284845   7.097788   3.607212   0.000000
    40  H    7.072672   5.507789   3.447945   2.949428   0.000000
    41  H    7.752771   6.578781   2.132775   2.731281   3.017876
    42  H    6.541925   5.030826   3.488791   4.588332   2.322324
    43  H    5.384457   4.477344   4.525231   4.320900   3.826507
    44  H    4.701248   3.135052   5.258520   4.297945   2.380635
    45  H    8.197106   6.826468   4.241101   1.729949   2.303712
                   41         42         43         44         45
    41  H    0.000000
    42  H    2.994000   0.000000
    43  H    2.616064   2.985379   0.000000
    44  H    4.011290   2.635752   3.039478   0.000000
    45  H    3.795916   4.528191   5.068027   3.893065   0.000000
 Stoichiometry    C12H22O11
 Framework group  C1[X(C12H22O11)]
 Deg. of freedom   129
 Full point group                 C1      NOp   1
 Largest Abelian subgroup         C1      NOp   1
 Largest concise Abelian subgroup C1      NOp   1
                         Standard orientation:                         
 ---------------------------------------------------------------------
 Center     Atomic      Atomic             Coordinates (Angstroms)
 Number     Number       Type             X           Y           Z
 ---------------------------------------------------------------------
      1          8           0        4.987677   -0.461005   -0.412631
      2          6           0        3.736819   -0.109091    0.196144
      3          6           0        3.240149    1.247477   -0.276707
      4          8           0        4.128988    2.332051    0.028294
      5          1           0        5.056857    1.960451    0.019005
      6          6           0        1.840543    1.525708    0.245530
      7          8           0        1.415018    2.770040   -0.326636
      8          1           0        0.459334    2.871962   -0.049210
      9          6           0        2.956605   -2.564952    0.122197
     10          8           0        4.184333   -3.294837   -0.014617
     11          1           0        4.049283   -4.285067    0.007197
     12          6           0        2.700631   -1.119391   -0.271131
     13          8           0        1.433878   -0.865350    0.352919
     14          6           0        0.920003    0.380159   -0.141350
     15          8           0       -0.237924    0.375623    0.707192
     16          6           0       -1.474970    0.229713   -0.004642
     17          6           0       -2.085652   -1.148454    0.193043
     18          8           0       -1.264057   -2.213417   -0.306535
     19          1           0       -0.327488   -1.869369   -0.371306
     20          6           0       -3.497099   -1.555414   -0.200936
     21          8           0       -3.963085   -2.756138    0.431937
     22          1           0       -4.845114   -3.072577    0.083100
     23          6           0       -2.113771    2.581841   -0.281444
     24          8           0       -1.134494    3.341096    0.442124
     25          1           0       -1.219370    4.328918    0.310890
     26          6           0       -2.517614    1.268945    0.371344
     27          8           0       -3.784850    0.984875   -0.239994
     28          6           0       -4.281874   -0.302959    0.152490
     29          8           0       -5.445919   -0.405854   -0.679965
     30          1           0       -6.222691   -0.530834   -0.129869
     31          1           0       -4.558545   -0.305454    1.186099
     32          1           0       -3.530989   -1.693635   -1.261429
     33          1           0       -2.072571   -1.272802    1.255712
     34          1           0       -1.263296    0.344962   -1.047145
     35          1           0       -2.607746    1.371684    1.432580
     36          1           0       -2.990377    3.184791   -0.395080
     37          1           0       -1.722258    2.367683   -1.253943
     38          1           0        5.623547   -0.686881    0.270193
     39          1           0        2.711807   -2.620221    1.162350
     40          1           0        2.593452   -1.053432   -1.333705
     41          1           0        3.820934   -0.126295    1.262694
     42          1           0        3.169482    1.196299   -1.343144
     43          1           0        1.869299    1.615124    1.311399
     44          1           0        0.677777    0.351900   -1.183188
     45          1           0        2.229530   -3.135385   -0.417124
 ---------------------------------------------------------------------
 Rotational constants (GHZ):      0.4039077      0.1472854      0.1106391
 Standard basis: 6-31+G(2df,p) (6D, 7F)
 There are   846 symmetry adapted basis functions of A   symmetry.
 Integral buffers will be    131072 words long.
 Raffenetti 2 integral format.
 Two-electron integral symmetry is turned on.
   846 basis functions,  1258 primitive gaussians,   915 cartesian basis functions
    91 alpha electrons       91 beta electrons
       nuclear repulsion energy      2289.4405874696 Hartrees.
 NAtoms=   45 NActive=   45 NUniq=   45 SFac= 1.00D+00 NAtFMM=   50 NAOKFM=F Big=F
 One-electron integrals computed using PRISM.
 NBasis=   846 RedAO= T  NBF=   846
 NBsUse=   846 1.00D-06 NBFU=   846
 Harris functional with IExCor=  402 diagonalized for initial guess.
 ExpMin= 4.38D-02 ExpMax= 5.48D+03 ExpMxC= 8.25D+02 IAcc=2 IRadAn=         0 AccDes= 0.00D+00
 HarFok:  IExCor=  402 AccDes= 0.00D+00 IRadAn=         0 IDoV= 1
 ScaDFX=  1.000000  1.000000  1.000000  1.000000
 FoFCou: FMM=F IPFlag=           0 FMFlag=      100000 FMFlg1=           0
         NFxFlg=           0 DoJE=T BraDBF=F KetDBF=T FulRan=T
         Omega=  0.000000  0.000000  1.000000  0.000000  0.000000 ICntrl=     500 IOpCl=  0
         NMat0=    1 NMatS0=    1 NMatT0=    0 NMatD0=    1 NMtDS0=    0 NMtDT0=    0
         I1Cent=           4 NGrid=           0.
 Petite list used in FoFCou.
 Initial guess orbital symmetries:
       Occupied  (A) (A) (A) (A) (A) (A) (A) (A) (A) (A) (A) (A)
                 (A) (A) (A) (A) (A) (A) (A) (A) (A) (A) (A) (A)
                 (A) (A) (A) (A) (A) (A) (A) (A) (A) (A) (A) (A)
                 (A) (A) (A) (A) (A) (A) (A) (A) (A) (A) (A) (A)
                 (A) (A) (A) (A) (A) (A) (A) (A) (A) (A) (A) (A)
                 (A) (A) (A) (A) (A) (A) (A) (A) (A) (A) (A) (A)
                 (A) (A) (A) (A) (A) (A) (A) (A) (A) (A) (A) (A)
                 (A) (A) (A) (A) (A) (A) (A)
       Virtual   (A) (A) (A) (A) (A) (A) (A) (A) (A) (A) (A) (A)
                 (A) (A) (A) (A) (A) (A) (A) (A) (A) (A) (A) (A)
                 (A) (A) (A) (A) (A) (A) (A) (A) (A) (A) (A) (A)
                 (A) (A) (A) (A) (A) (A) (A) (A) (A) (A) (A) (A)
                 (A) (A) (A) (A) (A) (A) (A) (A) (A) (A) (A) (A)
                 (A) (A) (A) (A) (A) (A) (A) (A) (A) (A) (A) (A)
                 (A) (A) (A) (A) (A) (A) (A) (A) (A) (A) (A) (A)
                 (A) (A) (A) (A) (A) (A) (A) (A) (A) (A) (A) (A)
                 (A) (A) (A) (A) (A) (A) (A) (A) (A) (A) (A) (A)
                 (A) (A) (A) (A) (A) (A) (A) (A) (A) (A) (A) (A)
                 (A) (A) (A) (A) (A) (A) (A) (A) (A) (A) (A) (A)
                 (A) (A) (A) (A) (A) (A) (A) (A) (A) (A) (A) (A)
                 (A) (A) (A) (A) (A) (A) (A) (A) (A) (A) (A) (A)
                 (A) (A) (A) (A) (A) (A) (A) (A) (A) (A) (A) (A)
                 (A) (A) (A) (A) (A) (A) (A) (A) (A) (A) (A) (A)
                 (A) (A) (A) (A) (A) (A) (A) (A) (A) (A) (A) (A)
                 (A) (A) (A) (A) (A) (A) (A) (A) (A) (A) (A) (A)
                 (A) (A) (A) (A) (A) (A) (A) (A) (A) (A) (A) (A)
                 (A) (A) (A) (A) (A) (A) (A) (A) (A) (A) (A) (A)
                 (A) (A) (A) (A) (A) (A) (A) (A) (A) (A) (A) (A)
                 (A) (A) (A) (A) (A) (A) (A) (A) (A) (A) (A) (A)
                 (A) (A) (A) (A) (A) (A) (A) (A) (A) (A) (A) (A)
                 (A) (A) (A) (A) (A) (A) (A) (A) (A) (A) (A) (A)
                 (A) (A) (A) (A) (A) (A) (A) (A) (A) (A) (A) (A)
                 (A) (A) (A) (A) (A) (A) (A) (A) (A) (A) (A) (A)
                 (A) (A) (A) (A) (A) (A) (A) (A) (A) (A) (A) (A)
                 (A) (A) (A) (A) (A) (A) (A) (A) (A) (A) (A) (A)
                 (A) (A) (A) (A) (A) (A) (A) (A) (A) (A) (A) (A)
                 (A) (A) (A) (A) (A) (A) (A) (A) (A) (A) (A) (A)
                 (A) (A) (A) (A) (A) (A) (A) (A) (A) (A) (A) (A)
                 (A) (A) (A) (A) (A) (A) (A) (A) (A) (A) (A) (A)
                 (A) (A) (A) (A) (A) (A) (A) (A) (A) (A) (A) (A)
                 (A) (A) (A) (A) (A) (A) (A) (A) (A) (A) (A) (A)
                 (A) (A) (A) (A) (A) (A) (A) (A) (A) (A) (A) (A)
                 (A) (A) (A) (A) (A) (A) (A) (A) (A) (A) (A) (A)
                 (A) (A) (A) (A) (A) (A) (A) (A) (A) (A) (A) (A)
                 (A) (A) (A) (A) (A) (A) (A) (A) (A) (A) (A) (A)
                 (A) (A) (A) (A) (A) (A) (A) (A) (A) (A) (A) (A)
                 (A) (A) (A) (A) (A) (A) (A) (A) (A) (A) (A) (A)
                 (A) (A) (A) (A) (A) (A) (A) (A) (A) (A) (A) (A)
                 (A) (A) (A) (A) (A) (A) (A) (A) (A) (A) (A) (A)
                 (A) (A) (A) (A) (A) (A) (A) (A) (A) (A) (A) (A)
                 (A) (A) (A) (A) (A) (A) (A) (A) (A) (A) (A) (A)
                 (A) (A) (A) (A) (A) (A) (A) (A) (A) (A) (A) (A)
                 (A) (A) (A) (A) (A) (A) (A) (A) (A) (A) (A) (A)
                 (A) (A) (A) (A) (A) (A) (A) (A) (A) (A) (A) (A)
                 (A) (A) (A) (A) (A) (A) (A) (A) (A) (A) (A) (A)
                 (A) (A) (A) (A) (A) (A) (A) (A) (A) (A) (A) (A)
                 (A) (A) (A) (A) (A) (A) (A) (A) (A) (A) (A) (A)
                 (A) (A) (A) (A) (A) (A) (A) (A) (A) (A) (A) (A)
                 (A) (A) (A) (A) (A) (A) (A) (A) (A) (A) (A) (A)
                 (A) (A) (A) (A) (A) (A) (A) (A) (A) (A) (A) (A)
                 (A) (A) (A) (A) (A) (A) (A) (A) (A) (A) (A) (A)
                 (A) (A) (A) (A) (A) (A) (A) (A) (A) (A) (A) (A)
                 (A) (A) (A) (A) (A) (A) (A) (A) (A) (A) (A) (A)
                 (A) (A) (A) (A) (A) (A) (A) (A) (A) (A) (A) (A)
                 (A) (A) (A) (A) (A) (A) (A) (A) (A) (A) (A) (A)
                 (A) (A) (A) (A) (A) (A) (A) (A) (A) (A) (A) (A)
                 (A) (A) (A) (A) (A) (A) (A) (A) (A) (A) (A) (A)
                 (A) (A) (A) (A) (A) (A) (A) (A) (A) (A) (A) (A)
                 (A) (A) (A) (A) (A) (A) (A) (A) (A) (A) (A) (A)
                 (A) (A) (A) (A) (A) (A) (A) (A) (A) (A) (A) (A)
                 (A) (A) (A) (A) (A) (A) (A) (A) (A) (A) (A)
 The electronic state of the initial guess is 1-A.
 Requested convergence on RMS density matrix=1.00D-08 within 128 cycles.
 Requested convergence on MAX density matrix=1.00D-06.
 Requested convergence on             energy=1.00D-06.
 No special actions if energy rises.
 SCF Done:  E(RB3LYP) =  -1297.99173966     A.U. after   13 cycles
             Convg  =    0.4569D-08             -V/T =  2.0064
 Range of M.O.s used for correlation:     1   846
 NBasis=   846 NAE=    91 NBE=    91 NFC=     0 NFV=     0
 NROrb=    846 NOA=    91 NOB=    91 NVA=   755 NVB=   755

 **** Warning!!: The largest alpha MO coefficient is  0.86138214D+02

          Differentiating once with respect to electric field.
                with respect to dipole field.
          Electric field/nuclear overlap derivatives assumed to be zero.
          There are     3 degrees of freedom in the 1st order CPHF.  IDoFFX=0.
      3 vectors produced by pass  0 Test12= 2.29D-12 3.33D-08 XBig12= 1.22D+02 1.06D+00.
 AX will form     3 AO Fock derivatives at one time.
      3 vectors produced by pass  1 Test12= 2.29D-12 3.33D-08 XBig12= 2.67D+01 4.22D-01.
      3 vectors produced by pass  2 Test12= 2.29D-12 3.33D-08 XBig12= 1.11D+01 2.18D-01.
      3 vectors produced by pass  3 Test12= 2.29D-12 3.33D-08 XBig12= 1.27D+00 9.05D-02.
      3 vectors produced by pass  4 Test12= 2.29D-12 3.33D-08 XBig12= 4.15D-01 4.80D-02.
      3 vectors produced by pass  5 Test12= 2.29D-12 3.33D-08 XBig12= 7.50D-02 2.69D-02.
      3 vectors produced by pass  6 Test12= 2.29D-12 3.33D-08 XBig12= 2.62D-02 1.85D-02.
      3 vectors produced by pass  7 Test12= 2.29D-12 3.33D-08 XBig12= 3.52D-03 1.01D-02.
      3 vectors produced by pass  8 Test12= 2.29D-12 3.33D-08 XBig12= 5.48D-04 2.94D-03.
      3 vectors produced by pass  9 Test12= 2.29D-12 3.33D-08 XBig12= 1.69D-04 1.53D-03.
      3 vectors produced by pass 10 Test12= 2.29D-12 3.33D-08 XBig12= 4.24D-05 5.32D-04.
      3 vectors produced by pass 11 Test12= 2.29D-12 3.33D-08 XBig12= 1.01D-05 4.07D-04.
      3 vectors produced by pass 12 Test12= 2.29D-12 3.33D-08 XBig12= 1.16D-06 1.09D-04.
      3 vectors produced by pass 13 Test12= 2.29D-12 3.33D-08 XBig12= 3.00D-07 5.16D-05.
      3 vectors produced by pass 14 Test12= 2.29D-12 3.33D-08 XBig12= 6.66D-08 2.40D-05.
      3 vectors produced by pass 15 Test12= 2.29D-12 3.33D-08 XBig12= 1.82D-08 1.31D-05.
      3 vectors produced by pass 16 Test12= 2.29D-12 3.33D-08 XBig12= 3.01D-09 6.48D-06.
      3 vectors produced by pass 17 Test12= 2.29D-12 3.33D-08 XBig12= 1.77D-10 1.29D-06.
      3 vectors produced by pass 18 Test12= 2.29D-12 3.33D-08 XBig12= 3.23D-11 3.24D-07.
      3 vectors produced by pass 19 Test12= 2.29D-12 3.33D-08 XBig12= 2.04D-11 4.04D-07.
      3 vectors produced by pass 20 Test12= 2.29D-12 3.33D-08 XBig12= 1.34D-11 2.78D-07.
      2 vectors produced by pass 21 Test12= 2.29D-12 3.33D-08 XBig12= 4.28D-12 1.59D-07.
      2 vectors produced by pass 22 Test12= 2.29D-12 3.33D-08 XBig12= 6.87D-13 7.05D-08.
 Inverted reduced A of dimension    67 with in-core refinement.
 End of Minotr Frequency-dependent properties file   721 does not exist.
 End of Minotr Frequency-dependent properties file   722 does not exist.
 Symmetrizing basis deriv contribution to polar:
 IMax=3 JMax=2 DiffMx= 0.00D+00
 G2DrvN: will do     8 centers at a time, making    6 passes doing MaxLOS=3.
 Calling FoFCou, ICntrl=  3107 FMM=F I1Cent=   0 AccDes= 0.00D+00.
 Calling FoFCou, ICntrl=  3107 FMM=F I1Cent=   0 AccDes= 0.00D+00.
 Calling FoFCou, ICntrl=  3107 FMM=F I1Cent=   0 AccDes= 0.00D+00.
 Calling FoFCou, ICntrl=  3107 FMM=F I1Cent=   0 AccDes= 0.00D+00.
 Calling FoFCou, ICntrl=  3107 FMM=F I1Cent=   0 AccDes= 0.00D+00.
 Calling FoFCou, ICntrl=  3107 FMM=F I1Cent=   0 AccDes= 0.00D+00.
 FoFDir/FoFCou used for L=0 through L=3.
 End of G2Drv Frequency-dependent properties file   721 does not exist.
 End of G2Drv Frequency-dependent properties file   722 does not exist.
          IDoAtm=111111111111111111111111111111111111111111111
          Differentiating once with respect to electric field.
                with respect to dipole field.
          Differentiating once with respect to nuclear coordinates.
          There are   138 degrees of freedom in the 1st order CPHF.  IDoFFX=5.
 Will reuse    3 saved solutions.
    135 vectors produced by pass  0 Test12= 6.87D-14 1.00D-09 XBig12= 1.76D-01 9.74D-02.
 AX will form    27 AO Fock derivatives at one time.
    135 vectors produced by pass  1 Test12= 6.87D-14 1.00D-09 XBig12= 2.16D-02 1.42D-02.
    132 vectors produced by pass  2 Test12= 6.87D-14 1.00D-09 XBig12= 1.82D-04 1.39D-03.
    132 vectors produced by pass  3 Test12= 6.87D-14 1.00D-09 XBig12= 9.84D-07 6.47D-05.
    132 vectors produced by pass  4 Test12= 6.87D-14 1.00D-09 XBig12= 2.41D-09 3.34D-06.
    132 vectors produced by pass  5 Test12= 6.87D-14 1.00D-09 XBig12= 7.18D-12 1.40D-07.
    102 vectors produced by pass  6 Test12= 6.87D-14 1.00D-09 XBig12= 2.52D-13 3.09D-08.
      1 vectors produced by pass  7 Test12= 6.87D-14 1.00D-09 XBig12= 9.42D-16 1.41D-09.
 Inverted reduced A of dimension   901 with in-core refinement.
 Isotropic polarizability for W=    0.000000      191.66 Bohr**3.
 End of Minotr Frequency-dependent properties file   721 does not exist.
 End of Minotr Frequency-dependent properties file   722 does not exist.

 **********************************************************************

            Population analysis using the SCF density.

 **********************************************************************

 Orbital symmetries:
       Occupied  (A) (A) (A) (A) (A) (A) (A) (A) (A) (A) (A) (A)
                 (A) (A) (A) (A) (A) (A) (A) (A) (A) (A) (A) (A)
                 (A) (A) (A) (A) (A) (A) (A) (A) (A) (A) (A) (A)
                 (A) (A) (A) (A) (A) (A) (A) (A) (A) (A) (A) (A)
                 (A) (A) (A) (A) (A) (A) (A) (A) (A) (A) (A) (A)
                 (A) (A) (A) (A) (A) (A) (A) (A) (A) (A) (A) (A)
                 (A) (A) (A) (A) (A) (A) (A) (A) (A) (A) (A) (A)
                 (A) (A) (A) (A) (A) (A) (A)
       Virtual   (A) (A) (A) (A) (A) (A) (A) (A) (A) (A) (A) (A)
                 (A) (A) (A) (A) (A) (A) (A) (A) (A) (A) (A) (A)
                 (A) (A) (A) (A) (A) (A) (A) (A) (A) (A) (A) (A)
                 (A) (A) (A) (A) (A) (A) (A) (A) (A) (A) (A) (A)
                 (A) (A) (A) (A) (A) (A) (A) (A) (A) (A) (A) (A)
                 (A) (A) (A) (A) (A) (A) (A) (A) (A) (A) (A) (A)
                 (A) (A) (A) (A) (A) (A) (A) (A) (A) (A) (A) (A)
                 (A) (A) (A) (A) (A) (A) (A) (A) (A) (A) (A) (A)
                 (A) (A) (A) (A) (A) (A) (A) (A) (A) (A) (A) (A)
                 (A) (A) (A) (A) (A) (A) (A) (A) (A) (A) (A) (A)
                 (A) (A) (A) (A) (A) (A) (A) (A) (A) (A) (A) (A)
                 (A) (A) (A) (A) (A) (A) (A) (A) (A) (A) (A) (A)
                 (A) (A) (A) (A) (A) (A) (A) (A) (A) (A) (A) (A)
                 (A) (A) (A) (A) (A) (A) (A) (A) (A) (A) (A) (A)
                 (A) (A) (A) (A) (A) (A) (A) (A) (A) (A) (A) (A)
                 (A) (A) (A) (A) (A) (A) (A) (A) (A) (A) (A) (A)
                 (A) (A) (A) (A) (A) (A) (A) (A) (A) (A) (A) (A)
                 (A) (A) (A) (A) (A) (A) (A) (A) (A) (A) (A) (A)
                 (A) (A) (A) (A) (A) (A) (A) (A) (A) (A) (A) (A)
                 (A) (A) (A) (A) (A) (A) (A) (A) (A) (A) (A) (A)
                 (A) (A) (A) (A) (A) (A) (A) (A) (A) (A) (A) (A)
                 (A) (A) (A) (A) (A) (A) (A) (A) (A) (A) (A) (A)
                 (A) (A) (A) (A) (A) (A) (A) (A) (A) (A) (A) (A)
                 (A) (A) (A) (A) (A) (A) (A) (A) (A) (A) (A) (A)
                 (A) (A) (A) (A) (A) (A) (A) (A) (A) (A) (A) (A)
                 (A) (A) (A) (A) (A) (A) (A) (A) (A) (A) (A) (A)
                 (A) (A) (A) (A) (A) (A) (A) (A) (A) (A) (A) (A)
                 (A) (A) (A) (A) (A) (A) (A) (A) (A) (A) (A) (A)
                 (A) (A) (A) (A) (A) (A) (A) (A) (A) (A) (A) (A)
                 (A) (A) (A) (A) (A) (A) (A) (A) (A) (A) (A) (A)
                 (A) (A) (A) (A) (A) (A) (A) (A) (A) (A) (A) (A)
                 (A) (A) (A) (A) (A) (A) (A) (A) (A) (A) (A) (A)
                 (A) (A) (A) (A) (A) (A) (A) (A) (A) (A) (A) (A)
                 (A) (A) (A) (A) (A) (A) (A) (A) (A) (A) (A) (A)
                 (A) (A) (A) (A) (A) (A) (A) (A) (A) (A) (A) (A)
                 (A) (A) (A) (A) (A) (A) (A) (A) (A) (A) (A) (A)
                 (A) (A) (A) (A) (A) (A) (A) (A) (A) (A) (A) (A)
                 (A) (A) (A) (A) (A) (A) (A) (A) (A) (A) (A) (A)
                 (A) (A) (A) (A) (A) (A) (A) (A) (A) (A) (A) (A)
                 (A) (A) (A) (A) (A) (A) (A) (A) (A) (A) (A) (A)
                 (A) (A) (A) (A) (A) (A) (A) (A) (A) (A) (A) (A)
                 (A) (A) (A) (A) (A) (A) (A) (A) (A) (A) (A) (A)
                 (A) (A) (A) (A) (A) (A) (A) (A) (A) (A) (A) (A)
                 (A) (A) (A) (A) (A) (A) (A) (A) (A) (A) (A) (A)
                 (A) (A) (A) (A) (A) (A) (A) (A) (A) (A) (A) (A)
                 (A) (A) (A) (A) (A) (A) (A) (A) (A) (A) (A) (A)
                 (A) (A) (A) (A) (A) (A) (A) (A) (A) (A) (A) (A)
                 (A) (A) (A) (A) (A) (A) (A) (A) (A) (A) (A) (A)
                 (A) (A) (A) (A) (A) (A) (A) (A) (A) (A) (A) (A)
                 (A) (A) (A) (A) (A) (A) (A) (A) (A) (A) (A) (A)
                 (A) (A) (A) (A) (A) (A) (A) (A) (A) (A) (A) (A)
                 (A) (A) (A) (A) (A) (A) (A) (A) (A) (A) (A) (A)
                 (A) (A) (A) (A) (A) (A) (A) (A) (A) (A) (A) (A)
                 (A) (A) (A) (A) (A) (A) (A) (A) (A) (A) (A) (A)
                 (A) (A) (A) (A) (A) (A) (A) (A) (A) (A) (A) (A)
                 (A) (A) (A) (A) (A) (A) (A) (A) (A) (A) (A) (A)
                 (A) (A) (A) (A) (A) (A) (A) (A) (A) (A) (A) (A)
                 (A) (A) (A) (A) (A) (A) (A) (A) (A) (A) (A) (A)
                 (A) (A) (A) (A) (A) (A) (A) (A) (A) (A) (A) (A)
                 (A) (A) (A) (A) (A) (A) (A) (A) (A) (A) (A) (A)
                 (A) (A) (A) (A) (A) (A) (A) (A) (A) (A) (A) (A)
                 (A) (A) (A) (A) (A) (A) (A) (A) (A) (A) (A) (A)
                 (A) (A) (A) (A) (A) (A) (A) (A) (A) (A) (A)
 The electronic state is 1-A.
 Alpha  occ. eigenvalues --  -19.18932 -19.18624 -19.18384 -19.18371 -19.17026
 Alpha  occ. eigenvalues --  -19.16751 -19.16723 -19.15661 -19.15035 -19.14313
 Alpha  occ. eigenvalues --  -19.13790 -10.30685 -10.29895 -10.26137 -10.26049
 Alpha  occ. eigenvalues --  -10.25330 -10.25262 -10.24990 -10.24907 -10.24165
 Alpha  occ. eigenvalues --  -10.23865 -10.23845 -10.23640  -1.10749  -1.09143
 Alpha  occ. eigenvalues --   -1.05468  -1.05019  -1.03789  -1.03548  -1.02390
 Alpha  occ. eigenvalues --   -1.02059  -1.01811  -1.00845  -1.00178  -0.82269
 Alpha  occ. eigenvalues --   -0.80292  -0.79572  -0.78224  -0.71943  -0.69820
 Alpha  occ. eigenvalues --   -0.67004  -0.65622  -0.63827  -0.62062  -0.61556
 Alpha  occ. eigenvalues --   -0.60341  -0.56619  -0.56275  -0.54976  -0.54440
 Alpha  occ. eigenvalues --   -0.53701  -0.53491  -0.53091  -0.51950  -0.51068
 Alpha  occ. eigenvalues --   -0.50741  -0.50021  -0.49019  -0.48371  -0.46307
 Alpha  occ. eigenvalues --   -0.45899  -0.45295  -0.43778  -0.43454  -0.42529
 Alpha  occ. eigenvalues --   -0.42429  -0.41462  -0.40521  -0.40453  -0.39371
 Alpha  occ. eigenvalues --   -0.39091  -0.37754  -0.37454  -0.36124  -0.36025
 Alpha  occ. eigenvalues --   -0.35416  -0.35179  -0.35098  -0.34796  -0.33814
 Alpha  occ. eigenvalues --   -0.32400  -0.31647  -0.31337  -0.30781  -0.29943
 Alpha  occ. eigenvalues --   -0.28807  -0.28730  -0.28190  -0.27711  -0.26909
 Alpha  occ. eigenvalues --   -0.26061
 Alpha virt. eigenvalues --   -0.01892  -0.01715  -0.01670  -0.00558   0.00144
 Alpha virt. eigenvalues --    0.00529   0.01856   0.02408   0.02758   0.03293
 Alpha virt. eigenvalues --    0.03892   0.04268   0.04622   0.05157   0.05831
 Alpha virt. eigenvalues --    0.06182   0.06514   0.06825   0.07603   0.08049
 Alpha virt. eigenvalues --    0.08202   0.08834   0.08974   0.09516   0.10174
 Alpha virt. eigenvalues --    0.10263   0.10653   0.11480   0.11717   0.12059
 Alpha virt. eigenvalues --    0.12309   0.12625   0.12977   0.13128   0.13659
 Alpha virt. eigenvalues --    0.13845   0.14102   0.14575   0.14844   0.15260
 Alpha virt. eigenvalues --    0.15614   0.16162   0.16318   0.16961   0.17162
 Alpha virt. eigenvalues --    0.17367   0.17467   0.17608   0.17879   0.18417
 Alpha virt. eigenvalues --    0.18690   0.19148   0.19431   0.19539   0.19971
 Alpha virt. eigenvalues --    0.20430   0.20940   0.21236   0.21341   0.21440
 Alpha virt. eigenvalues --    0.21795   0.21972   0.22730   0.23032   0.23302
 Alpha virt. eigenvalues --    0.23697   0.23893   0.24020   0.24065   0.24200
 Alpha virt. eigenvalues --    0.24894   0.25097   0.25481   0.25913   0.26203
 Alpha virt. eigenvalues --    0.26297   0.26496   0.26832   0.27211   0.27623
 Alpha virt. eigenvalues --    0.27789   0.27925   0.28063   0.28344   0.28652
 Alpha virt. eigenvalues --    0.28992   0.29333   0.29512   0.29749   0.30808
 Alpha virt. eigenvalues --    0.31062   0.31228   0.31746   0.31808   0.32164
 Alpha virt. eigenvalues --    0.32497   0.33165   0.33484   0.33738   0.33941
 Alpha virt. eigenvalues --    0.34496   0.34613   0.35135   0.35484   0.35777
 Alpha virt. eigenvalues --    0.36267   0.36433   0.36622   0.36962   0.37553
 Alpha virt. eigenvalues --    0.38220   0.38385   0.38557   0.38652   0.39408
 Alpha virt. eigenvalues --    0.39745   0.40038   0.40394   0.40976   0.41227
 Alpha virt. eigenvalues --    0.41815   0.42593   0.43038   0.43682   0.43765
 Alpha virt. eigenvalues --    0.44352   0.44610   0.45509   0.45987   0.46579
 Alpha virt. eigenvalues --    0.46727   0.47993   0.48270   0.48845   0.49283
 Alpha virt. eigenvalues --    0.50459   0.51019   0.54062   0.56108   0.57469
 Alpha virt. eigenvalues --    0.59617   0.59932   0.60291   0.61142   0.61711
 Alpha virt. eigenvalues --    0.62427   0.62762   0.64354   0.65489   0.65818
 Alpha virt. eigenvalues --    0.66576   0.67445   0.67772   0.68584   0.69509
 Alpha virt. eigenvalues --    0.69809   0.70516   0.71473   0.72662   0.73141
 Alpha virt. eigenvalues --    0.74190   0.74564   0.75724   0.76399   0.77424
 Alpha virt. eigenvalues --    0.78091   0.78530   0.79457   0.80233   0.80604
 Alpha virt. eigenvalues --    0.81896   0.82153   0.82360   0.83606   0.84787
 Alpha virt. eigenvalues --    0.85869   0.86832   0.87816   0.88546   0.88780
 Alpha virt. eigenvalues --    0.89466   0.89916   0.90217   0.90766   0.91510
 Alpha virt. eigenvalues --    0.91689   0.92071   0.92406   0.92972   0.93381
 Alpha virt. eigenvalues --    0.94054   0.94343   0.94865   0.95084   0.95313
 Alpha virt. eigenvalues --    0.96096   0.96822   0.97053   0.97530   0.98413
 Alpha virt. eigenvalues --    0.99042   0.99942   1.00809   1.00971   1.01955
 Alpha virt. eigenvalues --    1.02067   1.02989   1.03725   1.04248   1.05297
 Alpha virt. eigenvalues --    1.05705   1.06299   1.06798   1.06936   1.07470
 Alpha virt. eigenvalues --    1.07893   1.08904   1.09370   1.09893   1.10811
 Alpha virt. eigenvalues --    1.11542   1.11770   1.13180   1.13770   1.14120
 Alpha virt. eigenvalues --    1.14480   1.15139   1.15271   1.15742   1.16584
 Alpha virt. eigenvalues --    1.16780   1.17297   1.18317   1.18709   1.19024
 Alpha virt. eigenvalues --    1.19758   1.20328   1.21068   1.21233   1.21988
 Alpha virt. eigenvalues --    1.22220   1.22827   1.23342   1.24143   1.24798
 Alpha virt. eigenvalues --    1.25014   1.25623   1.26434   1.26621   1.27402
 Alpha virt. eigenvalues --    1.27923   1.28559   1.28946   1.29414   1.30147
 Alpha virt. eigenvalues --    1.31285   1.32237   1.32531   1.32852   1.33082
 Alpha virt. eigenvalues --    1.33821   1.34163   1.35038   1.36287   1.37468
 Alpha virt. eigenvalues --    1.37804   1.38156   1.39091   1.39704   1.40094
 Alpha virt. eigenvalues --    1.40989   1.41731   1.41996   1.42732   1.43143
 Alpha virt. eigenvalues --    1.44481   1.45173   1.45553   1.46300   1.47019
 Alpha virt. eigenvalues --    1.48301   1.48840   1.49744   1.50127   1.50448
 Alpha virt. eigenvalues --    1.51284   1.51859   1.54330   1.54680   1.55849
 Alpha virt. eigenvalues --    1.57181   1.57757   1.58822   1.59244   1.60469
 Alpha virt. eigenvalues --    1.61176   1.61962   1.62873   1.63590   1.64263
 Alpha virt. eigenvalues --    1.64895   1.65513   1.65811   1.67361   1.67775
 Alpha virt. eigenvalues --    1.68586   1.69508   1.69822   1.71063   1.72610
 Alpha virt. eigenvalues --    1.73173   1.74247   1.74727   1.75147   1.75647
 Alpha virt. eigenvalues --    1.76172   1.77209   1.78961   1.80476   1.82137
 Alpha virt. eigenvalues --    1.82722   1.83042   1.84382   1.84986   1.85778
 Alpha virt. eigenvalues --    1.86863   1.87353   1.87462   1.89696   1.90085
 Alpha virt. eigenvalues --    1.91061   1.92689   1.92802   1.94059   1.94492
 Alpha virt. eigenvalues --    1.95578   1.96921   1.98168   1.99748   2.01451
 Alpha virt. eigenvalues --    2.01916   2.02711   2.04449   2.06241   2.07133
 Alpha virt. eigenvalues --    2.07337   2.08314   2.08390   2.10256   2.12100
 Alpha virt. eigenvalues --    2.13523   2.14731   2.16170   2.17900   2.20652
 Alpha virt. eigenvalues --    2.20732   2.21392   2.23658   2.26244   2.26956
 Alpha virt. eigenvalues --    2.27721   2.27998   2.30437   2.32025   2.32996
 Alpha virt. eigenvalues --    2.34385   2.35232   2.39629   2.40757   2.42614
 Alpha virt. eigenvalues --    2.44465   2.46828   2.47195   2.47977   2.49276
 Alpha virt. eigenvalues --    2.50297   2.51325   2.52823   2.53778   2.54377
 Alpha virt. eigenvalues --    2.56209   2.57847   2.58407   2.59223   2.60667
 Alpha virt. eigenvalues --    2.61530   2.62160   2.63972   2.64951   2.65266
 Alpha virt. eigenvalues --    2.67160   2.67505   2.68079   2.69821   2.69924
 Alpha virt. eigenvalues --    2.71174   2.74355   2.75192   2.76828   2.77615
 Alpha virt. eigenvalues --    2.77936   2.79454   2.81005   2.81674   2.82505
 Alpha virt. eigenvalues --    2.83909   2.85611   2.86047   2.87265   2.87703
 Alpha virt. eigenvalues --    2.88775   2.90720   2.91179   2.91829   2.93137
 Alpha virt. eigenvalues --    2.93656   2.94625   2.95395   2.97445   2.98478
 Alpha virt. eigenvalues --    2.99947   3.00582   3.01045   3.03122   3.03500
 Alpha virt. eigenvalues --    3.03991   3.04404   3.04832   3.06686   3.07809
 Alpha virt. eigenvalues --    3.08934   3.09436   3.09733   3.10507   3.11777
 Alpha virt. eigenvalues --    3.13418   3.14504   3.15024   3.17042   3.17689
 Alpha virt. eigenvalues --    3.19162   3.19379   3.21404   3.21522   3.22358
 Alpha virt. eigenvalues --    3.23191   3.24008   3.25505   3.25889   3.26763
 Alpha virt. eigenvalues --    3.27868   3.29055   3.30201   3.30547   3.32372
 Alpha virt. eigenvalues --    3.33813   3.36166   3.36924   3.38108   3.39321
 Alpha virt. eigenvalues --    3.41509   3.42250   3.43103   3.44254   3.45008
 Alpha virt. eigenvalues --    3.46094   3.48187   3.49865   3.50349   3.53480
 Alpha virt. eigenvalues --    3.55417   3.56054   3.58270   3.59950   3.60110
 Alpha virt. eigenvalues --    3.61223   3.62092   3.63660   3.65239   3.66372
 Alpha virt. eigenvalues --    3.67438   3.69738   3.71422   3.71648   3.73265
 Alpha virt. eigenvalues --    3.74883   3.76885   3.77884   3.78606   3.79212
 Alpha virt. eigenvalues --    3.80356   3.83023   3.83498   3.84299   3.84801
 Alpha virt. eigenvalues --    3.86449   3.87300   3.88698   3.90866   3.91055
 Alpha virt. eigenvalues --    3.93315   3.95809   3.96534   4.00897   4.03149
 Alpha virt. eigenvalues --    4.05096   4.06100   4.07984   4.09202   4.15114
 Alpha virt. eigenvalues --    4.15901   4.16964   4.17516   4.18359   4.19884
 Alpha virt. eigenvalues --    4.20108   4.21583   4.22513   4.24099   4.24565
 Alpha virt. eigenvalues --    4.27077   4.27684   4.28378   4.29441   4.30159
 Alpha virt. eigenvalues --    4.30859   4.31790   4.33226   4.33508   4.34554
 Alpha virt. eigenvalues --    4.35722   4.36584   4.36941   4.37931   4.39471
 Alpha virt. eigenvalues --    4.39871   4.40395   4.42098   4.42940   4.44411
 Alpha virt. eigenvalues --    4.44905   4.45707   4.46257   4.47033   4.48069
 Alpha virt. eigenvalues --    4.48575   4.49079   4.49775   4.50050   4.50713
 Alpha virt. eigenvalues --    4.52455   4.52957   4.53456   4.54343   4.54732
 Alpha virt. eigenvalues --    4.56731   4.56975   4.57849   4.57982   4.58617
 Alpha virt. eigenvalues --    4.59793   4.59937   4.60522   4.60790   4.61539
 Alpha virt. eigenvalues --    4.62124   4.62652   4.63491   4.64595   4.65257
 Alpha virt. eigenvalues --    4.65746   4.66729   4.67169   4.67990   4.68235
 Alpha virt. eigenvalues --    4.69484   4.69789   4.71026   4.71476   4.72130
 Alpha virt. eigenvalues --    4.72647   4.73963   4.74358   4.75092   4.76017
 Alpha virt. eigenvalues --    4.76386   4.77183   4.77771   4.78402   4.79263
 Alpha virt. eigenvalues --    4.79538   4.80663   4.81832   4.82053   4.82412
 Alpha virt. eigenvalues --    4.83252   4.83602   4.83807   4.85620   4.86109
 Alpha virt. eigenvalues --    4.86814   4.87632   4.88253   4.89267   4.91164
 Alpha virt. eigenvalues --    4.92382   4.93666   4.95254   4.95596   4.97011
 Alpha virt. eigenvalues --    4.97696   4.98741   4.98896   4.99880   5.03645
 Alpha virt. eigenvalues --    5.04536   5.05903   5.06334   5.09335   5.10633
 Alpha virt. eigenvalues --    5.12790   5.14373   5.16492   5.16670   5.17872
 Alpha virt. eigenvalues --    5.20237   5.21057   5.21900   5.22435   5.23743
 Alpha virt. eigenvalues --    5.24749   5.27024   5.27761   5.28171   5.28924
 Alpha virt. eigenvalues --    5.29721   5.30260   5.30989   5.34505   5.34792
 Alpha virt. eigenvalues --    5.35431   5.37485   5.38384   5.39607   5.40398
 Alpha virt. eigenvalues --    5.40749   5.41716   5.42105   5.42763   5.43265
 Alpha virt. eigenvalues --    5.44236   5.44768   5.46068   5.46724   5.48280
 Alpha virt. eigenvalues --    5.48956   5.50224   5.50722   5.51503   5.51900
 Alpha virt. eigenvalues --    5.52997   5.53689   5.54279   5.57246   5.57546
 Alpha virt. eigenvalues --    5.59436   5.60123   5.62336   5.64349   5.66507
 Alpha virt. eigenvalues --    5.68105   5.70066   5.71665   5.73070   5.75348
 Alpha virt. eigenvalues --    5.76893   5.78720   5.79485   5.81109   5.83148
 Alpha virt. eigenvalues --    5.84760   5.85407   5.86184   5.88957   5.90115
 Alpha virt. eigenvalues --    5.91098   5.91357   5.92277   5.93838   5.93931
 Alpha virt. eigenvalues --    5.95027   5.96687   5.96804   5.97871   6.00381
 Alpha virt. eigenvalues --    6.01240   6.01525   6.03991   6.05260   6.06248
 Alpha virt. eigenvalues --    6.08088   6.08690   6.11391   6.12901   6.13817
 Alpha virt. eigenvalues --    6.14650   6.16795   6.19376   6.20210   6.24205
 Alpha virt. eigenvalues --    6.24997   6.28362   6.30172   6.32078   6.40822
 Alpha virt. eigenvalues --    6.57648   6.67412   6.93234   7.02587   7.10584
 Alpha virt. eigenvalues --    7.13526   7.16807   7.23276   7.26096   7.30606
 Alpha virt. eigenvalues --    7.31434   7.42063   7.44821   7.54855   7.58254
 Alpha virt. eigenvalues --    7.86553   8.34531  12.06644  12.11277  12.22517
 Alpha virt. eigenvalues --   12.28356  12.48357  12.57759  12.82988  12.92384
 Alpha virt. eigenvalues --   12.98372  13.06548  13.22485  13.39694  13.44665
 Alpha virt. eigenvalues --   13.45591  13.53693  13.57921  13.60161  13.65910
 Alpha virt. eigenvalues --   13.73682  13.78478  13.98534  14.15328  14.40062
          Condensed to atoms (all electrons):
              1          2          3          4          5          6
     1  O    8.066093   0.204810  -0.075588  -0.016785   0.019096   0.076172
     2  C    0.204810   7.601724  -0.076449   0.056732  -0.061292  -2.211958
     3  C   -0.075588  -0.076449   6.566738   0.233809   0.006367  -0.066718
     4  O   -0.016785   0.056732   0.233809   8.092891   0.236417  -0.160264
     5  H    0.019096  -0.061292   0.006367   0.236417   0.426217   0.011663
     6  C    0.076172  -2.211958  -0.066718  -0.160264   0.011663  10.356712
     7  O   -0.000728   0.031989  -0.114679   0.007634  -0.000002   0.291348
     8  H    0.000014  -0.006402   0.005283  -0.000111   0.000008   0.001178
     9  C   -0.025302  -0.276997  -0.365336   0.012566  -0.001814   0.333487
    10  O   -0.004018   0.020659   0.018441  -0.000084  -0.000032  -0.004694
    11  H    0.001742  -0.005312  -0.000624   0.000000   0.000000   0.000185
    12  C   -0.059457  -0.701064  -0.036199  -0.003662   0.012727   0.635202
    13  O    0.003458  -0.029211  -0.034778  -0.001962  -0.000121  -0.020790
    14  C   -0.027110   1.032045   0.042614   0.016698   0.008048  -2.839045
    15  O   -0.000198  -0.005665  -0.010511   0.000946   0.000018  -0.073048
    16  C    0.001476   0.072668  -0.036882  -0.003169   0.000805  -0.226435
    17  C   -0.000056  -0.037059  -0.043804   0.000864   0.000019   0.218534
    18  O    0.000042   0.002719   0.000623  -0.000013   0.000000  -0.000368
    19  H   -0.000041  -0.004647   0.004656   0.000000   0.000000   0.008602
    20  C    0.000013   0.007967  -0.006701   0.000041   0.000000  -0.008605
    21  O    0.000000  -0.000010   0.000013   0.000000   0.000000  -0.000200
    22  H    0.000000   0.000000   0.000000   0.000000   0.000000  -0.000015
    23  C   -0.000032   0.005173   0.018385  -0.000019  -0.000009  -0.131831
    24  O    0.000000   0.001758  -0.013666  -0.000050  -0.000001  -0.017161
    25  H    0.000000   0.000130   0.001675   0.000002   0.000000  -0.001772
    26  C   -0.000092   0.016257  -0.023134   0.000378  -0.000008  -0.149360
    27  O    0.000000   0.000060  -0.000362   0.000001   0.000000   0.003156
    28  C    0.000005  -0.000108  -0.002228  -0.000004   0.000000  -0.000021
    29  O    0.000000   0.000010   0.000023   0.000000   0.000000  -0.000166
    30  H    0.000000   0.000000   0.000000   0.000000   0.000000   0.000007
    31  H    0.000000   0.000013  -0.000001   0.000000   0.000000  -0.000122
    32  H    0.000000   0.000061  -0.000001   0.000000   0.000000   0.000369
    33  H    0.000000  -0.001041   0.001092   0.000000   0.000000   0.011653
    34  H    0.000000  -0.003993   0.004658   0.000004   0.000000   0.031113
    35  H    0.000000   0.000014   0.000413   0.000000   0.000000  -0.004708
    36  H    0.000000  -0.000034   0.000033   0.000000   0.000000   0.002356
    37  H    0.000000   0.000117   0.000798   0.000000   0.000000  -0.005992
    38  H    0.273918   0.048840  -0.026508   0.001391  -0.002028  -0.003373
    39  H    0.000787  -0.021969  -0.017096   0.000029  -0.000001   0.023879
    40  H    0.003997   0.079625  -0.055845   0.000777   0.000001  -0.028383
    41  H   -0.010946   0.335498  -0.057216   0.002908  -0.000088  -0.018822
    42  H   -0.003193   0.049652   0.300088  -0.019029  -0.000059  -0.256952
    43  H   -0.000136   0.034971  -0.124094   0.005748  -0.000206   0.317948
    44  H    0.000166  -0.009765  -0.042342   0.000062   0.000002   0.036119
    45  H    0.000152   0.008710   0.005876   0.000006   0.000000  -0.004066
              7          8          9         10         11         12
     1  O   -0.000728   0.000014  -0.025302  -0.004018   0.001742  -0.059457
     2  C    0.031989  -0.006402  -0.276997   0.020659  -0.005312  -0.701064
     3  C   -0.114679   0.005283  -0.365336   0.018441  -0.000624  -0.036199
     4  O    0.007634  -0.000111   0.012566  -0.000084   0.000000  -0.003662
     5  H   -0.000002   0.000008  -0.001814  -0.000032   0.000000   0.012727
     6  C    0.291348   0.001178   0.333487  -0.004694   0.000185   0.635202
     7  O    8.115091   0.245623   0.001488  -0.000004   0.000000   0.008191
     8  H    0.245623   0.343268   0.000196   0.000000   0.000000  -0.002083
     9  C    0.001488   0.000196   7.659253   0.168951  -0.029783  -1.472180
    10  O   -0.000004   0.000000   0.168951   8.152615   0.246471  -0.031003
    11  H    0.000000   0.000000  -0.029783   0.246471   0.419602   0.028715
    12  C    0.008191  -0.002083  -1.472180  -0.031003   0.028715   9.090250
    13  O    0.002075  -0.000280  -0.043617  -0.000098  -0.000473   0.002333
    14  C   -0.059763  -0.038290  -0.610850   0.010530  -0.003918  -1.090380
    15  O   -0.002176   0.009123   0.001750   0.000000  -0.000001  -0.012733
    16  C    0.021015   0.031352  -0.189859  -0.000182  -0.000202  -0.046822
    17  C    0.011526  -0.000768   0.052619  -0.000073  -0.000017  -0.230956
    18  O    0.000031  -0.000011  -0.005995  -0.000093  -0.000001   0.005265
    19  H   -0.000011  -0.000007  -0.001812   0.000023  -0.000001  -0.003581
    20  C   -0.000190   0.000330   0.006067  -0.000051   0.000002   0.001113
    21  O   -0.000002   0.000000   0.000256   0.000000   0.000000  -0.000130
    22  H    0.000000   0.000000  -0.000004   0.000000   0.000000   0.000007
    23  C    0.008882   0.011166  -0.001567   0.000001  -0.000001   0.003972
    24  O   -0.042754  -0.001516   0.000111   0.000000   0.000000   0.001475
    25  H    0.002297  -0.002793  -0.000013   0.000000   0.000000  -0.000336
    26  C   -0.034895  -0.024201  -0.002109   0.000038   0.000000   0.032742
    27  O    0.000031  -0.000121  -0.000104   0.000000   0.000000  -0.000673
    28  C    0.000608  -0.000147  -0.001691  -0.000001   0.000000  -0.004140
    29  O   -0.000003   0.000000  -0.000018   0.000000   0.000000   0.000061
    30  H    0.000000   0.000000   0.000000   0.000000   0.000000  -0.000002
    31  H    0.000000   0.000000  -0.000007   0.000000   0.000000   0.000038
    32  H    0.000000   0.000000  -0.000075   0.000000   0.000000   0.000248
    33  H   -0.000001   0.000000   0.000108   0.000001   0.000000  -0.000890
    34  H   -0.001495  -0.000315  -0.000422   0.000000   0.000000   0.001954
    35  H   -0.000147   0.000026   0.000043   0.000000   0.000000   0.000339
    36  H   -0.000674   0.000361  -0.000003   0.000000   0.000000   0.000071
    37  H    0.001960  -0.000258   0.000013   0.000000   0.000000   0.000474
    38  H    0.000004   0.000000   0.006321  -0.001124  -0.000051  -0.033787
    39  H    0.000014   0.000000   0.681500  -0.060375  -0.000059  -0.284852
    40  H    0.000229   0.000006   0.060346   0.000499  -0.000147   0.042298
    41  H    0.000886   0.000004  -0.015700  -0.001413  -0.000009  -0.043478
    42  H    0.010157  -0.000192   0.021168  -0.000104   0.000000   0.034243
    43  H   -0.023489  -0.003359   0.015777   0.000011   0.000000   0.049975
    44  H   -0.000167  -0.000242   0.013424   0.000016   0.000000   0.054224
    45  H   -0.000013   0.000000   0.373459  -0.021117  -0.010550  -0.041030
             13         14         15         16         17         18
     1  O    0.003458  -0.027110  -0.000198   0.001476  -0.000056   0.000042
     2  C   -0.029211   1.032045  -0.005665   0.072668  -0.037059   0.002719
     3  C   -0.034778   0.042614  -0.010511  -0.036882  -0.043804   0.000623
     4  O   -0.001962   0.016698   0.000946  -0.003169   0.000864  -0.000013
     5  H   -0.000121   0.008048   0.000018   0.000805   0.000019   0.000000
     6  C   -0.020790  -2.839045  -0.073048  -0.226435   0.218534  -0.000368
     7  O    0.002075  -0.059763  -0.002176   0.021015   0.011526   0.000031
     8  H   -0.000280  -0.038290   0.009123   0.031352  -0.000768  -0.000011
     9  C   -0.043617  -0.610850   0.001750  -0.189859   0.052619  -0.005995
    10  O   -0.000098   0.010530   0.000000  -0.000182  -0.000073  -0.000093
    11  H   -0.000473  -0.003918  -0.000001  -0.000202  -0.000017  -0.000001
    12  C    0.002333  -1.090380  -0.012733  -0.046822  -0.230956   0.005265
    13  O    7.943672   0.280012  -0.010333  -0.109241   0.105398  -0.024847
    14  C    0.280012  10.045352   0.234373  -1.029268  -0.410669   0.061772
    15  O   -0.010333   0.234373   7.728905   0.342963  -0.046845  -0.001697
    16  C   -0.109241  -1.029268   0.342963  10.918026  -2.907324   0.013344
    17  C    0.105398  -0.410669  -0.046845  -2.907324   9.697948   0.133542
    18  O   -0.024847   0.061772  -0.001697   0.013344   0.133542   8.137077
    19  H    0.015311   0.005873   0.008799  -0.027218   0.015580   0.234402
    20  C    0.006514  -0.151957   0.024467  -0.287848  -0.376998  -0.051537
    21  O   -0.000045   0.000115   0.000150   0.059110  -0.053326   0.004871
    22  H    0.000001  -0.000169   0.000004  -0.015840   0.006852  -0.000328
    23  C    0.005344   0.176666   0.005640   0.173936  -0.232894   0.010362
    24  O   -0.000093   0.086716  -0.008265  -0.042491  -0.006775  -0.000004
    25  H   -0.000034  -0.007260   0.000885   0.002163  -0.000311   0.000000
    26  C   -0.014957  -0.136453  -0.100625  -1.383692  -0.551733   0.001888
    27  O    0.000174  -0.008287   0.003183   0.036061   0.017371  -0.001916
    28  C   -0.001427  -0.043762  -0.002462   0.164181   0.245929  -0.013190
    29  O    0.000017   0.000735  -0.000015   0.010326  -0.039243   0.000241
    30  H    0.000000  -0.000094   0.000002  -0.006128   0.014894  -0.000043
    31  H    0.000019  -0.000490   0.000132   0.047503  -0.052519   0.000625
    32  H    0.000027  -0.005048  -0.000131   0.056024  -0.152355   0.006566
    33  H   -0.002318   0.038919  -0.010508  -0.114481   0.371676  -0.031453
    34  H   -0.000596  -0.016937  -0.048146   0.139512   0.082401  -0.003391
    35  H   -0.000271   0.031500  -0.003304   0.025843  -0.068741  -0.000231
    36  H    0.000063   0.004917   0.000257  -0.015500   0.001891   0.000011
    37  H   -0.000141   0.017530   0.003001   0.056584   0.012307  -0.000040
    38  H   -0.000759   0.002314   0.000001   0.000202  -0.000042   0.000000
    39  H   -0.008016  -0.005455  -0.000396  -0.011411   0.005856   0.000012
    40  H   -0.023722   0.168461  -0.001796  -0.002282   0.008687   0.000570
    41  H    0.004558   0.073633  -0.000475  -0.005739   0.001537   0.000019
    42  H    0.004025   0.097274   0.001265  -0.009689   0.002217   0.000029
    43  H    0.005972   0.002462  -0.011118  -0.022524   0.003747   0.000048
    44  H   -0.023868   0.233114  -0.035855   0.020262   0.004848   0.001036
    45  H   -0.002775   0.003069  -0.000321   0.009106  -0.001320  -0.000289
             19         20         21         22         23         24
     1  O   -0.000041   0.000013   0.000000   0.000000  -0.000032   0.000000
     2  C   -0.004647   0.007967  -0.000010   0.000000   0.005173   0.001758
     3  C    0.004656  -0.006701   0.000013   0.000000   0.018385  -0.013666
     4  O    0.000000   0.000041   0.000000   0.000000  -0.000019  -0.000050
     5  H    0.000000   0.000000   0.000000   0.000000  -0.000009  -0.000001
     6  C    0.008602  -0.008605  -0.000200  -0.000015  -0.131831  -0.017161
     7  O   -0.000011  -0.000190  -0.000002   0.000000   0.008882  -0.042754
     8  H   -0.000007   0.000330   0.000000   0.000000   0.011166  -0.001516
     9  C   -0.001812   0.006067   0.000256  -0.000004  -0.001567   0.000111
    10  O    0.000023  -0.000051   0.000000   0.000000   0.000001   0.000000
    11  H   -0.000001   0.000002   0.000000   0.000000  -0.000001   0.000000
    12  C   -0.003581   0.001113  -0.000130   0.000007   0.003972   0.001475
    13  O    0.015311   0.006514  -0.000045   0.000001   0.005344  -0.000093
    14  C    0.005873  -0.151957   0.000115  -0.000169   0.176666   0.086716
    15  O    0.008799   0.024467   0.000150   0.000004   0.005640  -0.008265
    16  C   -0.027218  -0.287848   0.059110  -0.015840   0.173936  -0.042491
    17  C    0.015580  -0.376998  -0.053326   0.006852  -0.232894  -0.006775
    18  O    0.234402  -0.051537   0.004871  -0.000328   0.010362  -0.000004
    19  H    0.394982  -0.013983  -0.000527   0.000019  -0.002961  -0.000029
    20  C   -0.013983   6.692895   0.157384   0.003840   0.023509  -0.006111
    21  O   -0.000527   0.157384   8.084765   0.243334   0.000666   0.000013
    22  H    0.000019   0.003840   0.243334   0.415298   0.000100   0.000000
    23  C   -0.002961   0.023509   0.000666   0.000100   5.854791   0.046015
    24  O   -0.000029  -0.006111   0.000013   0.000000   0.046015   8.245859
    25  H    0.000000   0.000589   0.000000   0.000000  -0.021413   0.259393
    26  C   -0.003090   0.230109   0.001529   0.002227  -0.579716   0.063473
    27  O    0.000034  -0.068579   0.002045  -0.000707  -0.080689   0.004829
    28  C    0.004533  -0.278237  -0.014291  -0.006423  -0.063072   0.004751
    29  O    0.000042  -0.053718   0.007730   0.007595   0.011037   0.000017
    30  H    0.000000  -0.034332  -0.001596  -0.000946  -0.000371  -0.000002
    31  H    0.000008  -0.046995   0.001250   0.000020  -0.000686   0.000070
    32  H    0.000035   0.396804  -0.026151  -0.005637   0.002455   0.000012
    33  H    0.001356  -0.035979  -0.004507  -0.000137   0.004096   0.000040
    34  H    0.000615   0.018830  -0.000421   0.000005  -0.014038   0.000878
    35  H    0.000013  -0.007041   0.000027   0.000001   0.076780   0.003138
    36  H    0.000000  -0.000257  -0.000005   0.000000   0.404250  -0.017873
    37  H    0.000005  -0.001371  -0.000002   0.000000   0.533696  -0.054619
    38  H    0.000000   0.000000   0.000000   0.000000   0.000003   0.000000
    39  H   -0.000158   0.000385   0.000001   0.000000  -0.000026   0.000000
    40  H   -0.000669   0.000306   0.000000   0.000000   0.000080   0.000000
    41  H   -0.000008   0.000045   0.000000   0.000000   0.000028   0.000009
    42  H   -0.000003   0.000176   0.000000   0.000000   0.000618   0.000060
    43  H   -0.000004   0.000374   0.000000   0.000000   0.003736   0.000273
    44  H   -0.002396   0.008358   0.000003   0.000000   0.006509  -0.000168
    45  H    0.000685  -0.000475   0.000000   0.000000   0.000038   0.000000
             25         26         27         28         29         30
     1  O    0.000000  -0.000092   0.000000   0.000005   0.000000   0.000000
     2  C    0.000130   0.016257   0.000060  -0.000108   0.000010   0.000000
     3  C    0.001675  -0.023134  -0.000362  -0.002228   0.000023   0.000000
     4  O    0.000002   0.000378   0.000001  -0.000004   0.000000   0.000000
     5  H    0.000000  -0.000008   0.000000   0.000000   0.000000   0.000000
     6  C   -0.001772  -0.149360   0.003156  -0.000021  -0.000166   0.000007
     7  O    0.002297  -0.034895   0.000031   0.000608  -0.000003   0.000000
     8  H   -0.002793  -0.024201  -0.000121  -0.000147   0.000000   0.000000
     9  C   -0.000013  -0.002109  -0.000104  -0.001691  -0.000018   0.000000
    10  O    0.000000   0.000038   0.000000  -0.000001   0.000000   0.000000
    11  H    0.000000   0.000000   0.000000   0.000000   0.000000   0.000000
    12  C   -0.000336   0.032742  -0.000673  -0.004140   0.000061  -0.000002
    13  O   -0.000034  -0.014957   0.000174  -0.001427   0.000017   0.000000
    14  C   -0.007260  -0.136453  -0.008287  -0.043762   0.000735  -0.000094
    15  O    0.000885  -0.100625   0.003183  -0.002462  -0.000015   0.000002
    16  C    0.002163  -1.383692   0.036061   0.164181   0.010326  -0.006128
    17  C   -0.000311  -0.551733   0.017371   0.245929  -0.039243   0.014894
    18  O    0.000000   0.001888  -0.001916  -0.013190   0.000241  -0.000043
    19  H    0.000000  -0.003090   0.000034   0.004533   0.000042   0.000000
    20  C    0.000589   0.230109  -0.068579  -0.278237  -0.053718  -0.034332
    21  O    0.000000   0.001529   0.002045  -0.014291   0.007730  -0.001596
    22  H    0.000000   0.002227  -0.000707  -0.006423   0.007595  -0.000946
    23  C   -0.021413  -0.579716  -0.080689  -0.063072   0.011037  -0.000371
    24  O    0.259393   0.063473   0.004829   0.004751   0.000017  -0.000002
    25  H    0.390472   0.014738  -0.001002  -0.000788  -0.000005   0.000000
    26  C    0.014738   9.487089   0.088552  -0.472883  -0.028285   0.002002
    27  O   -0.001002   0.088552   7.901107   0.234615  -0.050897   0.002388
    28  C   -0.000788  -0.472883   0.234615   5.544232   0.309564   0.012239
    29  O   -0.000005  -0.028285  -0.050897   0.309564   8.059404   0.268070
    30  H    0.000000   0.002002   0.002388   0.012239   0.268070   0.412653
    31  H    0.000000   0.007606  -0.044090   0.379879  -0.017278  -0.009709
    32  H    0.000000   0.038542  -0.002782  -0.039282  -0.005876   0.000235
    33  H    0.000000   0.039204  -0.003722  -0.029899   0.000429   0.000020
    34  H   -0.000049   0.026330   0.002583   0.005513  -0.000201   0.000002
    35  H   -0.000165   0.192708  -0.020167   0.029593  -0.000574   0.000016
    36  H   -0.010562  -0.025368  -0.009847  -0.005260  -0.000213   0.000002
    37  H    0.000984  -0.270260   0.001113   0.003754  -0.000066   0.000000
    38  H    0.000000   0.000000   0.000000   0.000000   0.000000   0.000000
    39  H    0.000000  -0.000482   0.000000  -0.000018   0.000000   0.000000
    40  H    0.000000  -0.001504   0.000000   0.000018   0.000000   0.000000
    41  H    0.000000  -0.000330   0.000000  -0.000004   0.000000   0.000000
    42  H    0.000000  -0.000615   0.000000  -0.000015   0.000000   0.000000
    43  H    0.000000  -0.005843   0.000003   0.000066   0.000000   0.000000
    44  H    0.000007  -0.004371   0.000475   0.000412  -0.000004   0.000000
    45  H    0.000000   0.000419   0.000000   0.000037   0.000000   0.000000
             31         32         33         34         35         36
     1  O    0.000000   0.000000   0.000000   0.000000   0.000000   0.000000
     2  C    0.000013   0.000061  -0.001041  -0.003993   0.000014  -0.000034
     3  C   -0.000001  -0.000001   0.001092   0.004658   0.000413   0.000033
     4  O    0.000000   0.000000   0.000000   0.000004   0.000000   0.000000
     5  H    0.000000   0.000000   0.000000   0.000000   0.000000   0.000000
     6  C   -0.000122   0.000369   0.011653   0.031113  -0.004708   0.002356
     7  O    0.000000   0.000000  -0.000001  -0.001495  -0.000147  -0.000674
     8  H    0.000000   0.000000   0.000000  -0.000315   0.000026   0.000361
     9  C   -0.000007  -0.000075   0.000108  -0.000422   0.000043  -0.000003
    10  O    0.000000   0.000000   0.000001   0.000000   0.000000   0.000000
    11  H    0.000000   0.000000   0.000000   0.000000   0.000000   0.000000
    12  C    0.000038   0.000248  -0.000890   0.001954   0.000339   0.000071
    13  O    0.000019   0.000027  -0.002318  -0.000596  -0.000271   0.000063
    14  C   -0.000490  -0.005048   0.038919  -0.016937   0.031500   0.004917
    15  O    0.000132  -0.000131  -0.010508  -0.048146  -0.003304   0.000257
    16  C    0.047503   0.056024  -0.114481   0.139512   0.025843  -0.015500
    17  C   -0.052519  -0.152355   0.371676   0.082401  -0.068741   0.001891
    18  O    0.000625   0.006566  -0.031453  -0.003391  -0.000231   0.000011
    19  H    0.000008   0.000035   0.001356   0.000615   0.000013   0.000000
    20  C   -0.046995   0.396804  -0.035979   0.018830  -0.007041  -0.000257
    21  O    0.001250  -0.026151  -0.004507  -0.000421   0.000027  -0.000005
    22  H    0.000020  -0.005637  -0.000137   0.000005   0.000001   0.000000
    23  C   -0.000686   0.002455   0.004096  -0.014038   0.076780   0.404250
    24  O    0.000070   0.000012   0.000040   0.000878   0.003138  -0.017873
    25  H    0.000000   0.000000   0.000000  -0.000049  -0.000165  -0.010562
    26  C    0.007606   0.038542   0.039204   0.026330   0.192708  -0.025368
    27  O   -0.044090  -0.002782  -0.003722   0.002583  -0.020167  -0.009847
    28  C    0.379879  -0.039282  -0.029899   0.005513   0.029593  -0.005260
    29  O   -0.017278  -0.005876   0.000429  -0.000201  -0.000574  -0.000213
    30  H   -0.009709   0.000235   0.000020   0.000002   0.000016   0.000002
    31  H    0.590989   0.005079   0.000904  -0.000035   0.002984  -0.000054
    32  H    0.005079   0.575161   0.006346   0.000854  -0.000019  -0.000001
    33  H    0.000904   0.006346   0.621188   0.007485   0.001346   0.000008
    34  H   -0.000035   0.000854   0.007485   0.638933   0.006047   0.000534
    35  H    0.002984  -0.000019   0.001346   0.006047   0.588437  -0.001168
    36  H   -0.000054  -0.000001   0.000008   0.000534  -0.001168   0.559681
    37  H   -0.000010  -0.000016  -0.000014   0.006450   0.005209  -0.038523
    38  H    0.000000   0.000000   0.000000   0.000000   0.000000   0.000000
    39  H    0.000000   0.000000   0.000000   0.000000   0.000000   0.000000
    40  H    0.000000   0.000000  -0.000001  -0.000015   0.000000   0.000000
    41  H    0.000000   0.000000   0.000000   0.000000   0.000000   0.000000
    42  H    0.000000   0.000000   0.000000  -0.000002   0.000000   0.000000
    43  H    0.000000   0.000000  -0.000005  -0.000024  -0.000004   0.000000
    44  H    0.000000  -0.000003  -0.000040   0.007804   0.000002   0.000001
    45  H    0.000000   0.000000   0.000001   0.000000   0.000000   0.000000
             37         38         39         40         41         42
[...]
 0.00048757,-0.00012770,-0.00122775,-0.00109652,0.00041753,0.00050705,0
 .00014464,-0.00022214,-0.00006212,0.00008838,-0.00008069,0.00000232,-0
 .00003491,-0.00007209,0.00005318,0.00002390,0.00003673,-0.00006013,-0.
 00000103,-0.00000552,-0.00001435,0.00001787,-0.00000380,0.00001561,-0.
 00000098,0.00000753,-0.00000557,0.00000036,-0.00000451,-0.00006921,-0.
 00004557,0.00003619,0.00005670,0.00005542,0.00003348,-0.00001949,-0.00
 001092,0.00000958,-0.00000713,-0.00000303,-0.00000458,0.00001691,0.000
 00883,0.00000077,-0.00001029,-0.00000981,-0.00000985,0.00000260,0.0000
 0545,0.00000956,-0.00000103,-0.00000141,-0.00000200,0.00000371,0.00000
 097,0.00000285,0.00000509,0.00000019,-0.00000452,0.00001276,-0.0000044
 8,0.00000998,0.00002800,-0.00000107,-0.00004825,0.00001010,-0.00000066
 ,0.00001338,0.00000757,0.00000403,0.00000047,0.00001963,0.00000706,-0.
 00000573,0.00033911,-0.00038160,-0.00019649,0.00014234,-0.00034629,0.0
 0004225,0.00135615,0.00037330,-0.00055202,0.00009589,0.00200390,0.0006
 0246,0.37615774,-0.00181620,0.00200680,0.00143931,0.03224525,-0.003166
 08,-0.00156923,-0.02109521,-0.03795478,-0.00452880,-0.03057646,-0.0162
 9788,0.01773097,-0.00131667,-0.00077122,-0.00046686,-0.00939353,0.0009
 8921,-0.00226029,-0.00007630,0.00081204,0.00104463,0.00003738,-0.00000
 972,-0.00001338,0.00003098,0.00003115,-0.00000100,-0.00005049,0.000011
 54,-0.00001755,0.00000158,0.00001967,0.00001253,0.00241992,0.00132177,
 -0.00083873,-0.00033205,-0.00021845,0.00021864,0.00052519,-0.00038915,
 0.00065199,0.00009863,0.00002583,-0.00026448,-0.00003853,0.00005099,-0
 .00000525,0.00001304,-0.00000652,-0.00003313,-0.00000431,0.00000347,0.
 00001651,0.00001348,-0.00000220,-0.00001383,-0.00000493,0.00000721,0.0
 0000471,0.00000250,0.00000081,-0.00000386,-0.00000152,0.00000141,-0.00
 000091,-0.00001855,0.00000844,-0.00001823,0.00006328,0.00001808,0.0001
 0265,-0.00002392,-0.00000942,-0.00000605,-0.00000747,0.00001828,0.0000
 0329,0.00000790,-0.00001414,-0.00000308,-0.00000283,0.00000668,-0.0000
 0053,-0.00000001,-0.00000222,0.00000122,0.,-0.00000006,-0.00000053,0.0
 0000098,-0.00000097,0.00000024,0.00000120,0.00000042,-0.00000062,0.000
 00109,-0.00000299,-0.00000032,0.00000248,0.00000752,-0.00001017,0.0000
 0375,-0.00000490,0.00000287,0.00000118,-0.00000276,0.00000233,0.000007
 22,0.00000918,-0.00000648,-0.00001605,0.00027814,0.00038997,-0.0002054
 2,0.00003274,-0.00001360,-0.00027039,-0.00088916,0.00023417,0.00191682
 ,-0.00482470,-0.00208538,0.02828547,0.05871931,-0.00044903,0.00127153,
 0.00139875,0.01501182,-0.00289625,0.00040186,0.00988069,-0.00513269,-0
 .04048135,0.02524142,0.01742120,-0.00940065,0.00156642,0.00059319,-0.0
 0008542,-0.03548972,-0.00322989,-0.00311082,0.00154460,0.00169183,0.00
 287764,-0.00008286,0.00034266,0.00000009,-0.00016604,-0.00011733,0.000
 03048,-0.00003031,0.00003197,0.00000419,0.00000117,0.00001290,-0.00000
 130,-0.00058286,0.00116434,-0.00038632,0.00013192,0.00043307,-0.000306
 50,-0.00148871,-0.00049982,0.00096459,0.00045949,0.00004746,-0.0000207
 2,0.00003245,0.00006101,0.00004121,0.00001745,-0.00002052,-0.00003747,
 0.00001521,0.00001300,0.00000527,-0.00002165,-0.00000874,0.00000093,-0
 .00000864,0.00000324,0.00001103,0.00000160,0.00001051,-0.00001167,-0.0
 0000155,-0.00000034,-0.00000030,-0.00002804,0.00000244,0.00000453,0.00
 009289,0.00001400,0.00015739,-0.00000543,0.00000167,-0.00001764,-0.000
 01354,0.00001468,0.00002120,0.00001174,-0.00000135,-0.00002526,-0.0000
 0035,-0.00001032,0.00001739,0.00000694,0.00000115,-0.00001169,-0.00000
 092,0.00000087,0.00000175,0.00000039,0.00000102,0.00000030,0.00000092,
 0.00000114,-0.00000165,0.00000019,-0.00000476,0.00000696,0.00003183,0.
 00000710,-0.00005196,0.00000724,-0.00000303,0.00001144,0.00000372,-0.0
 0000313,-0.00000002,0.00000873,0.00000698,-0.00000950,-0.00006398,0.00
 033949,0.00010911,-0.00004809,0.00008533,-0.00005188,-0.00040435,0.000
 21294,0.00035313,0.00098559,-0.00211864,-0.00052276,-0.01503950,-0.008
 43433,0.05412344,0.00050125,0.00004753,-0.00002929,-0.00065618,0.00080
 842,0.00026402,-0.01198645,-0.00410313,-0.00079355,0.00163984,0.000661
 33,0.00031212,0.00006474,0.00006033,0.00002897,-0.34670867,-0.05410092
 ,0.00254520,-0.01490275,0.01271098,0.00617689,-0.00029183,0.00019397,-
 0.00148727,-0.00002166,-0.00001709,-0.00000850,0.00002816,0.00003743,0
 .00001995,-0.00001183,-0.00000643,-0.00000044,-0.00007843,-0.00007588,
 0.00012518,0.00164559,-0.00065592,-0.00051010,-0.00904880,-0.00081951,
 -0.00096677,0.00132463,0.00068918,-0.00098603,0.00015929,0.00024163,0.
 00022253,0.00008642,0.00002912,-0.00008171,0.00003784,-0.00000483,-0.0
 0007784,-0.00004576,-0.00004713,0.00005029,-0.00001974,0.00002731,0.00
 004289,0.00001257,0.00000096,-0.00002717,-0.00000586,0.00000292,-0.000
 00126,-0.00001196,0.00016577,-0.00012880,0.00026910,-0.00004496,0.0007
 4625,-0.00006344,-0.00005013,-0.00010291,-0.00006881,0.00009124,0.0000
 4276,0.00004031,-0.00009003,-0.00002127,-0.00001982,0.00004350,0.00001
 280,0.00001143,-0.00001709,-0.00001275,-0.00000233,0.00000236,0.000002
 13,0.00000522,-0.00000466,0.00000264,0.00000557,0.00000277,-0.00000606
 ,0.00000454,-0.00002101,0.00001831,0.00009166,0.00003339,-0.00026290,0
 .00001695,-0.00001717,0.00001611,0.00000875,-0.00002914,0.00003346,0.0
 0003845,0.00002279,-0.00004791,-0.00002211,-0.00011440,-0.00010369,0.0
 0003071,-0.00004675,0.00000015,0.00009001,0.00014743,-0.00001675,0.000
 72779,-0.00055322,-0.00023956,0.00026531,-0.00046310,-0.00152489,0.376
 54134,0.00019464,-0.00000800,0.00001698,-0.00091456,0.00025133,0.00017
 274,-0.00790072,-0.00036800,0.00010813,0.00094535,0.00051530,-0.000240
 45,-0.00000606,-0.00001970,0.00002306,-0.05298192,-0.04646208,0.002631
 07,0.03973204,-0.01030897,-0.00713215,0.00070300,0.00103279,0.00186320
 ,-0.00004960,0.00004275,0.00000346,0.00001747,-0.00003475,-0.00000124,
 -0.00000333,0.00000227,-0.00000369,-0.00016203,-0.00013371,-0.00007210
 ,0.00107266,0.00175538,-0.00022500,-0.02723975,-0.00487845,0.00152326,
 0.00085635,0.00106196,-0.00158992,-0.00017923,0.00035805,0.00000611,0.
 00008144,-0.00004290,-0.00020234,0.00008901,-0.00000056,0.00003283,-0.
 00013423,0.00009357,0.00003428,-0.00000778,0.00002981,0.00000158,0.000
 00926,0.00001560,-0.00000208,-0.00000511,-0.00000069,-0.00000320,-0.00
 004579,-0.00012953,0.00019227,-0.00035624,-0.00014038,-0.00059211,0.00
 011996,0.00006165,0.00002094,0.00007999,-0.00006256,0.00000956,-0.0000
 1756,0.00006793,-0.00002594,0.00000689,-0.00005184,0.00001265,0.000001
 48,0.00001713,-0.00000342,0.00000032,-0.00000086,0.00000063,-0.0000015
 6,0.00000627,-0.00000017,0.00000474,0.00000024,-0.00000742,0.00002210,
 -0.00002761,0.00003081,0.00025775,-0.00002766,-0.00003646,0.00000021,0
 .00003935,0.00002706,-0.00000057,0.00001207,-0.00001734,-0.00002289,-0
 .00004417,0.00005350,0.00000933,0.00000641,-0.00001876,0.00003219,-0.0
 0004840,-0.00000472,0.00017329,0.00012374,0.00002400,0.00017957,-0.000
 16113,-0.00027712,-0.00007249,0.00003061,-0.00163073,0.04566723,0.0606
 2007,0.00056880,0.00011016,-0.00023917,-0.00122475,0.00123622,0.001205
 73,-0.03415814,-0.00750538,-0.00197087,0.00208031,0.00006103,0.0030384
 2,0.00008073,-0.00018203,0.00028776,-0.00000941,0.00278479,-0.04309129
 ,0.01353690,-0.00578954,0.00131351,0.00106727,0.00033654,0.00055790,-0
 .00007009,-0.00000584,0.00005875,0.00001597,0.00001965,0.00001897,0.00
 000321,-0.00000092,0.00000496,-0.00032871,-0.00021530,-0.00059163,-0.0
 0129104,-0.00074917,0.00065747,0.02397789,0.00762520,-0.00221083,0.000
 17960,-0.00109091,0.00190184,0.00050969,-0.00024038,-0.00025870,-0.000
 07248,0.00003716,0.00022487,-0.00008020,-0.00001084,-0.00003063,0.0001
 0564,-0.00007063,-0.00000199,0.00000933,-0.00004144,-0.00001173,-0.000
 01213,-0.00002009,0.00001395,0.00000608,-0.00000085,0.00000372,0.00013
 233,0.00009674,-0.00002385,-0.00030867,-0.00009194,-0.00012789,0.00002
 737,0.00001243,0.00006016,-0.00006343,0.00000888,-0.00002028,-0.000035
 92,-0.00002368,0.00007269,0.00000898,0.00004014,-0.00002430,-0.0000101
 7,-0.00001045,0.00001064,0.00000152,-0.00000024,-0.00000214,-0.0000019
 8,-0.00000319,-0.00000239,-0.00000666,-0.00000292,0.00000922,-0.000035
 68,0.00004349,-0.00002705,-0.00034260,-0.00001275,-0.00002859,-0.00003
 016,-0.00001930,-0.00008304,-0.00002482,-0.00002143,0.00001536,-0.0000
 5069,-0.00001310,0.00003411,0.00006656,-0.00012306,-0.00007729,0.00002
 760,-0.00002148,0.00001162,0.00014180,0.00006270,-0.00013258,0.0005363
 0,-0.00039884,-0.00007849,-0.00202932,-0.00127747,-0.00562112,-0.00353
 988,0.00260487,0.04743374,0.00007061,-0.00005952,0.00022321,0.00014901
 ,0.00032904,-0.00007905,-0.00049162,-0.00038755,-0.00010297,0.00024751
 ,0.00012066,-0.00007063,-0.00000057,-0.00000517,0.00004785,-0.00562075
 ,0.00188722,0.00111192,0.00188352,-0.00034800,-0.00124489,-0.00035060,
 -0.00030053,0.00005135,0.00052177,-0.00015338,0.00007451,0.00000458,0.
 00016732,0.00008125,-0.00000217,-0.00000681,0.00002113,-0.00011204,-0.
 00047232,-0.00083890,-0.00766772,0.00821062,0.00443987,-0.33694587,-0.
 03413146,0.06813748,-0.01942126,-0.00202494,-0.00537744,-0.00059885,-0
 .00038765,0.00519535,0.00044559,0.00021821,-0.00031119,0.00035232,-0.0
 0018955,-0.00022864,-0.00070579,0.00032774,0.00041220,0.00004750,0.000
 11706,0.00000543,0.00002616,-0.00002037,0.00000370,-0.00001278,0.00000
 377,-0.00000717,-0.00038011,-0.00009205,0.00002126,0.00013989,0.000025
 46,-0.00002034,-0.00000073,-0.00003427,-0.00001858,0.00073966,0.000017
 41,-0.00006215,0.00003944,-0.00011546,-0.00019423,-0.00002817,-0.00001
 012,-0.00002418,0.00000100,0.00000366,0.00001885,-0.00000148,0.0000013
 1,-0.00000245,0.00000782,0.00000325,0.00000579,0.00001763,0.00000841,-
 0.00003370,0.00009739,-0.00029772,0.00021613,0.00262653,0.00013598,-0.
 00087952,0.00007621,0.00019929,0.00031257,0.00007642,0.00002885,0.0000
 2333,0.00016059,-0.00001081,-0.00000319,0.00000525,-0.00000098,-0.0000
 0636,0.00009057,-0.00027216,-0.00006183,0.00064139,0.00033521,0.000897
 99,0.00004413,-0.00006408,-0.00020468,0.00058452,0.00010848,0.00041252
 ,0.00030396,-0.00016225,0.00063255,0.36295714,-0.00002761,0.00036252,-
 0.00029977,-0.00035024,-0.00065806,-0.00018310,-0.00124961,-0.00042586
 ,-0.00138953,0.00047752,-0.00002304,0.00060093,0.00014563,-0.00012212,
 0.00005778,-0.02383937,0.00025114,0.00708808,0.00136668,0.00329140,-0.
 00125565,-0.00048287,-0.00030313,-0.00011867,0.00042469,0.00004020,0.0
 0019683,-0.00022419,-0.00028708,-0.00027919,0.00000500,0.00004206,-0.0
 0002459,0.00368469,0.00129439,0.00438786,0.03288845,-0.00798385,-0.015
 22134,-0.03685396,-0.04771729,0.00982212,-0.00273580,0.00265019,0.0001
 6068,-0.00003876,0.00020393,0.00089760,0.00028569,0.00012439,0.0001057
 2,-0.00039291,0.00007547,-0.00009105,0.00084407,-0.00059023,-0.0000966
 6,0.00000341,-0.00000576,0.00007331,-0.00001660,0.00003692,-0.00005936
 ,-0.00000362,-0.00000311,0.00000301,-0.00022536,-0.00007390,-0.0000696
 3,0.00008397,-0.00000809,-0.00002363,-0.00001788,-0.00001660,-0.000012
 76,-0.00001898,0.00008278,0.00001884,0.00001548,-0.00005420,-0.0000521
 7,-0.00000474,0.00004154,0.00005099,0.00001938,-0.00001625,-0.00004968
 ,-0.00000064,0.00000090,0.00000691,-0.00000068,-0.00000740,-0.00000466
 ,-0.00000575,0.00000434,0.00000879,-0.00002369,-0.00006846,-0.00001180
 ,0.00026251,0.00056113,-0.00003134,0.00001662,-0.00001951,0.00002183,0
 .00005642,0.00000046,0.00001613,0.00005762,-0.00001465,-0.00006223,-0.
 00001201,0.00001199,0.00000773,-0.00033357,-0.00001774,-0.00013685,-0.
 00116196,0.00019075,-0.00012364,-0.00002118,-0.00013233,0.00001123,0.0
 0057200,0.00021667,0.00040447,-0.00040361,-0.00318019,0.00289415,0.027
 28930,0.05229602,-0.00007158,-0.00004345,-0.00029205,-0.00012957,0.000
 26507,-0.00012090,0.00134472,-0.00027652,0.00129699,-0.00055558,0.0000
 9354,-0.00013117,-0.00002597,-0.00003403,0.00001153,0.02097090,0.00156
 631,-0.00032684,-0.00215018,-0.00075055,0.00122278,-0.00003018,0.00010
 047,-0.00011031,0.00007616,-0.00010963,0.00009702,-0.00010159,-0.00016
 410,-0.00016599,0.00001743,0.00002358,-0.00000744,0.00300846,0.0002681
 0,0.00293723,0.01236443,-0.00589143,-0.00352490,0.07607809,0.01195515,
 -0.06099483,-0.02962916,-0.00139985,-0.00849991,-0.00803997,-0.0011212
 1,0.00255407,-0.00013684,0.00002152,-0.00057080,0.00018417,0.00012957,
 0.00032396,-0.00010655,0.00029528,-0.00025440,0.00001418,0.00003685,0.
 00007883,0.00000804,0.00006012,-0.00003282,-0.00000780,-0.00000038,-0.
 00000380,-0.00008704,0.00014758,0.00003786,0.00004331,-0.00010124,0.00
 009293,0.00002758,-0.00001612,-0.00003718,-0.00008652,-0.00005786,-0.0
 0013070,0.00011759,0.00000792,-0.00023335,-0.00000479,-0.00009564,0.00
 009302,0.00002341,0.00001993,-0.00005013,-0.00000110,0.00000242,0.0000
 0741,0.00000241,0.00000648,0.00000335,0.00001911,0.00002156,-0.0000481
 0,0.00029243,-0.00007249,-0.00000856,0.00035070,-0.00015466,-0.0014392
 1,0.00019803,0.00006733,0.00001179,0.00004141,0.00000204,0.00001729,0.
 00004830,-0.00008162,-0.00000648,-0.00002644,-0.00000223,0.00001155,-0
 .00022497,0.00003028,-0.00009053,-0.00079656,-0.00016094,-0.00009195,-
 0.00018610,-0.00005606,0.00008718,-0.00055496,0.00005054,-0.00037742,0
 .00032519,0.00268117,-0.00228853,-0.07257608,-0.00724864,0.07098387,0.
 00000307,-0.00035190,0.00019957,0.00001485,0.00262058,0.00120644,0.000
 58692,0.00015272,-0.00049474,-0.00014128,0.00039730,-0.00006350,-0.000
 00619,0.00000969,0.00006049,-0.00004731,0.00003933,0.00002945,0.000015
 42,-0.00000849,-0.00004001,0.00000509,0.00000651,0.00003462,-0.1242594
 1,-0.09048474,0.10146389,0.00730340,0.00512181,-0.00373495,0.00143345,
 0.00091620,0.00099648,0.00574333,0.01324677,-0.00851518,0.00013268,-0.
 00111802,-0.00101821,0.00001771,0.00022079,-0.00004190,-0.00005714,-0.
 00000328,-0.00030211,-0.00001206,-0.00008684,0.00017800,-0.00016795,-0
 .00024749,-0.00019609,-0.00007278,0.00048021,0.00034680,0.00027586,-0.
 00053076,-0.00023184,0.00004605,0.00004232,0.00002050,0.00000095,0.000
 03512,0.00002500,-0.00000530,-0.00000109,-0.00001005,-0.00000414,-0.00
 001938,0.00004673,0.00000575,0.00002270,-0.00004032,0.00000059,-0.0000
 0351,0.00000180,-0.00001049,0.00001671,-0.00002303,-0.00000514,0.00005
 028,-0.00003312,0.00001295,-0.00009885,-0.00000446,-0.00001859,0.00003
 459,0.00004473,0.00000011,-0.00000443,-0.00000729,-0.00000102,0.000007
 65,0.00000281,0.00000163,-0.00000360,-0.00000998,0.00003632,0.00000843
 ,0.00000490,0.00000166,0.00000098,-0.00000652,0.00000134,0.00000122,0.
 00000226,-0.00000209,0.00000835,-0.00000342,0.00000041,0.00000136,-0.0
 0000031,-0.00007980,0.00008166,-0.00009016,-0.01502724,-0.02014812,0.0
 2226136,0.00129246,-0.00034726,-0.00126111,0.00019736,0.00036428,-0.00
 016148,-0.00003832,-0.00007382,-0.00001650,0.00001501,0.00000739,0.000
 01048,-0.00001755,-0.00005353,-0.00002654,0.12282943,0.00003081,0.0006
 2898,0.00001802,0.00275994,-0.00510223,-0.00428547,-0.00099104,0.00014
 354,0.00189843,0.00034429,-0.00131883,0.00010802,-0.00007840,0.0001295
 2,-0.00022758,-0.00004527,0.00022497,0.00046999,0.00002609,-0.00001245
 ,-0.00037396,0.00002728,-0.00001869,0.00015052,-0.08811862,-0.14423261
 ,0.12219355,0.00805545,0.00574012,-0.02476771,0.00062218,0.00284025,-0
 .00111543,-0.01507694,-0.02552649,0.02265213,0.00075407,0.00258887,0.0
 0057205,0.00030201,-0.00028954,-0.00000987,0.00002372,0.00005506,-0.00
 031412,-0.00006280,-0.00004842,0.00015086,-0.00016214,-0.00034883,-0.0
 0024674,0.00015921,0.00051188,0.00032578,-0.00012993,-0.00061736,-0.00
 052598,0.00002518,0.00009167,0.00000419,0.00002256,0.00000445,0.000036
 23,-0.00000836,0.00000435,-0.00001137,-0.00003538,-0.00006895,0.000088
 52,0.00000279,0.00004415,-0.00014449,0.00000306,-0.00000254,0.00001423
 ,-0.00000871,-0.00000494,-0.00002902,0.00000007,0.00006670,-0.00002859
 ,0.00001010,-0.00011889,-0.00000824,-0.00001804,0.00003973,0.00005664,
 -0.00000097,-0.00000274,-0.00000810,0.00000145,0.00001152,0.00000541,0
 .00000843,-0.00000728,-0.00001741,0.00005661,0.00003981,0.00003225,0.0
 0001310,-0.00001651,-0.00001025,0.00000466,0.00000409,0.00000683,0.000
 00135,0.00001616,-0.00000913,0.00000629,0.00000225,0.00000294,0.000062
 78,-0.00015307,-0.00012672,0.00122812,0.00156307,-0.00037891,0.0002908
 4,0.00131754,0.00035484,0.00004483,0.00031906,-0.00021511,0.00015176,-
 0.00006066,-0.00007932,-0.00000144,-0.00001212,-0.00003098,0.00000891,
 -0.00005037,-0.00001416,0.08969012,0.16162581,0.00003022,0.00039976,0.
 00024272,-0.00078436,-0.00041250,-0.00008962,0.00022142,-0.00000310,-0
 .00006472,-0.00000384,0.00002184,0.00007892,-0.00000104,-0.00005004,-0
 .00001204,0.00002048,-0.00004554,-0.00009312,-0.00000851,-0.00002774,0
 .00005349,0.00000088,0.00001215,-0.00000632,0.09764767,0.11799857,-0.1
 6780476,0.01518061,0.00201727,-0.04597949,-0.00017776,0.00101084,0.000
 96890,0.00210978,0.00055624,-0.00032724,-0.00000433,-0.00124925,0.0012
 9716,-0.00012366,0.00010450,0.00030988,-0.00000409,0.00001532,0.000048
 76,0.00002835,0.00001166,0.00000704,0.00000561,0.00002627,0.00001281,-
 0.00002921,-0.00006008,-0.00009791,0.00006430,-0.00002774,-0.00002433,
 0.00000387,0.00000310,0.00000114,-0.00000820,-0.00000789,-0.00000941,0
 .00000458,0.00000229,0.00000536,0.00000951,0.00001443,-0.00001089,-0.0
 0000669,-0.00001477,0.00001318,0.00000199,0.00000384,-0.00000140,-0.00
 000080,0.00000561,0.00000710,-0.00000342,-0.00001138,-0.00000209,-0.00
 000040,0.00001261,0.00001093,0.00000334,-0.00000820,-0.00001261,-0.000
 00002,0.00000251,0.00000333,-0.00000115,-0.00000154,-0.00000159,-0.000
 00208,0.00000150,0.00000282,-0.00000755,-0.00000385,-0.00000529,-0.000
 00696,0.00000374,-0.00000246,-0.00000177,-0.00000142,-0.00000284,-0.00
 000065,-0.00000291,0.,-0.00000294,0.00000025,0.00000014,-0.00002376,-0
 .00031324,0.00002414,-0.00310285,-0.00337304,0.00669665,-0.00039749,-0
 .00041378,0.00060812,0.00000097,-0.00002419,0.00001455,-0.00001799,-0.
 00003247,-0.00000928,-0.00001049,0.00001222,0.00000895,0.00000191,0.00
 001094,-0.00003038,-0.11060350,-0.11616279,0.20417173\\0.00045513,-0.0
 1486129,-0.00224729,0.01638580,0.00602950,0.00028590,-0.00529162,-0.01
 141010,0.01911288,-0.00953407,0.01782336,0.02013672,0.00375868,-0.0101
 8433,-0.02846905,0.02224963,-0.02094345,0.00720788,-0.00750557,0.01699
 567,-0.02049786,0.00304641,-0.00680585,0.01915048,-0.01175488,0.035929
 50,-0.00328550,0.01007186,0.00593338,0.01778696,0.00224734,-0.03726436
 ,-0.00559682,-0.01588548,0.01636858,0.01952159,0.03170655,-0.00213746,
 0.02617618,-0.07171545,0.01817806,-0.01420575,0.02662091,-0.02315097,-
 0.02422782,0.00384082,0.01456990,-0.01962270,-0.02220474,0.06103500,0.
 02550124,0.01422000,-0.01757236,0.03745890,-0.00912240,0.01506909,-0.0
 2431045,0.00334238,-0.03146941,0.01351848,-0.00131683,-0.00756063,-0.0
 1079246,-0.00281098,-0.01912533,0.03008947,-0.00826121,-0.02364782,-0.
 00137051,-0.00604347,-0.02193146,0.00115278,-0.00193746,0.03502297,-0.
 00247381,0.02006717,-0.01704848,0.01076742,-0.01540496,0.02676878,0.02
 156168,0.04367491,0.00024877,-0.05033534,-0.01144818,0.00095880,-0.009
 12814,0.00006078,-0.00409892,-0.00326542,-0.02020406,-0.00354978,-0.00
 243392,0.01729459,-0.00007118,-0.00148099,-0.02710002,-0.00014587,-0.0
 0039105,0.01855831,-0.00223345,0.00065984,-0.01911727,-0.00217861,-0.0
 0223329,0.00293330,-0.00733624,-0.01537293,0.01742090,0.00303753,0.004
 39816,-0.00013152,0.00392236,-0.00028532,-0.01896734,-0.00235942,-0.00
 975904,0.02020069,-0.00238021,0.00082663,-0.01836337,0.00009972,0.0008
 2007,0.02222360,0.00229752,-0.00081117,-0.01945908,0.00085624,-0.00206
 061,0.01714858,0.00126306,-0.00294977,0.00605162,0.00705917,-0.0185262
 4\\\@


 Once you get people laughing, they're
 listening and you can tell them almost anything.
                                 -- Herb Gardner
 Job cpu time:  3 days 22 hours 30 minutes 33.1 seconds.
 File lengths (MBytes):  RWF=   2340 Int=      0 D2E=      0 Chk=     43 Scr=      1
 Normal termination of Gaussian 09 at Fri Feb 12 12:26:31 2016.
Gaussian '09 finished on node006 at Fri Feb 12 12:26:32 EST 2016.
