Gaussian '09 started on node011 at Mon Mar 21 23:01:53 EDT 2016.
 Entering Gaussian System, Link 0=/usr/local/gaussian/g09/g09
 Initial command:
 /usr/local/gaussian/g09/l1.exe /home/srmcgrat/thesis/gaussian/cellobiose/300K/8649ps/1/2dp/gaussian28161/Gau-28197.inp -scrdir=/home/srmcgrat/thesis/gaussian/cellobiose/300K/8649ps/1/2dp/gaussian28161/
 Entering Link 1 = /usr/local/gaussian/g09/l1.exe PID=     28199.
  
 Copyright (c) 1988,1990,1992,1993,1995,1998,2003,2009,2010,
            Gaussian, Inc.  All Rights Reserved.
  
 This is part of the Gaussian(R) 09 program.  It is based on
 the Gaussian(R) 03 system (copyright 2003, Gaussian, Inc.),
 the Gaussian(R) 98 system (copyright 1998, Gaussian, Inc.),
 the Gaussian(R) 94 system (copyright 1995, Gaussian, Inc.),
 the Gaussian 92(TM) system (copyright 1992, Gaussian, Inc.),
 the Gaussian 90(TM) system (copyright 1990, Gaussian, Inc.),
 the Gaussian 88(TM) system (copyright 1988, Gaussian, Inc.),
 the Gaussian 86(TM) system (copyright 1986, Carnegie Mellon
 University), and the Gaussian 82(TM) system (copyright 1983,
 Carnegie Mellon University). Gaussian is a federally registered
 trademark of Gaussian, Inc.
  
 This software contains proprietary and confidential information,
 including trade secrets, belonging to Gaussian, Inc.
  
 This software is provided under written license and may be
 used, copied, transmitted, or stored only in accord with that
 written license.
  
 The following legend is applicable only to US Government
 contracts under FAR:
  
                    RESTRICTED RIGHTS LEGEND
  
 Use, reproduction and disclosure by the US Government is
 subject to restrictions as set forth in subparagraphs (a)
 and (c) of the Commercial Computer Software - Restricted
 Rights clause in FAR 52.227-19.
  
 Gaussian, Inc.
 340 Quinnipiac St., Bldg. 40, Wallingford CT 06492
  
  
 ---------------------------------------------------------------
 Warning -- This program may not be used in any manner that
 competes with the business of Gaussian, Inc. or will provide
 assistance to any competitor of Gaussian, Inc.  The licensee
 of this program is prohibited from giving any competitor of
 Gaussian, Inc. access to this program.  By using this program,
 the user acknowledges that Gaussian, Inc. is engaged in the
 business of creating and licensing software in the field of
 computational chemistry and represents and warrants to the
 licensee that it is not a competitor of Gaussian, Inc. and that
 it will not use this program in any manner prohibited above.
 ---------------------------------------------------------------
  

 Cite this work as:
 Gaussian 09, Revision B.01,
 M. J. Frisch, G. W. Trucks, H. B. Schlegel, G. E. Scuseria, 
 M. A. Robb, J. R. Cheeseman, G. Scalmani, V. Barone, B. Mennucci, 
 G. A. Petersson, H. Nakatsuji, M. Caricato, X. Li, H. P. Hratchian, 
 A. F. Izmaylov, J. Bloino, G. Zheng, J. L. Sonnenberg, M. Hada, 
 M. Ehara, K. Toyota, R. Fukuda, J. Hasegawa, M. Ishida, T. Nakajima, 
 Y. Honda, O. Kitao, H. Nakai, T. Vreven, J. A. Montgomery, Jr., 
 J. E. Peralta, F. Ogliaro, M. Bearpark, J. J. Heyd, E. Brothers, 
 K. N. Kudin, V. N. Staroverov, T. Keith, R. Kobayashi, J. Normand, 
 K. Raghavachari, A. Rendell, J. C. Burant, S. S. Iyengar, J. Tomasi, 
 M. Cossi, N. Rega, J. M. Millam, M. Klene, J. E. Knox, J. B. Cross, 
 V. Bakken, C. Adamo, J. Jaramillo, R. Gomperts, R. E. Stratmann, 
 O. Yazyev, A. J. Austin, R. Cammi, C. Pomelli, J. W. Ochterski, 
 R. L. Martin, K. Morokuma, V. G. Zakrzewski, G. A. Voth, 
 P. Salvador, J. J. Dannenberg, S. Dapprich, A. D. Daniels, 
 O. Farkas, J. B. Foresman, J. V. Ortiz, J. Cioslowski, 
 and D. J. Fox, Gaussian, Inc., Wallingford CT, 2010.
 
 ******************************************
 Gaussian 09:  EM64L-G09RevB.01 12-Aug-2010
                21-Mar-2016 
 ******************************************
 -------------------------------------------------
 # freq=raman b3lyp/6-31+g(2d,p) geom=connectivity
 -------------------------------------------------
 1/10=4,30=1,38=1,57=2/1,3;
 2/12=2,17=6,18=5,40=1/2;
 3/5=1,6=6,7=112,11=2,16=1,25=1,30=1,71=2,74=-5/1,2,3;
 4//1;
 5/5=2,38=5,98=1/2;
 8/6=4,10=90,11=11/1;
 10/13=10,15=4/2;
 11/6=3,8=1,9=11,15=111,16=1/1,2,10;
 10/6=1/2;
 6/7=2,8=2,9=2,10=2,18=1,28=1/1;
 7/8=1,10=1,25=1/1,2,3,16;
 1/10=4,30=1/3;
 99//99;
 -----------------
 300 8649/8649.com
 -----------------
 Symbolic Z-matrix:
 Charge =  0 Multiplicity = 1
 O                     7.719     7.56      12.593 
 C                     8.32      8.004     13.818 
 C                     7.692     9.315     14.261 
 O                     7.981     10.305    13.263 
 H                     7.651     9.843     12.439 
 C                     8.122     9.706     15.665 
 O                     7.652     10.971    16.155 
 H                     8.046     11.176    17.05 
 C                     8.197     5.498     14.619 
 O                     7.772     4.742     13.476 
 H                     8.019     3.79      13.659 
 C                     7.88      6.968     14.839 
 O                     8.262     7.324     16.176 
 C                     7.804     8.597     16.655 
 O                     8.647     8.739     17.808 
 C                     8.108     8.465     19.109 
 C                     8.595     7.079     19.501 
 O                     8.122     6.107     18.558 
 H                     8.195     6.594     17.687 
 C                     8.236     6.684     20.924 
 O                     8.786     5.442     21.386 
 H                     8.405     5.179     22.272 
 C                     8.104     10.889    19.819 
 O                     8.341     11.593    18.591 
 H                     8.324     12.585    18.715 
 C                     8.579     9.481     20.137 
 O                     8.064     9.126     21.428 
 C                     8.472     7.831     21.893 
 O                     7.753     7.655     23.122 
 H                     8.37587   7.55144   23.84513 
 H                     8.40685   7.3318    11.96341 
 H                     7.81908   4.98034   15.4758 
 H                     9.26331   5.41519   14.65118 
 H                     6.81128   7.01961   14.83042 
 H                     9.38555   8.06898   13.74538 
 H                     6.6313    9.17529   14.2781 
 H                     9.18892   9.78119   15.63469 
 H                     6.76743   8.5754    16.9195 
 H                     8.49884   11.51237   20.59386 
 H                     7.04179   10.87476   19.94712 
 H                     9.64838   9.47239   20.1724 
 H                     7.039     8.47003   19.06296 
 H                     9.66301   7.08963   19.43667 
 H                     7.17657   6.53424   20.9149 
 H                     9.51758   7.86891   22.11713 
 

 GradGradGradGradGradGradGradGradGradGradGradGradGradGradGradGradGradGrad
 Berny optimization.
 Initialization pass.
 Trust Radius=3.00D-01 FncErr=1.00D-07 GrdErr=1.00D-07
 Number of steps in this run=      2 maximum allowed number of steps=      2.
 GradGradGradGradGradGradGradGradGradGradGradGradGradGradGradGradGradGrad

                          Input orientation:                          
 ---------------------------------------------------------------------
 Center     Atomic      Atomic             Coordinates (Angstroms)
 Number     Number       Type             X           Y           Z
 ---------------------------------------------------------------------
      1          8           0        7.719000    7.560000   12.593000
      2          6           0        8.320000    8.004000   13.818000
      3          6           0        7.692000    9.315000   14.261000
      4          8           0        7.981000   10.305000   13.263000
      5          1           0        7.651000    9.843000   12.439000
      6          6           0        8.122000    9.706000   15.665000
      7          8           0        7.652000   10.971000   16.155000
      8          1           0        8.046000   11.176000   17.050000
      9          6           0        8.197000    5.498000   14.619000
     10          8           0        7.772000    4.742000   13.476000
     11          1           0        8.019000    3.790000   13.659000
     12          6           0        7.880000    6.968000   14.839000
     13          8           0        8.262000    7.324000   16.176000
     14          6           0        7.804000    8.597000   16.655000
     15          8           0        8.647000    8.739000   17.808000
     16          6           0        8.108000    8.465000   19.109000
     17          6           0        8.595000    7.079000   19.501000
     18          8           0        8.122000    6.107000   18.558000
     19          1           0        8.195000    6.594000   17.687000
     20          6           0        8.236000    6.684000   20.924000
     21          8           0        8.786000    5.442000   21.386000
     22          1           0        8.405000    5.179000   22.272000
     23          6           0        8.104000   10.889000   19.819000
     24          8           0        8.341000   11.593000   18.591000
     25          1           0        8.324000   12.585000   18.715000
     26          6           0        8.579000    9.481000   20.137000
     27          8           0        8.064000    9.126000   21.428000
     28          6           0        8.472000    7.831000   21.893000
     29          8           0        7.753000    7.655000   23.122000
     30          1           0        8.375868    7.551444   23.845126
     31          1           0        8.406852    7.331805   11.963407
     32          1           0        7.819085    4.980335   15.475798
     33          1           0        9.263305    5.415189   14.651176
     34          1           0        6.811280    7.019606   14.830418
     35          1           0        9.385553    8.068977   13.745376
     36          1           0        6.631298    9.175290   14.278104
     37          1           0        9.188925    9.781188   15.634689
     38          1           0        6.767433    8.575402   16.919505
     39          1           0        8.498840   11.512371   20.593861
     40          1           0        7.041793   10.874756   19.947118
     41          1           0        9.648380    9.472394   20.172401
     42          1           0        7.039003    8.470030   19.062957
     43          1           0        9.663011    7.089625   19.436666
     44          1           0        7.176571    6.534241   20.914897
     45          1           0        9.517576    7.868910   22.117127
 ---------------------------------------------------------------------
                    Distance matrix (angstroms):
                    1          2          3          4          5
     1  O    0.000000
     2  C    1.434908   0.000000
     3  C    2.421359   1.519656   0.000000
     4  O    2.837705   2.391139   1.435139   0.000000
     5  H    2.289198   2.393976   1.897406   1.000660   0.000000
     6  C    3.768940   2.519408   1.519538   2.479574   3.263079
     7  O    4.932267   3.835477   2.516182   2.985877   3.883432
     8  H    5.748672   4.536792   3.371522   3.886417   4.816039
     9  C    2.930018   2.633774   3.866869   4.999264   4.891783
    10  O    2.953578   3.325344   4.640577   5.570998   5.206747
    11  H    3.929282   4.227727   5.567312   6.527135   6.185680
    12  C    2.328283   1.519650   2.424425   3.691822   3.752075
    13  O    3.631588   2.454777   2.820675   4.177426   4.547950
    14  C    4.193142   2.943888   2.501860   3.801875   4.398930
    15  O    5.426550   4.070289   3.718200   4.853137   5.571085
    16  C    6.590038   5.315275   4.939500   6.130044   6.826173
    17  C    6.979914   5.764351   5.768250   7.049590   7.642164
    18  O    6.152629   5.109346   5.379626   6.758706   7.184824
    19  H    5.206589   4.119816   4.403899   5.778330   6.196244
    20  C    8.392868   7.228049   7.184265   8.477475   9.072857
    21  O    9.107209   8.003476   8.183067   9.501575  10.035230
    22  H    9.991136   8.913920   9.043837  10.373897  10.909138
    23  C    7.965271   6.661973   5.791251   6.583109   7.467511
    24  O    7.254514   5.971842   4.935523   5.493280   6.433172
    25  H    7.943270   6.705683   5.561514   5.919489   6.881836
    26  C    7.832099   6.494488   5.944889   6.948990   7.762180
    27  O    8.979343   7.696526   7.179136   8.250100   9.027003
    28  C    9.334369   8.078283   7.813967   8.991032   9.700531
    29  O   10.529483   9.327792   9.015356  10.211482  10.905239
    30  H   11.271286  10.037489   9.768996  10.941635  11.656602
    31  H    0.960000   1.974564   3.118174   3.272641   2.665258
    32  H    3.869782   3.484503   4.503466   5.768427   5.735495
    33  H    3.349803   2.878533   4.222531   5.242289   5.205647
    34  H    2.474272   2.066461   2.523636   3.823462   3.794149
    35  H    2.089122   1.070000   2.164847   2.684261   2.804006
    36  H    2.575234   2.106022   1.070000   2.031840   2.206339
    37  H    4.043047   2.685850   2.084499   2.712632   3.547036
    38  H    4.544795   3.515152   2.910236   4.223065   4.739453
    39  H    8.957855   7.632362   6.751634   7.447646   8.367042
    40  H    8.095015   6.887753   5.931909   6.773785   7.603124
    41  H    8.051526   6.655763   6.228712   7.156340   7.995771
    42  H    6.568934   5.419199   4.919265   6.155808   6.792378
    43  H    7.129951   5.848860   5.968643   7.161142   7.784381
    44  H    8.402404   7.337137   7.229982   8.568387   9.111191
    45  H    9.697387   8.386176   8.194062   9.310810  10.052228
                    6          7          8          9         10
     6  C    0.000000
     7  O    1.435697   0.000000
     8  H    2.021114   0.999143   0.000000
     9  C    4.336704   5.710521   6.178369   0.000000
    10  O    5.436499   6.781731   7.365114   1.434786   0.000000
    11  H    6.247696   7.611272   8.127275   1.967371   1.000401
    12  C    2.870102   4.219935   4.756400   1.519799   2.612376
    13  O    2.440214   3.697722   3.955810   2.400573   3.767867
    14  C    1.520232   2.430839   2.620273   3.728746   4.996808
    15  O    2.408976   2.950298   2.621971   4.569059   5.958847
    16  C    3.660794   3.900524   3.404827   5.382482   6.760497
    17  C    4.673302   5.218489   4.805644   5.147027   6.514562
    18  O    4.617602   5.445531   5.289102   3.986506   5.273751
    19  H    3.711921   4.669047   4.628466   3.257890   4.619670
    20  C    6.066511   6.439160   5.934816   6.415695   7.710990
    21  O    7.166061   7.695398   7.226842   6.792816   8.005392
    22  H    8.014129   8.457657   7.960036   7.662469   8.829568
    23  C    4.319205   3.692685   2.784438   7.490763   8.839088
    24  O    3.488582   2.606857   1.623452   7.276438   8.568733
    25  H    4.199041   3.100029   2.198816   8.186508   9.447988
    26  C    4.500917   4.351523   3.561837   6.816050   8.214517
    27  O    5.792403   5.601634   4.834223   7.716382   9.085099
    28  C    6.513533   6.592165   5.901284   7.643925   8.993209
    29  O    7.742713   7.716550   7.025132   8.783552  10.076271
    30  H    8.462920   8.447212   7.708434   9.453572  10.759945
    31  H    4.406782   5.602052   6.386038   3.234045   3.065626
    32  H    4.739142   6.031360   6.396551   1.070000   2.014501
    33  H    4.554281   5.977025   6.357919   1.070000   2.014501
    34  H    3.103422   4.251452   4.871005   2.068865   2.818674
    35  H    2.821589   4.151293   4.729538   2.964085   3.707411
    36  H    2.104121   2.790904   3.699680   4.011246   4.647433
    37  H    1.070000   2.012091   2.292353   4.512343   5.662246
    38  H    2.164921   2.665673   2.900840   4.099559   5.249938
    39  H    5.262952   4.551232   3.588476   8.483085   9.850389
    40  H    4.568301   3.842106   3.080986   7.657209   8.945349
    41  H    4.764564   4.729784   3.901190   6.981587   8.410660
    42  H    3.774469   3.884177   3.519704   5.470162   6.756448
    43  H    4.842065   5.466129   5.000936   5.281322   6.679581
    44  H    6.206071   6.524376   6.102398   6.461687   7.674885
    45  H    6.852188   6.974977   6.227211   7.974149   9.353806
                   11         12         13         14         15
    11  H    0.000000
    12  C    3.392846   0.000000
    13  O    4.345514   1.435350   0.000000
    14  C    5.668288   2.440753   1.435177   0.000000
    15  O    6.488543   3.541143   2.194054   1.435347   0.000000
    16  C    7.180950   4.530551   3.150887   2.476279   1.434642
    17  C    6.728912   4.717816   3.350603   3.321102   2.371614
    18  O    5.420267   3.825029   2.678547   3.150021   2.786673
    19  H    4.911026   2.889672   1.679437   2.286901   2.195443
    20  C    7.823206   6.102017   4.791010   4.697931   3.755183
    21  O    7.938761   6.783268   5.564225   5.770677   4.867403
    22  H    8.732817   7.663265   6.463953   6.602622   5.714846
    23  C    9.399395   6.342304   5.099572   3.918438   2.993571
    24  O    9.236618   5.973328   4.905388   3.607282   2.975238
    25  H   10.149295   6.838947   5.841959   4.518644   3.964681
    26  C    8.640924   5.905301   4.521356   3.675106   2.445287
    27  O    9.425088   6.935830   5.556070   4.809259   3.687012
    28  C    9.183335   7.131210   5.743278   5.335693   4.188355
    29  O   10.225329   8.312412   6.972486   6.535446   5.496625
    30  H   10.864298   9.038617   7.673343   7.288219   6.158790
    31  H    3.945864   2.946007   4.215089   4.896447   6.016405
    32  H    2.181197   2.088070   2.485804   3.804078   4.500241
    33  H    2.274631   2.088070   2.640315   4.033461   4.625267
    34  H    3.641588   1.070000   2.001958   2.608211   3.897714
    35  H    4.492724   2.162141   2.779441   3.353510   4.183217
    36  H    5.595566   2.597305   3.112631   2.712800   4.088224
    37  H    6.416105   3.203191   2.681414   2.088385   2.470449
    38  H    5.924305   2.854829   2.086273   1.070000   2.085416
    39  H   10.390263   7.358852   6.092294   4.949426   3.933772
    40  H    9.523084   6.485230   5.321476   4.075190   3.422568
    41  H    8.795957   6.151773   4.744350   4.066959   2.670396
    42  H    7.215666   4.561270   3.338207   2.529743   2.057405
    43  H    6.853592   4.932794   3.556643   3.669573   2.530863
    44  H    7.803114   6.131842   4.925345   4.774449   4.083618
    45  H    9.509109   7.514282   6.096753   5.770727   4.481466
                   16         17         18         19         20
    16  C    0.000000
    17  C    1.520470   0.000000
    18  O    2.421562   1.434490   0.000000
    19  H    2.351658   1.919849   1.000569   0.000000
    20  C    2.546089   1.519814   2.438008   3.238510   0.000000
    21  O    3.844859   2.503892   2.980051   3.919054   1.434750
    22  H    4.570621   3.365196   3.838629   4.802973   2.027484
    23  C    2.525845   3.854647   4.945500   4.795908   4.349767
    24  O    3.179150   4.611812   5.490469   5.082178   5.436193
    25  H    4.144429   5.568417   6.483050   6.079926   6.301526
    26  C    1.520158   2.484825   3.753127   3.805880   2.925787
    27  O    2.411767   2.861031   4.165888   4.519211   2.499393
    28  C    2.878386   2.510438   3.770531   4.392873   1.519956
    29  O    4.109294   3.761965   4.833483   5.555206   2.450986
    30  H    4.830862   4.375232   5.486763   6.234736   3.050410
    31  H    7.241059   7.544177   6.713415   5.774838   8.985603
    32  H    5.042471   4.605289   3.295618   2.763085   5.723565
    33  H    5.523430   5.170657   4.128493   3.427404   6.481787
    34  H    4.698607   4.999952   4.055330   3.202480   6.266913
    35  H    5.527878   5.893406   5.348576   4.373714   7.400829
    36  H    5.101247   5.960638   5.473035   4.552889   7.276643
    37  H    3.869313   4.754254   4.814949   3.918933   6.203019
    38  H    2.569669   3.499048   3.257688   2.559873   4.665841
    39  H    3.412336   4.567097   5.788331   5.721235   4.846777
    40  H    2.765170   4.125438   5.082125   4.976233   4.465744
    41  H    2.125660   2.699763   4.032617   4.071201   3.214787
    42  H    1.070000   2.132598   2.647976   2.597899   2.843622
    43  H    2.101685   1.070000   2.027886   2.337099   2.100727
    44  H    2.802973   2.075526   2.575138   3.385276   1.070000
    45  H    3.375064   2.884307   4.209436   4.795898   2.114238
                   21         22         23         24         25
    21  O    0.000000
    22  H    0.999663   0.000000
    23  C    5.708802   6.221890   0.000000
    24  O    6.770883   7.395489   1.435190   0.000000
    25  H    7.640035   8.216304   2.035591   0.999864   0.000000
    26  C    4.232773   4.805799   1.519609   2.628175   3.423730
    27  O    3.754318   4.050608   2.387185   3.769799   4.403709
    28  C    2.462309   2.679782   3.713255   5.007296   5.720324
    29  O    2.996357   2.697810   4.635921   6.031878   6.637213
    30  H    3.265772   2.846764   5.236686   6.628818   7.187320
    31  H    9.617711  10.530985   8.628771   7.879537   8.554936
    32  H    6.006542   6.824304   7.338726   7.328316   8.281201
    33  H    6.751770   7.672642   7.616627   7.384999   8.294767
    34  H    7.025953   7.829745   6.444322   6.115386   6.953554
    35  H    8.101827   9.056311   6.817904   6.081932   6.798420
    36  H    8.312784   9.111462   5.983910   5.231584   5.846145
    37  H    7.215849   8.114713   4.462372   3.569511   4.254147
    38  H    5.817422   6.547242   3.942869   3.791557   4.660856
    39  H    6.128568   6.552598   1.070000   2.010688   2.170535
    40  H    5.884512   6.301194   1.070000   2.010688   2.467205
    41  H    4.296579   4.938374   2.125270   2.950770   3.683248
    42  H    4.197320   4.795288   2.749042   3.416267   4.324959
    43  H    2.698837   3.643103   4.124554   4.768988   5.702008
    44  H    2.001297   2.277596   4.585307   5.687481   6.539711
    45  H    2.638114   2.915035   4.049757   5.261820   5.936379
                   26         27         28         29         30
    26  C    0.000000
    27  O    1.434549   0.000000
    28  C    2.411946   1.435170   0.000000
    29  O    3.595383   2.264994   1.434705   0.000000
    30  H    4.185050   2.901549   1.974383   0.960000   0.000000
    31  H    8.453182   9.639253   9.942346  11.182404  11.883789
    32  H    6.523822   7.257770   7.052168   8.100778   8.773042
    33  H    6.862460   7.818811   7.675046   8.891155   9.480499
    34  H    6.110900   7.038060   7.300439   8.369043   9.164919
    35  H    6.595240   7.866798   8.202133   9.526682  10.163279
    36  H    6.181720   7.292193   7.948707   9.043451   9.859428
    37  H    4.553342   5.937775   6.594215   7.914694   8.546584
    38  H    3.801862   4.723428   5.309928   6.347396   7.183299
    39  H    2.083655   2.565081   3.903969   4.671945   5.125894
    40  H    2.083655   2.509196   3.885409   4.577392   5.293262
    41  H    1.070000   2.051043   2.653018   3.949116   4.335694
    42  H    2.132421   2.659764   3.235890   4.201178   5.049767
    43  H    2.717393   3.266354   2.828731   4.189210   4.615684
    44  H    3.354895   2.787116   2.077596   2.541589   3.325546
    45  H    2.720416   2.041582   1.070000   2.041876   2.095295
                   31         32         33         34         35
    31  H    0.000000
    32  H    4.267525   0.000000
    33  H    3.410429   1.718974   0.000000
    34  H    3.295917   2.364490   2.935764   0.000000
    35  H    2.162566   3.871420   2.806779   2.984188   0.000000
    36  H    3.450920   4.521389   4.604890   2.232581   3.015568
    37  H    4.482123   4.994988   4.476023   3.731807   2.557310
    38  H    5.366296   4.014320   4.621866   2.605131   4.145613
    39  H    9.590116   8.326112   8.548424   7.500005   7.716539
    40  H    8.840562   7.439159   7.923951   6.410611   7.199112
    41  H    8.573860   6.751517   6.862442   6.527027   6.583714
    42  H    7.319165   5.064999   5.808906   4.479952   5.826132
    43  H    7.581964   4.851561   5.085707   5.418006   5.781599
    44  H    9.070770   5.693088   6.696338   6.114728   7.657483
    45  H   10.228403   7.438817   7.862941   7.819302   8.375182
                   36         37         38         39         40
    36  H    0.000000
    37  H    2.957852   0.000000
    38  H    2.712084   2.994711   0.000000
    39  H    6.988451   5.297792   5.012430   0.000000
    40  H    5.932488   4.939950   3.811659   1.716920   0.000000
    41  H    6.628257   4.571354   4.436866   2.379197   2.968445
    42  H    4.853704   4.253742   2.163156   3.705486   2.562120
    43  H    6.336564   4.682339   4.114366   4.717529   4.632339
    44  H    7.163763   6.517118   4.505208   5.160740   4.449139
    45  H    8.455030   6.766596   5.922643   4.078354   4.457976
                   41         42         43         44         45
    41  H    0.000000
    42  H    3.007398   0.000000
    43  H    2.493813   2.988410   0.000000
    44  H    3.910739   2.682515   2.945506   0.000000
    45  H    2.523932   3.979023   2.795230   2.950763   0.000000
 Stoichiometry    C12H22O11
 Framework group  C1[X(C12H22O11)]
 Deg. of freedom   129
 Full point group                 C1      NOp   1
 Largest Abelian subgroup         C1      NOp   1
 Largest concise Abelian subgroup C1      NOp   1
                         Standard orientation:                         
 ---------------------------------------------------------------------
 Center     Atomic      Atomic             Coordinates (Angstroms)
 Number     Number       Type             X           Y           Z
 ---------------------------------------------------------------------
      1          8           0        4.982594   -0.455992   -0.199306
      2          6           0        3.718202   -0.063554    0.354108
      3          6           0        3.266755    1.251422   -0.259395
      4          8           0        4.220516    2.260702    0.102987
      5          1           0        5.072337    1.831446   -0.199438
      6          6           0        1.833222    1.590621    0.113332
      7          8           0        1.328788    2.853913   -0.345866
      8          1           0        0.410639    3.022590    0.010274
      9          6           0        2.997980   -2.586719    0.126757
     10          8           0        4.181424   -3.298118   -0.263089
     11          1           0        4.015142   -4.261398   -0.050382
     12          6           0        2.749916   -1.115243   -0.161363
     13          8           0        1.386563   -0.807795    0.165705
     14          6           0        0.892313    0.463467   -0.280774
     15          8           0       -0.302654    0.549434    0.509722
     16          6           0       -1.568298    0.254020   -0.097793
     17          6           0       -1.941744   -1.155482    0.333100
     18          8           0       -0.949381   -2.087008   -0.119932
     19          1           0       -0.097481   -1.577899    0.007400
     20          6           0       -3.334085   -1.580246   -0.103706
     21          8           0       -3.784619   -2.849585    0.390564
     22          1           0       -4.643638   -3.126721   -0.039097
     23          6           0       -2.348382    2.656242   -0.071508
     24          8           0       -1.154114    3.387668    0.242355
     25          1           0       -1.306331    4.375872    0.245717
     26          6           0       -2.646731    1.227174    0.350351
     27          8           0       -3.901132    0.850437   -0.234867
     28          6           0       -4.346438   -0.467994    0.116070
     29          8           0       -5.534631   -0.658448   -0.665149
     30          1           0       -6.282826   -0.799616   -0.080448
     31          1           0        5.585661   -0.685425    0.511518
     32          1           0        2.175471   -3.117583   -0.305171
     33          1           0        2.918256   -2.700045    1.187748
     34          1           0        2.807115   -1.033695   -1.226717
     35          1           0        3.738801   -0.026237    1.423259
     36          1           0        3.303564    1.140859   -1.323031
     37          1           0        1.811208    1.636912    1.182103
     38          1           0        0.677491    0.463286   -1.328988
     39          1           0       -3.158933    3.246321    0.302275
     40          1           0       -2.426041    2.667963   -1.138622
     41          1           0       -2.732004    1.187818    1.416221
     42          1           0       -1.472311    0.290092   -1.162869
     43          1           0       -1.927938   -1.172776    1.402871
     44          1           0       -3.270874   -1.700148   -1.165086
     45          1           0       -4.620401   -0.465521    1.150399
 ---------------------------------------------------------------------
 Rotational constants (GHZ):      0.4004009      0.1467432      0.1095776
 Standard basis: 6-31+G(2d,p) (6D, 7F)
 There are   685 symmetry adapted basis functions of A   symmetry.
 Integral buffers will be    131072 words long.
 Raffenetti 2 integral format.
 Two-electron integral symmetry is turned on.
   685 basis functions,  1028 primitive gaussians,   685 cartesian basis functions
    91 alpha electrons       91 beta electrons
       nuclear repulsion energy      2284.6246590616 Hartrees.
 NAtoms=   45 NActive=   45 NUniq=   45 SFac= 1.00D+00 NAtFMM=   50 NAOKFM=F Big=F
 One-electron integrals computed using PRISM.
 NBasis=   685 RedAO= T  NBF=   685
 NBsUse=   685 1.00D-06 NBFU=   685
 Harris functional with IExCor=  402 diagonalized for initial guess.
 ExpMin= 4.38D-02 ExpMax= 5.48D+03 ExpMxC= 8.25D+02 IAcc=2 IRadAn=         0 AccDes= 0.00D+00
 HarFok:  IExCor=  402 AccDes= 0.00D+00 IRadAn=         0 IDoV= 1
 ScaDFX=  1.000000  1.000000  1.000000  1.000000
 FoFCou: FMM=F IPFlag=           0 FMFlag=      100000 FMFlg1=           0
         NFxFlg=           0 DoJE=T BraDBF=F KetDBF=T FulRan=T
         Omega=  0.000000  0.000000  1.000000  0.000000  0.000000 ICntrl=     500 IOpCl=  0
         NMat0=    1 NMatS0=    1 NMatT0=    0 NMatD0=    1 NMtDS0=    0 NMtDT0=    0
         I1Cent=           4 NGrid=           0.
 Petite list used in FoFCou.
 Initial guess orbital symmetries:
       Occupied  (A) (A) (A) (A) (A) (A) (A) (A) (A) (A) (A) (A)
                 (A) (A) (A) (A) (A) (A) (A) (A) (A) (A) (A) (A)
                 (A) (A) (A) (A) (A) (A) (A) (A) (A) (A) (A) (A)
                 (A) (A) (A) (A) (A) (A) (A) (A) (A) (A) (A) (A)
                 (A) (A) (A) (A) (A) (A) (A) (A) (A) (A) (A) (A)
                 (A) (A) (A) (A) (A) (A) (A) (A) (A) (A) (A) (A)
                 (A) (A) (A) (A) (A) (A) (A) (A) (A) (A) (A) (A)
                 (A) (A) (A) (A) (A) (A) (A)
       Virtual   (A) (A) (A) (A) (A) (A) (A) (A) (A) (A) (A) (A)
                 (A) (A) (A) (A) (A) (A) (A) (A) (A) (A) (A) (A)
                 (A) (A) (A) (A) (A) (A) (A) (A) (A) (A) (A) (A)
                 (A) (A) (A) (A) (A) (A) (A) (A) (A) (A) (A) (A)
                 (A) (A) (A) (A) (A) (A) (A) (A) (A) (A) (A) (A)
                 (A) (A) (A) (A) (A) (A) (A) (A) (A) (A) (A) (A)
                 (A) (A) (A) (A) (A) (A) (A) (A) (A) (A) (A) (A)
                 (A) (A) (A) (A) (A) (A) (A) (A) (A) (A) (A) (A)
                 (A) (A) (A) (A) (A) (A) (A) (A) (A) (A) (A) (A)
                 (A) (A) (A) (A) (A) (A) (A) (A) (A) (A) (A) (A)
                 (A) (A) (A) (A) (A) (A) (A) (A) (A) (A) (A) (A)
                 (A) (A) (A) (A) (A) (A) (A) (A) (A) (A) (A) (A)
                 (A) (A) (A) (A) (A) (A) (A) (A) (A) (A) (A) (A)
                 (A) (A) (A) (A) (A) (A) (A) (A) (A) (A) (A) (A)
                 (A) (A) (A) (A) (A) (A) (A) (A) (A) (A) (A) (A)
                 (A) (A) (A) (A) (A) (A) (A) (A) (A) (A) (A) (A)
                 (A) (A) (A) (A) (A) (A) (A) (A) (A) (A) (A) (A)
                 (A) (A) (A) (A) (A) (A) (A) (A) (A) (A) (A) (A)
                 (A) (A) (A) (A) (A) (A) (A) (A) (A) (A) (A) (A)
                 (A) (A) (A) (A) (A) (A) (A) (A) (A) (A) (A) (A)
                 (A) (A) (A) (A) (A) (A) (A) (A) (A) (A) (A) (A)
                 (A) (A) (A) (A) (A) (A) (A) (A) (A) (A) (A) (A)
                 (A) (A) (A) (A) (A) (A) (A) (A) (A) (A) (A) (A)
                 (A) (A) (A) (A) (A) (A) (A) (A) (A) (A) (A) (A)
                 (A) (A) (A) (A) (A) (A) (A) (A) (A) (A) (A) (A)
                 (A) (A) (A) (A) (A) (A) (A) (A) (A) (A) (A) (A)
                 (A) (A) (A) (A) (A) (A) (A) (A) (A) (A) (A) (A)
                 (A) (A) (A) (A) (A) (A) (A) (A) (A) (A) (A) (A)
                 (A) (A) (A) (A) (A) (A) (A) (A) (A) (A) (A) (A)
                 (A) (A) (A) (A) (A) (A) (A) (A) (A) (A) (A) (A)
                 (A) (A) (A) (A) (A) (A) (A) (A) (A) (A) (A) (A)
                 (A) (A) (A) (A) (A) (A) (A) (A) (A) (A) (A) (A)
                 (A) (A) (A) (A) (A) (A) (A) (A) (A) (A) (A) (A)
                 (A) (A) (A) (A) (A) (A) (A) (A) (A) (A) (A) (A)
                 (A) (A) (A) (A) (A) (A) (A) (A) (A) (A) (A) (A)
                 (A) (A) (A) (A) (A) (A) (A) (A) (A) (A) (A) (A)
                 (A) (A) (A) (A) (A) (A) (A) (A) (A) (A) (A) (A)
                 (A) (A) (A) (A) (A) (A) (A) (A) (A) (A) (A) (A)
                 (A) (A) (A) (A) (A) (A) (A) (A) (A) (A) (A) (A)
                 (A) (A) (A) (A) (A) (A) (A) (A) (A) (A) (A) (A)
                 (A) (A) (A) (A) (A) (A) (A) (A) (A) (A) (A) (A)
                 (A) (A) (A) (A) (A) (A) (A) (A) (A) (A) (A) (A)
                 (A) (A) (A) (A) (A) (A) (A) (A) (A) (A) (A) (A)
                 (A) (A) (A) (A) (A) (A) (A) (A) (A) (A) (A) (A)
                 (A) (A) (A) (A) (A) (A) (A) (A) (A) (A) (A) (A)
                 (A) (A) (A) (A) (A) (A) (A) (A) (A) (A) (A) (A)
                 (A) (A) (A) (A) (A) (A) (A) (A) (A) (A) (A) (A)
                 (A) (A) (A) (A) (A) (A) (A) (A) (A) (A) (A) (A)
                 (A) (A) (A) (A) (A) (A) (A) (A) (A) (A) (A) (A)
                 (A) (A) (A) (A) (A) (A)
 The electronic state of the initial guess is 1-A.
 Requested convergence on RMS density matrix=1.00D-08 within 128 cycles.
 Requested convergence on MAX density matrix=1.00D-06.
 Requested convergence on             energy=1.00D-06.
 No special actions if energy rises.
 SCF Done:  E(RB3LYP) =  -1297.97656250     A.U. after   13 cycles
             Convg  =    0.4271D-08             -V/T =  2.0064
 Range of M.O.s used for correlation:     1   685
 NBasis=   685 NAE=    91 NBE=    91 NFC=     0 NFV=     0
 NROrb=    685 NOA=    91 NOB=    91 NVA=   594 NVB=   594

 **** Warning!!: The largest alpha MO coefficient is  0.68749020D+02

          Differentiating once with respect to electric field.
                with respect to dipole field.
          Electric field/nuclear overlap derivatives assumed to be zero.
          There are     3 degrees of freedom in the 1st order CPHF.  IDoFFX=0.
      3 vectors produced by pass  0 Test12= 1.80D-12 3.33D-08 XBig12= 1.23D+02 1.18D+00.
 AX will form     3 AO Fock derivatives at one time.
      3 vectors produced by pass  1 Test12= 1.80D-12 3.33D-08 XBig12= 2.27D+01 3.84D-01.
      3 vectors produced by pass  2 Test12= 1.80D-12 3.33D-08 XBig12= 9.86D+00 2.31D-01.
      3 vectors produced by pass  3 Test12= 1.80D-12 3.33D-08 XBig12= 1.05D+00 9.04D-02.
      3 vectors produced by pass  4 Test12= 1.80D-12 3.33D-08 XBig12= 3.07D-01 4.78D-02.
      3 vectors produced by pass  5 Test12= 1.80D-12 3.33D-08 XBig12= 5.78D-02 1.93D-02.
      3 vectors produced by pass  6 Test12= 1.80D-12 3.33D-08 XBig12= 1.95D-02 1.65D-02.
      3 vectors produced by pass  7 Test12= 1.80D-12 3.33D-08 XBig12= 2.75D-03 7.40D-03.
      3 vectors produced by pass  8 Test12= 1.80D-12 3.33D-08 XBig12= 5.14D-04 2.47D-03.
      3 vectors produced by pass  9 Test12= 1.80D-12 3.33D-08 XBig12= 1.35D-04 1.52D-03.
      3 vectors produced by pass 10 Test12= 1.80D-12 3.33D-08 XBig12= 3.08D-05 5.08D-04.
      3 vectors produced by pass 11 Test12= 1.80D-12 3.33D-08 XBig12= 7.26D-06 4.35D-04.
      3 vectors produced by pass 12 Test12= 1.80D-12 3.33D-08 XBig12= 9.62D-07 1.26D-04.
      3 vectors produced by pass 13 Test12= 1.80D-12 3.33D-08 XBig12= 3.15D-07 3.99D-05.
      3 vectors produced by pass 14 Test12= 1.80D-12 3.33D-08 XBig12= 6.12D-08 2.22D-05.
      3 vectors produced by pass 15 Test12= 1.80D-12 3.33D-08 XBig12= 1.60D-08 9.27D-06.
      3 vectors produced by pass 16 Test12= 1.80D-12 3.33D-08 XBig12= 2.61D-09 5.37D-06.
      3 vectors produced by pass 17 Test12= 1.80D-12 3.33D-08 XBig12= 1.90D-10 1.34D-06.
      3 vectors produced by pass 18 Test12= 1.80D-12 3.33D-08 XBig12= 4.35D-11 3.96D-07.
      3 vectors produced by pass 19 Test12= 1.80D-12 3.33D-08 XBig12= 1.90D-11 4.22D-07.
      2 vectors produced by pass 20 Test12= 1.80D-12 3.33D-08 XBig12= 6.85D-12 1.44D-07.
      2 vectors produced by pass 21 Test12= 1.80D-12 3.33D-08 XBig12= 1.71D-12 1.01D-07.
      1 vectors produced by pass 22 Test12= 1.80D-12 3.33D-08 XBig12= 3.53D-13 4.44D-08.
 Inverted reduced A of dimension    65 with in-core refinement.
 End of Minotr Frequency-dependent properties file   721 does not exist.
 End of Minotr Frequency-dependent properties file   722 does not exist.
 Symmetrizing basis deriv contribution to polar:
 IMax=3 JMax=2 DiffMx= 0.00D+00
 G2DrvN: will do    16 centers at a time, making    3 passes doing MaxLOS=2.
 Calling FoFCou, ICntrl=  3107 FMM=F I1Cent=   0 AccDes= 0.00D+00.
 Calling FoFCou, ICntrl=  3107 FMM=F I1Cent=   0 AccDes= 0.00D+00.
 Calling FoFCou, ICntrl=  3107 FMM=F I1Cent=   0 AccDes= 0.00D+00.
 FoFDir/FoFCou used for L=0 through L=2.
 End of G2Drv Frequency-dependent properties file   721 does not exist.
 End of G2Drv Frequency-dependent properties file   722 does not exist.
          IDoAtm=111111111111111111111111111111111111111111111
          Differentiating once with respect to electric field.
                with respect to dipole field.
          Differentiating once with respect to nuclear coordinates.
          There are   138 degrees of freedom in the 1st order CPHF.  IDoFFX=5.
 Will reuse    3 saved solutions.
    135 vectors produced by pass  0 Test12= 5.41D-14 1.00D-09 XBig12= 1.41D-01 7.20D-02.
 AX will form    45 AO Fock derivatives at one time.
    135 vectors produced by pass  1 Test12= 5.41D-14 1.00D-09 XBig12= 1.56D-02 1.39D-02.
    132 vectors produced by pass  2 Test12= 5.41D-14 1.00D-09 XBig12= 1.50D-04 1.70D-03.
    132 vectors produced by pass  3 Test12= 5.41D-14 1.00D-09 XBig12= 7.53D-07 6.90D-05.
    132 vectors produced by pass  4 Test12= 5.41D-14 1.00D-09 XBig12= 1.81D-09 3.44D-06.
    132 vectors produced by pass  5 Test12= 5.41D-14 1.00D-09 XBig12= 4.29D-12 1.49D-07.
     79 vectors produced by pass  6 Test12= 5.41D-14 1.00D-09 XBig12= 1.83D-13 2.28D-08.
      1 vectors produced by pass  7 Test12= 5.41D-14 1.00D-09 XBig12= 3.40D-16 1.26D-09.
 Inverted reduced A of dimension   878 with in-core refinement.
 Isotropic polarizability for W=    0.000000      192.58 Bohr**3.
 End of Minotr Frequency-dependent properties file   721 does not exist.
 End of Minotr Frequency-dependent properties file   722 does not exist.

 **********************************************************************

            Population analysis using the SCF density.

 **********************************************************************

 Orbital symmetries:
       Occupied  (A) (A) (A) (A) (A) (A) (A) (A) (A) (A) (A) (A)
                 (A) (A) (A) (A) (A) (A) (A) (A) (A) (A) (A) (A)
                 (A) (A) (A) (A) (A) (A) (A) (A) (A) (A) (A) (A)
                 (A) (A) (A) (A) (A) (A) (A) (A) (A) (A) (A) (A)
                 (A) (A) (A) (A) (A) (A) (A) (A) (A) (A) (A) (A)
                 (A) (A) (A) (A) (A) (A) (A) (A) (A) (A) (A) (A)
                 (A) (A) (A) (A) (A) (A) (A) (A) (A) (A) (A) (A)
                 (A) (A) (A) (A) (A) (A) (A)
       Virtual   (A) (A) (A) (A) (A) (A) (A) (A) (A) (A) (A) (A)
                 (A) (A) (A) (A) (A) (A) (A) (A) (A) (A) (A) (A)
                 (A) (A) (A) (A) (A) (A) (A) (A) (A) (A) (A) (A)
                 (A) (A) (A) (A) (A) (A) (A) (A) (A) (A) (A) (A)
                 (A) (A) (A) (A) (A) (A) (A) (A) (A) (A) (A) (A)
                 (A) (A) (A) (A) (A) (A) (A) (A) (A) (A) (A) (A)
                 (A) (A) (A) (A) (A) (A) (A) (A) (A) (A) (A) (A)
                 (A) (A) (A) (A) (A) (A) (A) (A) (A) (A) (A) (A)
                 (A) (A) (A) (A) (A) (A) (A) (A) (A) (A) (A) (A)
                 (A) (A) (A) (A) (A) (A) (A) (A) (A) (A) (A) (A)
                 (A) (A) (A) (A) (A) (A) (A) (A) (A) (A) (A) (A)
                 (A) (A) (A) (A) (A) (A) (A) (A) (A) (A) (A) (A)
                 (A) (A) (A) (A) (A) (A) (A) (A) (A) (A) (A) (A)
                 (A) (A) (A) (A) (A) (A) (A) (A) (A) (A) (A) (A)
                 (A) (A) (A) (A) (A) (A) (A) (A) (A) (A) (A) (A)
                 (A) (A) (A) (A) (A) (A) (A) (A) (A) (A) (A) (A)
                 (A) (A) (A) (A) (A) (A) (A) (A) (A) (A) (A) (A)
                 (A) (A) (A) (A) (A) (A) (A) (A) (A) (A) (A) (A)
                 (A) (A) (A) (A) (A) (A) (A) (A) (A) (A) (A) (A)
                 (A) (A) (A) (A) (A) (A) (A) (A) (A) (A) (A) (A)
                 (A) (A) (A) (A) (A) (A) (A) (A) (A) (A) (A) (A)
                 (A) (A) (A) (A) (A) (A) (A) (A) (A) (A) (A) (A)
                 (A) (A) (A) (A) (A) (A) (A) (A) (A) (A) (A) (A)
                 (A) (A) (A) (A) (A) (A) (A) (A) (A) (A) (A) (A)
                 (A) (A) (A) (A) (A) (A) (A) (A) (A) (A) (A) (A)
                 (A) (A) (A) (A) (A) (A) (A) (A) (A) (A) (A) (A)
                 (A) (A) (A) (A) (A) (A) (A) (A) (A) (A) (A) (A)
                 (A) (A) (A) (A) (A) (A) (A) (A) (A) (A) (A) (A)
                 (A) (A) (A) (A) (A) (A) (A) (A) (A) (A) (A) (A)
                 (A) (A) (A) (A) (A) (A) (A) (A) (A) (A) (A) (A)
                 (A) (A) (A) (A) (A) (A) (A) (A) (A) (A) (A) (A)
                 (A) (A) (A) (A) (A) (A) (A) (A) (A) (A) (A) (A)
                 (A) (A) (A) (A) (A) (A) (A) (A) (A) (A) (A) (A)
                 (A) (A) (A) (A) (A) (A) (A) (A) (A) (A) (A) (A)
                 (A) (A) (A) (A) (A) (A) (A) (A) (A) (A) (A) (A)
                 (A) (A) (A) (A) (A) (A) (A) (A) (A) (A) (A) (A)
                 (A) (A) (A) (A) (A) (A) (A) (A) (A) (A) (A) (A)
                 (A) (A) (A) (A) (A) (A) (A) (A) (A) (A) (A) (A)
                 (A) (A) (A) (A) (A) (A) (A) (A) (A) (A) (A) (A)
                 (A) (A) (A) (A) (A) (A) (A) (A) (A) (A) (A) (A)
                 (A) (A) (A) (A) (A) (A) (A) (A) (A) (A) (A) (A)
                 (A) (A) (A) (A) (A) (A) (A) (A) (A) (A) (A) (A)
                 (A) (A) (A) (A) (A) (A) (A) (A) (A) (A) (A) (A)
                 (A) (A) (A) (A) (A) (A) (A) (A) (A) (A) (A) (A)
                 (A) (A) (A) (A) (A) (A) (A) (A) (A) (A) (A) (A)
                 (A) (A) (A) (A) (A) (A) (A) (A) (A) (A) (A) (A)
                 (A) (A) (A) (A) (A) (A) (A) (A) (A) (A) (A) (A)
                 (A) (A) (A) (A) (A) (A) (A) (A) (A) (A) (A) (A)
                 (A) (A) (A) (A) (A) (A) (A) (A) (A) (A) (A) (A)
                 (A) (A) (A) (A) (A) (A)
 The electronic state is 1-A.
 Alpha  occ. eigenvalues --  -19.19344 -19.18441 -19.18296 -19.17981 -19.17938
 Alpha  occ. eigenvalues --  -19.17342 -19.16346 -19.16172 -19.15119 -19.13125
 Alpha  occ. eigenvalues --  -19.12968 -10.30858 -10.30615 -10.26636 -10.25769
 Alpha  occ. eigenvalues --  -10.25625 -10.25424 -10.25339 -10.24671 -10.24381
 Alpha  occ. eigenvalues --  -10.24336 -10.23980 -10.23932  -1.10456  -1.09101
 Alpha  occ. eigenvalues --   -1.05991  -1.05716  -1.04021  -1.03429  -1.02668
 Alpha  occ. eigenvalues --   -1.02497  -1.02004  -1.00397  -0.99730  -0.82410
 Alpha  occ. eigenvalues --   -0.80558  -0.79556  -0.78318  -0.72290  -0.70152
 Alpha  occ. eigenvalues --   -0.67433  -0.64899  -0.63571  -0.62519  -0.61147
 Alpha  occ. eigenvalues --   -0.60163  -0.56446  -0.56202  -0.55615  -0.54911
 Alpha  occ. eigenvalues --   -0.53934  -0.53683  -0.52686  -0.51886  -0.50933
 Alpha  occ. eigenvalues --   -0.50694  -0.50170  -0.49710  -0.48879  -0.47120
 Alpha  occ. eigenvalues --   -0.46205  -0.45402  -0.44293  -0.43945  -0.43191
 Alpha  occ. eigenvalues --   -0.42712  -0.41983  -0.41214  -0.40410  -0.39303
 Alpha  occ. eigenvalues --   -0.38633  -0.37772  -0.37577  -0.36764  -0.36075
 Alpha  occ. eigenvalues --   -0.35516  -0.34616  -0.34282  -0.33902  -0.33159
 Alpha  occ. eigenvalues --   -0.32481  -0.31550  -0.31058  -0.30502  -0.29726
 Alpha  occ. eigenvalues --   -0.29529  -0.28428  -0.28078  -0.27021  -0.26742
 Alpha  occ. eigenvalues --   -0.26156
 Alpha virt. eigenvalues --   -0.02443  -0.01777  -0.01749  -0.00023   0.00261
 Alpha virt. eigenvalues --    0.01001   0.02027   0.02148   0.02778   0.03273
 Alpha virt. eigenvalues --    0.03835   0.04336   0.04795   0.05358   0.05637
 Alpha virt. eigenvalues --    0.06136   0.06723   0.07390   0.07686   0.08053
 Alpha virt. eigenvalues --    0.08567   0.08735   0.09226   0.09638   0.09876
 Alpha virt. eigenvalues --    0.10443   0.10777   0.11203   0.11898   0.12087
 Alpha virt. eigenvalues --    0.12607   0.12896   0.13123   0.13330   0.13782
 Alpha virt. eigenvalues --    0.14039   0.14273   0.14301   0.14820   0.15206
 Alpha virt. eigenvalues --    0.15743   0.16297   0.16682   0.16889   0.17208
 Alpha virt. eigenvalues --    0.17351   0.17554   0.17657   0.17941   0.18769
 Alpha virt. eigenvalues --    0.19014   0.19204   0.19464   0.19703   0.19947
 Alpha virt. eigenvalues --    0.20558   0.20702   0.20917   0.21386   0.21733
 Alpha virt. eigenvalues --    0.21979   0.22345   0.22647   0.22784   0.23442
 Alpha virt. eigenvalues --    0.23725   0.24165   0.24303   0.24593   0.24801
 Alpha virt. eigenvalues --    0.24905   0.25107   0.25303   0.25631   0.25961
 Alpha virt. eigenvalues --    0.26164   0.26302   0.26626   0.26868   0.27435
 Alpha virt. eigenvalues --    0.27547   0.27839   0.28236   0.28648   0.28658
 Alpha virt. eigenvalues --    0.28967   0.29324   0.29837   0.30233   0.30652
 Alpha virt. eigenvalues --    0.31239   0.31253   0.31604   0.32183   0.32364
 Alpha virt. eigenvalues --    0.32845   0.33087   0.33318   0.33426   0.33691
 Alpha virt. eigenvalues --    0.34073   0.34471   0.35010   0.35232   0.35692
 Alpha virt. eigenvalues --    0.35918   0.36355   0.36705   0.37165   0.37693
 Alpha virt. eigenvalues --    0.37872   0.38173   0.38575   0.38776   0.39104
 Alpha virt. eigenvalues --    0.39325   0.39894   0.40016   0.40823   0.41068
 Alpha virt. eigenvalues --    0.41456   0.42403   0.42619   0.42959   0.43822
 Alpha virt. eigenvalues --    0.44599   0.44935   0.45078   0.46097   0.46705
 Alpha virt. eigenvalues --    0.46818   0.47478   0.47948   0.48970   0.49847
 Alpha virt. eigenvalues --    0.50039   0.50873   0.53807   0.57905   0.59298
 Alpha virt. eigenvalues --    0.59517   0.60123   0.61005   0.62344   0.62364
 Alpha virt. eigenvalues --    0.62885   0.64045   0.64639   0.66209   0.66837
 Alpha virt. eigenvalues --    0.67390   0.68216   0.68573   0.69928   0.70153
 Alpha virt. eigenvalues --    0.70879   0.72390   0.73116   0.73899   0.74348
 Alpha virt. eigenvalues --    0.74854   0.75873   0.76494   0.77160   0.78408
 Alpha virt. eigenvalues --    0.78939   0.79146   0.80230   0.81116   0.82645
 Alpha virt. eigenvalues --    0.82766   0.83263   0.83622   0.85015   0.86440
 Alpha virt. eigenvalues --    0.87367   0.87968   0.88281   0.88885   0.89788
 Alpha virt. eigenvalues --    0.90065   0.90577   0.91235   0.91566   0.91956
 Alpha virt. eigenvalues --    0.92540   0.93301   0.93516   0.93824   0.94196
 Alpha virt. eigenvalues --    0.94443   0.94777   0.95517   0.95994   0.96405
 Alpha virt. eigenvalues --    0.96651   0.97147   0.97699   0.98045   0.99177
 Alpha virt. eigenvalues --    0.99248   0.99745   1.00979   1.01499   1.02454
 Alpha virt. eigenvalues --    1.03506   1.04250   1.04745   1.05088   1.05290
 Alpha virt. eigenvalues --    1.06781   1.07023   1.07705   1.08107   1.08418
 Alpha virt. eigenvalues --    1.08633   1.09366   1.10081   1.10916   1.11098
 Alpha virt. eigenvalues --    1.11939   1.12348   1.12986   1.14316   1.14832
 Alpha virt. eigenvalues --    1.15535   1.16228   1.16337   1.16881   1.17040
 Alpha virt. eigenvalues --    1.17461   1.18172   1.18431   1.19150   1.19378
 Alpha virt. eigenvalues --    1.20293   1.21101   1.21588   1.22126   1.22469
 Alpha virt. eigenvalues --    1.23065   1.23929   1.24505   1.24900   1.25046
 Alpha virt. eigenvalues --    1.25769   1.26304   1.26678   1.27676   1.28374
 Alpha virt. eigenvalues --    1.28801   1.29405   1.29632   1.30315   1.30986
 Alpha virt. eigenvalues --    1.32664   1.33082   1.33368   1.34340   1.34551
 Alpha virt. eigenvalues --    1.35145   1.35798   1.36374   1.36879   1.37968
 Alpha virt. eigenvalues --    1.38774   1.39428   1.39702   1.40359   1.40839
 Alpha virt. eigenvalues --    1.41478   1.41792   1.42477   1.43530   1.44306
 Alpha virt. eigenvalues --    1.45736   1.46546   1.47116   1.47342   1.48011
 Alpha virt. eigenvalues --    1.48792   1.48963   1.50602   1.51221   1.52222
 Alpha virt. eigenvalues --    1.53288   1.53914   1.55035   1.55433   1.56459
 Alpha virt. eigenvalues --    1.56951   1.58381   1.59208   1.59902   1.61141
 Alpha virt. eigenvalues --    1.61424   1.62232   1.63615   1.64092   1.65339
 Alpha virt. eigenvalues --    1.66054   1.66818   1.67272   1.68461   1.68808
 Alpha virt. eigenvalues --    1.69262   1.71694   1.73185   1.73636   1.74616
 Alpha virt. eigenvalues --    1.76335   1.76561   1.77588   1.78059   1.79128
 Alpha virt. eigenvalues --    1.80130   1.80376   1.81792   1.81829   1.83039
 Alpha virt. eigenvalues --    1.84647   1.86094   1.86357   1.86849   1.89170
 Alpha virt. eigenvalues --    1.89457   1.91002   1.92015   1.93675   1.94163
 Alpha virt. eigenvalues --    1.94709   1.96363   1.97879   1.99191   1.99413
 Alpha virt. eigenvalues --    2.00677   2.01471   2.02644   2.03157   2.04352
 Alpha virt. eigenvalues --    2.05529   2.07137   2.07272   2.09467   2.10669
 Alpha virt. eigenvalues --    2.10752   2.12436   2.17306   2.18021   2.19372
 Alpha virt. eigenvalues --    2.20336   2.20587   2.21409   2.24023   2.24532
 Alpha virt. eigenvalues --    2.24898   2.27054   2.27483   2.28808   2.30125
 Alpha virt. eigenvalues --    2.32114   2.34230   2.35829   2.37297   2.38519
 Alpha virt. eigenvalues --    2.39658   2.42692   2.49367   2.52361   2.53049
 Alpha virt. eigenvalues --    2.53969   2.55139   2.55799   2.57394   2.58988
 Alpha virt. eigenvalues --    2.62594   2.64353   2.65908   2.67862   2.68338
 Alpha virt. eigenvalues --    2.69752   2.70149   2.71057   2.71743   2.72348
 Alpha virt. eigenvalues --    2.73697   2.75099   2.76506   2.76996   2.79705
 Alpha virt. eigenvalues --    2.81591   2.83033   2.83786   2.84418   2.86225
 Alpha virt. eigenvalues --    2.87819   2.89872   2.91097   2.91654   2.92457
 Alpha virt. eigenvalues --    2.92829   2.93595   2.94134   2.95521   2.96810
 Alpha virt. eigenvalues --    2.97908   2.98273   2.98666   3.00647   3.01648
 Alpha virt. eigenvalues --    3.01880   3.02645   3.03253   3.03796   3.04384
 Alpha virt. eigenvalues --    3.05087   3.05904   3.06476   3.07345   3.08665
 Alpha virt. eigenvalues --    3.09541   3.10782   3.12007   3.12278   3.13684
 Alpha virt. eigenvalues --    3.15371   3.17422   3.20491   3.21452   3.23198
 Alpha virt. eigenvalues --    3.24234   3.35319   3.35995   3.73526   3.75843
 Alpha virt. eigenvalues --    3.92132   4.04357   4.07051   4.09876   4.11939
 Alpha virt. eigenvalues --    4.12967   4.13765   4.15031   4.16196   4.16641
 Alpha virt. eigenvalues --    4.17502   4.19295   4.19797   4.21378   4.21798
 Alpha virt. eigenvalues --    4.22694   4.24881   4.25103   4.25153   4.26332
 Alpha virt. eigenvalues --    4.27426   4.27613   4.28590   4.30308   4.30327
 Alpha virt. eigenvalues --    4.30710   4.31796   4.32150   4.32298   4.32588
 Alpha virt. eigenvalues --    4.33278   4.34186   4.34731   4.35143   4.35243
 Alpha virt. eigenvalues --    4.36080   4.36444   4.37870   4.39264   4.39517
 Alpha virt. eigenvalues --    4.40198   4.40682   4.41128   4.43064   4.44199
 Alpha virt. eigenvalues --    4.44855   4.45424   4.46351   4.48141   4.50076
 Alpha virt. eigenvalues --    4.50900   4.52131   4.52543   4.54373   4.55381
 Alpha virt. eigenvalues --    4.56311   4.57638   4.59102   4.59516   4.61027
 Alpha virt. eigenvalues --    4.62007   4.62471   4.63179   4.63381   4.64364
 Alpha virt. eigenvalues --    4.65265   4.65479   4.65749   4.66198   4.66599
 Alpha virt. eigenvalues --    4.67718   4.67804   4.69114   4.70309   4.71413
 Alpha virt. eigenvalues --    4.72469   4.72665   4.73060   4.73594   4.73979
 Alpha virt. eigenvalues --    4.75021   4.75223   4.75668   4.77036   4.77585
 Alpha virt. eigenvalues --    4.78033   4.78819   4.79464   4.80919   4.81150
 Alpha virt. eigenvalues --    4.82155   4.82247   4.83301   4.84782   4.86371
 Alpha virt. eigenvalues --    4.87232   4.87686   4.89830   4.90708   4.91583
 Alpha virt. eigenvalues --    4.92822   4.95509   4.95790   4.96968   4.98795
 Alpha virt. eigenvalues --    4.99457   4.99927   5.02719   5.03651   5.04566
 Alpha virt. eigenvalues --    5.06932   5.07892   5.09435   5.13145   5.16143
 Alpha virt. eigenvalues --    5.20353   5.25232   5.27476   5.31097   5.40886
 Alpha virt. eigenvalues --    5.45239   5.84340   5.99649   6.06710   6.54949
 Alpha virt. eigenvalues --    6.72503   6.73412   6.77051   6.81184   6.85422
 Alpha virt. eigenvalues --    6.88590   6.93482   6.96063   6.97659   7.05331
 Alpha virt. eigenvalues --    7.14196  11.85621  11.89924  12.04943  12.13114
 Alpha virt. eigenvalues --   12.29352  12.38858  12.66314  12.81500  12.84148
 Alpha virt. eigenvalues --   12.95346  13.12890  13.16042  13.20909  13.27059
 Alpha virt. eigenvalues --   13.34016  13.36127  13.39909  13.44474  13.46628
 Alpha virt. eigenvalues --   13.52990  13.62263  13.70514  13.98737
          Condensed to atoms (all electrons):
              1          2          3          4          5          6
     1  O    8.237500   0.166852  -0.018500  -0.015161   0.019588   0.004572
     2  C    0.166852   7.035206  -0.020975  -0.011911  -0.061778  -1.003025
     3  C   -0.018500  -0.020975   6.249630   0.214073   0.002258   0.196156
     4  O   -0.015161  -0.011911   0.214073   8.200654   0.241751  -0.101994
     5  H    0.019588  -0.061778   0.002258   0.241751   0.423559   0.022084
     6  C    0.004572  -1.003025   0.196156  -0.101994   0.022084   7.241564
     7  O   -0.000139  -0.005216  -0.104296   0.004176  -0.000231   0.318167
     8  H    0.000004  -0.000845   0.010347  -0.000082   0.000010   0.018742
     9  C   -0.018059  -0.124959  -0.320410   0.009523  -0.003016   0.237556
    10  O   -0.022117   0.020479   0.006262  -0.000127  -0.000003  -0.005267
    11  H    0.001410  -0.005789  -0.001224   0.000000   0.000000   0.000215
    12  C   -0.090887  -1.100794  -0.143050   0.016819   0.009922   0.686399
    13  O   -0.000442  -0.008229  -0.044704  -0.001733   0.000136  -0.041465
    14  C    0.013286   0.608195  -0.016843   0.010324   0.006583  -1.585777
    15  O   -0.000333  -0.012683  -0.000082   0.000516  -0.000043   0.027774
    16  C    0.000865   0.119178  -0.050609  -0.003442   0.000538  -0.125771
    17  C   -0.000150  -0.043678  -0.003137   0.000809   0.000010  -0.034273
    18  O    0.000014   0.006752  -0.001390  -0.000003   0.000000  -0.001005
    19  H   -0.000055  -0.007141   0.007019   0.000001   0.000000   0.007108
    20  C    0.000025   0.007138  -0.008212  -0.000010   0.000001   0.048249
    21  O    0.000000  -0.000015  -0.000024   0.000000   0.000000  -0.000018
    22  H    0.000000   0.000000   0.000001   0.000000   0.000000  -0.000023
    23  C    0.000021   0.011522  -0.012355   0.000095  -0.000005  -0.076593
    24  O    0.000003  -0.000770  -0.005379  -0.000133  -0.000002  -0.002251
    25  H    0.000000   0.000203   0.001034   0.000004   0.000000   0.001002
    26  C    0.000023   0.010960  -0.029046  -0.000153   0.000017  -0.009400
    27  O    0.000000  -0.000020  -0.000040   0.000000   0.000000   0.001945
    28  C   -0.000001   0.000234  -0.000176   0.000001   0.000000  -0.013218
    29  O    0.000000   0.000010   0.000009   0.000000   0.000000  -0.000268
    30  H    0.000000   0.000000   0.000000   0.000000   0.000000   0.000003
    31  H    0.260573   0.065350  -0.032032   0.000246  -0.001883   0.001700
    32  H   -0.000388  -0.001540  -0.001975   0.000016   0.000000   0.002137
    33  H    0.002374  -0.019641  -0.001986   0.000007   0.000000   0.004503
    34  H    0.004078   0.039930  -0.055990   0.001404   0.000004  -0.043265
    35  H   -0.007665   0.317552  -0.021886   0.002309   0.000173  -0.026881
    36  H    0.002692  -0.052858   0.278812  -0.020476  -0.005244  -0.105105
    37  H    0.000201   0.021950  -0.136440   0.002432  -0.000169   0.393439
    38  H   -0.000005   0.008896  -0.048764   0.000086   0.000004   0.027477
    39  H    0.000000  -0.000039   0.000104   0.000000   0.000000   0.001266
    40  H    0.000000   0.000100  -0.000024   0.000000   0.000000  -0.006367
    41  H    0.000000  -0.000193   0.000995   0.000000   0.000000  -0.001015
    42  H   -0.000001  -0.002854   0.004595   0.000004   0.000000   0.014719
    43  H    0.000000  -0.001001   0.001282   0.000000   0.000000   0.008436
    44  H    0.000000   0.000134   0.000016   0.000000   0.000000   0.000563
    45  H    0.000000   0.000009   0.000003   0.000000   0.000000  -0.000092
              7          8          9         10         11         12
     1  O   -0.000139   0.000004  -0.018059  -0.022117   0.001410  -0.090887
     2  C   -0.005216  -0.000845  -0.124959   0.020479  -0.005789  -1.100794
     3  C   -0.104296   0.010347  -0.320410   0.006262  -0.001224  -0.143050
     4  O    0.004176  -0.000082   0.009523  -0.000127   0.000000   0.016819
     5  H   -0.000231   0.000010  -0.003016  -0.000003   0.000000   0.009922
     6  C    0.318167   0.018742   0.237556  -0.005267   0.000215   0.686399
     7  O    8.251113   0.252626   0.000755   0.000005   0.000000   0.015040
     8  H    0.252626   0.342945  -0.000047   0.000000   0.000000  -0.002137
     9  C    0.000755  -0.000047   7.230880   0.056337  -0.015898  -1.129917
    10  O    0.000005   0.000000   0.056337   8.246424   0.232192   0.067946
    11  H    0.000000   0.000000  -0.015898   0.232192   0.443874   0.023655
    12  C    0.015040  -0.002137  -1.129917   0.067946   0.023655   9.030744
    13  O    0.000232  -0.000491  -0.058138  -0.001686  -0.000052   0.016672
    14  C   -0.072875  -0.055278  -0.687478   0.008616  -0.002616  -1.263544
    15  O    0.009067   0.007975  -0.002025   0.000065   0.000005   0.011341
    16  C    0.002985   0.021046  -0.107973  -0.001020   0.000069  -0.011882
    17  C   -0.006145   0.002743   0.015915   0.000226  -0.000042  -0.126447
    18  O    0.000002  -0.000018   0.006897  -0.000170  -0.000001  -0.014676
    19  H   -0.000091  -0.000004  -0.001449   0.000013  -0.000003  -0.004080
    20  C    0.001245   0.000621   0.011662   0.000042  -0.000003  -0.023482
    21  O   -0.000001   0.000000   0.000436   0.000000   0.000000  -0.000274
    22  H    0.000000   0.000000  -0.000003   0.000000   0.000000   0.000005
    23  C    0.016866   0.012376  -0.004348  -0.000004   0.000000  -0.021637
    24  O   -0.045578  -0.013355   0.000211   0.000000   0.000000   0.005025
    25  H    0.004482  -0.002161  -0.000015   0.000000   0.000000  -0.000398
    26  C   -0.014729  -0.022017   0.003312  -0.000032   0.000002   0.016631
    27  O   -0.000081  -0.000021   0.000094   0.000000   0.000000   0.000000
    28  C   -0.000303  -0.000091   0.000074   0.000000   0.000000   0.004335
    29  O   -0.000002   0.000000  -0.000022   0.000000   0.000000   0.000019
    30  H    0.000000   0.000000   0.000000   0.000000   0.000000  -0.000001
    31  H   -0.000004   0.000000   0.010424   0.000907  -0.000024  -0.044047
    32  H   -0.000008   0.000000   0.445157  -0.030479  -0.008334  -0.063209
    33  H    0.000002   0.000000   0.588484  -0.052792  -0.004187  -0.223068
    34  H   -0.000021   0.000003   0.080269  -0.001200  -0.000214   0.099063
    35  H    0.000270   0.000003  -0.048353  -0.001217  -0.000002  -0.055676
    36  H    0.004751  -0.000091   0.019417  -0.000221   0.000000   0.061691
    37  H   -0.032997  -0.005432   0.018582   0.000015   0.000000   0.063519
    38  H   -0.000555   0.000001   0.023737   0.000060   0.000000   0.060709
    39  H   -0.000532   0.000216   0.000002   0.000000   0.000000   0.000132
    40  H    0.000606   0.000054  -0.000019   0.000000   0.000000  -0.000328
    41  H   -0.000131   0.000004   0.000067   0.000000   0.000000   0.000252
    42  H   -0.001371  -0.000057   0.000353   0.000000   0.000000  -0.001111
    43  H   -0.000008  -0.000001  -0.000748   0.000000   0.000000  -0.000338
    44  H    0.000001   0.000000  -0.000093   0.000000   0.000000   0.000337
    45  H    0.000000   0.000000   0.000005   0.000000   0.000000   0.000063
             13         14         15         16         17         18
     1  O   -0.000442   0.013286  -0.000333   0.000865  -0.000150   0.000014
     2  C   -0.008229   0.608195  -0.012683   0.119178  -0.043678   0.006752
     3  C   -0.044704  -0.016843  -0.000082  -0.050609  -0.003137  -0.001390
     4  O   -0.001733   0.010324   0.000516  -0.003442   0.000809  -0.000003
     5  H    0.000136   0.006583  -0.000043   0.000538   0.000010   0.000000
     6  C   -0.041465  -1.585777   0.027774  -0.125771  -0.034273  -0.001005
     7  O    0.000232  -0.072875   0.009067   0.002985  -0.006145   0.000002
     8  H   -0.000491  -0.055278   0.007975   0.021046   0.002743  -0.000018
     9  C   -0.058138  -0.687478  -0.002025  -0.107973   0.015915   0.006897
    10  O   -0.001686   0.008616   0.000065  -0.001020   0.000226  -0.000170
    11  H   -0.000052  -0.002616   0.000005   0.000069  -0.000042  -0.000001
    12  C    0.016672  -1.263544   0.011341  -0.011882  -0.126447  -0.014676
    13  O    8.241835   0.235807  -0.035533  -0.010169   0.012857  -0.008215
    14  C    0.235807   8.709827   0.137609  -0.498364   0.176393  -0.003626
    15  O   -0.035533   0.137609   8.064655   0.174028  -0.016413  -0.009302
    16  C   -0.010169  -0.498364   0.174028   9.025363  -1.542222   0.038725
    17  C    0.012857   0.176393  -0.016413  -1.542222   7.915951   0.141050
    18  O   -0.008215  -0.003626  -0.009302   0.038725   0.141050   8.243199
    19  H    0.016062   0.021780   0.007885  -0.063501   0.040166   0.226027
    20  C   -0.001557  -0.201751   0.015378  -0.565670  -0.529999  -0.032183
    21  O   -0.000075   0.002921   0.000377   0.031827  -0.085437   0.008159
    22  H    0.000000  -0.000236  -0.000017  -0.010107   0.031173  -0.000482
    23  C    0.003907  -0.001791  -0.026735   0.296062  -0.274998   0.010607
    24  O    0.000405   0.060389  -0.017430   0.008253  -0.003454   0.000004
    25  H   -0.000014  -0.009349   0.002259  -0.010135  -0.001764   0.000000
    26  C   -0.014029  -0.353814  -0.053364  -1.428125  -0.427181   0.032112
    27  O    0.000281   0.011710   0.001738  -0.002049   0.012731  -0.001826
    28  C    0.002783   0.025313   0.003244   0.434053   0.307541  -0.012764
    29  O    0.000024  -0.000696  -0.000118  -0.000073  -0.007188   0.000262
    30  H    0.000000   0.000037   0.000001  -0.001381   0.006535  -0.000022
    31  H   -0.000610  -0.001470  -0.000002   0.000082  -0.000042  -0.000001
    32  H   -0.002894  -0.007906  -0.000319  -0.000074  -0.000248   0.000201
    33  H   -0.004975   0.010412  -0.000502  -0.004267   0.003202  -0.000027
    34  H   -0.031797   0.146246  -0.003555  -0.003358   0.007579  -0.000282
    35  H    0.008562   0.105657  -0.000573  -0.001629   0.001752   0.000041
    36  H    0.005869   0.042065   0.000759  -0.004209   0.002185   0.000070
    37  H    0.008899  -0.070157  -0.008359  -0.021434   0.001239   0.000173
    38  H   -0.035238   0.235763  -0.030622   0.006395  -0.005209  -0.001445
    39  H    0.000032   0.009045   0.001042   0.012537   0.006887   0.000002
    40  H    0.000053  -0.001395   0.000330   0.062194  -0.000632   0.000024
    41  H   -0.000324   0.029396  -0.000834   0.009091   0.008725   0.000030
    42  H   -0.003778  -0.021145  -0.021824   0.143297   0.053131  -0.003405
    43  H   -0.001857   0.007188  -0.004427  -0.076169   0.263560  -0.033620
    44  H    0.000217  -0.008705   0.000949   0.074741  -0.193163   0.005309
    45  H    0.000031   0.000692   0.000488   0.041782  -0.014934   0.000490
             19         20         21         22         23         24
     1  O   -0.000055   0.000025   0.000000   0.000000   0.000021   0.000003
     2  C   -0.007141   0.007138  -0.000015   0.000000   0.011522  -0.000770
     3  C    0.007019  -0.008212  -0.000024   0.000001  -0.012355  -0.005379
     4  O    0.000001  -0.000010   0.000000   0.000000   0.000095  -0.000133
     5  H    0.000000   0.000001   0.000000   0.000000  -0.000005  -0.000002
     6  C    0.007108   0.048249  -0.000018  -0.000023  -0.076593  -0.002251
     7  O   -0.000091   0.001245  -0.000001   0.000000   0.016866  -0.045578
     8  H   -0.000004   0.000621   0.000000   0.000000   0.012376  -0.013355
     9  C   -0.001449   0.011662   0.000436  -0.000003  -0.004348   0.000211
    10  O    0.000013   0.000042   0.000000   0.000000  -0.000004   0.000000
    11  H   -0.000003  -0.000003   0.000000   0.000000   0.000000   0.000000
    12  C   -0.004080  -0.023482  -0.000274   0.000005  -0.021637   0.005025
    13  O    0.016062  -0.001557  -0.000075   0.000000   0.003907   0.000405
    14  C    0.021780  -0.201751   0.002921  -0.000236  -0.001791   0.060389
    15  O    0.007885   0.015378   0.000377  -0.000017  -0.026735  -0.017430
    16  C   -0.063501  -0.565670   0.031827  -0.010107   0.296062   0.008253
    17  C    0.040166  -0.529999  -0.085437   0.031173  -0.274998  -0.003454
    18  O    0.226027  -0.032183   0.008159  -0.000482   0.010607   0.000004
    19  H    0.353984  -0.015221  -0.000499   0.000012  -0.003803  -0.000038
    20  C   -0.015221   7.037427   0.153524  -0.025068   0.114337  -0.004489
    21  O   -0.000499   0.153524   8.218941   0.239020  -0.001374   0.000010
    22  H    0.000012  -0.025068   0.239020   0.428935   0.000041   0.000000
    23  C   -0.003803   0.114337  -0.001374   0.000041   6.552951   0.039336
    24  O   -0.000038  -0.004489   0.000010   0.000000   0.039336   8.359607
    25  H    0.000000   0.000988   0.000000   0.000000  -0.018451   0.247224
    26  C   -0.010089   0.584821  -0.007250   0.002195  -1.148988   0.035183
    27  O    0.000005  -0.065703   0.001688  -0.000610  -0.092022   0.001325
    28  C    0.003977  -0.726656   0.017669  -0.006020  -0.162613   0.003923
    29  O    0.000004  -0.050913   0.004055   0.010463   0.010676  -0.000005
    30  H    0.000000  -0.016779  -0.001223  -0.001107  -0.000536  -0.000001
    31  H    0.000000   0.000001   0.000000   0.000000   0.000001   0.000000
    32  H    0.000610  -0.000757   0.000001   0.000000  -0.000001   0.000000
    33  H   -0.000045   0.000387   0.000000   0.000000  -0.000010   0.000000
    34  H   -0.000062   0.000411   0.000000   0.000000   0.000018   0.000000
    35  H   -0.000015   0.000029   0.000000   0.000000   0.000057   0.000009
    36  H    0.000000   0.000051   0.000000   0.000000   0.000125   0.000054
    37  H   -0.000033   0.000926   0.000000   0.000000   0.001483   0.000781
    38  H   -0.001368   0.010301   0.000009   0.000000  -0.001464   0.000019
    39  H    0.000000  -0.003214  -0.000003   0.000000   0.389001  -0.021122
    40  H    0.000001  -0.000650   0.000000   0.000000   0.637975  -0.065760
    41  H    0.000029  -0.037887   0.000052   0.000002   0.038540   0.001617
    42  H    0.000113   0.037149  -0.000434   0.000006  -0.018705  -0.000137
    43  H   -0.001283   0.038080  -0.002715  -0.000173   0.017459  -0.000063
    44  H   -0.000155   0.373933  -0.031662  -0.005921   0.008443   0.000013
    45  H   -0.000001  -0.142770   0.003160  -0.000082  -0.001979   0.000046
             25         26         27         28         29         30
     1  O    0.000000   0.000023   0.000000  -0.000001   0.000000   0.000000
     2  C    0.000203   0.010960  -0.000020   0.000234   0.000010   0.000000
     3  C    0.001034  -0.029046  -0.000040  -0.000176   0.000009   0.000000
     4  O    0.000004  -0.000153   0.000000   0.000001   0.000000   0.000000
     5  H    0.000000   0.000017   0.000000   0.000000   0.000000   0.000000
     6  C    0.001002  -0.009400   0.001945  -0.013218  -0.000268   0.000003
     7  O    0.004482  -0.014729  -0.000081  -0.000303  -0.000002   0.000000
     8  H   -0.002161  -0.022017  -0.000021  -0.000091   0.000000   0.000000
     9  C   -0.000015   0.003312   0.000094   0.000074  -0.000022   0.000000
    10  O    0.000000  -0.000032   0.000000   0.000000   0.000000   0.000000
    11  H    0.000000   0.000002   0.000000   0.000000   0.000000   0.000000
    12  C   -0.000398   0.016631   0.000000   0.004335   0.000019  -0.000001
    13  O   -0.000014  -0.014029   0.000281   0.002783   0.000024   0.000000
    14  C   -0.009349  -0.353814   0.011710   0.025313  -0.000696   0.000037
    15  O    0.002259  -0.053364   0.001738   0.003244  -0.000118   0.000001
    16  C   -0.010135  -1.428125  -0.002049   0.434053  -0.000073  -0.001381
    17  C   -0.001764  -0.427181   0.012731   0.307541  -0.007188   0.006535
    18  O    0.000000   0.032112  -0.001826  -0.012764   0.000262  -0.000022
    19  H    0.000000  -0.010089   0.000005   0.003977   0.000004   0.000000
    20  C    0.000988   0.584821  -0.065703  -0.726656  -0.050913  -0.016779
    21  O    0.000000  -0.007250   0.001688   0.017669   0.004055  -0.001223
    22  H    0.000000   0.002195  -0.000610  -0.006020   0.010463  -0.001107
    23  C   -0.018451  -1.148988  -0.092022  -0.162613   0.010676  -0.000536
    24  O    0.247224   0.035183   0.001325   0.003923  -0.000005  -0.000001
    25  H    0.403643   0.025707  -0.000507  -0.001121  -0.000001   0.000000
    26  C    0.025707   9.348961   0.154476  -0.626870  -0.037270   0.000156
    27  O   -0.000507   0.154476   8.152644   0.176772  -0.040749   0.002715
    28  C   -0.001121  -0.626870   0.176772   5.658063   0.297483   0.001781
    29  O   -0.000001  -0.037270  -0.040749   0.297483   8.112177   0.261870
    30  H    0.000000   0.000156   0.002715   0.001781   0.261870   0.423691
    31  H    0.000000  -0.000001   0.000000   0.000000   0.000000   0.000000
    32  H    0.000000   0.000150   0.000000   0.000043   0.000000   0.000000
    33  H    0.000000  -0.000169   0.000000  -0.000006   0.000000   0.000000
    34  H    0.000000   0.000394   0.000001  -0.000020   0.000000   0.000000
    35  H    0.000000  -0.000150   0.000000  -0.000006   0.000000   0.000000
    36  H    0.000000  -0.000450   0.000000  -0.000004   0.000000   0.000000
    37  H   -0.000001  -0.003481  -0.000004   0.000012   0.000000   0.000000
    38  H    0.000008   0.016351   0.000196   0.000022  -0.000003   0.000000
    39  H   -0.011962  -0.065152   0.000268   0.004002  -0.000002  -0.000001
    40  H    0.000432  -0.328397   0.003282   0.001810  -0.000131   0.000000
    41  H   -0.000194   0.171936  -0.031396   0.057162  -0.001057   0.000018
    42  H   -0.000020   0.071107   0.004808   0.001073  -0.000456   0.000003
    43  H    0.000000   0.076260  -0.000039  -0.050020  -0.000099   0.000012
    44  H    0.000000   0.024804   0.000322  -0.003710  -0.003144   0.000042
    45  H    0.000000  -0.008931  -0.051990   0.463532  -0.028369  -0.009902
             31         32         33         34         35         36
     1  O    0.260573  -0.000388   0.002374   0.004078  -0.007665   0.002692
     2  C    0.065350  -0.001540  -0.019641   0.039930   0.317552  -0.052858
     3  C   -0.032032  -0.001975  -0.001986  -0.055990  -0.021886   0.278812
     4  O    0.000246   0.000016   0.000007   0.001404   0.002309  -0.020476
     5  H   -0.001883   0.000000   0.000000   0.000004   0.000173  -0.005244
     6  C    0.001700   0.002137   0.004503  -0.043265  -0.026881  -0.105105
     7  O   -0.000004  -0.000008   0.000002  -0.000021   0.000270   0.004751
     8  H    0.000000   0.000000   0.000000   0.000003   0.000003  -0.000091
     9  C    0.010424   0.445157   0.588484   0.080269  -0.048353   0.019417
    10  O    0.000907  -0.030479  -0.052792  -0.001200  -0.001217  -0.000221
    11  H   -0.000024  -0.008334  -0.004187  -0.000214  -0.000002   0.000000
    12  C   -0.044047  -0.063209  -0.223068   0.099063  -0.055676   0.061691
    13  O   -0.000610  -0.002894  -0.004975  -0.031797   0.008562   0.005869
    14  C   -0.001470  -0.007906   0.010412   0.146246   0.105657   0.042065
    15  O   -0.000002  -0.000319  -0.000502  -0.003555  -0.000573   0.000759
    16  C    0.000082  -0.000074  -0.004267  -0.003358  -0.001629  -0.004209
    17  C   -0.000042  -0.000248   0.003202   0.007579   0.001752   0.002185
    18  O   -0.000001   0.000201  -0.000027  -0.000282   0.000041   0.000070
    19  H    0.000000   0.000610  -0.000045  -0.000062  -0.000015   0.000000
    20  C    0.000001  -0.000757   0.000387   0.000411   0.000029   0.000051
    21  O    0.000000   0.000001   0.000000   0.000000   0.000000   0.000000
    22  H    0.000000   0.000000   0.000000   0.000000   0.000000   0.000000
    23  C    0.000001  -0.000001  -0.000010   0.000018   0.000057   0.000125
    24  O    0.000000   0.000000   0.000000   0.000000   0.000009   0.000054
    25  H    0.000000   0.000000   0.000000   0.000000   0.000000   0.000000
    26  C   -0.000001   0.000150  -0.000169   0.000394  -0.000150  -0.000450
    27  O    0.000000   0.000000   0.000000   0.000001   0.000000   0.000000
    28  C    0.000000   0.000043  -0.000006  -0.000020  -0.000006  -0.000004
    29  O    0.000000   0.000000   0.000000   0.000000   0.000000   0.000000
    30  H    0.000000   0.000000   0.000000   0.000000   0.000000   0.000000
    31  H    0.412900   0.000020  -0.000166  -0.000137  -0.011785  -0.000147
    32  H    0.000020   0.570190  -0.047618  -0.006723  -0.000044   0.000010
    33  H   -0.000166  -0.047618   0.604343   0.007477   0.002144  -0.000010
    34  H   -0.000137  -0.006723   0.007477   0.637649   0.006447   0.002635
    35  H   -0.011785  -0.000044   0.002144   0.006447   0.597622   0.005660
    36  H   -0.000147   0.000010  -0.000010   0.002635   0.005660   0.631401
    37  H    0.000011   0.000001  -0.000013  -0.000049   0.002483   0.007495
    38  H    0.000001  -0.000009  -0.000007   0.002502  -0.000039   0.002071
    39  H    0.000000   0.000000   0.000000   0.000000   0.000000   0.000000
    40  H    0.000000   0.000000   0.000000   0.000000   0.000000   0.000000
    41  H    0.000000   0.000000   0.000000   0.000000   0.000000   0.000000
    42  H    0.000000   0.000000   0.000000  -0.000003   0.000000  -0.000001
    43  H    0.000000   0.000000   0.000000   0.000000   0.000000   0.000000
    44  H    0.000000   0.000000   0.000000   0.000000   0.000000   0.000000
    45  H    0.000000   0.000000   0.000000   0.000000   0.000000   0.000000
             37         38         39         40         41         42
     1  O    0.000201  -0.000005   0.000000   0.000000   0.000000  -0.000001
     2  C    0.021950   0.008896  -0.000039   0.000100  -0.000193  -0.002854
     3  C   -0.136440  -0.048764   0.000104  -0.000024   0.000995   0.004595
     4  O    0.002432   0.000086   0.000000   0.000000   0.000000   0.000004
     5  H   -0.000169   0.000004   0.000000   0.000000   0.000000   0.000000
     6  C    0.393439   0.027477   0.001266  -0.006367  -0.001015   0.014719
     7  O   -0.032997  -0.000555  -0.000532   0.000606  -0.000131  -0.001371
     8  H   -0.005432   0.000001   0.000216   0.000054   0.000004  -0.000057
     9  C    0.018582   0.023737   0.000002  -0.000019   0.000067   0.000353
    10  O    0.000015   0.000060   0.000000   0.000000   0.000000   0.000000
    11  H    0.000000   0.000000   0.000000   0.000000   0.000000   0.000000
    12  C    0.063519   0.060709   0.000132  -0.000328   0.000252  -0.001111
    13  O    0.008899  -0.035238   0.000032   0.000053  -0.000324  -0.003778
    14  C   -0.070157   0.235763   0.009045  -0.001395   0.029396  -0.021145
    15  O   -0.008359  -0.030622   0.001042   0.000330  -0.000834  -0.021824
    16  C   -0.021434   0.006395   0.012537   0.062194   0.009091   0.143297
    17  C    0.001239  -0.005209   0.006887  -0.000632   0.008725   0.053131
    18  O    0.000173  -0.001445   0.000002   0.000024   0.000030  -0.003405
    19  H   -0.000033  -0.001368   0.000000   0.000001   0.000029   0.000113
    20  C    0.000926   0.010301  -0.003214  -0.000650  -0.037887   0.037149
    21  O    0.000000   0.000009  -0.000003   0.000000   0.000052  -0.000434
    22  H    0.000000   0.000000   0.000000   0.000000   0.000002   0.000006
    23  C    0.001483  -0.001464   0.389001   0.637975   0.038540  -0.018705
    24  O    0.000781   0.000019  -0.021122  -0.065760   0.001617  -0.000137
    25  H   -0.000001   0.000008  -0.011962   0.000432  -0.000194  -0.000020
    26  C   -0.003481   0.016351  -0.065152  -0.328397   0.171936   0.071107
    27  O   -0.000004   0.000196   0.000268   0.003282  -0.031396   0.004808
    28  C    0.000012   0.000022   0.004002   0.001810   0.057162   0.001073
    29  O    0.000000  -0.000003  -0.000002  -0.000131  -0.001057  -0.000456
    30  H    0.000000   0.000000  -0.000001   0.000000   0.000018   0.000003
    31  H    0.000011   0.000001   0.000000   0.000000   0.000000   0.000000
    32  H    0.000001  -0.000009   0.000000   0.000000   0.000000   0.000000
    33  H   -0.000013  -0.000007   0.000000   0.000000   0.000000   0.000000
    34  H   -0.000049   0.002502   0.000000   0.000000   0.000000  -0.000003
    35  H    0.002483  -0.000039   0.000000   0.000000   0.000000   0.000000
    36  H    0.007495   0.002071   0.000000   0.000000   0.000000  -0.000001
    37  H    0.624006   0.005408   0.000000   0.000002  -0.000004  -0.000004
    38  H    0.005408   0.584518  -0.000001   0.000027  -0.000006   0.005548
    39  H    0.000000  -0.000001   0.578227  -0.040472  -0.005800   0.000029
    40  H    0.000002   0.000027  -0.040472   0.568030   0.006497   0.002749
    41  H   -0.000004  -0.000006  -0.005800   0.006497   0.619680   0.005968
    42  H   -0.000004   0.005548   0.000029   0.002749   0.005968   0.601097
    43  H   -0.000007  -0.000036   0.000006  -0.000009   0.001876   0.005869
    44  H    0.000000  -0.000003   0.000000  -0.000013  -0.000020   0.001452
    45  H    0.000000   0.000000  -0.000023  -0.000006   0.003793  -0.000020
             43         44         45
     1  O    0.000000   0.000000   0.000000
     2  C   -0.001001   0.000134   0.000009
     3  C    0.001282   0.000016   0.000003
     4  O    0.000000   0.000000   0.000000
     5  H    0.000000   0.000000   0.000000
     6  C    0.008436   0.000563  -0.000092
     7  O   -0.000008   0.000001   0.000000
     8  H   -0.000001   0.000000   0.000000
     9  C   -0.000748  -0.000093   0.000005
    10  O    0.000000   0.000000   0.000000
    11  H    0.000000   0.000000   0.000000
    12  C   -0.000338   0.000337   0.000063
    13  O   -0.001857   0.000217   0.000031
    14  C    0.007188  -0.008705   0.000692
    15  O   -0.004427   0.000949   0.000488
    16  C   -0.076169   0.074741   0.041782
    17  C    0.263560  -0.193163  -0.014934
    18  O   -0.033620   0.005309   0.000490
    19  H   -0.001283  -0.000155  -0.000001
    20  C    0.038080   0.373933  -0.142770
    21  O   -0.002715  -0.031662   0.003160
    22  H   -0.000173  -0.005921  -0.000082
[...]
 000637,-0.00002381,0.00007127,-0.00001949,0.00011216,0.00006428,0.0000
 9643,0.00069743,-0.00013636,-0.00418521,-0.01399492,-0.00169855,0.0094
 4731,-0.35332401,0.00371809,-0.01861303,-0.01221781,0.00042144,-0.0031
 3215,0.00255975,-0.00093722,0.00057990,-0.00066065,0.00008049,0.000410
 69,-0.00065397,-0.00020328,0.00080403,0.00041533,-0.00004975,-0.000058
 18,-0.00003240,0.00006599,-0.00007909,0.00031622,0.00070566,0.00047043
 ,0.00012628,-0.00006249,-0.00009699,0.00003059,-0.00003684,0.00000439,
 -0.01152994,0.00011141,-0.00089954,0.00201660,0.00076501,-0.00016337,-
 0.00017558,0.00005646,-0.00015941,0.00004310,-0.00000871,-0.00008461,0
 .00000898,-0.00000231,-0.00001255,-0.00000142,-0.00000380,-0.00000503,
 0.00000003,0.00000960,-0.00000317,0.00001248,0.00000105,-0.00000711,0.
 00001935,0.00000196,0.00002539,0.00000839,0.00000029,-0.00000933,0.000
 00613,0.00000302,0.00002182,0.00003671,0.00018182,-0.00029734,0.001272
 24,0.00041112,0.00107416,0.00033376,0.00009411,-0.00002088,0.00054235,
 -0.00071417,-0.00010055,0.00030484,-0.00095595,-0.00088904,0.38247751,
 0.00000429,-0.00001896,0.00003293,-0.00000028,0.00003312,-0.00002405,0
 .00004088,0.00002871,-0.00001651,0.00000130,-0.00003312,0.00000313,-0.
 00000303,0.00000884,-0.00000433,-0.00015580,0.00011646,0.00002561,0.00
 013485,-0.00010111,-0.00021797,-0.00018787,-0.00009980,0.00022307,0.00
 002103,-0.00002284,-0.00001288,-0.00001162,0.00002329,0.00002653,0.000
 00766,-0.00000376,-0.00000297,-0.00002379,0.00000695,-0.00006332,0.000
 21416,0.00000730,0.00025385,-0.00052528,0.00097700,-0.00104025,-0.0089
 5859,0.00073944,0.00320808,0.00516705,-0.04381021,-0.00118907,0.034054
 53,-0.00282100,0.00395959,-0.00206275,0.00371160,0.00089360,0.00046871
 ,-0.00016222,-0.00061710,0.00103165,0.00128454,-0.00145898,-0.00048759
 ,-0.00020704,0.00007164,-0.00008713,-0.00006052,0.00006372,-0.00147924
 ,0.00159577,0.00088151,0.00008891,-0.00017334,-0.00017270,0.00000485,-
 0.00004973,0.00002918,-0.02675646,-0.00107408,-0.00360797,0.00157175,0
 .00107418,0.00189496,0.00026887,-0.00051589,0.00004507,-0.00001225,0.0
 0012142,0.00007336,-0.00001856,0.00001573,0.00000394,0.00000192,-0.000
 00039,-0.00000401,0.00000338,-0.00001545,0.00000132,-0.00001074,0.0000
 0020,0.00000568,-0.00000652,0.00001408,0.00000159,-0.00000133,-0.00000
 571,0.00000192,0.00000119,0.00000686,0.00001142,0.00006006,-0.00001382
 ,-0.00002039,0.00038959,0.00029540,-0.00000473,0.00037598,0.00035771,0
 .00000975,0.00075243,-0.00037807,-0.00011875,-0.00133421,-0.00272796,-
 0.00328726,-0.00357723,0.04728196,-0.00000862,-0.00001324,-0.00005296,
 -0.00000044,0.00000266,0.00003798,-0.00003501,0.00004363,0.00002900,-0
 .00001521,0.00000344,-0.00003104,0.00000500,-0.00000075,0.00000074,0.0
 0007775,0.00011784,-0.00029012,-0.00019748,0.00006593,0.00008331,0.000
 14183,-0.00010185,-0.00016666,-0.00002974,0.00005604,-0.00003136,-0.00
 000045,-0.00004603,-0.00001092,0.00000114,0.00000182,-0.00000778,-0.00
 000831,-0.00008538,-0.00001980,-0.00082768,-0.00053080,-0.00035025,0.0
 0704347,0.00057133,0.00384077,0.03710235,0.00312458,-0.01758065,-0.025
 72055,-0.00031317,-0.04302456,-0.01112836,-0.00061268,0.00054552,0.001
 45199,-0.00047928,0.00054448,0.00034900,0.00020418,-0.00020699,-0.0007
 2367,-0.00044255,0.00060802,0.00028176,0.00002022,-0.00000358,0.000003
 42,-0.00001243,-0.00001755,-0.00010879,0.00121869,0.00067494,0.0001065
 8,-0.00010631,0.00007217,-0.00000426,0.00001709,0.00005605,-0.02303178
 ,-0.00089514,-0.00144483,0.00079366,0.00039075,0.00208356,-0.00040792,
 0.00015681,-0.00018110,0.00006171,0.00002252,-0.00018406,0.00002094,0.
 00000107,0.00000433,-0.00000180,0.00000597,0.00000535,-0.00000430,-0.0
 0001159,-0.00000248,0.00000109,0.00000327,0.00000210,-0.00002290,-0.00
 002428,-0.00007522,-0.00000853,0.00000733,0.00001111,-0.00003701,-0.00
 001337,-0.00006465,-0.00031353,-0.00010015,0.00007058,-0.00131914,0.00
 002939,-0.00041871,0.00014588,0.00021684,-0.00002973,0.00059139,-0.000
 27684,0.00006577,-0.00095758,-0.00274706,-0.00295450,0.01675549,-0.001
 56981,0.05862828,0.00001071,0.00003420,-0.00006165,-0.00005059,-0.0000
 5192,0.00002656,-0.00000979,-0.00006057,0.00001833,0.00001408,0.000053
 92,-0.00001455,-0.00000283,-0.00001427,0.00000831,0.00004457,-0.000021
 25,0.00004579,0.00006164,0.00010258,0.00005009,-0.00006617,-0.00002701
 ,-0.00008595,-0.00006868,-0.00002138,0.00013680,0.00002774,-0.00002565
 ,-0.00010355,-0.00002384,0.00001417,0.00002547,0.00003177,0.00010460,0
 .00010042,0.00003708,0.00053949,-0.00056852,0.00016312,-0.00074076,-0.
 00042089,0.00219539,-0.00098886,0.00086480,-0.01503011,0.00202749,0.00
 235307,-0.34549806,0.00762763,0.02803802,-0.01072775,-0.01147580,-0.01
 215401,-0.00045612,-0.00119804,0.00135193,-0.01162265,0.00103788,0.003
 86174,0.00150496,-0.00050055,0.00002426,0.00016149,0.00000702,-0.00010
 936,0.00060593,0.00031254,0.00015924,0.00003277,-0.00005922,0.00006206
 ,-0.00000782,0.00000314,-0.00000298,-0.00097635,-0.00085826,-0.0005514
 9,0.00045483,0.00035987,0.00000056,-0.00111989,-0.00109058,-0.00051772
 ,0.00040968,0.00018931,0.00032343,-0.00005153,0.00003555,0.00012249,-0
 .00000990,-0.00000441,0.00000608,0.00002709,0.00006247,-0.00000242,0.0
 0002401,0.00000028,-0.00001660,0.00000873,-0.00001816,0.00001787,0.000
 01132,0.00000309,-0.00001280,0.00001425,0.00000117,0.00000512,0.000012
 16,0.00002594,-0.00004303,0.00012733,-0.00000188,0.00029031,-0.0000226
 9,0.00015946,-0.00000443,0.00012735,-0.00031566,-0.00001455,0.00103605
 ,0.00052354,0.00049340,0.00011666,0.00170536,-0.00039497,0.37740281,-0
 .00000141,0.00002066,-0.00007046,-0.00003013,-0.00004811,0.00003053,0.
 00001442,0.00000514,-0.00000030,-0.00000611,0.00003689,-0.00003614,0.0
 0000534,-0.00000904,0.00000244,-0.00010626,-0.00010506,-0.00009559,-0.
 00004321,0.00008559,0.00010673,0.00003637,-0.00002335,-0.00011058,-0.0
 0005670,-0.00000037,0.00011150,0.00002253,-0.00003938,-0.00008161,-0.0
 0002069,0.00001277,0.00001299,0.00005294,0.00012556,0.00012162,0.00008
 257,0.00041818,-0.00040636,0.00024358,-0.00001325,-0.00003539,-0.00131
 974,0.00229949,-0.00218035,0.03465409,-0.00565584,-0.00179745,0.005609
 04,-0.03873519,0.00503086,-0.03175173,-0.00939865,-0.01241208,-0.00029
 309,-0.00058251,0.00147454,-0.01071191,0.00208989,0.00363987,0.0001609
 4,0.00087191,-0.00148525,0.00015311,0.00008323,-0.00020914,-0.00000256
 ,-0.00001483,-0.00005405,-0.00003343,0.00000351,0.00008937,-0.00000301
 ,0.00002503,-0.00000830,0.00164116,0.00208590,0.00080683,-0.00030683,-
 0.00023108,-0.00043061,0.00021416,-0.00068951,-0.00006861,0.00007168,0
 .00005378,0.00034368,-0.00000599,0.00008944,0.00006237,-0.00000636,0.0
 0000165,0.00000597,0.00000145,0.00005273,0.00000345,0.00002805,0.00000
 864,-0.00002560,-0.00000270,-0.00002420,0.00000118,0.00000297,0.000004
 53,-0.00000392,0.00000252,-0.00000083,-0.00000270,-0.00001911,-0.00001
 415,0.00003364,-0.00023342,-0.00005048,-0.00004867,-0.00010337,-0.0000
 8735,0.00003484,-0.00024656,0.00008587,0.00000782,-0.00049221,-0.00044
 299,-0.00037175,0.00153434,-0.00525598,0.00208362,0.00206296,0.0528329
 0,0.00001117,0.00001288,-0.00002725,-0.00003974,-0.00002504,0.00000499
 ,0.00000358,-0.00002829,0.00000935,0.00000786,0.00001819,-0.00000465,-
 0.00000163,-0.00000463,0.00000392,-0.00001739,0.00001202,0.00004637,0.
 00003356,0.00001161,-0.00001859,-0.00002470,0.00001028,0.00002085,-0.0
 0007728,-0.00002706,0.00008203,0.00003735,-0.00000286,-0.00004355,-0.0
 0001887,0.00000292,0.00001364,0.00000909,0.00006644,0.00002154,0.00025
 084,0.00024444,-0.00040289,-0.00043013,-0.00024762,-0.00036278,-0.0004
 1652,-0.00084681,0.00127907,-0.00973153,0.00374198,0.00140028,0.030002
 33,0.00466590,-0.04223376,-0.02997215,-0.01347425,-0.00743346,-0.00128
 622,-0.00051061,0.00117011,0.03742786,0.00075500,-0.00654054,-0.002264
 31,-0.00094332,0.00261312,-0.00012968,-0.00039747,0.00036656,0.0000329
 7,0.00007564,0.00008479,0.00000990,-0.00002162,-0.00001143,0.00000150,
 -0.00001371,0.00000090,0.00061444,-0.00050552,-0.00037990,-0.00016033,
 -0.00050424,-0.00016285,0.00110939,0.00138807,0.00197987,-0.00057531,-
 0.00008203,-0.00034549,-0.00004287,-0.00013344,-0.00011964,-0.00000605
 ,-0.00000155,-0.00000072,0.00000170,0.00004066,0.00000235,0.00003779,0
 .00000047,-0.00003031,0.00001977,-0.00001237,0.00002708,0.00000981,0.0
 0000470,-0.00001333,0.00000921,-0.00000014,0.00000746,0.00002342,0.000
 03087,-0.00002818,0.00018271,-0.00000246,-0.00004699,0.00002768,0.0000
 7767,-0.00001018,0.00001966,-0.00004163,-0.00003140,0.00010064,-0.0002
 4606,0.00011976,-0.00063920,0.00142240,-0.00032589,-0.02516726,0.00429
 387,0.05573879,0.00000532,-0.00000158,-0.00001354,-0.00000755,-0.00000
 298,0.00000634,-0.00001302,-0.00001725,0.00001213,0.00000997,0.0000062
 2,-0.00000778,-0.00000379,-0.00000051,0.00000350,0.00001892,0.00000759
 ,0.00003061,0.00002220,0.00000622,-0.00000790,-0.00001532,-0.00000261,
 -0.00000090,-0.00002115,0.00000252,0.00001227,0.00001708,-0.00000568,-
 0.00000821,-0.00001032,0.00000195,0.00000173,-0.00001091,0.00002286,0.
 00001711,0.00001698,0.00002386,-0.00010403,-0.00012096,-0.00008516,0.0
 0003821,0.00054210,-0.00007519,0.00018205,-0.00068025,0.00091801,-0.00
 016434,-0.01322158,-0.00499339,0.00254158,0.00201955,0.00076579,-0.001
 04261,0.00027172,-0.00003220,-0.00007064,-0.33979322,-0.05327305,0.000
 97414,-0.01694961,0.01413479,-0.00703014,0.00041426,0.00038087,0.00037
 402,-0.00004511,-0.00000966,0.00000154,0.00003924,0.00001211,-0.000015
 54,-0.00001251,-0.00000372,0.00000017,0.00001092,0.00002453,-0.0002132
 9,0.00140905,-0.00136115,0.00029364,-0.01098972,-0.00324347,-0.0005122
 7,0.00187574,0.00037239,0.00029562,0.00031611,0.00036194,0.00042867,-0
 .00000317,0.00000133,0.00000128,-0.00000536,0.00000577,-0.00000240,0.0
 0001230,0.00000032,-0.00000653,0.00000778,-0.00000530,0.00000363,0.000
 00416,0.00000106,-0.00000396,0.00000607,0.00000101,0.00000080,0.000007
 66,0.00000678,-0.00000911,0.00002815,-0.00001053,0.00002839,0.00000813
 ,0.00000169,0.00001228,0.00003557,-0.00004129,0.00000467,0.00006293,0.
 00013837,0.00001346,0.00057922,-0.00058926,0.00019236,0.00053987,-0.00
 088226,0.00159135,0.37298115,0.00000271,-0.00000236,0.00001490,0.00000
 180,0.00000365,-0.00000843,-0.00000543,0.00000555,-0.00000611,0.000003
 22,-0.00000898,0.00000763,-0.00000196,0.00000254,-0.00000173,-0.000001
 49,0.00001051,-0.00000259,0.00001415,-0.00000972,-0.00000061,-0.000010
 62,-0.00000030,-0.00000869,0.00000234,-0.00000134,-0.00002040,-0.00000
 104,0.00000942,0.00001915,0.00000419,-0.00000344,-0.00000422,-0.000007
 93,-0.00001038,-0.00002166,0.00001472,-0.00003214,0.00004586,-0.000032
 65,0.00006037,-0.00001392,0.00022640,-0.00002211,-0.00002424,-0.000912
 17,0.00030678,-0.00020173,-0.00922521,-0.00042066,0.00144197,0.0013129
 5,0.00032933,-0.00017436,-0.00000413,-0.00009064,-0.00015452,-0.057288
 32,-0.04581438,-0.00235525,0.04460455,-0.01623871,0.00947770,0.0006215
 1,0.00143609,-0.00084346,-0.00005888,0.00002447,-0.00003339,0.00001873
 ,-0.00001932,-0.00000451,-0.00000472,0.00000379,0.00000313,-0.00015781
 ,-0.00023324,0.00013630,0.00169976,0.00176327,0.00064896,-0.03065111,-
 0.00623694,-0.00361438,0.00182596,0.00147233,0.00211406,0.00002349,0.0
 0011580,0.00049656,0.00000077,0.,-0.00000266,-0.00000085,-0.00000665,0
 .00000095,-0.00000068,-0.00000255,0.00000184,0.00000338,0.00000307,0.0
 0000241,0.00000072,-0.00000045,-0.00000037,0.00000056,0.00000016,0.000
 00114,0.00000348,0.00000169,-0.00000479,0.00001858,0.00000168,0.000019
 00,0.00000905,-0.00001906,0.00000015,0.00003717,-0.00004541,0.00001252
 ,0.00015191,0.00011931,-0.00005389,0.00019978,-0.00002275,0.00003759,0
 .00006718,-0.00003645,0.00160876,0.04800898,0.06706125,-0.00000382,-0.
 00001129,0.00000644,0.00001231,0.00001545,0.00000071,0.00000929,0.0000
 2182,0.00000351,-0.00000429,-0.00001106,-0.00000861,0.00000129,0.00000
 449,-0.00000220,-0.00001648,-0.00001610,-0.00002716,-0.00001311,-0.000
 00801,-0.00000965,0.00000886,-0.00000869,0.00000824,0.00002133,0.00001
 300,-0.00003095,-0.00001203,-0.00000421,0.00001867,0.00000732,-0.00000
 123,-0.00000781,0.00000025,-0.00002880,0.00000396,-0.00000500,-0.00018
 545,0.00017000,0.00003612,0.00024651,0.00016333,-0.00066833,-0.0000165
 9,-0.00036225,0.00086925,-0.00110454,0.00104032,0.03682162,0.00817717,
 -0.00580171,-0.00152676,-0.00011940,0.00380856,-0.00002379,0.00040460,
 0.00000252,0.00323932,-0.00245765,-0.04198253,-0.01497214,0.00830851,0
 .00038164,-0.00128196,-0.00003478,0.00047825,0.00004155,0.00000191,0.0
 0006272,-0.00000888,-0.00000695,0.00000217,-0.00000364,-0.00000182,0.0
 0000344,0.00029921,0.00014970,-0.00036777,0.00133208,0.00060088,0.0005
 4743,-0.02673960,-0.00941391,-0.00320689,0.00055361,0.00139215,0.00272
 290,-0.00010474,0.00021347,0.00041916,0.00000173,0.00000194,-0.0000002
 3,-0.00000410,-0.00001348,0.00000222,-0.00000859,-0.00000011,0.0000059
 8,-0.00000664,0.00000578,-0.00000831,-0.00000353,-0.00000163,0.0000041
 3,-0.00000420,0.00000061,-0.00000214,-0.00000346,-0.00000840,0.0000116
 5,-0.00003998,0.00000392,-0.00005623,-0.00000807,0.00002719,0.00000500
 ,-0.00001107,0.00001613,0.00000304,-0.00011040,-0.00004848,-0.00013588
 ,-0.00047319,0.00027765,0.00001424,0.00132350,0.00160745,-0.00605038,0
 .00262201,-0.00495240,0.05129727,0.00000264,-0.00001014,-0.00003609,-0
 .00001452,0.00000616,0.00001830,0.00000587,-0.00000467,0.00003083,0.00
 000655,0.00000807,-0.00003513,-0.00000153,0.00000102,0.00000465,-0.000
 03157,0.00000571,0.00000571,0.00000984,-0.00001810,-0.00008036,0.00000
 178,0.00001263,0.00009995,-0.00001759,0.00001924,0.00001139,0.00000866
 ,-0.00002238,-0.00001821,-0.00000651,0.00000400,0.00000170,0.00001070,
 0.00001683,0.00005412,0.00002164,-0.00006060,-0.00013062,0.00005808,0.
 00006998,0.00015333,0.00001537,-0.00005031,-0.00039507,0.00004365,0.00
 033033,0.00017511,-0.00071681,-0.00064039,0.00033794,0.00038844,0.0000
 6086,-0.00021280,-0.00001908,-0.00004646,-0.00000283,-0.00874656,0.000
 46620,-0.00407778,0.00235239,-0.00073671,0.00160753,-0.00036527,-0.000
 15511,-0.00011021,0.00048342,-0.00023319,-0.00021148,0.00001252,0.0002
 6875,-0.00015259,-0.00001880,-0.00002278,-0.00004050,-0.00027998,-0.00
 039544,0.00094308,-0.00640766,0.01251831,-0.00640709,-0.33318795,-0.02
 345352,-0.06546550,-0.01843670,-0.00391869,0.00786523,0.00049419,0.000
 21742,0.00059601,-0.00000492,0.00000239,0.00000456,-0.00000068,0.00000
 396,-0.00000127,0.00000794,-0.00000113,-0.00000364,0.00000046,-0.00000
 201,-0.00000330,0.00000287,0.00000006,-0.00000323,0.00000325,0.0000009
 6,-0.00000032,0.00000712,-0.00000210,-0.00000107,0.00000493,-0.0000052
 8,-0.00000429,-0.00001779,-0.00000072,0.00001752,0.00007854,-0.0002413
 0,0.00011082,0.00035827,0.00063714,-0.00136165,0.00005981,-0.00008087,
 0.00018125,0.00054137,0.00008456,-0.00057443,0.00064140,-0.00051304,-0
 .00114285,0.36265223,0.00000115,0.00001672,0.00000588,-0.00000266,-0.0
 0001986,-0.00000236,-0.00000776,-0.00000228,-0.00001321,-0.00000090,0.
 00001080,0.00001180,0.00000005,-0.00000390,-0.00000165,0.00002064,-0.0
 0005518,-0.00001660,0.00001149,0.00007861,0.00011323,-0.00002940,-0.00
 005043,-0.00016772,-0.00000402,-0.00001382,0.00002106,0.00000385,0.000
 00787,-0.00001177,-0.00000429,0.00000046,0.00000520,-0.00000034,0.0000
 2443,0.00000540,-0.00000283,0.00016033,-0.00003664,-0.00008763,-0.0000
 9641,-0.00013075,0.00006633,0.00034397,0.00033386,-0.00031940,-0.00078
 378,0.00018587,-0.00084248,-0.00029140,0.00136774,0.00039415,0.0000707
 4,-0.00075764,0.00011661,-0.00020091,0.00011703,-0.02581017,-0.0013885
 7,-0.00967544,0.00133699,0.00356014,0.00131887,-0.00033365,-0.00013715
 ,0.00003325,0.00015578,0.00014972,0.00003032,-0.00017892,-0.00032131,0
 .00027243,-0.00000866,0.00003536,0.00004499,0.00387442,0.00160351,-0.0
 0425422,0.03775342,-0.01724717,0.01775439,-0.02440020,-0.04212940,-0.0
 0758851,-0.00524000,0.00365003,0.00210977,-0.00050790,0.00052256,-0.00
 037716,0.00000011,-0.00000233,-0.00000101,0.00000492,0.00000947,-0.000
 00103,0.00000067,0.00000146,-0.00000030,0.00000067,-0.00000370,0.00000
 086,0.00000104,0.00000090,-0.00000047,0.00000249,-0.00000041,0.0000019
 0,-0.00000392,0.00000549,-0.00000397,0.00000656,-0.00000155,0.00000620
 ,0.00001385,-0.00002173,-0.00001579,-0.00025909,0.00009711,0.00004459,
 -0.00141010,0.00029551,0.00011659,-0.00003389,-0.00012686,-0.00001991,
 0.00041341,0.00016532,-0.00041204,-0.00057072,-0.00345308,-0.00303535,
 0.01588034,0.05554071,-0.00000093,-0.00000493,-0.00003983,-0.00001285,
 0.00000052,0.00002137,0.00000901,-0.00000461,0.00003087,0.00000102,0.0
 0001498,-0.00003552,0.00000089,-0.00000136,0.00000426,-0.00001976,-0.0
 0002155,-0.00000757,0.00000436,0.00001235,-0.00004136,-0.00000267,-0.0
 0000393,0.00004845,-0.00001099,0.00001864,0.00002153,0.00000252,-0.000
 02479,-0.00002744,-0.00000406,0.00000540,0.00000413,0.00001680,0.00002
 418,0.00006283,0.00000635,-0.00002648,-0.00014475,0.00007502,0.0000462
 4,0.00013963,0.00002532,0.00005536,-0.00039106,0.00005246,-0.00021665,
 -0.00006812,-0.00096989,0.00041534,0.00183411,0.00053126,-0.00010690,-
 0.00036122,0.00006694,-0.00002384,0.00010803,-0.02719504,-0.00419783,-
 0.00357430,0.00241209,0.00112003,0.00163388,0.00010491,-0.00022670,-0.
 00012224,0.00008623,0.00004144,0.00004280,0.00007773,0.00014995,-0.000
 13353,-0.00000516,-0.00002053,-0.00001420,-0.00239441,-0.00054931,0.00
 295587,-0.01302133,0.00989348,-0.00293635,-0.07379315,-0.00968645,-0.0
 6198163,0.04182241,0.00418436,-0.01091228,0.00251152,0.00022177,0.0036
 4830,-0.00000363,0.00000149,0.00000539,0.00000238,0.00000711,-0.000001
 77,0.00000395,-0.00000102,-0.00000236,-0.00000241,-0.00000206,-0.00000
 390,0.00000153,0.00000012,-0.00000265,0.00000209,0.00000027,-0.0000004
 1,0.00000269,-0.00000016,-0.00000172,0.00000373,-0.00000755,0.00000234
 ,-0.00000596,0.00000238,-0.00000233,0.00017014,-0.00010695,-0.00003306
 ,0.00098239,-0.00006318,-0.00024590,0.00014650,0.00001153,0.00009711,0
 .00053706,0.00002973,-0.00036867,-0.00047035,-0.00358224,-0.00312679,0
 .06825325,0.00262233,0.07392006\\-0.00232730,-0.01639989,0.00241303,0.
 01859206,0.02274325,-0.01447993,-0.00189483,-0.02047213,0.01540318,0.0
 0961969,0.01582545,0.01270088,-0.01099495,-0.01865211,-0.01933332,-0.0
 1287371,-0.02285587,-0.01246902,0.00790283,0.01355590,0.01085561,0.006
 18477,0.01087205,0.01550650,-0.02367915,0.01830662,-0.00848930,0.00351
 093,0.00884353,0.00403253,0.00809070,-0.03298605,0.00402842,0.02514359
 ,0.00339541,0.00585476,-0.00461680,0.00551748,0.01557408,-0.04105615,0
 .00975698,-0.00904896,0.01451165,-0.01978963,0.00337625,-0.01026170,0.
 01104402,0.00028002,-0.00208974,0.02971431,0.00374039,0.00050146,-0.02
 147033,0.00135792,-0.00009938,0.02566216,-0.01278752,0.03142506,0.0035
 9094,-0.00776412,-0.00736220,-0.00326297,-0.01373826,-0.00619174,-0.01
 537144,0.02949280,0.01748865,-0.02643357,-0.02009459,-0.01861966,-0.01
 318128,0.00424968,0.00007520,0.03536534,-0.00376599,-0.00154553,0.0047
 3314,0.02343202,0.00528658,0.00055296,0.01182647,0.00400525,-0.0119305
 6,-0.02065344,-0.00272912,0.00675292,0.02001942,-0.00256166,-0.0030325
 2,-0.00089158,-0.00092032,0.00256093,0.00123336,0.00553817,0.00361137,
 -0.01890735,-0.02282787,0.00155784,-0.00435975,0.02328780,-0.00182710,
 0.00483317,-0.01679394,-0.00361952,0.00294182,0.02199290,0.00398892,0.
 00160708,-0.02240858,0.00268652,-0.00053389,0.01810190,0.00209613,-0.0
 0540682,-0.00516487,-0.00833197,-0.01630548,0.01997351,0.00169477,-0.0
 0496260,-0.02135327,0.00173886,0.00017210,0.01905875,-0.00131533,-0.00
 034232,-0.02332139,-0.00303574,0.00255592,0.02291669,-0.00010805,0.001
 27907,-0.02151430,-0.00209176,-0.00443224\\\@


     "IF I COULD JUST GET IT ON PAPER"
 LIFE AND INK, THEY RUN OUT AT THE SAME TIME,
 OR SO SAID MY OLD FRIEND THE SQUID.
     -- JIMMY BUFFETT, 1981
 Job cpu time:  1 days  7 hours 39 minutes 55.7 seconds.
 File lengths (MBytes):  RWF=   1769 Int=      0 D2E=      0 Chk=     28 Scr=      1
 Normal termination of Gaussian 09 at Wed Mar 23 06:42:25 2016.
Gaussian '09 finished on node011 at Wed Mar 23 06:42:25 EDT 2016.
