Gaussian '09 started on node011 at Fri Feb 12 12:48:25 EST 2016.
 Entering Gaussian System, Link 0=/usr/local/gaussian/g09/g09
 Initial command:
 /usr/local/gaussian/g09/l1.exe /home/srmcgrat/thesis/gaussian/cellobiose/550/8000/1/2dfp/gaussian29968/Gau-30004.inp -scrdir=/home/srmcgrat/thesis/gaussian/cellobiose/550/8000/1/2dfp/gaussian29968/
 Entering Link 1 = /usr/local/gaussian/g09/l1.exe PID=     30006.
  
 Copyright (c) 1988,1990,1992,1993,1995,1998,2003,2009,2010,
            Gaussian, Inc.  All Rights Reserved.
  
 This is part of the Gaussian(R) 09 program.  It is based on
 the Gaussian(R) 03 system (copyright 2003, Gaussian, Inc.),
 the Gaussian(R) 98 system (copyright 1998, Gaussian, Inc.),
 the Gaussian(R) 94 system (copyright 1995, Gaussian, Inc.),
 the Gaussian 92(TM) system (copyright 1992, Gaussian, Inc.),
 the Gaussian 90(TM) system (copyright 1990, Gaussian, Inc.),
 the Gaussian 88(TM) system (copyright 1988, Gaussian, Inc.),
 the Gaussian 86(TM) system (copyright 1986, Carnegie Mellon
 University), and the Gaussian 82(TM) system (copyright 1983,
 Carnegie Mellon University). Gaussian is a federally registered
 trademark of Gaussian, Inc.
  
 This software contains proprietary and confidential information,
 including trade secrets, belonging to Gaussian, Inc.
  
 This software is provided under written license and may be
 used, copied, transmitted, or stored only in accord with that
 written license.
  
 The following legend is applicable only to US Government
 contracts under FAR:
  
                    RESTRICTED RIGHTS LEGEND
  
 Use, reproduction and disclosure by the US Government is
 subject to restrictions as set forth in subparagraphs (a)
 and (c) of the Commercial Computer Software - Restricted
 Rights clause in FAR 52.227-19.
  
 Gaussian, Inc.
 340 Quinnipiac St., Bldg. 40, Wallingford CT 06492
  
  
 ---------------------------------------------------------------
 Warning -- This program may not be used in any manner that
 competes with the business of Gaussian, Inc. or will provide
 assistance to any competitor of Gaussian, Inc.  The licensee
 of this program is prohibited from giving any competitor of
 Gaussian, Inc. access to this program.  By using this program,
 the user acknowledges that Gaussian, Inc. is engaged in the
 business of creating and licensing software in the field of
 computational chemistry and represents and warrants to the
 licensee that it is not a competitor of Gaussian, Inc. and that
 it will not use this program in any manner prohibited above.
 ---------------------------------------------------------------
  

 Cite this work as:
 Gaussian 09, Revision B.01,
 M. J. Frisch, G. W. Trucks, H. B. Schlegel, G. E. Scuseria, 
 M. A. Robb, J. R. Cheeseman, G. Scalmani, V. Barone, B. Mennucci, 
 G. A. Petersson, H. Nakatsuji, M. Caricato, X. Li, H. P. Hratchian, 
 A. F. Izmaylov, J. Bloino, G. Zheng, J. L. Sonnenberg, M. Hada, 
 M. Ehara, K. Toyota, R. Fukuda, J. Hasegawa, M. Ishida, T. Nakajima, 
 Y. Honda, O. Kitao, H. Nakai, T. Vreven, J. A. Montgomery, Jr., 
 J. E. Peralta, F. Ogliaro, M. Bearpark, J. J. Heyd, E. Brothers, 
 K. N. Kudin, V. N. Staroverov, T. Keith, R. Kobayashi, J. Normand, 
 K. Raghavachari, A. Rendell, J. C. Burant, S. S. Iyengar, J. Tomasi, 
 M. Cossi, N. Rega, J. M. Millam, M. Klene, J. E. Knox, J. B. Cross, 
 V. Bakken, C. Adamo, J. Jaramillo, R. Gomperts, R. E. Stratmann, 
 O. Yazyev, A. J. Austin, R. Cammi, C. Pomelli, J. W. Ochterski, 
 R. L. Martin, K. Morokuma, V. G. Zakrzewski, G. A. Voth, 
 P. Salvador, J. J. Dannenberg, S. Dapprich, A. D. Daniels, 
 O. Farkas, J. B. Foresman, J. V. Ortiz, J. Cioslowski, 
 and D. J. Fox, Gaussian, Inc., Wallingford CT, 2010.
 
 ******************************************
 Gaussian 09:  EM64L-G09RevB.01 12-Aug-2010
                12-Feb-2016 
 ******************************************
 --------------------------------------------------
 # freq=raman b3lyp/6-31+g(2df,p) geom=connectivity
 --------------------------------------------------
 1/10=4,30=1,38=1,57=2/1,3;
 2/12=2,17=6,18=5,40=1/2;
 3/5=1,6=6,7=114,11=2,16=1,25=1,30=1,71=2,74=-5/1,2,3;
 4//1;
 5/5=2,38=5,98=1/2;
 8/6=4,10=90,11=11/1;
 10/13=10,15=4/2;
 11/6=3,8=1,9=11,15=111,16=1/1,2,10;
 10/6=1/2;
 6/7=2,8=2,9=2,10=2,18=1,28=1/1;
 7/8=1,10=1,25=1/1,2,3,16;
 1/10=4,30=1/3;
 99//99;
 ------------
 550 8000.com
 ------------
 Symbolic Z-matrix:
 Charge =  0 Multiplicity = 1
 O                     9.545     7.585     11.452 
 C                     10.301    7.498     12.668 
 C                     10.336    8.881     13.297 
 O                     11.31     9.732     12.677 
 H                     11.2      9.457     11.722 
 C                     10.932    8.911     14.695 
 O                     10.532    10.156    15.286 
 H                     10.799    10.955    14.746 
 C                     9.538     5.138     13.129 
 O                     8.948     4.095     13.918 
 H                     8.646     3.362     13.308 
 C                     9.722     6.537     13.693 
 O                     10.585    6.59      14.839 
 C                     10.589    7.777     15.646 
 O                     11.446    7.805     16.797 
 C                     10.788    7.607     18.057 
 C                     10.279    6.234     18.466 
 O                     9.464     5.59      17.476 
 H                     9.825     5.74      16.556 
 C                     9.535     6.246     19.791 
 O                     9.211     4.883     20.102 
 H                     9.03      4.556     19.175 
 C                     12.354    9.399     18.787 
 O                     11.801    10.549    18.131 
 H                     11.529    10.297    17.202 
 C                     11.718    8.072     19.166 
 O                     10.884    8.13      20.332 
 C                     10.336    6.926     20.89 
 O                     9.675     7.402     22.071 
 H                     10.33087   7.66406   22.7212 
 H                     11.13904   6.2812    21.18026 
 H                     8.62133   6.78697   19.65882 
 H                     11.14217   5.61664   18.60275 
 H                     9.94108   8.26089   18.06392 
 H                     12.48521   7.34119   19.31503 
 H                     13.19045   9.12563   18.17829 
 H                     12.73589   9.78113   19.7106 
 H                     10.14556   7.63845   10.70495 
 H                     10.5053   4.79291   12.82876 
 H                     8.94398   5.23391   12.24421 
 H                     8.76024   6.90366   13.98536 
 H                     11.30071   7.19624   12.43471 
 H                     9.36791   9.33656   13.28415 
 H                     11.99663   8.92882   14.58938 
 H                     9.58808   7.93414   15.99005 
 

 GradGradGradGradGradGradGradGradGradGradGradGradGradGradGradGradGradGrad
 Berny optimization.
 Initialization pass.
 Trust Radius=3.00D-01 FncErr=1.00D-07 GrdErr=1.00D-07
 Number of steps in this run=      2 maximum allowed number of steps=      2.
 GradGradGradGradGradGradGradGradGradGradGradGradGradGradGradGradGradGrad

                          Input orientation:                          
 ---------------------------------------------------------------------
 Center     Atomic      Atomic             Coordinates (Angstroms)
 Number     Number       Type             X           Y           Z
 ---------------------------------------------------------------------
      1          8           0        9.545000    7.585000   11.452000
      2          6           0       10.301000    7.498000   12.668000
      3          6           0       10.336000    8.881000   13.297000
      4          8           0       11.310000    9.732000   12.677000
      5          1           0       11.200000    9.457000   11.722000
      6          6           0       10.932000    8.911000   14.695000
      7          8           0       10.532000   10.156000   15.286000
      8          1           0       10.799000   10.955000   14.746000
      9          6           0        9.538000    5.138000   13.129000
     10          8           0        8.948000    4.095000   13.918000
     11          1           0        8.646000    3.362000   13.308000
     12          6           0        9.722000    6.537000   13.693000
     13          8           0       10.585000    6.590000   14.839000
     14          6           0       10.589000    7.777000   15.646000
     15          8           0       11.446000    7.805000   16.797000
     16          6           0       10.788000    7.607000   18.057000
     17          6           0       10.279000    6.234000   18.466000
     18          8           0        9.464000    5.590000   17.476000
     19          1           0        9.825000    5.740000   16.556000
     20          6           0        9.535000    6.246000   19.791000
     21          8           0        9.211000    4.883000   20.102000
     22          1           0        9.030000    4.556000   19.175000
     23          6           0       12.354000    9.399000   18.787000
     24          8           0       11.801000   10.549000   18.131000
     25          1           0       11.529000   10.297000   17.202000
     26          6           0       11.718000    8.072000   19.166000
     27          8           0       10.884000    8.130000   20.332000
     28          6           0       10.336000    6.926000   20.890000
     29          8           0        9.675000    7.402000   22.071000
     30          1           0       10.330872    7.664061   22.721197
     31          1           0       11.139044    6.281200   21.180265
     32          1           0        8.621334    6.786965   19.658823
     33          1           0       11.142171    5.616639   18.602751
     34          1           0        9.941078    8.260893   18.063925
     35          1           0       12.485210    7.341194   19.315033
     36          1           0       13.190448    9.125633   18.178292
     37          1           0       12.735888    9.781131   19.710600
     38          1           0       10.145556    7.638448   10.704955
     39          1           0       10.505298    4.792906   12.828760
     40          1           0        8.943985    5.233911   12.244214
     41          1           0        8.760237    6.903656   13.985360
     42          1           0       11.300709    7.196244   12.434709
     43          1           0        9.367908    9.336557   13.284154
     44          1           0       11.996626    8.928819   14.589385
     45          1           0        9.588081    7.934145   15.990046
 ---------------------------------------------------------------------
                    Distance matrix (angstroms):
                    1          2          3          4          5
     1  O    0.000000
     2  C    1.434490   0.000000
     3  C    2.389419   1.519722   0.000000
     4  O    3.037344   2.451309   1.434321   0.000000
     5  H    2.513227   2.353890   1.886504   0.999875   0.000000
     6  C    3.768169   2.550188   1.520039   2.211165   3.034579
     7  O    4.720568   3.737947   2.370688   2.755348   3.692820
     8  H    4.876459   4.064103   2.572051   2.457155   3.398438
     9  C    2.966511   2.522754   3.830806   4.944606   4.836905
    10  O    4.314819   3.869563   5.021751   6.236577   6.216507
    11  H    4.699645   4.500569   5.771965   6.933394   6.796127
    12  C    2.480265   1.519667   2.455229   3.709720   3.820435
    13  O    3.680135   2.370308   2.772805   3.882272   4.279440
    14  C    4.326250   3.004874   2.607801   3.627234   4.312018
    15  O    5.677255   4.295802   3.826209   4.550409   5.342775
    16  C    6.720979   5.412058   4.948230   5.807969   6.612448
    17  C    7.180540   5.934221   5.807617   6.841892   7.531103
    18  O    6.346272   5.240028   5.390279   6.602597   7.146741
    19  H    5.434449   4.293447   4.555006   5.760897   6.250942
    20  C    8.445824   7.272647   7.053854   8.118609   8.842596
    21  O    9.068344   7.955544   7.972305   9.113135   9.752025
    22  H    8.311726   7.253403   7.413646   8.614719   9.180191
    23  C    8.061222   6.728356   5.872031   6.207489   7.158862
    24  O    7.647475   6.434514   5.319399   5.536667   6.529085
    25  H    6.659857   5.468047   4.321728   4.565393   5.553759
    26  C    8.029003   6.675430   6.083549   6.710379   7.589446
    27  O    8.996908   7.712082   7.096163   7.832427   8.717390
    28  C    9.493988   8.241947   7.840642   8.733595   9.550114
    29  O   10.621372   9.424304   8.922300   9.815771  10.660697
    30  H   11.296842  10.054613   9.502445  10.301503  11.178209
    31  H    9.943842   8.639535   8.339646   9.178385   9.977384
    32  H    8.297106   7.224850   6.913599   8.040399   8.761950
    33  H    7.586741   6.282385   6.281478   7.216571   7.880130
    34  H    6.658172   5.461461   4.823284   5.749527   6.575376
    35  H    8.398307   6.998458   6.573190   7.152661   7.986398
    36  H    7.804220   6.431285   5.659924   5.845339   6.764274
    37  H    9.121910   7.793561   6.906806   7.176845   8.141360
    38  H    0.960000   1.974192   2.880781   3.102878   2.335244
    39  H    3.257826   2.717556   4.118303   5.006518   4.843686
    40  H    2.552732   2.673422   4.043182   5.100797   4.816305
    41  H    2.738247   2.112495   2.620450   4.026491   4.194617
    42  H    2.049235   1.070000   2.124291   2.547322   2.372576
    43  H    2.540886   2.151883   1.070000   2.072856   2.410683
    44  H    4.202321   2.934980   2.104809   2.184896   3.022496
    45  H    4.551661   3.425560   2.951002   4.144099   4.809738
                    6          7          8          9         10
     6  C    0.000000
     7  O    1.435028   0.000000
     8  H    2.048957   1.000645   0.000000
     9  C    4.316378   5.551667   6.167844   0.000000
    10  O    5.266293   6.412192   7.153418   1.434737   0.000000
    11  H    6.159624   7.323108   8.022275   1.995465   1.000296
    12  C    2.846749   4.036200   4.667704   1.519590   2.571588
    13  O    2.351209   3.594297   4.371232   2.475604   3.122985
    14  C    1.519212   2.406759   3.309650   3.795288   4.385885
    15  O    2.430193   2.940360   3.814146   4.920120   5.319092
    16  C    3.608905   3.773775   4.708710   5.651871   5.731585
    17  C    4.670458   5.055541   6.032963   5.498533   5.199152
    18  O    4.573623   5.175430   6.165902   4.371063   3.893667
    19  H    3.839793   4.649065   5.605444   3.491289   3.230201
    20  C    5.918028   6.047903   7.016010   6.753511   6.281998
    21  O    6.958611   7.262467   8.250919   6.985319   6.239549
    22  H    6.531005   6.981427   7.980765   6.095154   5.277811
    23  C    4.359437   4.018673   4.600961   7.622266   7.964949
    24  O    3.904395   3.139878   3.553458   7.708443   8.218461
    25  H    2.926167   2.164474   2.645336   6.867947   7.477367
    26  C    4.616444   4.561146   5.356552   7.057345   7.143594
    27  O    5.691049   5.448917   6.260291   7.914985   7.821043
    28  C    6.532493   6.471177   7.361790   8.004178   7.651790
    29  O    7.632988   7.372597   8.218443   9.225174   8.828147
    30  H    8.144695   7.844257   8.640208   9.950873   9.599313
    31  H    7.001241   7.079896   7.959887   8.288131   7.894342
    32  H    5.872839   5.841457   6.800777   6.796908   6.349050
    33  H    5.115418   5.654993   6.594725   5.724021   5.392278
    34  H    3.571305   3.414306   4.359228   5.853923   5.960668
    35  H    5.120689   5.288787   6.064566   7.197716   7.223406
    36  H    4.156920   4.061325   4.565768   7.398442   7.839370
    37  H    5.400684   4.957291   5.456809   8.666176   8.957366
    38  H    4.261261   5.241506   5.268449   3.535160   4.930905
    39  H    4.541324   5.899281   6.460145   1.070000   2.024524
    40  H    4.845569   6.000101   6.513898   1.070000   2.024524
    41  H    3.041311   3.925373   4.598752   2.110879   2.815731
    42  H    2.860988   4.181020   4.440949   2.797419   4.165706
    43  H    2.148946   2.456417   2.608520   4.204865   5.296415
    44  H    1.070000   2.033808   2.358865   4.748460   5.754188
    45  H    2.106539   2.514618   3.484184   4.000815   4.409321
                   11         12         13         14         15
    11  H    0.000000
    12  C    3.374408   0.000000
    13  O    4.064931   1.435581   0.000000
    14  C    5.360384   2.470526   1.435352   0.000000
    15  O    6.305027   3.770254   2.459941   1.435282   0.000000
    16  C    6.720208   4.617981   3.380979   2.425164   1.435189
    17  C    6.125360   4.814934   3.657253   3.229450   2.572060
    18  O    4.796387   3.908256   3.034866   3.065533   3.048867
    19  H    4.194571   2.973649   2.061114   2.358212   2.636275
    20  C    7.151019   6.107803   5.073770   4.542676   3.878974
    21  O    6.985063   6.638683   5.700956   5.489085   4.945335
    22  H    5.999565   5.869885   5.035482   5.025849   4.695524
    23  C    8.956231   6.408378   5.158153   3.951201   2.706548
    24  O    9.212401   6.333579   5.290520   3.915119   3.071664
    25  H    8.459855   5.451232   4.496304   3.107271   2.526060
    26  C    8.120188   6.024448   4.712000   3.708378   2.399465
    27  O    8.779467   6.925620   5.712622   4.708527   3.594119
    28  C    8.546632   7.233611   6.065435   5.318623   4.330980
    29  O    9.704154   8.422667   7.334117   6.500511   5.577986
    30  H   10.485933   9.118626   7.959096   7.080805   6.029883
    31  H    8.758399   7.624472   6.372908   5.759171   4.650720
    32  H    7.215536   6.071655   5.208212   4.577623   4.147911
    33  H    6.272851   5.193227   3.927301   3.703449   2.853414
    34  H    6.949475   4.703699   3.688720   2.549571   2.019338
    35  H    8.164433   6.315799   4.920362   4.152992   2.763252
    36  H    8.808588   6.232897   4.936463   3.872835   2.587497
    37  H    9.946141   7.471239   6.208230   5.014643   3.749396
    38  H    5.226138   3.212631   4.287503   4.962838   6.231525
    39  H    2.394610   2.098173   2.697585   4.104712   5.069966
    40  H    2.173589   2.098173   3.356311   4.554726   5.796416
    41  H    3.607658   1.070000   2.038834   2.620082   3.991374
    42  H    4.744633   2.123728   2.580772   3.340089   4.406958
    43  H    6.018061   2.851326   3.382667   3.082467   4.359383
    44  H    6.622546   3.420267   2.743186   2.103457   2.537661
    45  H    5.383809   2.691908   2.031127   1.070000   2.029708
                   16         17         18         19         20
    16  C    0.000000
    17  C    1.520359   0.000000
    18  O    2.481698   1.434943   0.000000
    19  H    2.581871   2.024414   0.999610   0.000000
    20  C    2.535564   1.519640   2.407198   3.287151   0.000000
    21  O    3.753549   2.375357   2.731251   3.699400   1.435084
    22  H    3.694467   2.208702   2.035709   2.982120   1.868310
    23  C    2.489281   3.798143   4.957752   4.976091   4.346974
    24  O    3.112396   4.587803   5.521076   5.432466   5.138693
    25  H    2.918254   4.434880   5.147344   4.907869   5.204763
    26  C    1.520199   2.436999   3.754589   3.979167   2.913827
    27  O    2.336315   2.728149   4.077344   4.592576   2.379483
    28  C    2.948551   2.521485   3.768378   4.522308   1.520461
    29  O    4.170490   3.837325   4.943874   5.761941   2.560144
    30  H    4.686892   4.489373   5.706600   6.478238   3.351173
    31  H    3.411123   2.847654   4.123725   4.837709   2.122322
    32  H    2.816511   2.115763   2.628218   3.488905   1.070000
    33  H    2.093996   1.070000   2.021518   2.437078   2.095478
    34  H    1.070000   2.093836   2.776135   2.939764   2.684675
    35  H    2.129277   2.610383   3.946699   4.153649   3.182724
    36  H    2.844770   4.113496   5.184625   5.041883   4.924979
    37  H    3.354923   4.490820   5.767518   5.895380   4.769622
    38  H    7.380128   7.888226   7.106878   6.159674   9.212378
    39  H    5.944202   5.822923   4.828716   3.905395   7.178144
    40  H    6.543732   6.441511   5.269611   4.429878   7.637251
    41  H    4.602691   4.778202   3.795463   3.015959   5.893914
    42  H    5.660543   6.192437   5.600726   4.613394   7.624678
    43  H    5.271441   6.107985   5.622944   4.883558   7.205450
    44  H    3.902863   5.023986   5.088659   4.330370   6.349324
    45  H    2.412287   3.081917   2.778214   2.278312   4.159315
                   21         22         23         24         25
    21  O    0.000000
    22  H    0.999509   0.000000
    23  C    5.657025   5.886779   0.000000
    24  O    6.534256   6.684641   1.434798   0.000000
    25  H    6.564642   6.564816   1.999813   1.000264   0.000000
    26  C    4.163036   4.425797   1.519561   2.685823   2.973826
    27  O    3.659896   4.189205   2.481589   3.396594   3.861193
    28  C    2.461792   3.203711   3.822390   4.783768   5.136948
    29  O    3.230730   4.111272   4.685051   5.472393   5.960327
    30  H    3.981031   4.891607   4.751943   5.617300   6.231325
    31  H    2.614378   3.383115   4.113941   5.286806   5.666154
    32  H    2.041861   2.319116   4.638491   5.157269   5.177919
    33  H    2.552527   2.431808   3.976020   4.998479   4.900767
    34  H    4.012097   3.973762   2.764112   2.949448   2.722157
    35  H    4.169231   4.440202   2.128521   3.487133   3.757131
    36  H    6.126712   6.259737   1.070000   1.989667   2.255140
    37  H    6.047290   6.428255   1.070000   1.989667   2.831214
    38  H    9.837192   9.082269   8.561321   8.146039   7.154957
    39  H    7.388054   6.519769   7.754639   7.932541   7.104100
    40  H    7.870149   6.964392   8.472557   8.430122   7.542998
    41  H    6.457517   5.702335   6.495970   6.302468   5.433931
    42  H    8.276795   7.586734   6.805377   6.628650   5.691561
    43  H    8.145049   7.594075   6.261147   5.557146   4.576275
    44  H    7.383582   6.996448   4.238957   3.899525   2.986026
    45  H    5.134184   4.676243   4.197506   4.039574   3.289237
                   26         27         28         29         30
    26  C    0.000000
    27  O    1.434739   0.000000
    28  C    2.489059   1.435717   0.000000
    29  O    3.614108   2.239595   1.434663   0.000000
    30  H    3.837964   2.496260   1.974346   0.960000   0.000000
    31  H    2.756704   2.050039   1.070000   2.047688   2.222593
    32  H    3.388736   2.715983   2.115468   2.703160   3.615238
    33  H    2.584110   3.061689   2.756056   4.167596   4.670304
    34  H    2.099452   2.459756   3.150334   4.106720   4.711511
    35  H    1.070000   2.054340   2.696667   3.936538   4.043188
    36  H    2.062477   3.308995   4.509947   5.521092   5.563394
    37  H    2.062477   2.557706   3.911805   4.538809   4.396564
    38  H    8.616834   9.667829  10.211709  11.378238  12.017698
    39  H    7.237659   8.220597   8.340404   9.639282  10.302148
    40  H    7.978787   8.807002   8.919108  10.089634  10.844181
    41  H    6.078850   6.803979   7.082202   8.152467   8.908421
    42  H    6.800835   7.963212   8.514437   9.774629  10.342692
    43  H    6.458959   7.309340   8.037219   9.002527   9.632358
    44  H    4.664459   5.903700   6.816650   7.980958   8.396471
    45  H    3.826518   4.535453   5.058190   6.104813   6.777395
                   31         32         33         34         35
    31  H    0.000000
    32  H    2.984869   0.000000
    33  H    2.661809   2.973142   0.000000
    34  H    3.881479   2.541238   2.953817   0.000000
    35  H    2.532753   3.918533   2.298954   2.980558   0.000000
    36  H    4.616373   5.342110   4.085174   3.364411   2.230194
    37  H    4.118172   5.088935   4.594590   3.582405   2.484473
    38  H   10.609489   9.122501   8.213169   7.388077   8.927250
    39  H    8.506720   7.360391   5.867122   6.304937   7.244692
    40  H    9.261107   7.582382   6.738657   6.635198   8.183972
    41  H    7.603475   5.676363   5.352600   4.457709   6.517076
    42  H    8.794781   7.715853   6.369068   5.888136   6.983044
    43  H    8.649896   6.906099   6.728542   4.932726   7.076055
    44  H    7.154371   6.455954   5.273304   4.091922   5.009094
    45  H    5.663575   3.963654   3.822598   2.128931   4.449774
                   36         37         38         39         40
    36  H    0.000000
    37  H    1.727504   0.000000
    38  H    8.205721   9.612625   0.000000
    39  H    7.389185   8.787357   3.568903   0.000000
    40  H    8.269900   9.529043   3.097562   1.724494   0.000000
    41  H    6.491890   7.540825   3.635944   2.972916   2.419380
    42  H    6.346842   7.853660   2.126493   2.562028   3.072652
    43  H    6.213606   7.269123   3.184427   4.705933   4.253574
    44  H    3.787374   5.244025   4.492250   4.735993   5.335802
    45  H    4.380082   5.211772   5.322631   4.549988   4.662336
                   41         42         43         44         45
    41  H    0.000000
    42  H    2.990673   0.000000
    43  H    2.603836   3.006363   0.000000
    44  H    3.865274   2.851095   2.963113   0.000000
    45  H    2.401249   4.014724   3.055665   2.958431   0.000000
 Stoichiometry    C12H22O11
 Framework group  C1[X(C12H22O11)]
 Deg. of freedom   129
 Full point group                 C1      NOp   1
 Largest Abelian subgroup         C1      NOp   1
 Largest concise Abelian subgroup C1      NOp   1
                         Standard orientation:                         
 ---------------------------------------------------------------------
 Center     Atomic      Atomic             Coordinates (Angstroms)
 Number     Number       Type             X           Y           Z
 ---------------------------------------------------------------------
      1          8           0       -5.124124    0.295281   -0.587269
      2          6           0       -3.874567    0.050805    0.073488
      3          6           0       -3.283944   -1.226405   -0.500493
      4          8           0       -3.884983   -2.400461    0.063088
      5          1           0       -4.835703   -2.097277    0.126023
      6          6           0       -1.862860   -1.512187   -0.042923
      7          8           0       -1.325119   -2.482782   -0.952916
      8          1           0       -1.875401   -3.316286   -1.014157
      9          6           0       -3.380573    2.510794    0.335619
     10          8           0       -2.588716    3.698555    0.191897
     11          1           0       -3.190276    4.495435    0.252738
     12          6           0       -2.848865    1.157599   -0.106312
     13          8           0       -1.668536    0.741857    0.597162
     14          6           0       -0.895958   -0.345578    0.067217
     15          8           0        0.289810   -0.736127    0.775354
     16          6           0        1.525234   -0.292243    0.195301
     17          6           0        1.950423    1.164906    0.281463
     18          8           0        0.944652    2.097001   -0.141246
     19          1           0        0.037272    1.817606    0.171520
     20          6           0        3.241108    1.453045   -0.467146
     21          8           0        3.576154    2.824955   -0.212053
     22          1           0        2.651791    3.204728   -0.193483
     23          6           0        2.271446   -2.578590    0.837411
     24          8           0        1.559913   -3.389587   -0.108448
     25          1           0        0.627496   -3.040185   -0.203556
     26          6           0        2.659879   -1.110257    0.790648
     27          8           0        3.786582   -0.825321   -0.050678
     28          6           0        4.354111    0.493188   -0.077658
     29          8           0        5.491479    0.325934   -0.935958
     30          1           0        6.161799   -0.190034   -0.482031
     31          1           0        4.696957    0.743595    0.904509
     32          1           0        3.054283    1.341839   -1.514824
     33          1           0        2.141788    1.366546    1.314720
     34          1           0        1.477025   -0.534969   -0.845689
     35          1           0        2.862559   -0.765647    1.783152
     36          1           0        1.707479   -2.672961    1.741808
     37          1           0        3.199553   -3.091979    0.978652
     38          1           0       -5.845683    0.002793   -0.025662
     39          1           0       -3.628795    2.424893    1.372878
     40          1           0       -4.292598    2.677285   -0.198601
     41          1           0       -2.608881    1.221649   -1.147084
     42          1           0       -4.055751   -0.088498    1.118796
     43          1           0       -3.351542   -1.238230   -1.568290
     44          1           0       -1.922752   -1.970105    0.922283
     45          1           0       -0.600136   -0.075103   -0.924868
 ---------------------------------------------------------------------
 Rotational constants (GHZ):      0.3883273      0.1518401      0.1140306
 Standard basis: 6-31+G(2df,p) (6D, 7F)
 There are   846 symmetry adapted basis functions of A   symmetry.
 Integral buffers will be    131072 words long.
 Raffenetti 2 integral format.
 Two-electron integral symmetry is turned on.
   846 basis functions,  1258 primitive gaussians,   915 cartesian basis functions
    91 alpha electrons       91 beta electrons
       nuclear repulsion energy      2286.2134433928 Hartrees.
 NAtoms=   45 NActive=   45 NUniq=   45 SFac= 1.00D+00 NAtFMM=   50 NAOKFM=F Big=F
 One-electron integrals computed using PRISM.
 NBasis=   846 RedAO= T  NBF=   846
 NBsUse=   846 1.00D-06 NBFU=   846
 Harris functional with IExCor=  402 diagonalized for initial guess.
 ExpMin= 4.38D-02 ExpMax= 5.48D+03 ExpMxC= 8.25D+02 IAcc=2 IRadAn=         0 AccDes= 0.00D+00
 HarFok:  IExCor=  402 AccDes= 0.00D+00 IRadAn=         0 IDoV= 1
 ScaDFX=  1.000000  1.000000  1.000000  1.000000
 FoFCou: FMM=F IPFlag=           0 FMFlag=      100000 FMFlg1=           0
         NFxFlg=           0 DoJE=T BraDBF=F KetDBF=T FulRan=T
         Omega=  0.000000  0.000000  1.000000  0.000000  0.000000 ICntrl=     500 IOpCl=  0
         NMat0=    1 NMatS0=    1 NMatT0=    0 NMatD0=    1 NMtDS0=    0 NMtDT0=    0
         I1Cent=           4 NGrid=           0.
 Petite list used in FoFCou.
 Initial guess orbital symmetries:
       Occupied  (A) (A) (A) (A) (A) (A) (A) (A) (A) (A) (A) (A)
                 (A) (A) (A) (A) (A) (A) (A) (A) (A) (A) (A) (A)
                 (A) (A) (A) (A) (A) (A) (A) (A) (A) (A) (A) (A)
                 (A) (A) (A) (A) (A) (A) (A) (A) (A) (A) (A) (A)
                 (A) (A) (A) (A) (A) (A) (A) (A) (A) (A) (A) (A)
                 (A) (A) (A) (A) (A) (A) (A) (A) (A) (A) (A) (A)
                 (A) (A) (A) (A) (A) (A) (A) (A) (A) (A) (A) (A)
                 (A) (A) (A) (A) (A) (A) (A)
       Virtual   (A) (A) (A) (A) (A) (A) (A) (A) (A) (A) (A) (A)
                 (A) (A) (A) (A) (A) (A) (A) (A) (A) (A) (A) (A)
                 (A) (A) (A) (A) (A) (A) (A) (A) (A) (A) (A) (A)
                 (A) (A) (A) (A) (A) (A) (A) (A) (A) (A) (A) (A)
                 (A) (A) (A) (A) (A) (A) (A) (A) (A) (A) (A) (A)
                 (A) (A) (A) (A) (A) (A) (A) (A) (A) (A) (A) (A)
                 (A) (A) (A) (A) (A) (A) (A) (A) (A) (A) (A) (A)
                 (A) (A) (A) (A) (A) (A) (A) (A) (A) (A) (A) (A)
                 (A) (A) (A) (A) (A) (A) (A) (A) (A) (A) (A) (A)
                 (A) (A) (A) (A) (A) (A) (A) (A) (A) (A) (A) (A)
                 (A) (A) (A) (A) (A) (A) (A) (A) (A) (A) (A) (A)
                 (A) (A) (A) (A) (A) (A) (A) (A) (A) (A) (A) (A)
                 (A) (A) (A) (A) (A) (A) (A) (A) (A) (A) (A) (A)
                 (A) (A) (A) (A) (A) (A) (A) (A) (A) (A) (A) (A)
                 (A) (A) (A) (A) (A) (A) (A) (A) (A) (A) (A) (A)
                 (A) (A) (A) (A) (A) (A) (A) (A) (A) (A) (A) (A)
                 (A) (A) (A) (A) (A) (A) (A) (A) (A) (A) (A) (A)
                 (A) (A) (A) (A) (A) (A) (A) (A) (A) (A) (A) (A)
                 (A) (A) (A) (A) (A) (A) (A) (A) (A) (A) (A) (A)
                 (A) (A) (A) (A) (A) (A) (A) (A) (A) (A) (A) (A)
                 (A) (A) (A) (A) (A) (A) (A) (A) (A) (A) (A) (A)
                 (A) (A) (A) (A) (A) (A) (A) (A) (A) (A) (A) (A)
                 (A) (A) (A) (A) (A) (A) (A) (A) (A) (A) (A) (A)
                 (A) (A) (A) (A) (A) (A) (A) (A) (A) (A) (A) (A)
                 (A) (A) (A) (A) (A) (A) (A) (A) (A) (A) (A) (A)
                 (A) (A) (A) (A) (A) (A) (A) (A) (A) (A) (A) (A)
                 (A) (A) (A) (A) (A) (A) (A) (A) (A) (A) (A) (A)
                 (A) (A) (A) (A) (A) (A) (A) (A) (A) (A) (A) (A)
                 (A) (A) (A) (A) (A) (A) (A) (A) (A) (A) (A) (A)
                 (A) (A) (A) (A) (A) (A) (A) (A) (A) (A) (A) (A)
                 (A) (A) (A) (A) (A) (A) (A) (A) (A) (A) (A) (A)
                 (A) (A) (A) (A) (A) (A) (A) (A) (A) (A) (A) (A)
                 (A) (A) (A) (A) (A) (A) (A) (A) (A) (A) (A) (A)
                 (A) (A) (A) (A) (A) (A) (A) (A) (A) (A) (A) (A)
                 (A) (A) (A) (A) (A) (A) (A) (A) (A) (A) (A) (A)
                 (A) (A) (A) (A) (A) (A) (A) (A) (A) (A) (A) (A)
                 (A) (A) (A) (A) (A) (A) (A) (A) (A) (A) (A) (A)
                 (A) (A) (A) (A) (A) (A) (A) (A) (A) (A) (A) (A)
                 (A) (A) (A) (A) (A) (A) (A) (A) (A) (A) (A) (A)
                 (A) (A) (A) (A) (A) (A) (A) (A) (A) (A) (A) (A)
                 (A) (A) (A) (A) (A) (A) (A) (A) (A) (A) (A) (A)
                 (A) (A) (A) (A) (A) (A) (A) (A) (A) (A) (A) (A)
                 (A) (A) (A) (A) (A) (A) (A) (A) (A) (A) (A) (A)
                 (A) (A) (A) (A) (A) (A) (A) (A) (A) (A) (A) (A)
                 (A) (A) (A) (A) (A) (A) (A) (A) (A) (A) (A) (A)
                 (A) (A) (A) (A) (A) (A) (A) (A) (A) (A) (A) (A)
                 (A) (A) (A) (A) (A) (A) (A) (A) (A) (A) (A) (A)
                 (A) (A) (A) (A) (A) (A) (A) (A) (A) (A) (A) (A)
                 (A) (A) (A) (A) (A) (A) (A) (A) (A) (A) (A) (A)
                 (A) (A) (A) (A) (A) (A) (A) (A) (A) (A) (A) (A)
                 (A) (A) (A) (A) (A) (A) (A) (A) (A) (A) (A) (A)
                 (A) (A) (A) (A) (A) (A) (A) (A) (A) (A) (A) (A)
                 (A) (A) (A) (A) (A) (A) (A) (A) (A) (A) (A) (A)
                 (A) (A) (A) (A) (A) (A) (A) (A) (A) (A) (A) (A)
                 (A) (A) (A) (A) (A) (A) (A) (A) (A) (A) (A) (A)
                 (A) (A) (A) (A) (A) (A) (A) (A) (A) (A) (A) (A)
                 (A) (A) (A) (A) (A) (A) (A) (A) (A) (A) (A) (A)
                 (A) (A) (A) (A) (A) (A) (A) (A) (A) (A) (A) (A)
                 (A) (A) (A) (A) (A) (A) (A) (A) (A) (A) (A) (A)
                 (A) (A) (A) (A) (A) (A) (A) (A) (A) (A) (A) (A)
                 (A) (A) (A) (A) (A) (A) (A) (A) (A) (A) (A) (A)
                 (A) (A) (A) (A) (A) (A) (A) (A) (A) (A) (A) (A)
                 (A) (A) (A) (A) (A) (A) (A) (A) (A) (A) (A)
 The electronic state of the initial guess is 1-A.
 Requested convergence on RMS density matrix=1.00D-08 within 128 cycles.
 Requested convergence on MAX density matrix=1.00D-06.
 Requested convergence on             energy=1.00D-06.
 No special actions if energy rises.
 SCF Done:  E(RB3LYP) =  -1297.99955580     A.U. after   14 cycles
             Convg  =    0.2602D-08             -V/T =  2.0066
 Range of M.O.s used for correlation:     1   846
 NBasis=   846 NAE=    91 NBE=    91 NFC=     0 NFV=     0
 NROrb=    846 NOA=    91 NOB=    91 NVA=   755 NVB=   755

 **** Warning!!: The largest alpha MO coefficient is  0.95809164D+02

          Differentiating once with respect to electric field.
                with respect to dipole field.
          Electric field/nuclear overlap derivatives assumed to be zero.
          There are     3 degrees of freedom in the 1st order CPHF.  IDoFFX=0.
      3 vectors produced by pass  0 Test12= 2.29D-12 3.33D-08 XBig12= 1.23D+02 1.07D+00.
 AX will form     3 AO Fock derivatives at one time.
      3 vectors produced by pass  1 Test12= 2.29D-12 3.33D-08 XBig12= 2.38D+01 4.14D-01.
      3 vectors produced by pass  2 Test12= 2.29D-12 3.33D-08 XBig12= 9.17D+00 2.18D-01.
      3 vectors produced by pass  3 Test12= 2.29D-12 3.33D-08 XBig12= 1.08D+00 9.48D-02.
      3 vectors produced by pass  4 Test12= 2.29D-12 3.33D-08 XBig12= 2.92D-01 4.00D-02.
      3 vectors produced by pass  5 Test12= 2.29D-12 3.33D-08 XBig12= 5.88D-02 2.61D-02.
      3 vectors produced by pass  6 Test12= 2.29D-12 3.33D-08 XBig12= 2.31D-02 2.03D-02.
      3 vectors produced by pass  7 Test12= 2.29D-12 3.33D-08 XBig12= 3.61D-03 1.34D-02.
      3 vectors produced by pass  8 Test12= 2.29D-12 3.33D-08 XBig12= 9.23D-04 5.63D-03.
      3 vectors produced by pass  9 Test12= 2.29D-12 3.33D-08 XBig12= 2.45D-04 3.53D-03.
      3 vectors produced by pass 10 Test12= 2.29D-12 3.33D-08 XBig12= 4.81D-05 1.55D-03.
      3 vectors produced by pass 11 Test12= 2.29D-12 3.33D-08 XBig12= 1.09D-05 7.24D-04.
      3 vectors produced by pass 12 Test12= 2.29D-12 3.33D-08 XBig12= 1.57D-06 2.66D-04.
      3 vectors produced by pass 13 Test12= 2.29D-12 3.33D-08 XBig12= 5.06D-07 1.12D-04.
      3 vectors produced by pass 14 Test12= 2.29D-12 3.33D-08 XBig12= 8.04D-08 4.76D-05.
      3 vectors produced by pass 15 Test12= 2.29D-12 3.33D-08 XBig12= 1.15D-08 1.51D-05.
      3 vectors produced by pass 16 Test12= 2.29D-12 3.33D-08 XBig12= 1.81D-09 5.07D-06.
      3 vectors produced by pass 17 Test12= 2.29D-12 3.33D-08 XBig12= 1.84D-10 1.37D-06.
      3 vectors produced by pass 18 Test12= 2.29D-12 3.33D-08 XBig12= 4.64D-11 5.22D-07.
      3 vectors produced by pass 19 Test12= 2.29D-12 3.33D-08 XBig12= 1.36D-11 2.32D-07.
      3 vectors produced by pass 20 Test12= 2.29D-12 3.33D-08 XBig12= 6.69D-12 1.82D-07.
      3 vectors produced by pass 21 Test12= 2.29D-12 3.33D-08 XBig12= 1.17D-12 6.98D-08.
 Inverted reduced A of dimension    66 with in-core refinement.
 End of Minotr Frequency-dependent properties file   721 does not exist.
 End of Minotr Frequency-dependent properties file   722 does not exist.
 Symmetrizing basis deriv contribution to polar:
 IMax=3 JMax=2 DiffMx= 0.00D+00
 G2DrvN: will do     8 centers at a time, making    6 passes doing MaxLOS=3.
 Calling FoFCou, ICntrl=  3107 FMM=F I1Cent=   0 AccDes= 0.00D+00.
 Calling FoFCou, ICntrl=  3107 FMM=F I1Cent=   0 AccDes= 0.00D+00.
 Calling FoFCou, ICntrl=  3107 FMM=F I1Cent=   0 AccDes= 0.00D+00.
 Calling FoFCou, ICntrl=  3107 FMM=F I1Cent=   0 AccDes= 0.00D+00.
 Calling FoFCou, ICntrl=  3107 FMM=F I1Cent=   0 AccDes= 0.00D+00.
 Calling FoFCou, ICntrl=  3107 FMM=F I1Cent=   0 AccDes= 0.00D+00.
 FoFDir/FoFCou used for L=0 through L=3.
 End of G2Drv Frequency-dependent properties file   721 does not exist.
 End of G2Drv Frequency-dependent properties file   722 does not exist.
          IDoAtm=111111111111111111111111111111111111111111111
          Differentiating once with respect to electric field.
                with respect to dipole field.
          Differentiating once with respect to nuclear coordinates.
          There are   138 degrees of freedom in the 1st order CPHF.  IDoFFX=5.
 Will reuse    3 saved solutions.
    135 vectors produced by pass  0 Test12= 6.87D-14 1.00D-09 XBig12= 2.16D-01 8.67D-02.
 AX will form    27 AO Fock derivatives at one time.
    135 vectors produced by pass  1 Test12= 6.87D-14 1.00D-09 XBig12= 2.11D-02 1.39D-02.
    132 vectors produced by pass  2 Test12= 6.87D-14 1.00D-09 XBig12= 1.79D-04 2.02D-03.
    132 vectors produced by pass  3 Test12= 6.87D-14 1.00D-09 XBig12= 9.01D-07 9.71D-05.
    132 vectors produced by pass  4 Test12= 6.87D-14 1.00D-09 XBig12= 2.02D-09 3.48D-06.
    132 vectors produced by pass  5 Test12= 6.87D-14 1.00D-09 XBig12= 5.51D-12 1.34D-07.
    100 vectors produced by pass  6 Test12= 6.87D-14 1.00D-09 XBig12= 2.16D-13 2.29D-08.
      1 vectors produced by pass  7 Test12= 6.87D-14 1.00D-09 XBig12= 5.25D-16 1.08D-09.
 Inverted reduced A of dimension   899 with in-core refinement.
 Isotropic polarizability for W=    0.000000      191.55 Bohr**3.
 End of Minotr Frequency-dependent properties file   721 does not exist.
 End of Minotr Frequency-dependent properties file   722 does not exist.

 **********************************************************************

            Population analysis using the SCF density.

 **********************************************************************

 Orbital symmetries:
       Occupied  (A) (A) (A) (A) (A) (A) (A) (A) (A) (A) (A) (A)
                 (A) (A) (A) (A) (A) (A) (A) (A) (A) (A) (A) (A)
                 (A) (A) (A) (A) (A) (A) (A) (A) (A) (A) (A) (A)
                 (A) (A) (A) (A) (A) (A) (A) (A) (A) (A) (A) (A)
                 (A) (A) (A) (A) (A) (A) (A) (A) (A) (A) (A) (A)
                 (A) (A) (A) (A) (A) (A) (A) (A) (A) (A) (A) (A)
                 (A) (A) (A) (A) (A) (A) (A) (A) (A) (A) (A) (A)
                 (A) (A) (A) (A) (A) (A) (A)
       Virtual   (A) (A) (A) (A) (A) (A) (A) (A) (A) (A) (A) (A)
                 (A) (A) (A) (A) (A) (A) (A) (A) (A) (A) (A) (A)
                 (A) (A) (A) (A) (A) (A) (A) (A) (A) (A) (A) (A)
                 (A) (A) (A) (A) (A) (A) (A) (A) (A) (A) (A) (A)
                 (A) (A) (A) (A) (A) (A) (A) (A) (A) (A) (A) (A)
                 (A) (A) (A) (A) (A) (A) (A) (A) (A) (A) (A) (A)
                 (A) (A) (A) (A) (A) (A) (A) (A) (A) (A) (A) (A)
                 (A) (A) (A) (A) (A) (A) (A) (A) (A) (A) (A) (A)
                 (A) (A) (A) (A) (A) (A) (A) (A) (A) (A) (A) (A)
                 (A) (A) (A) (A) (A) (A) (A) (A) (A) (A) (A) (A)
                 (A) (A) (A) (A) (A) (A) (A) (A) (A) (A) (A) (A)
                 (A) (A) (A) (A) (A) (A) (A) (A) (A) (A) (A) (A)
                 (A) (A) (A) (A) (A) (A) (A) (A) (A) (A) (A) (A)
                 (A) (A) (A) (A) (A) (A) (A) (A) (A) (A) (A) (A)
                 (A) (A) (A) (A) (A) (A) (A) (A) (A) (A) (A) (A)
                 (A) (A) (A) (A) (A) (A) (A) (A) (A) (A) (A) (A)
                 (A) (A) (A) (A) (A) (A) (A) (A) (A) (A) (A) (A)
                 (A) (A) (A) (A) (A) (A) (A) (A) (A) (A) (A) (A)
                 (A) (A) (A) (A) (A) (A) (A) (A) (A) (A) (A) (A)
                 (A) (A) (A) (A) (A) (A) (A) (A) (A) (A) (A) (A)
                 (A) (A) (A) (A) (A) (A) (A) (A) (A) (A) (A) (A)
                 (A) (A) (A) (A) (A) (A) (A) (A) (A) (A) (A) (A)
                 (A) (A) (A) (A) (A) (A) (A) (A) (A) (A) (A) (A)
                 (A) (A) (A) (A) (A) (A) (A) (A) (A) (A) (A) (A)
                 (A) (A) (A) (A) (A) (A) (A) (A) (A) (A) (A) (A)
                 (A) (A) (A) (A) (A) (A) (A) (A) (A) (A) (A) (A)
                 (A) (A) (A) (A) (A) (A) (A) (A) (A) (A) (A) (A)
                 (A) (A) (A) (A) (A) (A) (A) (A) (A) (A) (A) (A)
                 (A) (A) (A) (A) (A) (A) (A) (A) (A) (A) (A) (A)
                 (A) (A) (A) (A) (A) (A) (A) (A) (A) (A) (A) (A)
                 (A) (A) (A) (A) (A) (A) (A) (A) (A) (A) (A) (A)
                 (A) (A) (A) (A) (A) (A) (A) (A) (A) (A) (A) (A)
                 (A) (A) (A) (A) (A) (A) (A) (A) (A) (A) (A) (A)
                 (A) (A) (A) (A) (A) (A) (A) (A) (A) (A) (A) (A)
                 (A) (A) (A) (A) (A) (A) (A) (A) (A) (A) (A) (A)
                 (A) (A) (A) (A) (A) (A) (A) (A) (A) (A) (A) (A)
                 (A) (A) (A) (A) (A) (A) (A) (A) (A) (A) (A) (A)
                 (A) (A) (A) (A) (A) (A) (A) (A) (A) (A) (A) (A)
                 (A) (A) (A) (A) (A) (A) (A) (A) (A) (A) (A) (A)
                 (A) (A) (A) (A) (A) (A) (A) (A) (A) (A) (A) (A)
                 (A) (A) (A) (A) (A) (A) (A) (A) (A) (A) (A) (A)
                 (A) (A) (A) (A) (A) (A) (A) (A) (A) (A) (A) (A)
                 (A) (A) (A) (A) (A) (A) (A) (A) (A) (A) (A) (A)
                 (A) (A) (A) (A) (A) (A) (A) (A) (A) (A) (A) (A)
                 (A) (A) (A) (A) (A) (A) (A) (A) (A) (A) (A) (A)
                 (A) (A) (A) (A) (A) (A) (A) (A) (A) (A) (A) (A)
                 (A) (A) (A) (A) (A) (A) (A) (A) (A) (A) (A) (A)
                 (A) (A) (A) (A) (A) (A) (A) (A) (A) (A) (A) (A)
                 (A) (A) (A) (A) (A) (A) (A) (A) (A) (A) (A) (A)
                 (A) (A) (A) (A) (A) (A) (A) (A) (A) (A) (A) (A)
                 (A) (A) (A) (A) (A) (A) (A) (A) (A) (A) (A) (A)
                 (A) (A) (A) (A) (A) (A) (A) (A) (A) (A) (A) (A)
                 (A) (A) (A) (A) (A) (A) (A) (A) (A) (A) (A) (A)
                 (A) (A) (A) (A) (A) (A) (A) (A) (A) (A) (A) (A)
                 (A) (A) (A) (A) (A) (A) (A) (A) (A) (A) (A) (A)
                 (A) (A) (A) (A) (A) (A) (A) (A) (A) (A) (A) (A)
                 (A) (A) (A) (A) (A) (A) (A) (A) (A) (A) (A) (A)
                 (A) (A) (A) (A) (A) (A) (A) (A) (A) (A) (A) (A)
                 (A) (A) (A) (A) (A) (A) (A) (A) (A) (A) (A) (A)
                 (A) (A) (A) (A) (A) (A) (A) (A) (A) (A) (A) (A)
                 (A) (A) (A) (A) (A) (A) (A) (A) (A) (A) (A) (A)
                 (A) (A) (A) (A) (A) (A) (A) (A) (A) (A) (A) (A)
                 (A) (A) (A) (A) (A) (A) (A) (A) (A) (A) (A)
 The electronic state is 1-A.
 Alpha  occ. eigenvalues --  -19.19944 -19.19706 -19.19544 -19.19016 -19.17780
 Alpha  occ. eigenvalues --  -19.17325 -19.16356 -19.15871 -19.15422 -19.14791
 Alpha  occ. eigenvalues --  -19.14007 -10.31746 -10.29408 -10.28142 -10.27893
 Alpha  occ. eigenvalues --  -10.26427 -10.25925 -10.25731 -10.24886 -10.24833
 Alpha  occ. eigenvalues --  -10.24807 -10.24351 -10.22320  -1.10405  -1.08300
 Alpha  occ. eigenvalues --   -1.07203  -1.06471  -1.05641  -1.04064  -1.03606
 Alpha  occ. eigenvalues --   -1.03571  -1.01052  -1.00770  -0.99924  -0.83291
 Alpha  occ. eigenvalues --   -0.81600  -0.79137  -0.78139  -0.72916  -0.70212
 Alpha  occ. eigenvalues --   -0.68538  -0.65076  -0.64950  -0.62647  -0.61735
 Alpha  occ. eigenvalues --   -0.60247  -0.57825  -0.57233  -0.55847  -0.54577
 Alpha  occ. eigenvalues --   -0.54476  -0.53772  -0.53122  -0.52681  -0.51101
 Alpha  occ. eigenvalues --   -0.50271  -0.49824  -0.49141  -0.47608  -0.47124
 Alpha  occ. eigenvalues --   -0.46150  -0.45568  -0.45360  -0.44968  -0.44134
 Alpha  occ. eigenvalues --   -0.43668  -0.42892  -0.41400  -0.40843  -0.39768
 Alpha  occ. eigenvalues --   -0.39150  -0.38423  -0.37940  -0.37236  -0.37143
 Alpha  occ. eigenvalues --   -0.36025  -0.35539  -0.34898  -0.34043  -0.33532
 Alpha  occ. eigenvalues --   -0.32658  -0.32209  -0.31304  -0.30936  -0.30614
 Alpha  occ. eigenvalues --   -0.29918  -0.29591  -0.28757  -0.27943  -0.27425
 Alpha  occ. eigenvalues --   -0.26014
 Alpha virt. eigenvalues --   -0.04592  -0.02269  -0.00530   0.00091   0.00503
 Alpha virt. eigenvalues --    0.01265   0.01666   0.02036   0.02997   0.03145
 Alpha virt. eigenvalues --    0.03828   0.04068   0.04817   0.05183   0.05555
 Alpha virt. eigenvalues --    0.06039   0.06283   0.06473   0.07067   0.07605
 Alpha virt. eigenvalues --    0.08142   0.08527   0.08929   0.09300   0.09822
 Alpha virt. eigenvalues --    0.10336   0.10680   0.11266   0.11435   0.11729
 Alpha virt. eigenvalues --    0.11988   0.12483   0.12563   0.12792   0.13244
 Alpha virt. eigenvalues --    0.13469   0.13911   0.14394   0.14640   0.15010
 Alpha virt. eigenvalues --    0.15181   0.15510   0.15536   0.15854   0.16080
 Alpha virt. eigenvalues --    0.16878   0.17019   0.17215   0.17752   0.18088
 Alpha virt. eigenvalues --    0.18316   0.18728   0.19042   0.19276   0.19382
 Alpha virt. eigenvalues --    0.19837   0.20323   0.20559   0.20810   0.21235
 Alpha virt. eigenvalues --    0.21272   0.21394   0.21810   0.22347   0.22504
 Alpha virt. eigenvalues --    0.22574   0.23065   0.23527   0.23686   0.24163
 Alpha virt. eigenvalues --    0.24235   0.24949   0.25267   0.25562   0.25761
 Alpha virt. eigenvalues --    0.26012   0.26235   0.26584   0.26984   0.27192
 Alpha virt. eigenvalues --    0.27403   0.27501   0.27782   0.28174   0.28400
 Alpha virt. eigenvalues --    0.28725   0.29210   0.29528   0.30036   0.30218
 Alpha virt. eigenvalues --    0.30613   0.30724   0.31148   0.31579   0.31820
 Alpha virt. eigenvalues --    0.32137   0.32404   0.32684   0.33284   0.33754
 Alpha virt. eigenvalues --    0.34157   0.34249   0.34383   0.35058   0.35427
 Alpha virt. eigenvalues --    0.35469   0.35847   0.36327   0.36866   0.37363
 Alpha virt. eigenvalues --    0.37501   0.37971   0.38294   0.38494   0.38900
 Alpha virt. eigenvalues --    0.39073   0.39614   0.39937   0.40445   0.40667
 Alpha virt. eigenvalues --    0.41042   0.41314   0.41619   0.42306   0.43004
 Alpha virt. eigenvalues --    0.43236   0.44028   0.44330   0.45200   0.45691
 Alpha virt. eigenvalues --    0.46253   0.46659   0.47876   0.48959   0.50443
 Alpha virt. eigenvalues --    0.51371   0.51727   0.52275   0.55490   0.57406
 Alpha virt. eigenvalues --    0.57928   0.58780   0.59134   0.60418   0.60506
 Alpha virt. eigenvalues --    0.61495   0.62300   0.62901   0.64277   0.64868
 Alpha virt. eigenvalues --    0.65919   0.66210   0.67094   0.68436   0.68955
 Alpha virt. eigenvalues --    0.69993   0.70390   0.70619   0.71622   0.72901
 Alpha virt. eigenvalues --    0.73182   0.74247   0.74442   0.74972   0.75325
 Alpha virt. eigenvalues --    0.76104   0.76601   0.78696   0.79571   0.80570
 Alpha virt. eigenvalues --    0.80680   0.81248   0.82314   0.83233   0.83398
 Alpha virt. eigenvalues --    0.84582   0.85716   0.86635   0.87660   0.88516
 Alpha virt. eigenvalues --    0.88863   0.89234   0.89609   0.89823   0.90445
 Alpha virt. eigenvalues --    0.91038   0.91367   0.91884   0.92344   0.92754
 Alpha virt. eigenvalues --    0.93009   0.93259   0.93823   0.94288   0.95100
 Alpha virt. eigenvalues --    0.96060   0.96210   0.96556   0.97186   0.97476
 Alpha virt. eigenvalues --    0.98485   0.99164   0.99352   1.00666   1.00759
 Alpha virt. eigenvalues --    1.01381   1.02037   1.02771   1.04292   1.04792
 Alpha virt. eigenvalues --    1.05517   1.06139   1.06473   1.07257   1.07822
 Alpha virt. eigenvalues --    1.08274   1.08641   1.09164   1.10305   1.10948
 Alpha virt. eigenvalues --    1.11065   1.11822   1.12647   1.13143   1.13667
 Alpha virt. eigenvalues --    1.13974   1.14428   1.15092   1.15575   1.16172
 Alpha virt. eigenvalues --    1.16318   1.16454   1.17409   1.17866   1.18234
 Alpha virt. eigenvalues --    1.18642   1.19436   1.19617   1.20307   1.21320
 Alpha virt. eigenvalues --    1.22280   1.22505   1.22687   1.23378   1.23502
 Alpha virt. eigenvalues --    1.24156   1.25440   1.25604   1.26275   1.26831
 Alpha virt. eigenvalues --    1.27577   1.27684   1.28203   1.28974   1.29489
 Alpha virt. eigenvalues --    1.30040   1.30696   1.31655   1.32203   1.32616
 Alpha virt. eigenvalues --    1.33353   1.34156   1.34429   1.35618   1.35784
 Alpha virt. eigenvalues --    1.36749   1.37131   1.38090   1.38244   1.39186
 Alpha virt. eigenvalues --    1.40109   1.40955   1.41489   1.42222   1.42840
 Alpha virt. eigenvalues --    1.43401   1.43568   1.45295   1.45617   1.46838
 Alpha virt. eigenvalues --    1.47165   1.48536   1.49526   1.50090   1.50729
 Alpha virt. eigenvalues --    1.52492   1.52617   1.53103   1.54240   1.55493
 Alpha virt. eigenvalues --    1.55821   1.56646   1.57455   1.58595   1.59384
 Alpha virt. eigenvalues --    1.59864   1.60545   1.61629   1.62572   1.62956
 Alpha virt. eigenvalues --    1.63335   1.63960   1.64399   1.65665   1.66826
 Alpha virt. eigenvalues --    1.67463   1.68216   1.69473   1.70344   1.71182
 Alpha virt. eigenvalues --    1.72252   1.73160   1.74345   1.74995   1.75546
 Alpha virt. eigenvalues --    1.77118   1.78555   1.79104   1.80541   1.81004
 Alpha virt. eigenvalues --    1.81694   1.83501   1.83674   1.84660   1.85842
 Alpha virt. eigenvalues --    1.86154   1.87465   1.87775   1.88900   1.90636
 Alpha virt. eigenvalues --    1.91210   1.91888   1.93272   1.94256   1.95514
 Alpha virt. eigenvalues --    1.95793   1.96390   1.97721   1.99049   1.99372
 Alpha virt. eigenvalues --    2.00128   2.01535   2.02830   2.03443   2.04045
 Alpha virt. eigenvalues --    2.05716   2.06582   2.08188   2.08663   2.11439
 Alpha virt. eigenvalues --    2.14590   2.14886   2.16108   2.17180   2.18333
 Alpha virt. eigenvalues --    2.19805   2.21760   2.22587   2.23764   2.24559
 Alpha virt. eigenvalues --    2.26045   2.27233   2.28791   2.29242   2.30900
 Alpha virt. eigenvalues --    2.31644   2.32556   2.33672   2.36240   2.37591
 Alpha virt. eigenvalues --    2.43010   2.44743   2.45280   2.47037   2.49720
 Alpha virt. eigenvalues --    2.50546   2.52082   2.53015   2.53781   2.55150
 Alpha virt. eigenvalues --    2.56996   2.57528   2.58063   2.58908   2.59917
 Alpha virt. eigenvalues --    2.60868   2.61807   2.62095   2.62752   2.63367
 Alpha virt. eigenvalues --    2.64455   2.65181   2.65429   2.68703   2.70105
 Alpha virt. eigenvalues --    2.70768   2.72914   2.73824   2.75771   2.76355
 Alpha virt. eigenvalues --    2.78627   2.78859   2.80336   2.80944   2.82017
 Alpha virt. eigenvalues --    2.84118   2.85407   2.85763   2.86520   2.87758
 Alpha virt. eigenvalues --    2.88255   2.88945   2.90777   2.90821   2.92388
 Alpha virt. eigenvalues --    2.93145   2.94308   2.96554   2.97358   2.98281
 Alpha virt. eigenvalues --    2.99670   3.00326   3.01015   3.01578   3.02222
 Alpha virt. eigenvalues --    3.02883   3.03470   3.04794   3.05606   3.06642
 Alpha virt. eigenvalues --    3.06828   3.08261   3.09092   3.09353   3.11149
 Alpha virt. eigenvalues --    3.12199   3.14335   3.14560   3.16058   3.17140
 Alpha virt. eigenvalues --    3.19007   3.19910   3.20896   3.21823   3.22297
 Alpha virt. eigenvalues --    3.22778   3.25033   3.25660   3.26822   3.28452
 Alpha virt. eigenvalues --    3.29573   3.30259   3.30981   3.32316   3.32699
 Alpha virt. eigenvalues --    3.35082   3.36092   3.36547   3.37444   3.39290
 Alpha virt. eigenvalues --    3.40034   3.41329   3.42190   3.42778   3.44429
 Alpha virt. eigenvalues --    3.45461   3.47517   3.51044   3.52229   3.53492
 Alpha virt. eigenvalues --    3.54607   3.56263   3.57201   3.59357   3.60539
 Alpha virt. eigenvalues --    3.60967   3.61846   3.62466   3.64629   3.65578
 Alpha virt. eigenvalues --    3.67479   3.69104   3.70445   3.70628   3.72097
 Alpha virt. eigenvalues --    3.72789   3.73915   3.75566   3.76614   3.76923
 Alpha virt. eigenvalues --    3.77860   3.80180   3.81422   3.83206   3.83446
 Alpha virt. eigenvalues --    3.85092   3.86710   3.89297   3.89545   3.91397
 Alpha virt. eigenvalues --    3.93048   3.97959   3.99326   4.00845   4.03358
 Alpha virt. eigenvalues --    4.06599   4.08726   4.09446   4.12280   4.12875
 Alpha virt. eigenvalues --    4.13149   4.15075   4.16237   4.17978   4.18779
 Alpha virt. eigenvalues --    4.20729   4.22190   4.22964   4.23785   4.24764
 Alpha virt. eigenvalues --    4.25043   4.26514   4.26940   4.27393   4.29584
 Alpha virt. eigenvalues --    4.30069   4.31829   4.32095   4.32876   4.33221
 Alpha virt. eigenvalues --    4.34582   4.36085   4.37061   4.37658   4.38186
 Alpha virt. eigenvalues --    4.39130   4.40419   4.41505   4.42132   4.43122
 Alpha virt. eigenvalues --    4.43325   4.43493   4.44775   4.45369   4.46132
 Alpha virt. eigenvalues --    4.46764   4.47735   4.48218   4.48773   4.49323
 Alpha virt. eigenvalues --    4.50674   4.51737   4.52598   4.53163   4.53608
 Alpha virt. eigenvalues --    4.54541   4.55170   4.55835   4.56167   4.56867
 Alpha virt. eigenvalues --    4.57313   4.57991   4.58717   4.59356   4.60363
 Alpha virt. eigenvalues --    4.61369   4.62265   4.62537   4.62707   4.63829
 Alpha virt. eigenvalues --    4.65808   4.66162   4.66829   4.67376   4.67531
 Alpha virt. eigenvalues --    4.69120   4.69715   4.70400   4.71071   4.71162
 Alpha virt. eigenvalues --    4.72303   4.72423   4.74229   4.74916   4.75405
 Alpha virt. eigenvalues --    4.75819   4.76038   4.76877   4.77878   4.78406
 Alpha virt. eigenvalues --    4.79615   4.79930   4.80386   4.80734   4.81430
 Alpha virt. eigenvalues --    4.82142   4.82686   4.83195   4.84059   4.84823
 Alpha virt. eigenvalues --    4.86051   4.87144   4.88110   4.89557   4.89892
 Alpha virt. eigenvalues --    4.90809   4.92625   4.93668   4.95489   4.95613
 Alpha virt. eigenvalues --    4.96253   4.96399   4.98366   4.99735   5.01714
 Alpha virt. eigenvalues --    5.03298   5.03952   5.05574   5.06566   5.08575
 Alpha virt. eigenvalues --    5.10174   5.11463   5.14378   5.16234   5.17026
 Alpha virt. eigenvalues --    5.17219   5.17624   5.19692   5.20123   5.21435
 Alpha virt. eigenvalues --    5.22849   5.23792   5.25024   5.25698   5.26984
 Alpha virt. eigenvalues --    5.27916   5.28924   5.31403   5.34016   5.34407
 Alpha virt. eigenvalues --    5.35864   5.36242   5.36600   5.37760   5.39092
 Alpha virt. eigenvalues --    5.40009   5.41180   5.41385   5.42001   5.42876
 Alpha virt. eigenvalues --    5.43096   5.43885   5.44761   5.45348   5.46095
 Alpha virt. eigenvalues --    5.46543   5.46852   5.47376   5.49353   5.50407
 Alpha virt. eigenvalues --    5.51156   5.53789   5.54847   5.55999   5.57866
 Alpha virt. eigenvalues --    5.57941   5.60156   5.60706   5.62562   5.63483
 Alpha virt. eigenvalues --    5.66795   5.68257   5.70215   5.73247   5.74442
 Alpha virt. eigenvalues --    5.74729   5.75857   5.77174   5.78403   5.81992
 Alpha virt. eigenvalues --    5.83942   5.85382   5.87179   5.89530   5.90116
 Alpha virt. eigenvalues --    5.90949   5.92642   5.93232   5.93807   5.95218
 Alpha virt. eigenvalues --    5.95662   5.96601   5.98467   5.99670   6.00224
 Alpha virt. eigenvalues --    6.01917   6.02911   6.03380   6.05543   6.06854
 Alpha virt. eigenvalues --    6.07095   6.08181   6.08749   6.10363   6.11631
 Alpha virt. eigenvalues --    6.13401   6.16385   6.17967   6.18823   6.20144
 Alpha virt. eigenvalues --    6.23404   6.26963   6.30870   6.32403   6.36417
 Alpha virt. eigenvalues --    6.46012   6.55533   6.90667   6.96556   7.05839
 Alpha virt. eigenvalues --    7.08345   7.13781   7.17256   7.24575   7.25516
 Alpha virt. eigenvalues --    7.28255   7.42097   7.43476   7.45569   7.67976
 Alpha virt. eigenvalues --    7.81464   7.93827  11.98490  12.12818  12.17111
 Alpha virt. eigenvalues --   12.21050  12.43839  12.51313  12.76195  12.84262
 Alpha virt. eigenvalues --   12.91378  13.08487  13.20504  13.31351  13.32585
 Alpha virt. eigenvalues --   13.41069  13.45399  13.46047  13.58380  13.62992
 Alpha virt. eigenvalues --   13.67291  13.72438  14.00391  14.00948  14.14265
          Condensed to atoms (all electrons):
              1          2          3          4          5          6
     1  O    8.090440   0.244102  -0.022625  -0.020934   0.018835   0.029684
     2  C    0.244102   7.733821   0.129993   0.088068  -0.050990  -2.002661
     3  C   -0.022625   0.129993   6.921895  -0.105120   0.066676  -1.852660
     4  O   -0.020934   0.088068  -0.105120   8.184912   0.215317   0.101755
     5  H    0.018835  -0.050990   0.066676   0.215317   0.463563  -0.049087
     6  C    0.029684  -2.002661  -1.852660   0.101755  -0.049087  13.407838
     7  O   -0.000908  -0.000633  -0.024512  -0.009835   0.000856   0.049642
     8  H   -0.000077   0.008315   0.000301   0.006708  -0.000213  -0.060363
     9  C   -0.061447   0.041443  -0.392255   0.009903  -0.004197   0.602047
    10  O   -0.000697   0.015041   0.008113   0.000025   0.000000  -0.012273
    11  H    0.000049  -0.000670  -0.000215   0.000001   0.000000   0.001163
    12  C   -0.071891  -1.447326  -0.294290  -0.016583   0.022194   1.332701
    13  O    0.005108  -0.014845  -0.019568  -0.004181   0.000049   0.032028
    14  C   -0.018363   1.060536   1.106671   0.038820   0.002881  -5.010617
    15  O   -0.000055  -0.009663   0.046257  -0.000946   0.000034  -0.117045
    16  C    0.002214   0.116073   0.129586  -0.008662   0.000317  -0.109085
    17  C   -0.000128  -0.054820   0.050117   0.000943   0.000008  -0.415640
    18  O    0.000059   0.001791  -0.006355   0.000006   0.000000   0.006076
    19  H   -0.000047  -0.002662   0.002981  -0.000001   0.000000   0.006362
    20  C    0.000059   0.008018   0.007321   0.000020   0.000000  -0.119701
    21  O    0.000000   0.000058   0.000041   0.000000   0.000000   0.001044
    22  H    0.000000   0.000035  -0.000001   0.000000   0.000000   0.000265
    23  C    0.000081   0.004836  -0.029680  -0.000312  -0.000005   0.049497
    24  O   -0.000005   0.000989   0.008525   0.000140  -0.000003  -0.012973
    25  H    0.000000   0.000006   0.003835  -0.000050   0.000000   0.029530
    26  C   -0.000058  -0.007104   0.076412   0.000791  -0.000044  -0.258606
    27  O    0.000000   0.000004   0.000227   0.000000   0.000000  -0.000126
    28  C    0.000000  -0.000034   0.000723   0.000005   0.000000  -0.004629
    29  O    0.000000  -0.000001  -0.000015   0.000000   0.000000   0.000106
    30  H    0.000000   0.000000   0.000000   0.000000   0.000000   0.000005
    31  H    0.000000   0.000001   0.000001   0.000000   0.000000   0.000388
    32  H    0.000000   0.000080   0.000147   0.000000   0.000000   0.003977
    33  H    0.000000   0.000123  -0.000160   0.000000   0.000000   0.008426
    34  H    0.000000  -0.002554  -0.001482   0.000001   0.000000  -0.008074
    35  H    0.000000  -0.000097  -0.000698   0.000000   0.000000  -0.000663
    36  H    0.000000  -0.000110   0.001253   0.000006   0.000000  -0.005216
    37  H    0.000000   0.000063  -0.000257   0.000000   0.000000  -0.000338
    38  H    0.268800   0.024436  -0.033157  -0.001463  -0.000001  -0.004991
    39  H   -0.001007   0.050957  -0.004038   0.000047  -0.000002   0.004532
    40  H   -0.001046   0.001151   0.002625  -0.000080  -0.000001  -0.010415
    41  H    0.000247   0.095896  -0.017208   0.000530   0.000002  -0.099797
    42  H   -0.021118   0.383647  -0.082783   0.005383  -0.000548  -0.074549
    43  H   -0.003913   0.032697   0.384987  -0.025931  -0.001134  -0.214274
    44  H    0.000107   0.003690  -0.092859  -0.008301   0.000412   0.494502
    45  H    0.000221  -0.020370  -0.036649  -0.000120   0.000008   0.051767
              7          8          9         10         11         12
     1  O   -0.000908  -0.000077  -0.061447  -0.000697   0.000049  -0.071891
     2  C   -0.000633   0.008315   0.041443   0.015041  -0.000670  -1.447326
     3  C   -0.024512   0.000301  -0.392255   0.008113  -0.000215  -0.294290
     4  O   -0.009835   0.006708   0.009903   0.000025   0.000001  -0.016583
     5  H    0.000856  -0.000213  -0.004197   0.000000   0.000000   0.022194
     6  C    0.049642  -0.060363   0.602047  -0.012273   0.001163   1.332701
     7  O    8.169880   0.256393   0.000269   0.000004   0.000000  -0.014470
     8  H    0.256393   0.381480   0.000436   0.000000   0.000000   0.001671
     9  C    0.000269   0.000436   7.441389   0.159910  -0.016661  -1.428352
    10  O    0.000004   0.000000   0.159910   8.105014   0.243520  -0.037931
    11  H    0.000000   0.000000  -0.016661   0.243520   0.428356   0.009626
    12  C   -0.014470   0.001671  -1.428352  -0.037931   0.009626   9.085591
    13  O    0.003739  -0.000519  -0.045888   0.013028  -0.000086   0.121189
    14  C    0.095092   0.035100  -0.802914   0.005511  -0.001770  -1.123253
    15  O   -0.005758   0.000405  -0.005956   0.000113   0.000000  -0.012707
    16  C    0.034775  -0.004073  -0.142966   0.013018  -0.000523  -0.268805
    17  C    0.006262   0.000145  -0.019359  -0.002218   0.000049  -0.027057
    18  O    0.000272  -0.000003  -0.003892   0.000795   0.000077  -0.000119
    19  H   -0.000112   0.000000  -0.000285   0.001724  -0.000035   0.003960
    20  C    0.000427  -0.000130  -0.010207   0.000625  -0.000044  -0.008332
    21  O   -0.000001   0.000000  -0.000047  -0.000001   0.000000   0.000412
    22  H   -0.000001   0.000000  -0.000199  -0.000010   0.000000   0.000161
    23  C    0.013645  -0.001330  -0.002662   0.000028   0.000000  -0.017117
    24  O   -0.015975   0.001205   0.000136   0.000000   0.000000   0.001055
    25  H    0.010451  -0.001376  -0.000074   0.000000   0.000000  -0.001787
    26  C   -0.022043   0.001640   0.001577   0.000831  -0.000020  -0.009945
    27  O    0.000137   0.000001  -0.000006   0.000001   0.000000   0.000353
    28  C   -0.000170   0.000019  -0.000696   0.000096   0.000001   0.003745
    29  O    0.000005   0.000000   0.000010   0.000000   0.000000   0.000007
    30  H    0.000000   0.000000   0.000000   0.000000   0.000000  -0.000001
    31  H    0.000001   0.000000   0.000004   0.000000   0.000000   0.000010
    32  H    0.000024   0.000000  -0.000016   0.000001   0.000000  -0.000539
    33  H   -0.000004   0.000000   0.000204  -0.000004   0.000000  -0.001370
    34  H   -0.001917  -0.000009   0.000525   0.000000   0.000000   0.007554
    35  H   -0.000021   0.000000   0.000123   0.000000   0.000000   0.000754
    36  H    0.000308   0.000005  -0.000044   0.000000   0.000000  -0.001102
    37  H   -0.000074   0.000001   0.000000   0.000000   0.000000  -0.000068
    38  H   -0.000025   0.000000   0.006083   0.000023  -0.000001   0.002190
    39  H    0.000009   0.000000   0.619696  -0.046854   0.000019  -0.323966
    40  H   -0.000008   0.000000   0.338984  -0.025773  -0.009064   0.017095
    41  H    0.000665   0.000002   0.069142   0.000012  -0.000053   0.076723
    42  H    0.000778   0.000000  -0.029918  -0.000123   0.000002  -0.017759
    43  H    0.007636  -0.000680   0.003390   0.000032   0.000000  -0.005890
    44  H   -0.029087  -0.004729   0.012119  -0.000004   0.000000   0.037908
    45  H    0.000367  -0.000285   0.027619  -0.000126   0.000000   0.047955
             13         14         15         16         17         18
     1  O    0.005108  -0.018363  -0.000055   0.002214  -0.000128   0.000059
     2  C   -0.014845   1.060536  -0.009663   0.116073  -0.054820   0.001791
     3  C   -0.019568   1.106671   0.046257   0.129586   0.050117  -0.006355
     4  O   -0.004181   0.038820  -0.000946  -0.008662   0.000943   0.000006
     5  H    0.000049   0.002881   0.000034   0.000317   0.000008   0.000000
     6  C    0.032028  -5.010617  -0.117045  -0.109085  -0.415640   0.006076
     7  O    0.003739   0.095092  -0.005758   0.034775   0.006262   0.000272
     8  H   -0.000519   0.035100   0.000405  -0.004073   0.000145  -0.000003
     9  C   -0.045888  -0.802914  -0.005956  -0.142966  -0.019359  -0.003892
    10  O    0.013028   0.005511   0.000113   0.013018  -0.002218   0.000795
    11  H   -0.000086  -0.001770   0.000000  -0.000523   0.000049   0.000077
    12  C    0.121189  -1.123253  -0.012707  -0.268805  -0.027057  -0.000119
    13  O    7.840359   0.181938   0.022896   0.003604   0.005492  -0.023859
    14  C    0.181938  11.575586   0.375223  -0.849307   0.147047   0.048484
    15  O    0.022896   0.375223   7.882627   0.007488   0.045330  -0.012341
    16  C    0.003604  -0.849307   0.007488  12.863782  -2.082212  -0.001204
    17  C    0.005492   0.147047   0.045330  -2.082212   8.660322   0.128723
    18  O   -0.023859   0.048484  -0.012341  -0.001204   0.128723   8.165056
    19  H    0.032108   0.002230   0.008129  -0.078650   0.052017   0.231704
    20  C   -0.001932  -0.264296  -0.015377  -1.249086  -0.369595  -0.009206
    21  O   -0.000009   0.002732   0.000020   0.019799  -0.007156  -0.026543
    22  H   -0.000036   0.001722   0.000033   0.029091  -0.067452   0.024002
    23  C   -0.002607  -0.186777  -0.083431   0.557592  -0.257816   0.012834
    24  O    0.000131   0.024249   0.003761  -0.056600   0.018265   0.000007
    25  H   -0.000279  -0.027663   0.010437   0.041221  -0.004891  -0.000009
    26  C    0.011935  -0.645107   0.045522  -3.446568   0.194543  -0.019306
    27  O    0.000185   0.001492   0.005386   0.064756  -0.055827  -0.001206
    28  C    0.000763   0.030406   0.013396   0.318037  -0.057319   0.002821
    29  O    0.000000   0.000321  -0.000014  -0.020006   0.018175   0.000658
    30  H    0.000000   0.000128   0.000001   0.006379  -0.002471  -0.000017
    31  H    0.000002   0.000973   0.000164   0.042366  -0.011182   0.000957
    32  H   -0.000035  -0.017446  -0.000194   0.070126  -0.072551   0.004621
    33  H   -0.001103   0.001296  -0.006380  -0.070861   0.250425  -0.027396
    34  H    0.000846   0.018637  -0.038666   0.093414   0.009403  -0.002127
    35  H   -0.000200   0.041570   0.000714  -0.002031   0.019467   0.000259
    36  H   -0.000139  -0.030224  -0.000367  -0.062697   0.022734  -0.000008
    37  H   -0.000013   0.000677  -0.003394   0.128720  -0.002954   0.000026
    38  H   -0.000683  -0.000817   0.000007   0.000078  -0.000008  -0.000001
    39  H   -0.001244   0.001251   0.000147  -0.000081  -0.000097   0.000056
    40  H    0.002633   0.011347  -0.000033   0.001146  -0.000055  -0.000033
    41  H   -0.030373   0.131439   0.000563   0.015634   0.002469   0.000398
    42  H   -0.001714   0.107244  -0.000716  -0.002281   0.001333   0.000018
    43  H    0.001192   0.099342  -0.000627  -0.007803   0.001516   0.000024
    44  H    0.007985  -0.127982  -0.009587  -0.018859  -0.001226   0.000033
    45  H   -0.027534   0.211244  -0.039416   0.049430  -0.040818   0.003034
             19         20         21         22         23         24
     1  O   -0.000047   0.000059   0.000000   0.000000   0.000081  -0.000005
     2  C   -0.002662   0.008018   0.000058   0.000035   0.004836   0.000989
     3  C    0.002981   0.007321   0.000041  -0.000001  -0.029680   0.008525
     4  O   -0.000001   0.000020   0.000000   0.000000  -0.000312   0.000140
     5  H    0.000000   0.000000   0.000000   0.000000  -0.000005  -0.000003
     6  C    0.006362  -0.119701   0.001044   0.000265   0.049497  -0.012973
     7  O   -0.000112   0.000427  -0.000001  -0.000001   0.013645  -0.015975
     8  H    0.000000  -0.000130   0.000000   0.000000  -0.001330   0.001205
     9  C   -0.000285  -0.010207  -0.000047  -0.000199  -0.002662   0.000136
    10  O    0.001724   0.000625  -0.000001  -0.000010   0.000028   0.000000
    11  H   -0.000035  -0.000044   0.000000   0.000000   0.000000   0.000000
    12  C    0.003960  -0.008332   0.000412   0.000161  -0.017117   0.001055
    13  O    0.032108  -0.001932  -0.000009  -0.000036  -0.002607   0.000131
    14  C    0.002230  -0.264296   0.002732   0.001722  -0.186777   0.024249
    15  O    0.008129  -0.015377   0.000020   0.000033  -0.083431   0.003761
    16  C   -0.078650  -1.249086   0.019799   0.029091   0.557592  -0.056600
    17  C    0.052017  -0.369595  -0.007156  -0.067452  -0.257816   0.018265
    18  O    0.231704  -0.009206  -0.026543   0.024002   0.012834   0.000007
    19  H    0.353932  -0.006420   0.001286  -0.000734  -0.001595  -0.000012
    20  C   -0.006420   7.163898   0.229526   0.001303   0.102451  -0.004200
    21  O    0.001286   0.229526   8.057073   0.256801  -0.004129  -0.000001
    22  H   -0.000734   0.001303   0.256801   0.394129   0.000998   0.000000
    23  C   -0.001595   0.102451  -0.004129   0.000998   6.273824   0.174251
    24  O   -0.000012  -0.004200  -0.000001   0.000000   0.174251   8.063441
    25  H    0.000000   0.000042   0.000000   0.000000  -0.007508   0.262935
    26  C    0.000178   0.803431  -0.013675  -0.003150  -0.886909   0.043492
    27  O   -0.000032  -0.053176   0.002714  -0.000263  -0.077566   0.004281
    28  C    0.001762  -0.278820  -0.057446   0.002261  -0.073220   0.005038
    29  O    0.000001  -0.091048   0.005101  -0.000245   0.002093   0.000114
    30  H    0.000000   0.027683  -0.000599   0.000012   0.000703   0.000005
    31  H    0.000004  -0.131041   0.004720  -0.000373   0.009361  -0.000007
    32  H   -0.000157   0.249809  -0.028114  -0.001118   0.006536  -0.000033
    33  H   -0.002139  -0.015655  -0.001694   0.000241   0.010751   0.000005
    34  H   -0.000153   0.015660   0.000068  -0.000012  -0.053350   0.003052
    35  H    0.000014  -0.050079  -0.000057  -0.000006  -0.034834   0.003971
    36  H    0.000001   0.000371  -0.000005   0.000000   0.401632  -0.050874
    37  H    0.000000  -0.000934  -0.000001   0.000000   0.526049  -0.047210
    38  H    0.000000   0.000000   0.000000   0.000000  -0.000001   0.000000
    39  H   -0.000020  -0.000029   0.000000   0.000000  -0.000011   0.000000
    40  H   -0.000004   0.000020   0.000000   0.000000   0.000001   0.000000
    41  H   -0.000614   0.000654   0.000000   0.000000   0.000052  -0.000003
    42  H   -0.000017   0.000043   0.000000   0.000000   0.000055   0.000000
    43  H   -0.000003   0.000079   0.000000   0.000000   0.000021   0.000015
    44  H   -0.000006   0.000382   0.000000   0.000000   0.002124   0.000179
    45  H   -0.003152   0.009287   0.000005   0.000002   0.000342  -0.000294
             25         26         27         28         29         30
     1  O    0.000000  -0.000058   0.000000   0.000000   0.000000   0.000000
     2  C    0.000006  -0.007104   0.000004  -0.000034  -0.000001   0.000000
     3  C    0.003835   0.076412   0.000227   0.000723  -0.000015   0.000000
     4  O   -0.000050   0.000791   0.000000   0.000005   0.000000   0.000000
     5  H    0.000000  -0.000044   0.000000   0.000000   0.000000   0.000000
     6  C    0.029530  -0.258606  -0.000126  -0.004629   0.000106   0.000005
     7  O    0.010451  -0.022043   0.000137  -0.000170   0.000005   0.000000
     8  H   -0.001376   0.001640   0.000001   0.000019   0.000000   0.000000
     9  C   -0.000074   0.001577  -0.000006  -0.000696   0.000010   0.000000
    10  O    0.000000   0.000831   0.000001   0.000096   0.000000   0.000000
    11  H    0.000000  -0.000020   0.000000   0.000001   0.000000   0.000000
    12  C   -0.001787  -0.009945   0.000353   0.003745   0.000007  -0.000001
    13  O   -0.000279   0.011935   0.000185   0.000763   0.000000   0.000000
    14  C   -0.027663  -0.645107   0.001492   0.030406   0.000321   0.000128
    15  O    0.010437   0.045522   0.005386   0.013396  -0.000014   0.000001
    16  C    0.041221  -3.446568   0.064756   0.318037  -0.020006   0.006379
    17  C   -0.004891   0.194543  -0.055827  -0.057319   0.018175  -0.002471
    18  O   -0.000009  -0.019306  -0.001206   0.002821   0.000658  -0.000017
    19  H    0.000000   0.000178  -0.000032   0.001762   0.000001   0.000000
    20  C    0.000042   0.803431  -0.053176  -0.278820  -0.091048   0.027683
    21  O    0.000000  -0.013675   0.002714  -0.057446   0.005101  -0.000599
    22  H    0.000000  -0.003150  -0.000263   0.002261  -0.000245   0.000012
    23  C   -0.007508  -0.886909  -0.077566  -0.073220   0.002093   0.000703
    24  O    0.262935   0.043492   0.004281   0.005038   0.000114   0.000005
    25  H    0.360289  -0.062220  -0.000575  -0.000848   0.000002   0.000000
    26  C   -0.062220  10.031311   0.199557  -0.409087  -0.002859  -0.012025
    27  O   -0.000575   0.199557   7.930051   0.177312  -0.035954   0.001989
    28  C   -0.000848  -0.409087   0.177312   5.537784   0.343220  -0.031662
    29  O    0.000002  -0.002859  -0.035954   0.343220   7.966410   0.265405
    30  H    0.000000  -0.012025   0.001989  -0.031662   0.265405   0.412624
    31  H    0.000000  -0.001496  -0.047848   0.418579  -0.025329  -0.007279
    32  H    0.000000   0.040817   0.001391  -0.011772  -0.001855  -0.000134
    33  H   -0.000002   0.090141   0.001921  -0.014441   0.000130   0.000006
    34  H   -0.000699   0.188843   0.002694   0.016474  -0.000835   0.000006
    35  H   -0.000005   0.250077  -0.027987   0.055335  -0.000572   0.000004
    36  H   -0.004865   0.029660   0.000759   0.001029  -0.000015   0.000000
    37  H    0.005654  -0.279566  -0.001311  -0.006693   0.000146  -0.000002
    38  H    0.000000   0.000001   0.000000   0.000000   0.000000   0.000000
    39  H    0.000000   0.000059   0.000000   0.000000   0.000000   0.000000
    40  H    0.000000   0.000044   0.000000   0.000000   0.000000   0.000000
    41  H    0.000000   0.001227   0.000001   0.000002   0.000000   0.000000
    42  H    0.000000  -0.000199   0.000000  -0.000002   0.000000   0.000000
    43  H   -0.000004  -0.000693   0.000000  -0.000004   0.000000   0.000000
    44  H   -0.000307  -0.004979   0.000005  -0.000086   0.000000   0.000000
    45  H   -0.000129   0.026079   0.000363  -0.000113  -0.000001   0.000000
             31         32         33         34         35         36
     1  O    0.000000   0.000000   0.000000   0.000000   0.000000   0.000000
     2  C    0.000001   0.000080   0.000123  -0.002554  -0.000097  -0.000110
     3  C    0.000001   0.000147  -0.000160  -0.001482  -0.000698   0.001253
     4  O    0.000000   0.000000   0.000000   0.000001   0.000000   0.000006
     5  H    0.000000   0.000000   0.000000   0.000000   0.000000   0.000000
     6  C    0.000388   0.003977   0.008426  -0.008074  -0.000663  -0.005216
     7  O    0.000001   0.000024  -0.000004  -0.001917  -0.000021   0.000308
     8  H    0.000000   0.000000   0.000000  -0.000009   0.000000   0.000005
     9  C    0.000004  -0.000016   0.000204   0.000525   0.000123  -0.000044
    10  O    0.000000   0.000001  -0.000004   0.000000   0.000000   0.000000
    11  H    0.000000   0.000000   0.000000   0.000000   0.000000   0.000000
    12  C    0.000010  -0.000539  -0.001370   0.007554   0.000754  -0.001102
    13  O    0.000002  -0.000035  -0.001103   0.000846  -0.000200  -0.000139
    14  C    0.000973  -0.017446   0.001296   0.018637   0.041570  -0.030224
    15  O    0.000164  -0.000194  -0.006380  -0.038666   0.000714  -0.000367
    16  C    0.042366   0.070126  -0.070861   0.093414  -0.002031  -0.062697
    17  C   -0.011182  -0.072551   0.250425   0.009403   0.019467   0.022734
    18  O    0.000957   0.004621  -0.027396  -0.002127   0.000259  -0.000008
    19  H    0.000004  -0.000157  -0.002139  -0.000153   0.000014   0.000001
    20  C   -0.131041   0.249809  -0.015655   0.015660  -0.050079   0.000371
    21  O    0.004720  -0.028114  -0.001694   0.000068  -0.000057  -0.000005
    22  H   -0.000373  -0.001118   0.000241  -0.000012  -0.000006   0.000000
    23  C    0.009361   0.006536   0.010751  -0.053350  -0.034834   0.401632
    24  O   -0.000007  -0.000033   0.000005   0.003052   0.003971  -0.050874
    25  H    0.000000   0.000000  -0.000002  -0.000699  -0.000005  -0.004865
    26  C   -0.001496   0.040817   0.090141   0.188843   0.250077   0.029660
    27  O   -0.047848   0.001391   0.001921   0.002694  -0.027987   0.000759
    28  C    0.418579  -0.011772  -0.014441   0.016474   0.055335   0.001029
    29  O   -0.025329  -0.001855   0.000130  -0.000835  -0.000572  -0.000015
    30  H   -0.007279  -0.000134   0.000006   0.000006   0.000004   0.000000
    31  H    0.611683   0.005888   0.001971  -0.000056   0.003650  -0.000004
    32  H    0.005888   0.604883   0.006269   0.001813  -0.000074   0.000000
    33  H    0.001971   0.006269   0.634517   0.006842   0.003401  -0.000011
    34  H   -0.000056   0.001813   0.006842   0.591949   0.005438  -0.000069
    35  H    0.003650  -0.000074   0.003401   0.005438   0.609579  -0.005601
    36  H   -0.000004   0.000000  -0.000011  -0.000069  -0.005601   0.586005
    37  H   -0.000012  -0.000001  -0.000010  -0.000022   0.001471  -0.032816
    38  H    0.000000   0.000000   0.000000   0.000000   0.000000   0.000000
    39  H    0.000000   0.000000   0.000000   0.000000   0.000000   0.000000
    40  H    0.000000   0.000000   0.000000   0.000000   0.000000   0.000000
    41  H    0.000000   0.000000  -0.000001  -0.000009   0.000000   0.000000
    42  H    0.000000   0.000000   0.000000   0.000000   0.000000   0.000000
    43  H    0.000000   0.000000   0.000000  -0.000001   0.000000   0.000000
    44  H    0.000000   0.000000   0.000000  -0.000012   0.000000   0.000035
    45  H    0.000000  -0.000005   0.000024   0.006478  -0.000001  -0.000012
             37         38         39         40         41         42
     1  O    0.000000   0.268800  -0.001007  -0.001046   0.000247  -0.021118
[...]
 5,-0.00001663,0.00004568,-0.00001233,-0.00002345,-0.00006874,0.0000029
 2,0.00006327,-0.00000929,0.00000410,0.00000117,0.00001102,-0.00000203,
 -0.00000267,-0.00000884,0.00000208,0.00000082,-0.00000722,0.00000616,0
 .00000361,0.00001296,-0.00000646,-0.00000214,-0.00001237,0.00000614,0.
 00000264,-0.00001211,0.00000289,0.00000474,0.00001310,0.00000317,-0.00
 000957,-0.00000856,-0.00000345,0.00000577,0.00000501,-0.00000221,-0.00
 000519,-0.00000084,0.00000038,0.00000065,0.00000225,-0.00000010,0.0000
 0085,0.00000262,-0.00000253,-0.00000232,0.00000709,-0.00000104,0.00000
 738,0.00000401,-0.00000428,-0.00000307,0.00000256,-0.00000215,0.000002
 01,0.00000401,-0.00000049,-0.00000033,0.00000035,-0.00000040,-0.000000
 19,0.00102559,-0.00032327,-0.00038272,0.00040998,-0.00093180,-0.000291
 38,0.00005299,0.00003506,0.00006150,-0.00007800,-0.00179347,0.00150589
 ,0.33846423,0.00067554,0.00156820,0.00187486,0.08272598,-0.06933599,-0
 .02047336,0.03012524,-0.01307453,-0.00959053,-0.00003471,0.00472941,0.
 00055111,0.00071800,-0.00118049,0.00103986,0.00069330,0.00008452,0.000
 62346,-0.00082110,-0.00018022,-0.00073794,0.00022038,0.00006661,0.0000
 1018,-0.00109397,0.00192760,0.00035148,0.00050899,-0.00006156,-0.00019
 745,0.00000216,-0.00000726,-0.00004911,-0.02313886,0.00599779,0.008166
 67,0.00038475,0.00062795,-0.00239226,0.00006609,-0.00035144,-0.0001115
 1,0.00005967,0.00008866,-0.00005900,-0.00001932,0.00001872,-0.00000577
 ,-0.00001396,-0.00001994,-0.00002456,0.00005264,0.00000191,-0.00000108
 ,-0.00009457,0.00000234,0.00001580,0.00000130,0.00000174,0.00000206,0.
 00000381,0.00000218,0.00000112,-0.00000222,0.00000353,-0.00000532,0.00
 002184,-0.00003534,0.00000914,-0.00003875,0.00001851,-0.00004945,0.000
 05310,-0.00000837,0.00007892,0.00000353,0.00000763,-0.00000059,0.00000
 141,0.00000372,-0.00000595,-0.00000445,-0.00000756,0.00000277,0.000001
 46,0.00000154,-0.00000042,0.00000008,-0.00000026,0.00000084,0.00000043
 ,0.00000105,0.00000021,-0.00000005,-0.00000121,-0.00000187,0.00000697,
 0.00000346,0.00000714,-0.00000412,-0.00000399,0.00000767,0.,0.00000305
 ,-0.00000155,-0.00000573,0.00000662,0.00000058,-0.00000396,0.00000568,
 -0.00000467,0.00057750,0.00116474,0.00039019,0.00042444,-0.00033906,-0
 .00006572,-0.00008454,-0.00012029,-0.00007706,-0.00140882,-0.00251749,
 0.00306770,-0.08924532,0.07549222,-0.04036431,0.01047329,-0.00950855,0
 .07547920,-0.02373792,-0.06117411,0.01608341,-0.00404869,-0.00179656,-
 0.00134967,0.00190026,0.00084140,-0.00024613,0.00008543,0.00025394,0.0
 0059978,0.00027821,0.00031638,-0.00046995,0.00003287,-0.00020004,0.000
 11183,0.00003917,0.00004363,-0.00035658,-0.00152618,0.00011477,-0.0001
 5687,0.00013756,0.00000801,-0.00005582,0.00001932,0.00001045,0.0216338
 2,-0.00438020,-0.00624021,-0.00042879,-0.00040037,0.00224999,0.0002609
 4,-0.00037529,-0.00036258,-0.00008500,0.00005834,-0.00010979,-0.000019
 63,-0.00001928,-0.00000939,0.00003723,0.00001045,0.00004536,-0.0000857
 3,-0.00000029,-0.00003020,0.00012214,-0.00000408,-0.00001799,-0.000001
 95,-0.00000604,0.00000214,-0.00000474,0.00000800,-0.00001288,0.0000037
 8,-0.00000858,0.00001443,0.00002256,-0.00001743,-0.00000156,-0.0000313
 1,0.00000552,-0.00002403,0.00003439,0.00000278,0.00003734,0.00002333,0
 .00000428,0.00001110,-0.00001239,-0.00000092,-0.00001496,0.00000742,0.
 00000237,0.00001970,-0.00000143,-0.00000256,-0.00001501,0.00000131,-0.
 00000101,0.00000359,-0.00000287,0.00000059,-0.00000274,-0.00000400,0.0
 0000288,0.00000389,-0.00001543,0.00000179,-0.00001559,-0.00000685,0.00
 000740,0.00001169,-0.00000414,0.00000425,-0.00000567,-0.00000604,0.000
 00338,0.00000178,-0.00000332,-0.00000075,-0.00000344,-0.00233150,0.000
 20009,0.00385519,-0.00026039,0.00046755,0.00036214,0.00001755,0.000228
 48,0.00002248,0.00080399,0.00288244,-0.00285366,-0.06771979,0.02025207
 ,0.07519139,0.00122395,-0.00053206,0.00049770,0.00133518,-0.00123040,-
 0.00210671,-0.29281577,0.12846828,-0.00807962,-0.02559324,-0.00368490,
 0.00790608,-0.00094153,-0.00031653,-0.00052240,-0.00873720,0.00587970,
 -0.00162676,0.00242506,-0.00006890,0.00190742,-0.00076581,-0.00026808,
 -0.00022855,0.00032446,0.00009361,-0.00027662,-0.00004697,0.00001830,0
 .00010879,0.00001084,0.00003165,-0.00000876,0.00015084,0.00091995,-0.0
 0009008,0.00029028,-0.00011485,0.00040706,-0.00085997,-0.00065808,-0.0
 0020951,0.00023573,0.00012856,-0.00037784,-0.00009739,0.00007802,0.000
 02844,-0.00001536,-0.00003243,-0.00006518,0.00002779,0.00000266,0.0000
 5708,-0.00001517,0.00001111,-0.00003980,-0.00000643,0.00001394,0.00000
 771,0.00001036,0.00000308,0.00000289,-0.00000399,0.00000326,-0.0000096
 8,-0.00004067,0.00006100,-0.00000165,0.00008034,-0.00002855,0.00008893
 ,-0.00010504,0.00001679,-0.00014632,0.00001458,0.00000271,-0.00000168,
 0.00001115,-0.00000229,-0.00001688,-0.00000938,-0.00000739,-0.00000316
 ,0.00000456,0.00000082,0.00000413,-0.00000110,0.00000060,-0.00000134,0
 .00000231,-0.00000012,0.00000149,0.00000394,-0.00000178,-0.00000358,0.
 00000591,-0.00000393,0.00000639,0.00001616,-0.00000499,-0.00001706,0.0
 0000131,-0.00000582,0.00000523,0.00001480,-0.00001200,0.00000054,0.000
 00760,-0.00001018,0.00000709,0.00010495,-0.00020472,-0.00015053,-0.000
 10034,-0.00014226,-0.00000112,0.00001974,0.00000956,0.00000640,0.00034
 782,0.00014185,-0.00022826,0.00042748,-0.00085795,-0.00081443,0.322960
 21,-0.00108987,0.00315745,0.00201017,0.02785022,-0.01472665,0.00024080
 ,0.13171994,-0.10645309,0.00363023,-0.02875688,0.00583658,0.00481855,-
 0.00022836,-0.00027595,-0.00047029,0.00170877,-0.00039993,-0.00279272,
 -0.00180955,0.00031548,-0.00099937,-0.00065814,0.00006707,-0.00014055,
 -0.00014707,0.00000565,0.00010071,-0.00021549,-0.00017626,0.00000645,0
 .00000367,-0.00002168,0.00002332,0.00207095,0.00162123,-0.00118438,-0.
 00047556,-0.00036073,0.00050612,0.00033936,-0.00032874,-0.00061931,-0.
 00008686,0.00009371,-0.00000260,0.00000781,0.00000673,-0.00001892,-0.0
 0001035,-0.00001537,-0.00001357,-0.00002828,0.00001869,0.00005173,0.00
 005658,0.00000119,-0.00008987,0.00001062,-0.00000343,0.00000187,-0.000
 00573,0.00000376,0.00000462,0.00000611,0.00000056,-0.00000736,0.000000
 95,-0.00000753,-0.00000174,0.00001139,0.00000708,0.00000191,-0.0000203
 1,-0.00000409,-0.00000366,0.00000060,0.00000296,-0.00000370,-0.0000038
 1,0.00000002,0.00000468,0.00000059,-0.00000117,-0.00000460,-0.00000135
 ,0.00000228,0.00000560,-0.00000009,0.00000006,-0.00000086,-0.00000094,
 -0.00000002,-0.00000029,-0.00000162,0.00000181,0.00000129,-0.00000155,
 0.00000117,-0.00000238,-0.00000165,0.00000365,0.00000836,-0.00000191,0
 .00000031,-0.00000252,-0.00000113,-0.00000293,0.00000129,-0.00000099,0
 .00000229,0.00000042,-0.00012609,0.00014516,0.00027337,-0.00016809,0.0
 0020149,0.00014529,-0.00001284,-0.00003001,-0.00003666,-0.00076084,-0.
 00015628,0.00056350,-0.00069990,-0.00441159,-0.00242282,-0.12797725,0.
 11586396,0.00078476,0.00136180,0.00174335,0.01149353,-0.01054552,0.000
 11749,-0.00979939,0.00304076,-0.04222605,0.02214761,-0.00114421,-0.000
 33811,0.00096136,-0.00033429,-0.00003473,-0.02950588,0.01291461,-0.002
 58225,0.00173893,0.00157403,0.00357975,-0.00042599,-0.00047075,-0.0003
 0166,-0.00000424,-0.00004756,0.00020279,-0.00009004,-0.00013665,-0.000
 02715,-0.00000174,-0.00002103,0.00002539,-0.00038368,0.00018014,-0.000
 99994,0.00027049,0.00079993,-0.00023261,-0.00104365,-0.00126004,0.0010
 8322,0.00040388,0.00020260,-0.00101067,-0.00019269,0.00016193,0.000184
 22,0.00003208,-0.00006496,-0.00010451,0.00003818,0.00002793,-0.0000002
 2,-0.00004445,-0.00002879,0.00002067,-0.00002625,0.00002429,0.00002625
 ,0.00002936,0.00002610,-0.00002584,-0.00001249,-0.00000904,0.00000337,
 -0.00004682,0.00009172,-0.00000099,0.00010370,-0.00007648,0.00011473,-
 0.00017656,0.00010406,-0.00016538,0.00005065,0.00001586,0.00004168,0.0
 0001218,-0.00000245,-0.00008060,-0.00001314,-0.00001745,0.00004142,0.0
 0001127,-0.00000539,-0.00002777,0.00000015,0.00000024,0.00000524,0.000
 00124,0.00000173,-0.00000124,0.00000441,-0.00000113,-0.00000442,-0.000
 00073,-0.00000414,0.00000493,0.00003454,-0.00000451,-0.00004044,-0.000
 00284,-0.00000656,0.00000214,0.00003170,-0.00001077,0.00001164,0.00001
 184,-0.00002106,-0.00000093,0.00013835,0.00000875,0.00010032,-0.000036
 11,0.00006488,0.00002065,-0.00000648,0.00001271,0.00000050,-0.00011984
 ,0.00019417,0.00020862,0.00015441,-0.00212431,-0.00096889,0.00480125,-
 0.00408253,0.04640004,0.00027003,-0.00036206,-0.00047582,-0.00068170,0
 .00123098,0.00000762,-0.01598965,-0.00127374,-0.00071635,0.00239892,-0
 .00178185,0.00418248,0.00074712,-0.00026713,0.00093364,-0.35272749,-0.
 01268417,0.02549629,-0.00605601,0.01013972,0.00547819,0.00048964,0.000
 12473,0.00042736,0.00001113,0.00001131,0.00004434,0.00003143,0.0000070
 3,-0.00001369,-0.00001003,0.00000026,-0.00000038,-0.00013412,0.0000922
 9,-0.00002418,0.00122020,-0.00099941,-0.00061501,-0.01023062,-0.001121
 88,0.00264480,0.00144756,0.00021151,-0.00072738,0.00014231,0.00007525,
 0.00028384,0.00005998,-0.00001223,-0.00014566,0.00006167,-0.00004447,-
 0.00005458,-0.00006350,-0.00000697,0.00005953,-0.00002331,0.00004848,0
 .00003308,0.00003019,0.00001556,-0.00002937,-0.00001399,-0.00000489,-0
 .00000334,-0.00012401,0.00016343,-0.00001235,0.00018068,-0.00014661,0.
 00022860,-0.00031903,0.00020521,-0.00029798,0.00000803,-0.00001715,0.0
 0006140,0.00000477,-0.00000841,-0.00005166,-0.00000799,0.00000236,0.00
 002833,0.00000877,-0.00001173,-0.00001875,-0.00000063,0.00000294,0.000
 00198,0.00000330,-0.00000098,0.00000047,0.00000823,-0.00000413,-0.0000
 0499,0.00000078,-0.00001474,0.00001370,0.00005336,0.00000980,-0.000220
 65,0.00000153,-0.00001484,0.00001064,0.00007868,-0.00002436,-0.0000031
 5,0.00002855,-0.00003327,0.00000301,-0.00006793,-0.00010648,-0.0000771
 5,0.00001341,-0.00003873,-0.00002287,0.00000774,0.00001390,0.00000709,
 0.00015057,0.00006369,-0.00000159,0.00033888,-0.00043010,-0.00026143,-
 0.00016077,-0.00039237,-0.00164650,0.37819193,0.00016552,0.00016886,0.
 00010628,-0.00014067,-0.00011941,0.00051195,-0.00290934,0.00263033,0.0
 0225078,0.00161504,-0.00026954,0.00314879,0.00002750,-0.00027842,0.000
 22280,-0.02097663,-0.04121479,0.00319222,0.03876184,-0.01749544,-0.014
 74332,0.00116870,0.00161844,-0.00020203,0.00001304,0.00008869,0.000062
 36,-0.00000162,-0.00004207,-0.00001945,-0.00000045,0.00000108,0.000001
 56,-0.00005888,-0.00005010,0.00007074,0.00202188,0.00176041,-0.0006121
 7,-0.02955239,-0.00093120,0.00683500,0.00156320,0.00111772,-0.00225253
 ,-0.00009676,0.00039983,-0.00002018,-0.00013286,-0.00007612,-0.0003958
 3,0.00013620,-0.00030123,0.00026606,-0.00014770,0.00031507,0.00010880,
 0.00001253,0.00002355,0.00001815,0.00001485,0.00001798,0.00002879,0.00
 000896,0.00002312,-0.00005503,0.00004844,-0.00011792,0.00006390,-0.000
 26540,0.00006376,-0.00016474,0.00055637,-0.00005690,0.00031234,0.00001
 970,-0.00001227,-0.00002762,0.00001828,0.00001604,-0.00002125,-0.00002
 589,-0.00004232,-0.00001568,0.00000514,0.00001749,0.00002056,-0.000001
 91,-0.00000273,-0.00000022,0.00000210,0.00000448,0.00000350,0.00000721
 ,-0.00000432,-0.00001153,0.00003518,-0.00000708,0.00003349,0.00014386,
 -0.00012185,-0.00000532,0.00002044,0.00001021,0.00002150,-0.00002011,0
 .00005422,-0.00001109,-0.00001756,0.00003269,-0.00001613,0.00001028,0.
 00002189,0.00000467,0.00001091,-0.00004001,-0.00002344,-0.00000152,-0.
 00001224,-0.00000597,0.00015742,0.00004952,0.00005891,-0.00013181,-0.0
 0006987,-0.00024450,0.00010525,0.00002834,-0.00073364,0.00808474,0.056
 64370,0.00031029,-0.00054812,-0.00068181,-0.00020776,0.00102377,0.0005
 5696,-0.03167595,0.00097750,-0.00379576,-0.00252326,0.00033561,-0.0017
 8231,-0.00047215,0.00010299,0.00016208,0.02882101,0.00235634,-0.042252
 56,0.01864388,-0.00914545,-0.00306513,-0.00053820,0.00076679,0.0002950
 1,-0.00003780,0.00005399,0.00007103,-0.00001929,-0.00006546,0.00000385
 ,0.00000234,-0.00000260,0.00001092,-0.00033246,-0.00011976,-0.00042054
 ,-0.00142078,0.00004732,0.00067361,0.02425012,0.00396548,-0.00455725,-
 0.00053163,-0.00125974,0.00261715,0.00028406,-0.00044820,-0.00029650,0
 .00005642,0.00013416,0.00038625,-0.00013117,0.00016694,-0.00020162,0.0
 0010980,-0.00019298,-0.00004613,0.00002149,-0.00004686,-0.00003818,-0.
 00004798,-0.00004687,0.00001087,0.00000669,-0.00000538,0.00003121,0.00
 008938,-0.00004500,-0.00013483,-0.00027182,0.00008004,0.00004244,0.000
 58935,-0.00022655,-0.00007495,-0.00002498,0.00006281,-0.00006138,-0.00
 008433,-0.00005560,0.00014538,0.00005843,0.00007873,-0.00006134,-0.000
 03104,-0.00000524,0.00004148,0.00000253,0.00000185,-0.00001204,-0.0000
 0449,-0.00000677,-0.00000003,-0.00001172,0.00000305,0.00001109,-0.0000
 2231,0.00001608,-0.00002728,-0.00018949,0.00009283,0.00006380,-0.00002
 477,0.00000028,-0.00002573,-0.00009007,0.00001590,-0.00008816,-0.00002
 700,0.00001000,0.00002747,-0.00003061,-0.00014581,-0.00012696,0.000007
 53,-0.00002150,-0.00000838,0.00001176,0.00001985,-0.00000193,0.0000608
 2,0.00006991,-0.00010815,0.00009934,-0.00042592,-0.00019762,-0.0006052
 8,0.00031455,-0.00440668,-0.03480815,-0.00057133,0.05940441,0.00006793
 ,-0.00004546,0.00013926,-0.00007029,0.00031974,-0.00003197,-0.00047293
 ,-0.00033448,-0.00001858,0.00023112,-0.00016910,0.00025642,-0.00000755
 ,-0.00004943,0.00009011,-0.00797460,0.00022166,0.00590711,0.00108049,0
 .00024207,-0.00081029,0.00031651,-0.00000594,-0.00020958,0.00039103,-0
 .00028668,0.00004395,0.00002263,0.00003280,-0.00001021,-0.00000359,-0.
 00000792,0.00000176,0.00182117,-0.00068454,0.00040116,0.00450879,0.003
 33979,0.00156510,-0.31207085,0.03509980,0.09304200,-0.02951737,0.00251
 681,-0.00912646,-0.00030997,-0.00011067,0.00494263,-0.00016564,-0.0001
 4538,-0.00121246,0.00050540,-0.00145271,0.00075120,-0.00063176,0.00080
 993,0.00060214,-0.00000873,0.00013183,0.00011973,0.00009539,0.00009553
 ,0.00001403,0.00000578,0.00003776,-0.00014027,-0.00029038,0.00021923,0
 .00006961,0.00028651,-0.00015405,0.00004776,-0.00033703,0.00011066,-0.
 00006567,0.00052246,-0.00046676,0.00005605,0.00004399,0.00002039,-0.00
 039346,-0.00011665,-0.00014658,0.00005748,0.00005249,0.00002256,-0.000
 02982,-0.00000606,-0.00000134,0.00001172,0.00001427,0.00001376,0.00000
 325,0.00004149,-0.00001056,-0.00003647,0.00003155,-0.00013008,0.000144
 47,0.00152749,-0.00055679,-0.00116939,0.00017692,0.00003258,0.00028067
 ,0.00020101,0.00001182,-0.00004590,0.00005891,-0.00003293,-0.00003864,
 0.00001041,-0.00000362,-0.00000588,-0.00011138,-0.00010722,-0.00012100
 ,-0.00000658,0.00009130,0.00003547,0.00021073,0.00059541,0.00144527,-0
 .00003377,-0.00002610,-0.00014220,0.00025875,-0.00010268,0.00032363,0.
 00062137,-0.00025308,0.00073924,0.33903050,0.00006136,0.00042686,-0.00
 025314,-0.00050858,-0.00048703,-0.00009834,-0.00037704,0.00008655,-0.0
 0069641,0.00026721,-0.00013424,0.00075664,0.00017584,-0.00014593,0.000
 23435,-0.02632995,0.00267921,0.01040431,0.00079448,0.00243544,-0.00084
 938,0.00019000,0.00038133,-0.00019536,-0.00015473,0.00017241,-0.000248
 41,-0.00010405,-0.00013686,0.00009725,0.00000336,0.00002981,0.00001307
 ,0.00474076,0.00048501,0.00325854,0.02801158,-0.02102073,-0.02793054,0
 .03018681,-0.04620138,-0.00417322,0.00343984,0.00542746,-0.00041771,-0
 .00073720,0.00003009,-0.00068100,0.00063868,-0.00002095,0.00075824,-0.
 00056984,0.00030472,-0.00058465,0.00118737,-0.00204011,-0.00019717,-0.
 00005485,0.00000616,0.00001224,0.00001174,0.00002170,-0.00010934,-0.00
 003048,-0.00008564,0.00011721,-0.00001909,0.00013350,-0.00009599,0.000
 13296,-0.00005281,0.00006400,-0.00013302,-0.00001024,0.00001029,-0.000
 10565,0.00005693,-0.00002774,0.00000607,-0.00005484,-0.00001315,0.0000
 5126,0.00009485,0.00006181,-0.00000817,-0.00004152,-0.00006534,0.00000
 594,0.00000151,0.00000647,-0.00000849,-0.00000969,-0.00000888,-0.00000
 797,0.00001514,0.00002229,-0.00013378,-0.00005994,-0.00009647,0.000263
 45,-0.00000798,0.00002421,-0.00001808,-0.00002883,-0.00003694,-0.00002
 537,-0.00002067,0.00002352,-0.00001959,-0.00001745,0.00002325,-0.00002
 935,-0.00001039,-0.00002948,-0.00006903,0.00016592,0.00015273,-0.00014
 784,-0.00011645,-0.00000839,-0.00127400,0.00058108,-0.00009399,-0.0000
 9558,-0.00010291,0.00008816,0.00017478,-0.00001324,0.00034499,-0.00070
 048,-0.00384159,0.00268838,-0.03868131,0.06112574,-0.00014928,0.000010
 95,-0.00027342,-0.00003731,0.00028329,-0.00013196,0.00021769,-0.000534
 95,0.00046396,-0.00035244,0.00017836,-0.00018817,-0.00013099,-0.000011
 80,-0.00007541,0.02420042,0.00103034,-0.00592758,-0.00149320,-0.001309
 25,0.00108787,-0.00021567,-0.00018652,0.00006978,-0.00035718,0.0000116
 7,-0.00009784,-0.00004713,-0.00003961,0.00002331,0.00000272,0.00000971
 ,-0.00000375,0.00385566,-0.00064035,0.00296694,0.01382996,-0.01680144,
 -0.01253257,0.10197721,-0.00702667,-0.07618915,-0.03720977,0.00264165,
 -0.00895146,-0.00612146,0.00139416,0.00331909,0.00001490,0.00022475,-0
 .00053133,-0.00002597,0.00050402,0.00003095,0.00014710,-0.00000620,-0.
 00049014,0.00000252,0.00009909,-0.00000477,0.00003790,0.00001740,-0.00
 000126,-0.00000287,0.00000786,-0.00001491,-0.00026601,0.00008377,0.000
 06942,0.00009392,-0.00009815,-0.00001389,-0.00005458,0.00016427,-0.000
 03091,-0.00010280,-0.00014542,0.00017830,0.00019636,0.00001499,-0.0001
 6827,-0.00006568,-0.00009582,0.00002297,0.00003150,0.00001645,-0.00002
 493,-0.00000210,-0.00000311,0.00000930,0.00000346,0.00000802,0.0000064
 9,0.00003894,-0.00000227,-0.00004075,0.00002845,-0.00017710,0.00003711
 ,0.00060956,-0.00080437,-0.00044702,0.00013886,-0.00006002,0.00005565,
 0.00016775,0.00002976,-0.00009284,0.00008410,-0.00004813,-0.00005495,-
 0.00001186,0.00001011,0.00001583,-0.00007093,0.00021109,0.00010680,-0.
 00005144,-0.00008796,-0.00003039,-0.00134428,0.00043107,-0.00000718,-0
 .00015782,-0.00004843,0.00014469,-0.00021180,0.00018586,-0.00035735,0.
 00028656,0.00280985,-0.00208179,-0.09748296,0.01774910,0.10015554\\0.0
 0377080,0.00386629,-0.00270302,0.00793039,-0.01294793,0.00703595,-0.03
 732732,0.00864714,-0.02088311,0.01759997,0.01380238,0.06133896,-0.0110
 3067,-0.02447492,-0.02199308,0.00655081,-0.01800061,-0.01953290,-0.004
 83020,-0.02253299,-0.00271847,0.00413545,0.03187926,-0.01227429,-0.006
 22975,0.01792746,0.00072871,0.01022811,0.00638768,0.00356169,-0.011216
 87,-0.02758066,-0.01922984,0.01050768,0.00284310,-0.01497845,-0.019991
 93,0.02721405,-0.01841905,0.00951263,-0.02297056,0.00812159,0.01009720
 ,0.02980523,0.03511976,0.00718242,-0.00133906,-0.00477379,-0.01499530,
 0.00126111,0.02939354,0.00069425,-0.00980959,0.01293493,0.00545195,0.0
 0942137,-0.02591357,0.01757268,0.01007289,-0.01296365,-0.00057306,-0.0
 0233166,0.02984303,0.00098237,0.00473734,-0.02914596,-0.02248983,-0.01
 745332,-0.00556810,0.02738724,0.02511152,0.01606706,-0.00472486,-0.006
 91849,-0.02450758,0.04866806,-0.00909364,0.01396341,-0.00992244,-0.016
 43289,-0.00259398,-0.01312119,-0.03234962,-0.00914014,0.01392117,0.023
 40956,0.03000340,-0.00564719,0.00065450,0.00278316,-0.01592633,0.01431
 393,-0.00579364,0.01756297,-0.01233429,0.00207985,-0.01815231,0.014705
 69,-0.00332837,0.01359197,-0.01507346,-0.00037388,-0.01961996,0.007995
 71,-0.00312961,-0.01788490,0.00899637,0.00605141,-0.00872883,-0.009460
 75,-0.01422124,0.00036290,0.00338884,0.00187217,-0.02059228,0.00531079
 ,0.00712663,0.00759147,-0.00957442,0.01531281,0.02058663,-0.00739975,-
 0.00682816,-0.01785050,0.00716390,0.00130584,0.01704419,-0.00454329,0.
 00112430,-0.01767514,0.00492550,0.00385950,0.01959757,-0.00121969,-0.0
 0861382\\\@


 KNIGHT- SIRE, I'VE JUST RETURNED FROM THE FRONT
 KING-   HOW GOES THE BATTLE                    
 KNIGHT- THE SITUATION IS QUITE FLUID           
 KING-   WHAT DOES *THAT* MEAN                  
 KNIGHT- WE'RE UP THE CREEK                     
                THE WIZARD OF ID                
 Job cpu time:  4 days  0 hours 14 minutes 22.5 seconds.
 File lengths (MBytes):  RWF=   2340 Int=      0 D2E=      0 Chk=     43 Scr=      1
 Normal termination of Gaussian 09 at Tue Feb 16 13:03:26 2016.
Gaussian '09 finished on node011 at Tue Feb 16 13:03:26 EST 2016.
