Gaussian '09 started on node006 at Mon Feb  1 16:09:56 EST 2016.
 Entering Gaussian System, Link 0=/usr/local/gaussian/g09/g09
 Initial command:
 /usr/local/gaussian/g09/l1.exe /home/srmcgrat/thesis/gaussian/cellobiose/280/8000/1/2dfp/gaussian2017/Gau-2053.inp -scrdir=/home/srmcgrat/thesis/gaussian/cellobiose/280/8000/1/2dfp/gaussian2017/
 Entering Link 1 = /usr/local/gaussian/g09/l1.exe PID=      2055.
  
 Copyright (c) 1988,1990,1992,1993,1995,1998,2003,2009,2010,
            Gaussian, Inc.  All Rights Reserved.
  
 This is part of the Gaussian(R) 09 program.  It is based on
 the Gaussian(R) 03 system (copyright 2003, Gaussian, Inc.),
 the Gaussian(R) 98 system (copyright 1998, Gaussian, Inc.),
 the Gaussian(R) 94 system (copyright 1995, Gaussian, Inc.),
 the Gaussian 92(TM) system (copyright 1992, Gaussian, Inc.),
 the Gaussian 90(TM) system (copyright 1990, Gaussian, Inc.),
 the Gaussian 88(TM) system (copyright 1988, Gaussian, Inc.),
 the Gaussian 86(TM) system (copyright 1986, Carnegie Mellon
 University), and the Gaussian 82(TM) system (copyright 1983,
 Carnegie Mellon University). Gaussian is a federally registered
 trademark of Gaussian, Inc.
  
 This software contains proprietary and confidential information,
 including trade secrets, belonging to Gaussian, Inc.
  
 This software is provided under written license and may be
 used, copied, transmitted, or stored only in accord with that
 written license.
  
 The following legend is applicable only to US Government
 contracts under FAR:
  
                    RESTRICTED RIGHTS LEGEND
  
 Use, reproduction and disclosure by the US Government is
 subject to restrictions as set forth in subparagraphs (a)
 and (c) of the Commercial Computer Software - Restricted
 Rights clause in FAR 52.227-19.
  
 Gaussian, Inc.
 340 Quinnipiac St., Bldg. 40, Wallingford CT 06492
  
  
 ---------------------------------------------------------------
 Warning -- This program may not be used in any manner that
 competes with the business of Gaussian, Inc. or will provide
 assistance to any competitor of Gaussian, Inc.  The licensee
 of this program is prohibited from giving any competitor of
 Gaussian, Inc. access to this program.  By using this program,
 the user acknowledges that Gaussian, Inc. is engaged in the
 business of creating and licensing software in the field of
 computational chemistry and represents and warrants to the
 licensee that it is not a competitor of Gaussian, Inc. and that
 it will not use this program in any manner prohibited above.
 ---------------------------------------------------------------
  

 Cite this work as:
 Gaussian 09, Revision B.01,
 M. J. Frisch, G. W. Trucks, H. B. Schlegel, G. E. Scuseria, 
 M. A. Robb, J. R. Cheeseman, G. Scalmani, V. Barone, B. Mennucci, 
 G. A. Petersson, H. Nakatsuji, M. Caricato, X. Li, H. P. Hratchian, 
 A. F. Izmaylov, J. Bloino, G. Zheng, J. L. Sonnenberg, M. Hada, 
 M. Ehara, K. Toyota, R. Fukuda, J. Hasegawa, M. Ishida, T. Nakajima, 
 Y. Honda, O. Kitao, H. Nakai, T. Vreven, J. A. Montgomery, Jr., 
 J. E. Peralta, F. Ogliaro, M. Bearpark, J. J. Heyd, E. Brothers, 
 K. N. Kudin, V. N. Staroverov, T. Keith, R. Kobayashi, J. Normand, 
 K. Raghavachari, A. Rendell, J. C. Burant, S. S. Iyengar, J. Tomasi, 
 M. Cossi, N. Rega, J. M. Millam, M. Klene, J. E. Knox, J. B. Cross, 
 V. Bakken, C. Adamo, J. Jaramillo, R. Gomperts, R. E. Stratmann, 
 O. Yazyev, A. J. Austin, R. Cammi, C. Pomelli, J. W. Ochterski, 
 R. L. Martin, K. Morokuma, V. G. Zakrzewski, G. A. Voth, 
 P. Salvador, J. J. Dannenberg, S. Dapprich, A. D. Daniels, 
 O. Farkas, J. B. Foresman, J. V. Ortiz, J. Cioslowski, 
 and D. J. Fox, Gaussian, Inc., Wallingford CT, 2010.
 
 ******************************************
 Gaussian 09:  EM64L-G09RevB.01 12-Aug-2010
                 1-Feb-2016 
 ******************************************
 --------------------------------------------------
 # freq=raman b3lyp/6-31+g(2df,p) geom=connectivity
 --------------------------------------------------
 1/10=4,30=1,38=1,57=2/1,3;
 2/12=2,17=6,18=5,40=1/2;
 3/5=1,6=6,7=114,11=2,16=1,25=1,30=1,71=2,74=-5/1,2,3;
 4//1;
 5/5=2,38=5,98=1/2;
 8/6=4,10=90,11=11/1;
 10/13=10,15=4/2;
 11/6=3,8=1,9=11,15=111,16=1/1,2,10;
 10/6=1/2;
 6/7=2,8=2,9=2,10=2,18=1,28=1/1;
 7/8=1,10=1,25=1/1,2,3,16;
 1/10=4,30=1/3;
 99//99;
 ------------
 280 8000.com
 ------------
 Symbolic Z-matrix:
 Charge =  0 Multiplicity = 1
 O                     7.475     7.579     12.377 
 C                     8.125     7.819     13.634 
 C                     7.592     9.163     14.102 
 O                     8.271     10.207    13.389 
 H                     8.183     9.832     12.466 
 C                     7.803     9.507     15.567 
 O                     6.949     10.574    16.007 
 H                     7.252     10.786    16.937 
 C                     8.136     5.447     14.31 
 O                     7.573     4.556     13.336 
 H                     7.693     3.638     13.716 
 C                     7.509     6.804     14.584 
 O                     7.849     7.101     15.946 
 C                     7.367     8.353     16.455 
 O                     8.187     8.464     17.627 
 C                     7.645     8.253     18.939 
 C                     8.415     7.009     19.353 
 O                     8.15      5.99      18.378 
 H                     8.334     6.443     17.506 
 C                     8.108     6.613     20.788 
 O                     8.784     5.437     21.256 
 H                     8.543     5.213     22.2 
 C                     7.574     10.668    19.504 
 O                     8.022     11.344    18.32 
 H                     8.142     12.329    18.444 
 C                     8.163     9.32      19.889 
 O                     7.724     8.947     21.203 
 C                     8.369     7.778     21.728 
 O                     7.84019   7.47831   23.02239 
 H                     8.13705   7.44862   11.69415 
 H                     6.54628   9.21558   13.88151 
 H                     9.19277   7.77115   13.58419 
 H                     6.44716   6.7622    14.45892 
 H                     8.15676   4.91923   15.24055 
 H                     9.15067   5.62479   14.02062 
 H                     6.31968   8.34976   16.6741 
 H                     8.82861   9.75082   15.75022 
 H                     6.58273   8.12595   18.95753 
 H                     9.23169   9.35922   19.85347 
 H                     7.74097   11.33098   20.32709 
 H                     6.51674   10.53376   19.4087 
 H                     9.42231   7.95129   21.80151 
 H                     7.05938   6.40506   20.83326 
 H                     9.45809   7.24164   19.30064 
 H                     8.56279   7.33575   23.63812 
 

 GradGradGradGradGradGradGradGradGradGradGradGradGradGradGradGradGradGrad
 Berny optimization.
 Initialization pass.
 Trust Radius=3.00D-01 FncErr=1.00D-07 GrdErr=1.00D-07
 Number of steps in this run=      2 maximum allowed number of steps=      2.
 GradGradGradGradGradGradGradGradGradGradGradGradGradGradGradGradGradGrad

                          Input orientation:                          
 ---------------------------------------------------------------------
 Center     Atomic      Atomic             Coordinates (Angstroms)
 Number     Number       Type             X           Y           Z
 ---------------------------------------------------------------------
      1          8           0        7.475000    7.579000   12.377000
      2          6           0        8.125000    7.819000   13.634000
      3          6           0        7.592000    9.163000   14.102000
      4          8           0        8.271000   10.207000   13.389000
      5          1           0        8.183000    9.832000   12.466000
      6          6           0        7.803000    9.507000   15.567000
      7          8           0        6.949000   10.574000   16.007000
      8          1           0        7.252000   10.786000   16.937000
      9          6           0        8.136000    5.447000   14.310000
     10          8           0        7.573000    4.556000   13.336000
     11          1           0        7.693000    3.638000   13.716000
     12          6           0        7.509000    6.804000   14.584000
     13          8           0        7.849000    7.101000   15.946000
     14          6           0        7.367000    8.353000   16.455000
     15          8           0        8.187000    8.464000   17.627000
     16          6           0        7.645000    8.253000   18.939000
     17          6           0        8.415000    7.009000   19.353000
     18          8           0        8.150000    5.990000   18.378000
     19          1           0        8.334000    6.443000   17.506000
     20          6           0        8.108000    6.613000   20.788000
     21          8           0        8.784000    5.437000   21.256000
     22          1           0        8.543000    5.213000   22.200000
     23          6           0        7.574000   10.668000   19.504000
     24          8           0        8.022000   11.344000   18.320000
     25          1           0        8.142000   12.329000   18.444000
     26          6           0        8.163000    9.320000   19.889000
     27          8           0        7.724000    8.947000   21.203000
     28          6           0        8.369000    7.778000   21.728000
     29          8           0        7.840192    7.478307   23.022390
     30          1           0        8.137052    7.448622   11.694147
     31          1           0        6.546284    9.215578   13.881514
     32          1           0        9.192768    7.771155   13.584185
     33          1           0        6.447159    6.762196   14.458916
     34          1           0        8.156760    4.919234   15.240555
     35          1           0        9.150666    5.624792   14.020616
     36          1           0        6.319677    8.349764   16.674097
     37          1           0        8.828614    9.750820   15.750217
     38          1           0        6.582732    8.125947   18.957535
     39          1           0        9.231690    9.359224   19.853470
     40          1           0        7.740965   11.330981   20.327091
     41          1           0        6.516740   10.533765   19.408702
     42          1           0        9.422312    7.951289   21.801514
     43          1           0        7.059376    6.405058   20.833263
     44          1           0        9.458090    7.241638   19.300637
     45          1           0        8.562794    7.335746   23.638119
 ---------------------------------------------------------------------
                    Distance matrix (angstroms):
                    1          2          3          4          5
     1  O    0.000000
     2  C    1.435322   0.000000
     3  C    2.344860   1.519687   0.000000
     4  O    2.926456   2.404971   1.435042   0.000000
     5  H    2.363302   2.328037   1.863689   1.000149   0.000000
     6  C    3.741773   2.586410   1.519566   2.335103   3.141055
     7  O    4.735356   3.821535   2.456297   2.955723   3.822565
     8  H    5.579263   4.524934   3.284350   3.736563   4.665482
     9  C    2.952767   2.466471   3.761364   4.850161   4.757181
    10  O    3.172982   3.322751   4.670285   5.694191   5.381931
    11  H    4.167964   4.204059   5.539388   6.602482   6.337842
    12  C    2.339365   1.520586   2.409169   3.686337   3.756193
    13  O    3.620238   2.436605   2.778170   4.045191   4.436250
    14  C    4.152207   2.969472   2.498666   3.695252   4.331907
    15  O    5.371468   4.045234   3.642561   4.583203   5.339229
    16  C    6.598714   5.344322   4.922142   5.917135   6.684491
    17  C    7.062087   5.783352   5.734984   6.768843   7.446739
    18  O    6.244401   5.084427   5.353828   6.533594   7.050801
    19  H    5.323065   4.114540   4.419975   5.578652   6.075337
    20  C    8.489921   7.254960   7.174354   8.227309   8.923187
    21  O    9.227041   8.012683   8.153751   9.214432   9.845879
    22  H   10.160212   8.963388   9.060050  10.131522  10.780330
    23  C    7.768259   6.548076   5.607758   6.171836   7.113594
    24  O    7.056464   5.864711   4.767933   5.066511   6.048254
    25  H    7.734073   6.593670   5.401761   5.483844   6.478671
    26  C    7.741742   6.432688   5.817221   6.561130   7.440663
    27  O    8.934859   7.663090   7.105511   7.933814   8.793695
    28  C    9.395746   8.097781   7.789598   8.686113   9.488844
    29  O   10.652128   9.398886   9.081473  10.021655  10.821033
    30  H    0.960000   1.974932   3.005650   3.240234   2.505665
    31  H    2.409245   2.122271   1.070000   2.049422   2.249999
    32  H    2.108304   1.070000   2.183535   2.611723   2.552852
    33  H    2.461300   2.147666   2.683637   4.042003   4.050747
    34  H    3.967253   3.315218   4.429990   5.603729   5.642173
    35  H    3.054219   2.452756   3.867167   4.708437   4.588443
    36  H    4.515960   3.575345   2.982590   4.248394   4.834985
    37  H    4.234107   2.950487   2.142747   2.468680   3.348058
    38  H    6.663237   5.550930   5.066588   6.179774   6.900108
    39  H    7.883702   6.502220   5.983853   6.590222   7.476495
    40  H    8.795001   7.568286   6.593488   7.048501   8.014929
    41  H    7.687245   6.580550   5.585362   6.278616   7.174260
    42  H    9.630788   8.270961   8.006298   8.785451   9.603374
    43  H    8.547471   7.413782   7.293821   8.446292   9.111397
    44  H    7.209938   5.849893   5.848055   6.719375   7.419440
    45  H   11.316151  10.025348   9.758016  10.647708  11.453898
                    6          7          8          9         10
     6  C    0.000000
     7  O    1.435759   0.000000
     8  H    1.953546   1.000826   0.000000
     9  C    4.263161   5.529458   6.015605   0.000000
    10  O    5.435316   6.613618   7.202995   1.435105   0.000000
    11  H    6.154954   7.342364   7.852594   1.954883   1.000762
    12  C    2.891182   4.068345   4.632384   1.519755   2.571984
    13  O    2.436102   3.588238   3.862346   2.344052   3.655858
    14  C    1.519986   2.303968   2.482949   3.692861   4.918110
    15  O    2.340706   2.934134   2.596538   4.484125   5.836278
    16  C    3.601092   3.803693   3.252467   5.435288   6.713166
    17  C    4.576936   5.104321   4.631992   5.286732   6.552134
    18  O    4.515686   5.298783   5.087681   4.104104   5.273618
    19  H    3.664666   4.607644   4.511777   3.353451   4.639913
    20  C    5.977215   6.315913   5.742549   6.582160   7.749179
    21  O    7.063426   7.570204   7.043620   6.976168   8.060340
    22  H    7.936166   8.344723   7.773299   7.903955   8.941087
    23  C    4.111001   3.553656   2.589806   7.385954   8.683362
    24  O    3.316857   2.663494   1.678378   7.132160   8.433196
    25  H    4.044222   3.231446   2.333238   8.028195   9.318527
    26  C    4.340997   4.256317   3.419559   6.791620   8.123152
    27  O    5.664304   5.499652   4.669418   7.741653   9.010736
    28  C    6.423995   6.524098   5.766232   7.779111   9.024443
    29  O    7.726566   7.719666   6.951171   8.950947  10.121138
    30  H    4.398579   5.457120   6.277652   3.293809   3.373589
    31  H    2.122528   2.554444   3.507172   4.112539   4.802437
    32  H    2.979290   4.331336   4.908894   2.654291   3.608665
    33  H    3.255780   4.144667   4.793712   2.145717   2.719514
    34  H    4.612950   5.832881   6.173772   1.070000   2.024857
    35  H    4.390791   5.769551   6.224813   1.070000   2.024857
    36  H    2.182912   2.405887   2.621753   4.161012   5.206376
    37  H    1.070000   2.067972   2.228399   4.590948   5.864398
    38  H    3.859027   3.851334   3.406811   5.584709   6.732518
    39  H    4.520710   4.634834   3.802718   6.872852   8.264359
    40  H    5.097962   4.456839   3.468257   8.425121   9.736731
    41  H    4.179400   3.429293   2.591051   7.382001   8.586447
    42  H    6.626581   6.824389   6.034015   8.003052   9.306603
    43  H    6.156992   6.378485   5.866057   6.680565   7.738977
    44  H    4.670250   5.314905   4.797512   5.465812   6.807577
    45  H    8.392532   8.445389   7.650322   9.526979  10.716358
                   11         12         13         14         15
    11  H    0.000000
    12  C    3.287984   0.000000
    13  O    4.121845   1.434870   0.000000
    14  C    5.462566   2.433147   1.434890   0.000000
    15  O    6.231391   3.532015   2.190382   1.434679   0.000000
    16  C    6.969954   4.591745   3.213529   2.501508   1.435141
    17  C    6.607624   4.858623   3.454920   3.362000   2.268939
    18  O    5.241660   3.932927   2.690640   3.145598   2.585739
    19  H    4.758467   3.057618   1.761190   2.384909   2.029949
    20  C    7.683491   6.235776   4.873417   4.727745   3.663927
    21  O    7.828045   6.928918   5.642625   5.793146   4.763274
    22  H    8.670720   7.848815   6.569528   6.651887   5.622105
    23  C    9.106921   6.256287   5.045640   3.833859   2.959141
    24  O    8.982622   5.901904   4.865065   3.585154   2.966795
    25  H    9.903992   6.769484   5.801537   4.512795   3.950663
    26  C    8.403092   5.907707   4.535395   3.655279   2.418668
    27  O    9.178323   6.960592   5.573095   4.798311   3.638054
    28  C    9.043712   7.261199   5.844677   5.398070   4.161961
    29  O   10.068690   8.471765   7.086447   6.642260   5.495644
    30  H    4.336579   3.026754   4.275754   4.906791   6.019322
    31  H    5.696642   2.689984   3.229646   2.835568   4.157582
    32  H    4.398824   2.184055   2.798748   3.451601   4.223264
    33  H    3.444509   1.070000   2.071561   2.713138   3.994990
    34  H    2.044725   2.098333   2.313541   3.726841   4.273336
    35  H    2.482926   2.098333   2.753294   4.068269   4.689964
    36  H    5.730364   2.858738   2.104368   1.070000   2.099517
    37  H    6.541730   3.432957   2.831876   2.141713   2.364294
    38  H    6.989138   4.661901   3.423929   2.632358   2.111464
    39  H    8.530446   6.104437   4.720141   4.004891   2.617245
    40  H   10.143509   7.316451   6.090843   4.899113   3.963460
    41  H    9.018981   6.178469   5.054612   3.768691   3.201274
    42  H    9.325798   7.554438   6.122528   5.742028   4.383541
    43  H    7.662474   6.278105   4.999318   4.801905   3.973776
    44  H    6.876766   5.122220   3.723243   3.702085   2.431234
    45  H   10.624421   9.130734   7.728732   7.352682   6.127620
                   16         17         18         19         20
    16  C    0.000000
    17  C    1.520471   0.000000
    18  O    2.385564   1.434995   0.000000
    19  H    2.409214   1.933475   0.999724   0.000000
    20  C    2.514512   1.519964   2.489577   3.294162   0.000000
    21  O    3.820427   2.495747   2.998441   3.908585   1.434913
    22  H    4.547760   3.368592   3.919931   4.856976   2.035428
    23  C    2.481228   3.757441   4.845961   4.735000   4.286821
    24  O    3.174834   4.473674   5.355844   4.977925   5.336739
    25  H    4.135917   5.403999   6.339349   5.963363   6.178038
    26  C    1.519642   2.385691   3.656801   3.739660   2.852906
    27  O    2.369298   2.766916   4.111685   4.506653   2.401507
    28  C    2.920329   2.496818   3.803604   4.428175   1.519522
    29  O    4.160808   3.743672   4.886860   5.634383   2.411012
    30  H    7.305959   7.676494   6.841172   5.901500   9.132211
    31  H    5.264209   6.188558   5.761479   4.901022   7.543999
    32  H    5.594802   5.870692   5.219247   4.228724   7.376516
    33  H    4.871188   5.280660   4.342255   3.598163   6.545072
    34  H    5.005436   4.620175   3.315139   2.735968   5.800463
    35  H    5.776246   5.558018   4.485700   3.672099   6.918179
    36  H    2.625953   3.655756   3.438293   2.895740   4.810265
    37  H    3.716550   4.546284   4.637837   3.777445   5.978667
    38  H    1.070000   2.182011   2.711911   2.829524   2.822420
    39  H    2.139526   2.537913   3.833893   3.849782   3.110912
    40  H    3.377865   4.481372   5.700206   5.674734   4.754629
    41  H    2.587562   4.003806   4.937174   4.863853   4.450502
    42  H    3.382877   2.810303   4.145585   4.680897   2.132051
    43  H    2.710365   2.096101   2.718464   3.563254   1.070000
    44  H    2.107352   1.070000   2.031983   2.263211   2.104799
    45  H    4.874979   4.300099   5.445208   6.200986   2.975295
                   21         22         23         24         25
    21  O    0.000000
    22  H    0.999696   0.000000
    23  C    5.647740   6.161526   0.000000
    24  O    6.640285   7.274270   1.435108   0.000000
    25  H    7.471223   8.056413   2.050645   1.000000   0.000000
    26  C    4.163174   4.727850   1.520608   2.564804   3.338045
    27  O    3.666948   3.950636   2.423003   3.761130   4.384601
    28  C    2.423900   2.613864   3.732332   4.944818   5.616742
    29  O    2.859693   2.510355   4.756477   6.090083   6.676973
    30  H    9.792558  10.748756   8.466122   7.686946   8.329383
    31  H    8.583011   9.444825   5.897294   5.138879   5.749434
    32  H    8.029453   9.011028   6.786482   6.046806   6.745062
    33  H    7.308716   8.168044   6.479040   6.195242   7.052850
    34  H    6.070181   6.976343   7.180869   7.125922   8.072602
    35  H    7.247103   8.212257   7.614941   7.243475   8.095069
    36  H    5.962459   6.731869   3.867285   3.817375   4.720989
    37  H    6.994618   7.891330   4.062777   3.129318   3.791427
    38  H    4.166409   4.779278   2.782673   3.582431   4.512282
    39  H    4.189434   4.813696   2.140785   2.784640   3.463178
    40  H    6.057211   6.448313   1.070000   2.026712   2.168617
    41  H    5.876222   6.340947   1.070000   2.026712   2.606721
    42  H    2.650788   2.903482   4.009408   5.058884   5.663608
    43  H    2.022417   2.343099   4.494936   5.624614   6.478715
    44  H    2.744916   3.655006   3.915496   4.455713   5.324207
    45  H    3.054286   2.564104   5.401164   6.681388   7.217238
                   26         27         28         29         30
    26  C    0.000000
    27  O    1.434729   0.000000
    28  C    2.408759   1.434647   0.000000
    29  O    3.648859   2.341098   1.430000   0.000000
    30  H    8.405852   9.635042  10.041937  11.332171   0.000000
    31  H    6.222103   7.420466   8.182681   9.394037   3.230673
    32  H    6.573434   7.847690   8.185375   9.539127   2.188791
    33  H    6.242779   7.203219   7.587155   8.705542   3.312230
    34  H    6.401158   7.208393   7.092569   8.197929   4.356053
    35  H    7.004854   8.041087   8.040590   9.283577   3.125096
    36  H    3.830770   4.779098   5.483482   6.585760   5.377250
    37  H    4.214045   5.621311   6.311668   7.682825   4.714878
    38  H    2.188753   2.649290   3.314710   4.303916   7.458651
    39  H    1.070000   2.065016   2.599686   3.939057   8.451224
    40  H    2.100972   2.539857   3.870485   4.702934   9.474034
    41  H    2.100972   2.682313   4.050216   4.913867   8.465098
    42  H    2.667761   2.057650   1.070000   2.053620  10.201149
    43  H    3.256763   2.653281   2.097770   2.560042   9.261417
    44  H    2.518535   3.087769   2.714018   4.065103   7.723126
    45  H    4.260633   3.038013   1.970203   0.960000  11.952091
                   31         32         33         34         35
    31  H    0.000000
    32  H    3.029627   0.000000
    33  H    2.522360   3.053117   0.000000
    34  H    4.785310   3.456924   2.632528   0.000000
    35  H    4.438006   2.190689   2.965593   1.724503   0.000000
    36  H    2.932491   4.258756   2.728306   4.147102   4.741406
    37  H    2.997927   2.956920   4.033691   4.904627   4.485460
    38  H    5.191783   5.984234   4.702741   5.155241   6.101084
    39  H    6.549527   6.467412   6.602983   6.492147   6.926380
    40  H    6.888226   7.761886   7.548723   8.194891   8.620875
    41  H    5.682280   6.979838   6.223340   7.182345   7.750294
    42  H    8.520350   8.222507   8.011194   7.337654   8.125808
    43  H    7.515923   7.678978   6.413631   5.889848   7.168993
    44  H    6.460801   5.747052   5.721699   4.855027   5.530581
    45  H   10.138611  10.083057   9.437301   8.747770   9.786181
                   36         37         38         39         40
    36  H    0.000000
    37  H    3.018489   0.000000
    38  H    2.309411   4.239231   0.000000
    39  H    4.428007   4.141558   3.056248   0.000000
    40  H    4.924640   4.962626   3.672797   2.516825   0.000000
    41  H    3.505247   4.397986   2.450611   2.991375   1.725607
    42  H    6.006291   6.341055   4.022678   2.411118   4.052552
    43  H    4.650559   6.337324   2.589789   3.795529   4.998550
    44  H    4.239846   4.392917   3.027773   2.200239   4.552456
    45  H    7.386299   8.253620   5.143242   4.343438   5.253591
                   41         42         43         44         45
    41  H    0.000000
    42  H    4.564765   0.000000
    43  H    4.401142   2.985265   0.000000
    44  H    4.416030   2.599860   2.966924   0.000000
    45  H    5.683452   2.119147   3.315670   4.429917   0.000000
 Stoichiometry    C12H22O11
 Framework group  C1[X(C12H22O11)]
 Deg. of freedom   129
 Full point group                 C1      NOp   1
 Largest Abelian subgroup         C1      NOp   1
 Largest concise Abelian subgroup C1      NOp   1
                         Standard orientation:                         
 ---------------------------------------------------------------------
 Center     Atomic      Atomic             Coordinates (Angstroms)
 Number     Number       Type             X           Y           Z
 ---------------------------------------------------------------------
      1          8           0        5.014572   -0.279250   -0.211283
      2          6           0        3.721465   -0.120320    0.391017
      3          6           0        3.242807    1.249356   -0.061003
      4          8           0        3.893018    2.254379    0.730516
      5          1           0        4.829205    1.909432    0.660786
      6          6           0        1.760371    1.540961    0.101578
      7          8           0        1.332845    2.660058   -0.689780
      8          1           0        0.383780    2.825734   -0.418707
      9          6           0        3.111549   -2.501501    0.187392
     10          8           0        4.135884   -3.322774   -0.392068
     11          1           0        3.776048   -4.256108   -0.361571
     12          6           0        2.830775   -1.106966   -0.347484
     13          8           0        1.446242   -0.869735   -0.054835
     14          6           0        0.926726    0.403319   -0.465135
     15          8           0       -0.286165    0.422543    0.300914
     16          6           0       -1.564095    0.222897   -0.320911
     17          6           0       -1.980290   -1.086483    0.330347
     18          8           0       -0.965825   -2.058376    0.037950
     19          1           0       -0.116595   -1.600310    0.299548
     20          6           0       -3.387275   -1.491643   -0.077731
     21          8           0       -3.854722   -2.727259    0.482378
     22          1           0       -4.779415   -2.954382    0.177826
     23          6           0       -2.191541    2.621986   -0.236215
     24          8           0       -1.049722    3.289327    0.320958
     25          1           0       -1.206558    4.258847    0.509197
     26          6           0       -2.567156    1.223647    0.228341
     27          8           0       -3.847584    0.854514   -0.303346
     28          6           0       -4.370637   -0.373085    0.223557
     29          8           0       -5.629170   -0.661734   -0.390997
     30          1           0        5.667963   -0.444155    0.472446
     31          1           0        3.512051    1.387952   -1.087258
     32          1           0        3.720906   -0.249460    1.453195
     33          1           0        3.008154   -1.063469   -1.401782
     34          1           0        2.196023   -3.051330    0.121062
     35          1           0        3.346518   -2.395921    1.225921
     36          1           0        0.758690    0.475926   -1.519361
     37          1           0        1.521117    1.700234    1.132252
     38          1           0       -1.527735    0.178033   -1.389352
     39          1           0       -2.584430    1.180879    1.297347
     40          1           0       -3.039752    3.250239   -0.060900
     41          1           0       -2.041569    2.572290   -1.294486
     42          1           0       -4.499748   -0.283639    1.281966
     43          1           0       -3.376026   -1.618824   -1.140086
     44          1           0       -1.984865   -0.934091    1.389429
     45          1           0       -6.274936   -0.874435    0.286753
 ---------------------------------------------------------------------
 Rotational constants (GHZ):      0.4155919      0.1469798      0.1116116
 Standard basis: 6-31+G(2df,p) (6D, 7F)
 There are   846 symmetry adapted basis functions of A   symmetry.
 Integral buffers will be    131072 words long.
 Raffenetti 2 integral format.
 Two-electron integral symmetry is turned on.
   846 basis functions,  1258 primitive gaussians,   915 cartesian basis functions
    91 alpha electrons       91 beta electrons
       nuclear repulsion energy      2300.3664349563 Hartrees.
 NAtoms=   45 NActive=   45 NUniq=   45 SFac= 1.00D+00 NAtFMM=   50 NAOKFM=F Big=F
 One-electron integrals computed using PRISM.
 NBasis=   846 RedAO= T  NBF=   846
 NBsUse=   846 1.00D-06 NBFU=   846
 Harris functional with IExCor=  402 diagonalized for initial guess.
 ExpMin= 4.38D-02 ExpMax= 5.48D+03 ExpMxC= 8.25D+02 IAcc=2 IRadAn=         0 AccDes= 0.00D+00
 HarFok:  IExCor=  402 AccDes= 0.00D+00 IRadAn=         0 IDoV= 1
 ScaDFX=  1.000000  1.000000  1.000000  1.000000
 FoFCou: FMM=F IPFlag=           0 FMFlag=      100000 FMFlg1=           0
         NFxFlg=           0 DoJE=T BraDBF=F KetDBF=T FulRan=T
         Omega=  0.000000  0.000000  1.000000  0.000000  0.000000 ICntrl=     500 IOpCl=  0
         NMat0=    1 NMatS0=    1 NMatT0=    0 NMatD0=    1 NMtDS0=    0 NMtDT0=    0
         I1Cent=           4 NGrid=           0.
 Petite list used in FoFCou.
 Initial guess orbital symmetries:
       Occupied  (A) (A) (A) (A) (A) (A) (A) (A) (A) (A) (A) (A)
                 (A) (A) (A) (A) (A) (A) (A) (A) (A) (A) (A) (A)
                 (A) (A) (A) (A) (A) (A) (A) (A) (A) (A) (A) (A)
                 (A) (A) (A) (A) (A) (A) (A) (A) (A) (A) (A) (A)
                 (A) (A) (A) (A) (A) (A) (A) (A) (A) (A) (A) (A)
                 (A) (A) (A) (A) (A) (A) (A) (A) (A) (A) (A) (A)
                 (A) (A) (A) (A) (A) (A) (A) (A) (A) (A) (A) (A)
                 (A) (A) (A) (A) (A) (A) (A)
       Virtual   (A) (A) (A) (A) (A) (A) (A) (A) (A) (A) (A) (A)
                 (A) (A) (A) (A) (A) (A) (A) (A) (A) (A) (A) (A)
                 (A) (A) (A) (A) (A) (A) (A) (A) (A) (A) (A) (A)
                 (A) (A) (A) (A) (A) (A) (A) (A) (A) (A) (A) (A)
                 (A) (A) (A) (A) (A) (A) (A) (A) (A) (A) (A) (A)
                 (A) (A) (A) (A) (A) (A) (A) (A) (A) (A) (A) (A)
                 (A) (A) (A) (A) (A) (A) (A) (A) (A) (A) (A) (A)
                 (A) (A) (A) (A) (A) (A) (A) (A) (A) (A) (A) (A)
                 (A) (A) (A) (A) (A) (A) (A) (A) (A) (A) (A) (A)
                 (A) (A) (A) (A) (A) (A) (A) (A) (A) (A) (A) (A)
                 (A) (A) (A) (A) (A) (A) (A) (A) (A) (A) (A) (A)
                 (A) (A) (A) (A) (A) (A) (A) (A) (A) (A) (A) (A)
                 (A) (A) (A) (A) (A) (A) (A) (A) (A) (A) (A) (A)
                 (A) (A) (A) (A) (A) (A) (A) (A) (A) (A) (A) (A)
                 (A) (A) (A) (A) (A) (A) (A) (A) (A) (A) (A) (A)
                 (A) (A) (A) (A) (A) (A) (A) (A) (A) (A) (A) (A)
                 (A) (A) (A) (A) (A) (A) (A) (A) (A) (A) (A) (A)
                 (A) (A) (A) (A) (A) (A) (A) (A) (A) (A) (A) (A)
                 (A) (A) (A) (A) (A) (A) (A) (A) (A) (A) (A) (A)
                 (A) (A) (A) (A) (A) (A) (A) (A) (A) (A) (A) (A)
                 (A) (A) (A) (A) (A) (A) (A) (A) (A) (A) (A) (A)
                 (A) (A) (A) (A) (A) (A) (A) (A) (A) (A) (A) (A)
                 (A) (A) (A) (A) (A) (A) (A) (A) (A) (A) (A) (A)
                 (A) (A) (A) (A) (A) (A) (A) (A) (A) (A) (A) (A)
                 (A) (A) (A) (A) (A) (A) (A) (A) (A) (A) (A) (A)
                 (A) (A) (A) (A) (A) (A) (A) (A) (A) (A) (A) (A)
                 (A) (A) (A) (A) (A) (A) (A) (A) (A) (A) (A) (A)
                 (A) (A) (A) (A) (A) (A) (A) (A) (A) (A) (A) (A)
                 (A) (A) (A) (A) (A) (A) (A) (A) (A) (A) (A) (A)
                 (A) (A) (A) (A) (A) (A) (A) (A) (A) (A) (A) (A)
                 (A) (A) (A) (A) (A) (A) (A) (A) (A) (A) (A) (A)
                 (A) (A) (A) (A) (A) (A) (A) (A) (A) (A) (A) (A)
                 (A) (A) (A) (A) (A) (A) (A) (A) (A) (A) (A) (A)
                 (A) (A) (A) (A) (A) (A) (A) (A) (A) (A) (A) (A)
                 (A) (A) (A) (A) (A) (A) (A) (A) (A) (A) (A) (A)
                 (A) (A) (A) (A) (A) (A) (A) (A) (A) (A) (A) (A)
                 (A) (A) (A) (A) (A) (A) (A) (A) (A) (A) (A) (A)
                 (A) (A) (A) (A) (A) (A) (A) (A) (A) (A) (A) (A)
                 (A) (A) (A) (A) (A) (A) (A) (A) (A) (A) (A) (A)
                 (A) (A) (A) (A) (A) (A) (A) (A) (A) (A) (A) (A)
                 (A) (A) (A) (A) (A) (A) (A) (A) (A) (A) (A) (A)
                 (A) (A) (A) (A) (A) (A) (A) (A) (A) (A) (A) (A)
                 (A) (A) (A) (A) (A) (A) (A) (A) (A) (A) (A) (A)
                 (A) (A) (A) (A) (A) (A) (A) (A) (A) (A) (A) (A)
                 (A) (A) (A) (A) (A) (A) (A) (A) (A) (A) (A) (A)
                 (A) (A) (A) (A) (A) (A) (A) (A) (A) (A) (A) (A)
                 (A) (A) (A) (A) (A) (A) (A) (A) (A) (A) (A) (A)
                 (A) (A) (A) (A) (A) (A) (A) (A) (A) (A) (A) (A)
                 (A) (A) (A) (A) (A) (A) (A) (A) (A) (A) (A) (A)
                 (A) (A) (A) (A) (A) (A) (A) (A) (A) (A) (A) (A)
                 (A) (A) (A) (A) (A) (A) (A) (A) (A) (A) (A) (A)
                 (A) (A) (A) (A) (A) (A) (A) (A) (A) (A) (A) (A)
                 (A) (A) (A) (A) (A) (A) (A) (A) (A) (A) (A) (A)
                 (A) (A) (A) (A) (A) (A) (A) (A) (A) (A) (A) (A)
                 (A) (A) (A) (A) (A) (A) (A) (A) (A) (A) (A) (A)
                 (A) (A) (A) (A) (A) (A) (A) (A) (A) (A) (A) (A)
                 (A) (A) (A) (A) (A) (A) (A) (A) (A) (A) (A) (A)
                 (A) (A) (A) (A) (A) (A) (A) (A) (A) (A) (A) (A)
                 (A) (A) (A) (A) (A) (A) (A) (A) (A) (A) (A) (A)
                 (A) (A) (A) (A) (A) (A) (A) (A) (A) (A) (A) (A)
                 (A) (A) (A) (A) (A) (A) (A) (A) (A) (A) (A) (A)
                 (A) (A) (A) (A) (A) (A) (A) (A) (A) (A) (A) (A)
                 (A) (A) (A) (A) (A) (A) (A) (A) (A) (A) (A)
 The electronic state of the initial guess is 1-A.
 Requested convergence on RMS density matrix=1.00D-08 within 128 cycles.
 Requested convergence on MAX density matrix=1.00D-06.
 Requested convergence on             energy=1.00D-06.
 No special actions if energy rises.
 SCF Done:  E(RB3LYP) =  -1298.00211519     A.U. after   13 cycles
             Convg  =    0.3444D-08             -V/T =  2.0064
 Range of M.O.s used for correlation:     1   846
 NBasis=   846 NAE=    91 NBE=    91 NFC=     0 NFV=     0
 NROrb=    846 NOA=    91 NOB=    91 NVA=   755 NVB=   755

 **** Warning!!: The largest alpha MO coefficient is  0.85066987D+02

          Differentiating once with respect to electric field.
                with respect to dipole field.
          Electric field/nuclear overlap derivatives assumed to be zero.
          There are     3 degrees of freedom in the 1st order CPHF.  IDoFFX=0.
      3 vectors produced by pass  0 Test12= 2.29D-12 3.33D-08 XBig12= 1.22D+02 1.23D+00.
 AX will form     3 AO Fock derivatives at one time.
      3 vectors produced by pass  1 Test12= 2.29D-12 3.33D-08 XBig12= 2.46D+01 4.22D-01.
      3 vectors produced by pass  2 Test12= 2.29D-12 3.33D-08 XBig12= 1.02D+01 2.24D-01.
      3 vectors produced by pass  3 Test12= 2.29D-12 3.33D-08 XBig12= 1.40D+00 1.06D-01.
      3 vectors produced by pass  4 Test12= 2.29D-12 3.33D-08 XBig12= 4.23D-01 6.26D-02.
      3 vectors produced by pass  5 Test12= 2.29D-12 3.33D-08 XBig12= 7.21D-02 2.68D-02.
      3 vectors produced by pass  6 Test12= 2.29D-12 3.33D-08 XBig12= 2.81D-02 2.28D-02.
      3 vectors produced by pass  7 Test12= 2.29D-12 3.33D-08 XBig12= 3.37D-03 9.39D-03.
      3 vectors produced by pass  8 Test12= 2.29D-12 3.33D-08 XBig12= 6.99D-04 3.12D-03.
      3 vectors produced by pass  9 Test12= 2.29D-12 3.33D-08 XBig12= 1.49D-04 1.68D-03.
      3 vectors produced by pass 10 Test12= 2.29D-12 3.33D-08 XBig12= 4.41D-05 6.73D-04.
      3 vectors produced by pass 11 Test12= 2.29D-12 3.33D-08 XBig12= 1.29D-05 4.26D-04.
      3 vectors produced by pass 12 Test12= 2.29D-12 3.33D-08 XBig12= 1.53D-06 1.06D-04.
      3 vectors produced by pass 13 Test12= 2.29D-12 3.33D-08 XBig12= 2.62D-07 3.89D-05.
      3 vectors produced by pass 14 Test12= 2.29D-12 3.33D-08 XBig12= 4.06D-08 1.50D-05.
      3 vectors produced by pass 15 Test12= 2.29D-12 3.33D-08 XBig12= 6.59D-09 6.66D-06.
      3 vectors produced by pass 16 Test12= 2.29D-12 3.33D-08 XBig12= 1.33D-09 3.05D-06.
      3 vectors produced by pass 17 Test12= 2.29D-12 3.33D-08 XBig12= 2.76D-10 1.73D-06.
      3 vectors produced by pass 18 Test12= 2.29D-12 3.33D-08 XBig12= 5.30D-11 6.44D-07.
      3 vectors produced by pass 19 Test12= 2.29D-12 3.33D-08 XBig12= 1.60D-11 3.24D-07.
      2 vectors produced by pass 20 Test12= 2.29D-12 3.33D-08 XBig12= 6.99D-12 2.20D-07.
      1 vectors produced by pass 21 Test12= 2.29D-12 3.33D-08 XBig12= 2.35D-12 1.27D-07.
 Inverted reduced A of dimension    63 with in-core refinement.
 End of Minotr Frequency-dependent properties file   721 does not exist.
 End of Minotr Frequency-dependent properties file   722 does not exist.
 Symmetrizing basis deriv contribution to polar:
 IMax=3 JMax=2 DiffMx= 0.00D+00
 G2DrvN: will do     8 centers at a time, making    6 passes doing MaxLOS=3.
 Calling FoFCou, ICntrl=  3107 FMM=F I1Cent=   0 AccDes= 0.00D+00.
 Calling FoFCou, ICntrl=  3107 FMM=F I1Cent=   0 AccDes= 0.00D+00.
 Calling FoFCou, ICntrl=  3107 FMM=F I1Cent=   0 AccDes= 0.00D+00.
 Calling FoFCou, ICntrl=  3107 FMM=F I1Cent=   0 AccDes= 0.00D+00.
 Calling FoFCou, ICntrl=  3107 FMM=F I1Cent=   0 AccDes= 0.00D+00.
 Calling FoFCou, ICntrl=  3107 FMM=F I1Cent=   0 AccDes= 0.00D+00.
 FoFDir/FoFCou used for L=0 through L=3.
 End of G2Drv Frequency-dependent properties file   721 does not exist.
 End of G2Drv Frequency-dependent properties file   722 does not exist.
          IDoAtm=111111111111111111111111111111111111111111111
          Differentiating once with respect to electric field.
                with respect to dipole field.
          Differentiating once with respect to nuclear coordinates.
          There are   138 degrees of freedom in the 1st order CPHF.  IDoFFX=5.
 Will reuse    3 saved solutions.
    135 vectors produced by pass  0 Test12= 6.87D-14 1.00D-09 XBig12= 1.39D-01 7.44D-02.
 AX will form    27 AO Fock derivatives at one time.
    135 vectors produced by pass  1 Test12= 6.87D-14 1.00D-09 XBig12= 2.00D-02 1.27D-02.
    132 vectors produced by pass  2 Test12= 6.87D-14 1.00D-09 XBig12= 1.97D-04 1.71D-03.
    132 vectors produced by pass  3 Test12= 6.87D-14 1.00D-09 XBig12= 1.04D-06 7.84D-05.
    132 vectors produced by pass  4 Test12= 6.87D-14 1.00D-09 XBig12= 2.79D-09 3.78D-06.
    132 vectors produced by pass  5 Test12= 6.87D-14 1.00D-09 XBig12= 6.69D-12 1.53D-07.
     95 vectors produced by pass  6 Test12= 6.87D-14 1.00D-09 XBig12= 2.04D-13 2.49D-08.
 Inverted reduced A of dimension   893 with in-core refinement.
 Isotropic polarizability for W=    0.000000      190.80 Bohr**3.
 End of Minotr Frequency-dependent properties file   721 does not exist.
 End of Minotr Frequency-dependent properties file   722 does not exist.

 **********************************************************************

            Population analysis using the SCF density.

 **********************************************************************

 Orbital symmetries:
       Occupied  (A) (A) (A) (A) (A) (A) (A) (A) (A) (A) (A) (A)
                 (A) (A) (A) (A) (A) (A) (A) (A) (A) (A) (A) (A)
                 (A) (A) (A) (A) (A) (A) (A) (A) (A) (A) (A) (A)
                 (A) (A) (A) (A) (A) (A) (A) (A) (A) (A) (A) (A)
                 (A) (A) (A) (A) (A) (A) (A) (A) (A) (A) (A) (A)
                 (A) (A) (A) (A) (A) (A) (A) (A) (A) (A) (A) (A)
                 (A) (A) (A) (A) (A) (A) (A) (A) (A) (A) (A) (A)
                 (A) (A) (A) (A) (A) (A) (A)
       Virtual   (A) (A) (A) (A) (A) (A) (A) (A) (A) (A) (A) (A)
                 (A) (A) (A) (A) (A) (A) (A) (A) (A) (A) (A) (A)
                 (A) (A) (A) (A) (A) (A) (A) (A) (A) (A) (A) (A)
                 (A) (A) (A) (A) (A) (A) (A) (A) (A) (A) (A) (A)
                 (A) (A) (A) (A) (A) (A) (A) (A) (A) (A) (A) (A)
                 (A) (A) (A) (A) (A) (A) (A) (A) (A) (A) (A) (A)
                 (A) (A) (A) (A) (A) (A) (A) (A) (A) (A) (A) (A)
                 (A) (A) (A) (A) (A) (A) (A) (A) (A) (A) (A) (A)
                 (A) (A) (A) (A) (A) (A) (A) (A) (A) (A) (A) (A)
                 (A) (A) (A) (A) (A) (A) (A) (A) (A) (A) (A) (A)
                 (A) (A) (A) (A) (A) (A) (A) (A) (A) (A) (A) (A)
                 (A) (A) (A) (A) (A) (A) (A) (A) (A) (A) (A) (A)
                 (A) (A) (A) (A) (A) (A) (A) (A) (A) (A) (A) (A)
                 (A) (A) (A) (A) (A) (A) (A) (A) (A) (A) (A) (A)
                 (A) (A) (A) (A) (A) (A) (A) (A) (A) (A) (A) (A)
                 (A) (A) (A) (A) (A) (A) (A) (A) (A) (A) (A) (A)
                 (A) (A) (A) (A) (A) (A) (A) (A) (A) (A) (A) (A)
                 (A) (A) (A) (A) (A) (A) (A) (A) (A) (A) (A) (A)
                 (A) (A) (A) (A) (A) (A) (A) (A) (A) (A) (A) (A)
                 (A) (A) (A) (A) (A) (A) (A) (A) (A) (A) (A) (A)
                 (A) (A) (A) (A) (A) (A) (A) (A) (A) (A) (A) (A)
                 (A) (A) (A) (A) (A) (A) (A) (A) (A) (A) (A) (A)
                 (A) (A) (A) (A) (A) (A) (A) (A) (A) (A) (A) (A)
                 (A) (A) (A) (A) (A) (A) (A) (A) (A) (A) (A) (A)
                 (A) (A) (A) (A) (A) (A) (A) (A) (A) (A) (A) (A)
                 (A) (A) (A) (A) (A) (A) (A) (A) (A) (A) (A) (A)
                 (A) (A) (A) (A) (A) (A) (A) (A) (A) (A) (A) (A)
                 (A) (A) (A) (A) (A) (A) (A) (A) (A) (A) (A) (A)
                 (A) (A) (A) (A) (A) (A) (A) (A) (A) (A) (A) (A)
                 (A) (A) (A) (A) (A) (A) (A) (A) (A) (A) (A) (A)
                 (A) (A) (A) (A) (A) (A) (A) (A) (A) (A) (A) (A)
                 (A) (A) (A) (A) (A) (A) (A) (A) (A) (A) (A) (A)
                 (A) (A) (A) (A) (A) (A) (A) (A) (A) (A) (A) (A)
                 (A) (A) (A) (A) (A) (A) (A) (A) (A) (A) (A) (A)
                 (A) (A) (A) (A) (A) (A) (A) (A) (A) (A) (A) (A)
                 (A) (A) (A) (A) (A) (A) (A) (A) (A) (A) (A) (A)
                 (A) (A) (A) (A) (A) (A) (A) (A) (A) (A) (A) (A)
                 (A) (A) (A) (A) (A) (A) (A) (A) (A) (A) (A) (A)
                 (A) (A) (A) (A) (A) (A) (A) (A) (A) (A) (A) (A)
                 (A) (A) (A) (A) (A) (A) (A) (A) (A) (A) (A) (A)
                 (A) (A) (A) (A) (A) (A) (A) (A) (A) (A) (A) (A)
                 (A) (A) (A) (A) (A) (A) (A) (A) (A) (A) (A) (A)
                 (A) (A) (A) (A) (A) (A) (A) (A) (A) (A) (A) (A)
                 (A) (A) (A) (A) (A) (A) (A) (A) (A) (A) (A) (A)
                 (A) (A) (A) (A) (A) (A) (A) (A) (A) (A) (A) (A)
                 (A) (A) (A) (A) (A) (A) (A) (A) (A) (A) (A) (A)
                 (A) (A) (A) (A) (A) (A) (A) (A) (A) (A) (A) (A)
                 (A) (A) (A) (A) (A) (A) (A) (A) (A) (A) (A) (A)
                 (A) (A) (A) (A) (A) (A) (A) (A) (A) (A) (A) (A)
                 (A) (A) (A) (A) (A) (A) (A) (A) (A) (A) (A) (A)
                 (A) (A) (A) (A) (A) (A) (A) (A) (A) (A) (A) (A)
                 (A) (A) (A) (A) (A) (A) (A) (A) (A) (A) (A) (A)
                 (A) (A) (A) (A) (A) (A) (A) (A) (A) (A) (A) (A)
                 (A) (A) (A) (A) (A) (A) (A) (A) (A) (A) (A) (A)
                 (A) (A) (A) (A) (A) (A) (A) (A) (A) (A) (A) (A)
                 (A) (A) (A) (A) (A) (A) (A) (A) (A) (A) (A) (A)
                 (A) (A) (A) (A) (A) (A) (A) (A) (A) (A) (A) (A)
                 (A) (A) (A) (A) (A) (A) (A) (A) (A) (A) (A) (A)
                 (A) (A) (A) (A) (A) (A) (A) (A) (A) (A) (A) (A)
                 (A) (A) (A) (A) (A) (A) (A) (A) (A) (A) (A) (A)
                 (A) (A) (A) (A) (A) (A) (A) (A) (A) (A) (A) (A)
                 (A) (A) (A) (A) (A) (A) (A) (A) (A) (A) (A) (A)
                 (A) (A) (A) (A) (A) (A) (A) (A) (A) (A) (A)
 The electronic state is 1-A.
 Alpha  occ. eigenvalues --  -19.19399 -19.18442 -19.18067 -19.17599 -19.17531
 Alpha  occ. eigenvalues --  -19.17392 -19.15948 -19.15701 -19.15083 -19.13050
 Alpha  occ. eigenvalues --  -19.12707 -10.30659 -10.29725 -10.26221 -10.25667
 Alpha  occ. eigenvalues --  -10.25112 -10.25036 -10.24947 -10.24179 -10.23464
 Alpha  occ. eigenvalues --  -10.23447 -10.23406 -10.23348  -1.09905  -1.08964
 Alpha  occ. eigenvalues --   -1.05943  -1.05767  -1.04048  -1.03411  -1.02454
 Alpha  occ. eigenvalues --   -1.02154  -1.02001  -1.00293  -0.99367  -0.82447
 Alpha  occ. eigenvalues --   -0.79978  -0.79133  -0.77465  -0.71910  -0.69567
 Alpha  occ. eigenvalues --   -0.67106  -0.64249  -0.63155  -0.62305  -0.61192
 Alpha  occ. eigenvalues --   -0.60046  -0.56462  -0.56150  -0.55760  -0.54359
 Alpha  occ. eigenvalues --   -0.53878  -0.53411  -0.52306  -0.51562  -0.50582
 Alpha  occ. eigenvalues --   -0.50444  -0.49973  -0.49626  -0.47957  -0.46510
 Alpha  occ. eigenvalues --   -0.46237  -0.44636  -0.44015  -0.43635  -0.42930
 Alpha  occ. eigenvalues --   -0.42522  -0.41702  -0.40794  -0.40362  -0.39079
 Alpha  occ. eigenvalues --   -0.38422  -0.37735  -0.37648  -0.37034  -0.36392
 Alpha  occ. eigenvalues --   -0.35704  -0.34684  -0.34248  -0.33969  -0.33206
 Alpha  occ. eigenvalues --   -0.32716  -0.31982  -0.31018  -0.30235  -0.29798
 Alpha  occ. eigenvalues --   -0.29128  -0.28573  -0.27639  -0.27550  -0.25976
 Alpha  occ. eigenvalues --   -0.25610
 Alpha virt. eigenvalues --   -0.02309  -0.02005  -0.01773  -0.00172   0.00267
 Alpha virt. eigenvalues --    0.00988   0.01831   0.02268   0.03057   0.03575
 Alpha virt. eigenvalues --    0.03891   0.04307   0.04837   0.05445   0.05695
 Alpha virt. eigenvalues --    0.06198   0.06572   0.07629   0.07960   0.08155
 Alpha virt. eigenvalues --    0.08505   0.08600   0.09337   0.09493   0.09956
 Alpha virt. eigenvalues --    0.10380   0.10693   0.10967   0.11676   0.11891
 Alpha virt. eigenvalues --    0.12702   0.13062   0.13333   0.13758   0.13965
 Alpha virt. eigenvalues --    0.14320   0.14574   0.14609   0.14996   0.15450
 Alpha virt. eigenvalues --    0.15652   0.16083   0.16651   0.16924   0.17214
 Alpha virt. eigenvalues --    0.17370   0.17400   0.17994   0.18220   0.18335
 Alpha virt. eigenvalues --    0.18819   0.19133   0.19334   0.19722   0.20062
 Alpha virt. eigenvalues --    0.20385   0.20811   0.21217   0.21539   0.22132
 Alpha virt. eigenvalues --    0.22179   0.22397   0.23027   0.23145   0.23432
 Alpha virt. eigenvalues --    0.23637   0.23784   0.24241   0.24491   0.24794
 Alpha virt. eigenvalues --    0.24953   0.25449   0.25627   0.25713   0.26074
 Alpha virt. eigenvalues --    0.26197   0.26289   0.26520   0.27390   0.27510
 Alpha virt. eigenvalues --    0.28030   0.28117   0.28343   0.28770   0.28999
 Alpha virt. eigenvalues --    0.29367   0.29563   0.29970   0.30097   0.30874
 Alpha virt. eigenvalues --    0.31052   0.31282   0.31545   0.31977   0.32437
 Alpha virt. eigenvalues --    0.32483   0.32725   0.33388   0.33721   0.33934
 Alpha virt. eigenvalues --    0.34498   0.35148   0.35541   0.35766   0.36114
 Alpha virt. eigenvalues --    0.36466   0.36601   0.36826   0.37113   0.37731
 Alpha virt. eigenvalues --    0.37971   0.38218   0.38812   0.38893   0.39441
 Alpha virt. eigenvalues --    0.39863   0.40720   0.41295   0.41800   0.41941
 Alpha virt. eigenvalues --    0.42158   0.42563   0.43074   0.43274   0.43606
 Alpha virt. eigenvalues --    0.44227   0.44542   0.45278   0.45902   0.46280
 Alpha virt. eigenvalues --    0.46593   0.46955   0.47726   0.49009   0.50284
 Alpha virt. eigenvalues --    0.51113   0.51973   0.55829   0.56984   0.58048
 Alpha virt. eigenvalues --    0.59298   0.59975   0.60163   0.60773   0.61482
 Alpha virt. eigenvalues --    0.62235   0.62945   0.64387   0.65467   0.66501
 Alpha virt. eigenvalues --    0.66885   0.67741   0.68383   0.69354   0.70123
 Alpha virt. eigenvalues --    0.70318   0.70670   0.71852   0.71941   0.73018
 Alpha virt. eigenvalues --    0.73168   0.74389   0.75201   0.75712   0.76584
 Alpha virt. eigenvalues --    0.76821   0.77334   0.78607   0.79105   0.80561
 Alpha virt. eigenvalues --    0.81569   0.82202   0.83387   0.83995   0.84376
 Alpha virt. eigenvalues --    0.86031   0.86720   0.87987   0.88857   0.89217
 Alpha virt. eigenvalues --    0.89556   0.89755   0.90050   0.90673   0.91258
 Alpha virt. eigenvalues --    0.91349   0.92251   0.92829   0.93449   0.93825
 Alpha virt. eigenvalues --    0.94039   0.94711   0.95092   0.95295   0.95896
 Alpha virt. eigenvalues --    0.96032   0.96716   0.97382   0.97888   0.98233
 Alpha virt. eigenvalues --    0.98577   0.98866   1.00102   1.00777   1.01646
 Alpha virt. eigenvalues --    1.02523   1.03360   1.04376   1.05000   1.05902
 Alpha virt. eigenvalues --    1.06288   1.07182   1.07332   1.07613   1.08196
 Alpha virt. eigenvalues --    1.09085   1.09343   1.09869   1.10054   1.10888
 Alpha virt. eigenvalues --    1.11632   1.11914   1.12215   1.13201   1.13516
 Alpha virt. eigenvalues --    1.14247   1.15152   1.15611   1.15960   1.16772
 Alpha virt. eigenvalues --    1.17272   1.17830   1.18314   1.18561   1.19329
 Alpha virt. eigenvalues --    1.20012   1.21351   1.21646   1.22057   1.22406
 Alpha virt. eigenvalues --    1.23024   1.23320   1.23703   1.24665   1.25573
 Alpha virt. eigenvalues --    1.25660   1.26111   1.26642   1.26889   1.28150
 Alpha virt. eigenvalues --    1.28596   1.29265   1.30405   1.30489   1.31023
 Alpha virt. eigenvalues --    1.32308   1.32793   1.33553   1.33759   1.34801
 Alpha virt. eigenvalues --    1.35072   1.35853   1.35912   1.36722   1.37030
 Alpha virt. eigenvalues --    1.37274   1.37891   1.39125   1.39281   1.40980
 Alpha virt. eigenvalues --    1.41287   1.42287   1.42794   1.43559   1.44485
 Alpha virt. eigenvalues --    1.44969   1.45292   1.46935   1.47025   1.48108
 Alpha virt. eigenvalues --    1.48424   1.49348   1.50046   1.51002   1.51996
 Alpha virt. eigenvalues --    1.52719   1.53141   1.55111   1.55298   1.55647
 Alpha virt. eigenvalues --    1.57356   1.58072   1.58347   1.58639   1.59186
 Alpha virt. eigenvalues --    1.61031   1.61809   1.62894   1.63504   1.64194
 Alpha virt. eigenvalues --    1.64447   1.65691   1.66971   1.67342   1.68142
 Alpha virt. eigenvalues --    1.69500   1.69564   1.70302   1.70951   1.71626
 Alpha virt. eigenvalues --    1.73024   1.73244   1.74432   1.75460   1.76924
 Alpha virt. eigenvalues --    1.77137   1.77806   1.79394   1.81099   1.81444
 Alpha virt. eigenvalues --    1.81566   1.83368   1.84199   1.84761   1.85732
 Alpha virt. eigenvalues --    1.86552   1.88766   1.89831   1.90280   1.91379
 Alpha virt. eigenvalues --    1.92325   1.92585   1.93488   1.94429   1.95598
 Alpha virt. eigenvalues --    1.95939   1.97880   1.98860   1.99751   1.99804
 Alpha virt. eigenvalues --    2.00637   2.01954   2.03346   2.03958   2.06078
 Alpha virt. eigenvalues --    2.07952   2.09772   2.10117   2.12319   2.12846
 Alpha virt. eigenvalues --    2.14916   2.16257   2.16997   2.18614   2.20128
 Alpha virt. eigenvalues --    2.20996   2.24083   2.24483   2.25510   2.26413
 Alpha virt. eigenvalues --    2.28496   2.28981   2.29785   2.30623   2.32498
 Alpha virt. eigenvalues --    2.33317   2.35272   2.36096   2.38382   2.39505
 Alpha virt. eigenvalues --    2.40731   2.43943   2.44652   2.45350   2.50072
 Alpha virt. eigenvalues --    2.50611   2.53508   2.55077   2.55782   2.56680
 Alpha virt. eigenvalues --    2.57408   2.58601   2.58762   2.60934   2.61293
 Alpha virt. eigenvalues --    2.62094   2.62268   2.63976   2.66185   2.66900
 Alpha virt. eigenvalues --    2.67758   2.68834   2.70048   2.70686   2.72917
 Alpha virt. eigenvalues --    2.74460   2.74639   2.76079   2.77948   2.78050
 Alpha virt. eigenvalues --    2.79048   2.80265   2.81437   2.82493   2.83516
 Alpha virt. eigenvalues --    2.85019   2.85109   2.86946   2.87854   2.88436
 Alpha virt. eigenvalues --    2.89272   2.90399   2.90605   2.91351   2.93009
 Alpha virt. eigenvalues --    2.93891   2.94778   2.95591   2.97179   2.98398
 Alpha virt. eigenvalues --    2.99411   3.00332   3.00941   3.01745   3.03392
 Alpha virt. eigenvalues --    3.04495   3.04913   3.06410   3.06782   3.07190
 Alpha virt. eigenvalues --    3.08601   3.09414   3.10210   3.10836   3.12078
 Alpha virt. eigenvalues --    3.13093   3.13918   3.14723   3.16951   3.17352
 Alpha virt. eigenvalues --    3.19273   3.20115   3.21239   3.22065   3.23340
 Alpha virt. eigenvalues --    3.24487   3.24716   3.25777   3.27024   3.27748
 Alpha virt. eigenvalues --    3.28277   3.29692   3.31007   3.32260   3.32733
 Alpha virt. eigenvalues --    3.34289   3.36204   3.37227   3.39066   3.40038
 Alpha virt. eigenvalues --    3.40680   3.41503   3.44568   3.44901   3.45887
 Alpha virt. eigenvalues --    3.46778   3.48533   3.50040   3.54573   3.54946
 Alpha virt. eigenvalues --    3.56091   3.56553   3.57819   3.59499   3.60423
 Alpha virt. eigenvalues --    3.61322   3.62329   3.64926   3.66007   3.67173
 Alpha virt. eigenvalues --    3.67510   3.70514   3.71077   3.72858   3.73443
 Alpha virt. eigenvalues --    3.75191   3.76629   3.77071   3.79006   3.79834
 Alpha virt. eigenvalues --    3.80211   3.81881   3.83168   3.83468   3.83736
 Alpha virt. eigenvalues --    3.86760   3.89580   3.90125   3.91855   3.95342
 Alpha virt. eigenvalues --    3.97840   3.99092   4.00605   4.03572   4.04536
 Alpha virt. eigenvalues --    4.07417   4.09092   4.11358   4.13366   4.15787
 Alpha virt. eigenvalues --    4.16266   4.16721   4.19076   4.19575   4.21264
 Alpha virt. eigenvalues --    4.21938   4.22665   4.23833   4.24522   4.27597
 Alpha virt. eigenvalues --    4.28263   4.28687   4.29248   4.30676   4.31538
 Alpha virt. eigenvalues --    4.32265   4.32982   4.33713   4.34837   4.36003
 Alpha virt. eigenvalues --    4.37073   4.37419   4.37571   4.37681   4.38935
 Alpha virt. eigenvalues --    4.40223   4.40815   4.42500   4.42786   4.43990
 Alpha virt. eigenvalues --    4.45007   4.45802   4.46233   4.47578   4.48280
 Alpha virt. eigenvalues --    4.48857   4.49394   4.49723   4.50276   4.51232
 Alpha virt. eigenvalues --    4.51790   4.52178   4.53062   4.54292   4.55087
 Alpha virt. eigenvalues --    4.55666   4.56030   4.56161   4.58075   4.58662
 Alpha virt. eigenvalues --    4.59004   4.59868   4.61194   4.62130   4.62565
 Alpha virt. eigenvalues --    4.63591   4.64848   4.65212   4.65865   4.66791
 Alpha virt. eigenvalues --    4.67047   4.67730   4.68794   4.69026   4.69962
 Alpha virt. eigenvalues --    4.70269   4.70768   4.71875   4.72334   4.72898
 Alpha virt. eigenvalues --    4.73414   4.74442   4.75171   4.76293   4.76514
 Alpha virt. eigenvalues --    4.77096   4.78074   4.78167   4.78703   4.79399
 Alpha virt. eigenvalues --    4.80257   4.80590   4.81370   4.82361   4.82983
 Alpha virt. eigenvalues --    4.84705   4.85279   4.85482   4.86820   4.88613
 Alpha virt. eigenvalues --    4.89142   4.89964   4.91317   4.91588   4.92135
 Alpha virt. eigenvalues --    4.93076   4.93786   4.94315   4.95607   4.95917
 Alpha virt. eigenvalues --    4.97690   4.99727   5.00336   5.02467   5.05173
 Alpha virt. eigenvalues --    5.06492   5.07303   5.08176   5.09229   5.11013
 Alpha virt. eigenvalues --    5.14176   5.15461   5.17459   5.18083   5.18959
 Alpha virt. eigenvalues --    5.19105   5.21174   5.21582   5.22344   5.22976
 Alpha virt. eigenvalues --    5.23448   5.24632   5.25705   5.28807   5.30502
 Alpha virt. eigenvalues --    5.32065   5.32280   5.34333   5.34693   5.35909
 Alpha virt. eigenvalues --    5.37729   5.39021   5.39315   5.39819   5.41166
 Alpha virt. eigenvalues --    5.41211   5.41738   5.42213   5.43302   5.44332
 Alpha virt. eigenvalues --    5.45094   5.46348   5.47549   5.48147   5.49420
 Alpha virt. eigenvalues --    5.50434   5.50547   5.50906   5.51535   5.52524
 Alpha virt. eigenvalues --    5.54230   5.55432   5.57625   5.58617   5.58942
 Alpha virt. eigenvalues --    5.61005   5.61948   5.63022   5.63634   5.66527
 Alpha virt. eigenvalues --    5.67854   5.68159   5.72014   5.72530   5.74499
 Alpha virt. eigenvalues --    5.76888   5.78144   5.80735   5.83037   5.85125
 Alpha virt. eigenvalues --    5.86243   5.87190   5.88508   5.88954   5.90183
 Alpha virt. eigenvalues --    5.90684   5.92541   5.92914   5.93432   5.95806
 Alpha virt. eigenvalues --    5.96656   5.97259   5.99003   5.99989   6.01401
 Alpha virt. eigenvalues --    6.02825   6.04504   6.04990   6.06713   6.06999
 Alpha virt. eigenvalues --    6.07196   6.09665   6.10502   6.13392   6.15824
 Alpha virt. eigenvalues --    6.16558   6.17071   6.18412   6.19539   6.22191
 Alpha virt. eigenvalues --    6.24887   6.28311   6.29735   6.34962   6.36521
 Alpha virt. eigenvalues --    6.59245   6.69366   7.00251   7.04848   7.09290
 Alpha virt. eigenvalues --    7.16006   7.21277   7.26432   7.27950   7.31658
 Alpha virt. eigenvalues --    7.34784   7.39742   7.60517   7.61432   7.82034
 Alpha virt. eigenvalues --    7.97273   8.31451  12.09131  12.16286  12.27835
 Alpha virt. eigenvalues --   12.31021  12.51147  12.62139  12.82766  12.95373
 Alpha virt. eigenvalues --   13.03224  13.12951  13.24913  13.36969  13.46358
 Alpha virt. eigenvalues --   13.47924  13.50660  13.54251  13.62783  13.67816
 Alpha virt. eigenvalues --   13.77391  13.89934  13.91678  14.30456  14.53384
          Condensed to atoms (all electrons):
              1          2          3          4          5          6
     1  O    8.091416   0.240371  -0.065780  -0.021373   0.022885   0.034597
     2  C    0.240371   7.233004  -0.521233   0.070521  -0.043096  -1.118491
     3  C   -0.065780  -0.521233   7.329068   0.090565   0.003180  -0.406497
     4  O   -0.021373   0.070521   0.090565   8.120323   0.226663  -0.034004
     5  H    0.022885  -0.043096   0.003180   0.226663   0.454744  -0.001710
     6  C    0.034597  -1.118491  -0.406497  -0.034004  -0.001710   8.094773
     7  O   -0.000126   0.025726  -0.102485   0.000916  -0.000270   0.313963
     8  H    0.000011  -0.004239   0.020190  -0.000414   0.000018  -0.029781
     9  C    0.004231   0.233059  -0.304943   0.013550  -0.000193   0.069284
    10  O    0.000905  -0.017410   0.012504  -0.000118  -0.000013  -0.001837
    11  H    0.000330  -0.006112  -0.002009   0.000002   0.000000   0.000694
    12  C   -0.100171  -0.733598  -0.318707  -0.022810   0.026199   0.487427
    13  O    0.004275  -0.094784  -0.060820  -0.002467   0.000260   0.017996
    14  C   -0.033530   0.381627   0.268930   0.033358  -0.007847  -1.689638
    15  O   -0.000285  -0.004847   0.010023   0.000361  -0.000068  -0.088278
    16  C   -0.000583   0.045386  -0.079510  -0.003027   0.000329   0.092280
    17  C   -0.000060  -0.030489   0.053697   0.000461   0.000000   0.014640
    18  O    0.000048   0.010110  -0.002918  -0.000003   0.000000   0.002133
    19  H   -0.000003  -0.007662   0.007150   0.000008   0.000000  -0.001457
    20  C    0.000012   0.005468  -0.009574  -0.000038   0.000000   0.039749
    21  O    0.000000  -0.000024  -0.000047   0.000000   0.000000  -0.000439
    22  H    0.000000   0.000000   0.000002   0.000000   0.000000  -0.000011
    23  C    0.000062   0.011971  -0.012912  -0.000155   0.000009  -0.085223
    24  O   -0.000001   0.000664  -0.011583   0.000208  -0.000010  -0.030819
    25  H    0.000000   0.000189   0.001558   0.000002   0.000000   0.003160
    26  C    0.000000   0.003580  -0.015372   0.001172  -0.000036   0.004423
    27  O    0.000000  -0.000236   0.000570   0.000000   0.000000   0.003194
    28  C   -0.000002  -0.001005   0.000358   0.000000   0.000000  -0.004916
    29  O    0.000000   0.000006   0.000020   0.000000   0.000000  -0.000217
    30  H    0.269201   0.049109  -0.038754   0.000723  -0.002362  -0.003055
    31  H   -0.004490   0.049938   0.273117  -0.016471  -0.004388  -0.135090
    32  H   -0.010152   0.311573  -0.040469   0.003925  -0.000466   0.000741
    33  H    0.003249   0.025716  -0.012344   0.000330  -0.000008  -0.034332
    34  H   -0.000380  -0.030352   0.008540  -0.000005   0.000001  -0.001797
    35  H    0.002230   0.039967  -0.006155   0.000104  -0.000002  -0.001698
    36  H   -0.000039  -0.001779  -0.035159  -0.000227   0.000008   0.066947
    37  H   -0.000359   0.039611  -0.110213   0.002391  -0.000087   0.382733
    38  H   -0.000001  -0.001213   0.006149   0.000006   0.000000   0.008259
    39  H    0.000000  -0.000122   0.001723   0.000002   0.000000  -0.000564
    40  H    0.000000  -0.000019   0.000157   0.000000   0.000000   0.003843
    41  H    0.000000   0.000148  -0.000165   0.000000   0.000000  -0.009655
    42  H    0.000000  -0.000003   0.000016   0.000000   0.000000  -0.000203
    43  H    0.000000   0.000061   0.000148   0.000000   0.000000   0.000821
    44  H    0.000000   0.001106   0.001262   0.000000   0.000000   0.008443
    45  H    0.000000   0.000000   0.000000   0.000000   0.000000   0.000006
              7          8          9         10         11         12
     1  O   -0.000126   0.000011   0.004231   0.000905   0.000330  -0.100171
     2  C    0.025726  -0.004239   0.233059  -0.017410  -0.006112  -0.733598
     3  C   -0.102485   0.020190  -0.304943   0.012504  -0.002009  -0.318707
     4  O    0.000916  -0.000414   0.013550  -0.000118   0.000002  -0.022810
     5  H   -0.000270   0.000018  -0.000193  -0.000013   0.000000   0.026199
     6  C    0.313963  -0.029781   0.069284  -0.001837   0.000694   0.487427
     7  O    8.133474   0.260992   0.000425   0.000007   0.000000  -0.001014
     8  H    0.260992   0.335391   0.000207   0.000000   0.000000   0.000678
     9  C    0.000425   0.000207   6.919214   0.194615  -0.013430  -1.489925
    10  O    0.000007   0.000000   0.194615   8.090525   0.242508  -0.017413
    11  H    0.000000   0.000000  -0.013430   0.242508   0.436949   0.019183
    12  C   -0.001014   0.000678  -1.489925  -0.017413   0.019183   9.118253
    13  O    0.004695   0.000511   0.010818  -0.001716  -0.000725   0.027468
    14  C   -0.098465  -0.013871  -0.326923  -0.000415  -0.002925  -0.893955
    15  O    0.003313   0.007558  -0.020236  -0.000006   0.000001   0.010312
    16  C    0.022674   0.007648  -0.053043  -0.000372   0.000023   0.098416
    17  C   -0.003439   0.001574  -0.018882  -0.000265   0.000011  -0.023212
    18  O   -0.000154  -0.000071   0.001598  -0.000137  -0.000007  -0.021635
    19  H   -0.000091   0.000001   0.004947  -0.000037   0.000000  -0.007922
    20  C    0.002178   0.000782   0.003302   0.000037   0.000027  -0.009009
    21  O   -0.000003   0.000000   0.000289   0.000000   0.000000  -0.000290
    22  H    0.000000   0.000000  -0.000004   0.000000   0.000000   0.000011
    23  C    0.043849   0.023799   0.000313  -0.000001   0.000000  -0.013005
    24  O   -0.051727  -0.006593   0.000068   0.000000   0.000000  -0.000139
    25  H    0.002936  -0.000856  -0.000011   0.000000   0.000000  -0.000196
    26  C   -0.039903  -0.031901   0.005302  -0.000009   0.000003  -0.000365
    27  O   -0.000170  -0.000104   0.000040   0.000000   0.000000   0.000150
    28  C   -0.000658  -0.000275  -0.000317   0.000001   0.000000   0.004567
    29  O   -0.000001   0.000000  -0.000008   0.000000   0.000000   0.000026
    30  H   -0.000008   0.000000  -0.003271  -0.000910  -0.000012  -0.012300
    31  H    0.003745  -0.000122   0.009479  -0.000037   0.000000   0.002582
    32  H    0.000042   0.000003  -0.013400   0.000091  -0.000013  -0.050475
    33  H   -0.000391   0.000002   0.077014   0.001533  -0.000243   0.136452
    34  H   -0.000017   0.000000   0.419299  -0.016697  -0.015136  -0.022097
    35  H    0.000003   0.000000   0.591602  -0.051349   0.002474  -0.280567
    36  H   -0.007464  -0.000179   0.008514   0.000014   0.000000   0.038813
    37  H   -0.024242  -0.004195   0.008155   0.000004   0.000000   0.025805
    38  H   -0.001942  -0.000151   0.000188   0.000000   0.000000  -0.001659
    39  H   -0.000313   0.000026   0.000099   0.000000   0.000000  -0.000080
    40  H   -0.000508   0.000318  -0.000001   0.000000   0.000000   0.000063
    41  H    0.001637  -0.000346  -0.000004   0.000000   0.000000  -0.000468
    42  H    0.000000   0.000000   0.000001   0.000000   0.000000   0.000040
    43  H    0.000001   0.000000  -0.000020   0.000000   0.000000   0.000189
    44  H   -0.000018  -0.000004   0.000038   0.000000   0.000000  -0.001769
    45  H    0.000000   0.000000   0.000000   0.000000   0.000000   0.000000
             13         14         15         16         17         18
     1  O    0.004275  -0.033530  -0.000285  -0.000583  -0.000060   0.000048
     2  C   -0.094784   0.381627  -0.004847   0.045386  -0.030489   0.010110
     3  C   -0.060820   0.268930   0.010023  -0.079510   0.053697  -0.002918
     4  O   -0.002467   0.033358   0.000361  -0.003027   0.000461  -0.000003
     5  H    0.000260  -0.007847  -0.000068   0.000329   0.000000   0.000000
     6  C    0.017996  -1.689638  -0.088278   0.092280   0.014640   0.002133
     7  O    0.004695  -0.098465   0.003313   0.022674  -0.003439  -0.000154
     8  H    0.000511  -0.013871   0.007558   0.007648   0.001574  -0.000071
     9  C    0.010818  -0.326923  -0.020236  -0.053043  -0.018882   0.001598
    10  O   -0.001716  -0.000415  -0.000006  -0.000372  -0.000265  -0.000137
    11  H   -0.000725  -0.002925   0.000001   0.000023   0.000011  -0.000007
    12  C    0.027468  -0.893955   0.010312   0.098416  -0.023212  -0.021635
    13  O    7.992727   0.149704  -0.030146   0.049452  -0.015611  -0.009371
    14  C    0.149704   8.384961   0.340630  -0.640032  -0.004943  -0.001320
    15  O   -0.030146   0.340630   7.842368   0.064351   0.011872  -0.026261
    16  C    0.049452  -0.640032   0.064351  10.015612  -1.872931  -0.008585
    17  C   -0.015611  -0.004943   0.011872  -1.872931   7.938202   0.247108
    18  O   -0.009371  -0.001320  -0.026261  -0.008585   0.247108   8.111603
    19  H    0.011494   0.009998   0.025133  -0.090157   0.047550   0.234983
    20  C   -0.011941  -0.136624   0.023261  -1.031648  -0.183407  -0.081261
    21  O   -0.000304   0.004061   0.000096   0.068821  -0.133789   0.007742
    22  H    0.000001  -0.000089  -0.000013  -0.007323   0.035581  -0.000404
    23  C    0.003475   0.105095   0.027278   0.460947  -0.494700   0.013640
    24  O   -0.001088   0.071125  -0.022519   0.033027  -0.004930  -0.000103
    25  H   -0.000024  -0.006620   0.002483  -0.007417   0.000585   0.000002
    26  C   -0.035552  -0.086639  -0.119161  -2.076874   0.237587   0.015925
    27  O    0.000146   0.016605   0.003475   0.080754  -0.009131  -0.001516
    28  C    0.003704   0.015076  -0.009258   0.874649  -0.051489  -0.005235
    29  O    0.000030  -0.000541  -0.000128  -0.015287  -0.021774   0.000367
    30  H   -0.001247   0.004042  -0.000003   0.000111  -0.000018  -0.000001
    31  H    0.006784   0.068547   0.000674   0.000102   0.000632   0.000036
    32  H    0.011090   0.062292  -0.000308  -0.001833   0.000869   0.000058
    33  H   -0.010946   0.086532  -0.002991  -0.004760   0.002031  -0.000061
    34  H   -0.012933  -0.001974  -0.000693  -0.002584   0.001343  -0.000034
    35  H   -0.004884   0.000821  -0.000931  -0.001813   0.000757   0.000036
    36  H   -0.031227   0.247387  -0.019589  -0.019312   0.015314  -0.002770
    37  H    0.007915  -0.054221  -0.007461  -0.002472   0.001521   0.000129
    38  H   -0.006256  -0.005167   0.006747   0.078706   0.084394  -0.002094
    39  H   -0.000753   0.030667   0.001471  -0.033483   0.018205   0.000764
    40  H    0.000054  -0.000064   0.000882   0.013987   0.011018   0.000009
    41  H   -0.000085   0.002382   0.002601   0.063095  -0.009356   0.000065
    42  H    0.000019   0.001862   0.000726   0.036467  -0.016494   0.000606
    43  H    0.000163  -0.002260   0.002267   0.092650  -0.191432   0.007477
    44  H    0.000145  -0.021900   0.007463  -0.108073   0.238792  -0.016632
    45  H    0.000000  -0.000001   0.000003   0.000469   0.008518  -0.000013
             19         20         21         22         23         24
     1  O   -0.000003   0.000012   0.000000   0.000000   0.000062  -0.000001
     2  C   -0.007662   0.005468  -0.000024   0.000000   0.011971   0.000664
     3  C    0.007150  -0.009574  -0.000047   0.000002  -0.012912  -0.011583
     4  O    0.000008  -0.000038   0.000000   0.000000  -0.000155   0.000208
     5  H    0.000000   0.000000   0.000000   0.000000   0.000009  -0.000010
     6  C   -0.001457   0.039749  -0.000439  -0.000011  -0.085223  -0.030819
     7  O   -0.000091   0.002178  -0.000003   0.000000   0.043849  -0.051727
     8  H    0.000001   0.000782   0.000000   0.000000   0.023799  -0.006593
     9  C    0.004947   0.003302   0.000289  -0.000004   0.000313   0.000068
    10  O   -0.000037   0.000037   0.000000   0.000000  -0.000001   0.000000
    11  H    0.000000   0.000027   0.000000   0.000000   0.000000   0.000000
    12  C   -0.007922  -0.009009  -0.000290   0.000011  -0.013005  -0.000139
    13  O    0.011494  -0.011941  -0.000304   0.000001   0.003475  -0.001088
    14  C    0.009998  -0.136624   0.004061  -0.000089   0.105095   0.071125
    15  O    0.025133   0.023261   0.000096  -0.000013   0.027278  -0.022519
    16  C   -0.090157  -1.031648   0.068821  -0.007323   0.460947   0.033027
    17  C    0.047550  -0.183407  -0.133789   0.035581  -0.494700  -0.004930
    18  O    0.234983  -0.081261   0.007742  -0.000404   0.013640  -0.000103
    19  H    0.351898   0.006668  -0.000356   0.000011  -0.005634   0.000055
    20  C    0.006668   7.466366   0.164999  -0.038881   0.031828  -0.003356
    21  O   -0.000356   0.164999   8.112135   0.246123   0.002571   0.000001
    22  H    0.000011  -0.038881   0.246123   0.419493  -0.000057   0.000000
    23  C   -0.005634   0.031828   0.002571  -0.000057   6.871219   0.039909
    24  O    0.000055  -0.003356   0.000001   0.000000   0.039909   8.258319
    25  H    0.000000   0.000952   0.000000   0.000000  -0.015529   0.255340
    26  C    0.003762   0.796763  -0.031332   0.002891  -1.445542   0.042321
    27  O    0.000173  -0.130663   0.002683  -0.000266  -0.065246   0.003883
    28  C    0.001699  -1.056594   0.048842  -0.009531  -0.088734   0.003559
    29  O   -0.000001  -0.054356   0.004146   0.013508   0.006285   0.000014
    30  H    0.000000   0.000000   0.000000   0.000000   0.000001   0.000000
    31  H    0.000002   0.000012   0.000000   0.000000   0.000356   0.000075
    32  H    0.000019  -0.000021   0.000000   0.000000   0.000061   0.000008
    33  H    0.000250  -0.000201   0.000000   0.000000  -0.000083  -0.000003
    34  H    0.000817  -0.000618   0.000000   0.000000  -0.000018   0.000000
    35  H    0.000127   0.000019   0.000000   0.000000  -0.000006   0.000000
    36  H    0.000559   0.006654   0.000004   0.000000  -0.005303  -0.000124
    37  H   -0.000029   0.000969   0.000000   0.000000   0.001359   0.002085
    38  H    0.000628   0.023918  -0.000283   0.000005  -0.050053   0.000633
    39  H    0.000044  -0.047444   0.000322   0.000004   0.078151   0.001396
    40  H    0.000000  -0.001957  -0.000010   0.000000   0.362920  -0.009269
    41  H   -0.000001  -0.002757   0.000009   0.000000   0.622017  -0.063952
    42  H    0.000001  -0.124108   0.003782  -0.000106   0.005915   0.000023
    43  H   -0.000141   0.307659  -0.021739  -0.004690   0.010652   0.000005
    44  H   -0.005850   0.039794  -0.001264  -0.000206   0.016508  -0.000237
    45  H    0.000000  -0.032567  -0.000666  -0.001933  -0.000851   0.000000
             25         26         27         28         29         30
     1  O    0.000000   0.000000   0.000000  -0.000002   0.000000   0.269201
     2  C    0.000189   0.003580  -0.000236  -0.001005   0.000006   0.049109
     3  C    0.001558  -0.015372   0.000570   0.000358   0.000020  -0.038754
     4  O    0.000002   0.001172   0.000000   0.000000   0.000000   0.000723
     5  H    0.000000  -0.000036   0.000000   0.000000   0.000000  -0.002362
     6  C    0.003160   0.004423   0.003194  -0.004916  -0.000217  -0.003055
     7  O    0.002936  -0.039903  -0.000170  -0.000658  -0.000001  -0.000008
     8  H   -0.000856  -0.031901  -0.000104  -0.000275   0.000000   0.000000
     9  C   -0.000011   0.005302   0.000040  -0.000317  -0.000008  -0.003271
    10  O    0.000000  -0.000009   0.000000   0.000001   0.000000  -0.000910
    11  H    0.000000   0.000003   0.000000   0.000000   0.000000  -0.000012
    12  C   -0.000196  -0.000365   0.000150   0.004567   0.000026  -0.012300
    13  O   -0.000024  -0.035552   0.000146   0.003704   0.000030  -0.001247
    14  C   -0.006620  -0.086639   0.016605   0.015076  -0.000541   0.004042
    15  O    0.002483  -0.119161   0.003475  -0.009258  -0.000128  -0.000003
    16  C   -0.007417  -2.076874   0.080754   0.874649  -0.015287   0.000111
    17  C    0.000585   0.237587  -0.009131  -0.051489  -0.021774  -0.000018
    18  O    0.000002   0.015925  -0.001516  -0.005235   0.000367  -0.000001
    19  H    0.000000   0.003762   0.000173   0.001699  -0.000001   0.000000
    20  C    0.000952   0.796763  -0.130663  -1.056594  -0.054356   0.000000
    21  O    0.000000  -0.031332   0.002683   0.048842   0.004146   0.000000
    22  H    0.000000   0.002891  -0.000266  -0.009531   0.013508   0.000000
    23  C   -0.015529  -1.445542  -0.065246  -0.088734   0.006285   0.000001
    24  O    0.255340   0.042321   0.003883   0.003559   0.000014   0.000000
    25  H    0.387011   0.007651  -0.000661  -0.001033  -0.000001   0.000000
    26  C    0.007651   9.522380   0.084199  -0.928784  -0.008688  -0.000003
    27  O   -0.000661   0.084199   7.880191   0.267410  -0.013467   0.000000
    28  C   -0.001033  -0.928784   0.267410   6.188381   0.299279   0.000000
    29  O   -0.000001  -0.008688  -0.013467   0.299279   8.024221   0.000000
    30  H    0.000000  -0.000003   0.000000   0.000000   0.000000   0.404725
    31  H    0.000000   0.000000   0.000000  -0.000003   0.000000   0.000151
    32  H    0.000000   0.000100   0.000000  -0.000006   0.000000  -0.011252
    33  H    0.000000   0.000156   0.000000  -0.000006   0.000000  -0.000116
    34  H    0.000000  -0.000041   0.000000   0.000017   0.000000   0.000024
    35  H    0.000000  -0.000021   0.000000  -0.000001   0.000000  -0.000291
    36  H    0.000006   0.014606   0.000120  -0.000461  -0.000002   0.000000
    37  H   -0.000017  -0.000009  -0.000003  -0.000028   0.000000   0.000010
    38  H   -0.000004   0.127365   0.003137  -0.002908  -0.000290   0.000000
    39  H   -0.000142   0.168827  -0.017074   0.045683  -0.000026   0.000000
    40  H   -0.013581  -0.051337  -0.000317   0.002770  -0.000049   0.000000
    41  H    0.002469  -0.314335   0.002377   0.004282  -0.000039   0.000000
    42  H    0.000000  -0.008851  -0.039724   0.425003  -0.020657   0.000000
    43  H    0.000000  -0.004445  -0.000894   0.045043  -0.000571   0.000000
    44  H    0.000000   0.111631   0.001497  -0.039258   0.000203   0.000000
    45  H    0.000000   0.000507   0.002516   0.008670   0.268811   0.000000
             31         32         33         34         35         36
     1  O   -0.004490  -0.010152   0.003249  -0.000380   0.002230  -0.000039
     2  C    0.049938   0.311573   0.025716  -0.030352   0.039967  -0.001779
     3  C    0.273117  -0.040469  -0.012344   0.008540  -0.006155  -0.035159
     4  O   -0.016471   0.003925   0.000330  -0.000005   0.000104  -0.000227
     5  H   -0.004388  -0.000466  -0.000008   0.000001  -0.000002   0.000008
     6  C   -0.135090   0.000741  -0.034332  -0.001797  -0.001698   0.066947
     7  O    0.003745   0.000042  -0.000391  -0.000017   0.000003  -0.007464
     8  H   -0.000122   0.000003   0.000002   0.000000   0.000000  -0.000179
     9  C    0.009479  -0.013400   0.077014   0.419299   0.591602   0.008514
    10  O   -0.000037   0.000091   0.001533  -0.016697  -0.051349   0.000014
    11  H    0.000000  -0.000013  -0.000243  -0.015136   0.002474   0.000000
    12  C    0.002582  -0.050475   0.136452  -0.022097  -0.280567   0.038813
    13  O    0.006784   0.011090  -0.010946  -0.012933  -0.004884  -0.031227
    14  C    0.068547   0.062292   0.086532  -0.001974   0.000821   0.247387
    15  O    0.000674  -0.000308  -0.002991  -0.000693  -0.000931  -0.019589
    16  C    0.000102  -0.001833  -0.004760  -0.002584  -0.001813  -0.019312
    17  C    0.000632   0.000869   0.002031   0.001343   0.000757   0.015314
    18  O    0.000036   0.000058  -0.000061  -0.000034   0.000036  -0.002770
    19  H    0.000002   0.000019   0.000250   0.000817   0.000127   0.000559
    20  C    0.000012  -0.000021  -0.000201  -0.000618   0.000019   0.006654
    21  O    0.000000   0.000000   0.000000   0.000000   0.000000   0.000004
    22  H    0.000000   0.000000   0.000000   0.000000   0.000000   0.000000
    23  C    0.000356   0.000061  -0.000083  -0.000018  -0.000006  -0.005303
    24  O    0.000075   0.000008  -0.000003   0.000000   0.000000  -0.000124
    25  H    0.000000   0.000000   0.000000   0.000000   0.000000   0.000006
    26  C    0.000000   0.000100   0.000156  -0.000041  -0.000021   0.014606
    27  O    0.000000   0.000000   0.000000   0.000000   0.000000   0.000120
    28  C   -0.000003  -0.000006  -0.000006   0.000017  -0.000001  -0.000461
    29  O    0.000000   0.000000   0.000000   0.000000   0.000000  -0.000002
    30  H    0.000151  -0.011252  -0.000116   0.000024  -0.000291   0.000000
    31  H    0.587384   0.004742   0.000760   0.000006  -0.000007   0.000716
    32  H    0.004742   0.577511   0.005035   0.000329   0.005508  -0.000030
    33  H    0.000760   0.005035   0.584523   0.000045   0.005557   0.001444
    34  H    0.000006   0.000329   0.000045   0.569054  -0.041913  -0.000053
    35  H   -0.000007   0.005508   0.005557  -0.041913   0.609389  -0.000009
    36  H    0.000716  -0.000030   0.001444  -0.000053  -0.000009   0.567639
    37  H    0.005673   0.000793  -0.000077  -0.000001  -0.000012   0.004150
    38  H    0.000000   0.000000  -0.000004   0.000000   0.000000   0.003764
    39  H    0.000000   0.000000   0.000000   0.000000   0.000000  -0.000015
    40  H    0.000000   0.000000   0.000000   0.000000   0.000000   0.000000
    41  H    0.000000   0.000000   0.000000   0.000000   0.000000   0.000037
    42  H    0.000000   0.000000   0.000000   0.000000   0.000000   0.000000
    43  H    0.000000   0.000000   0.000000   0.000000   0.000000  -0.000004
    44  H    0.000000   0.000000   0.000000  -0.000001   0.000000  -0.000015
    45  H    0.000000   0.000000   0.000000   0.000000   0.000000   0.000000
             37         38         39         40         41         42
     1  O   -0.000359  -0.000001   0.000000   0.000000   0.000000   0.000000
     2  C    0.039611  -0.001213  -0.000122  -0.000019   0.000148  -0.000003
[...]
 118,0.00000634,0.00000470,0.00004703,0.00002215,-0.00007780,-0.0001095
 8,0.00007239,0.00007605,0.00017734,0.00003133,-0.00011916,-0.00050628,
 0.00021100,0.00047073,0.00013912,-0.00039624,-0.00050106,0.00053751,0.
 00043673,0.00011438,0.00001762,-0.00005839,0.00001649,-0.00005828,-0.0
 0875661,-0.00057344,-0.00178257,0.00243258,-0.00056078,0.00124933,-0.0
 0031565,-0.00012385,-0.00001924,0.00055048,-0.00018344,-0.00011905,0.0
 0002154,0.00028402,-0.00019725,-0.00004093,-0.00002349,-0.00004456,-0.
 00050775,-0.00081819,0.00224563,-0.01603419,0.01165334,-0.00842088,-0.
 33835914,-0.06065900,-0.02357656,-0.00986583,-0.00554452,0.00712347,-0
 .00000325,0.00000193,0.00000262,0.00000330,0.00000086,-0.00000038,0.00
 000243,-0.00000123,-0.00000364,0.00000095,-0.00000066,-0.00000394,-0.0
 0000517,0.00000062,0.00000127,0.00000622,0.00000082,-0.00000538,0.0000
 0096,-0.00000616,-0.00000489,0.00000126,-0.00000152,0.00000287,0.00010
 655,-0.00007380,0.00023620,0.00057603,0.00050729,-0.00143987,-0.000013
 05,-0.00003636,0.00001658,0.00011423,-0.00020284,0.00013224,0.36767991
 ,0.00000313,0.00001210,0.00000831,-0.00000315,-0.00001420,-0.00000407,
 -0.00000308,-0.00000019,-0.00001103,-0.00000096,0.00000707,0.00000902,
 0.,-0.00000187,-0.00000047,0.00001600,-0.00003583,-0.00001733,0.000001
 77,0.00005407,0.00007279,-0.00003518,-0.00003911,-0.00010238,-0.000002
 24,-0.00001534,0.00001164,0.00000657,0.00001096,-0.00000257,-0.0000049
 5,-0.00000018,0.00000512,-0.00000689,0.00001741,0.00000053,-0.00001597
 ,0.00011200,0.00001639,-0.00008274,-0.00005146,-0.00011664,0.00000802,
 0.00035192,0.00028062,-0.00022700,-0.00065818,0.00023601,-0.00095262,-
 0.00029872,0.00188570,0.00051922,0.00016437,-0.00052872,0.00010554,-0.
 00016431,0.00006448,-0.02718550,-0.00424570,-0.00584957,0.00138553,0.0
 0344794,0.00097506,-0.00037782,-0.00021156,0.00008956,0.00009694,0.000
 20508,-0.00012928,-0.00011782,-0.00019222,0.00016767,0.00000180,0.0000
 3580,0.00003391,0.00346822,0.00183894,-0.00436215,0.03724272,-0.007817
 67,0.01306809,-0.06144004,-0.05383392,-0.00731999,-0.00632264,0.002071
 13,0.00432047,-0.00000015,-0.00000199,-0.00000125,0.00000083,-0.000000
 49,0.00000144,0.00000020,0.00000061,-0.00000017,0.00000106,-0.00000263
 ,0.00000109,-0.00000147,0.00000655,0.00000062,0.00000208,0.00000241,-0
 .00000305,0.00000594,-0.00000238,0.00000486,0.00000017,0.00000387,-0.0
 0000688,-0.00001699,-0.00015892,0.00003637,-0.00135031,0.00029508,-0.0
 0004673,0.00003984,0.00000828,-0.00000550,-0.00015999,0.00004978,-0.00
 002294,0.05630378,0.06171766,-0.00000093,-0.00000251,-0.00002784,-0.00
 000680,0.00000306,0.00001486,-0.00000147,-0.00000336,0.00002099,0.0000
 0972,0.00001277,-0.00002326,-0.00000074,-0.00000185,0.00000102,-0.0000
 1477,-0.00001731,-0.00000668,0.00000458,0.00000934,-0.00002881,0.00000
 315,-0.00000637,0.00002702,-0.00000410,0.00001271,0.00001372,0.0000004
 3,-0.00001739,-0.00001639,-0.00000187,0.00000422,0.00000314,0.00000849
 ,0.00001194,0.00004461,0.00000039,-0.00003153,-0.00008988,0.00006552,0
 .00004312,0.00010970,0.00006101,0.00001975,-0.00033510,-0.00000695,-0.
 00034757,-0.00013032,-0.00147453,0.00009641,0.00187407,0.00055055,0.00
 001054,-0.00020904,0.00002882,-0.00000685,0.00004346,-0.02325771,-0.00
 595670,-0.00046960,0.00178638,0.00119564,0.00109039,0.00021923,-0.0002
 6980,-0.00011733,-0.00000011,0.00001026,0.00002031,0.00006563,0.000111
 11,-0.00009495,-0.00000929,-0.00001346,-0.00001100,-0.00251424,-0.0002
 5470,0.00317423,-0.01344014,0.00662836,-0.00252976,-0.03026948,-0.0099
 1088,-0.04691071,0.03936653,0.01122863,-0.01585225,-0.00000150,0.00000
 125,0.00000335,0.00000138,0.00000035,-0.00000050,0.00000054,-0.0000006
 3,-0.00000218,-0.00000117,-0.00000080,-0.00000429,-0.00000256,0.000003
 90,0.00000037,0.00000280,-0.00000011,-0.00000353,0.00000307,-0.0000067
 5,0.00000723,-0.00000064,0.00000056,-0.00000114,0.00017352,0.00008388,
 0.00001592,0.00088122,-0.00005150,-0.00001149,0.00000169,-0.00001860,-
 0.00000142,0.00011787,-0.00006250,-0.00001401,0.02503615,0.00075500,0.
 06039751,0.00000568,-0.00000317,-0.00000858,-0.00000640,0.00000239,0.0
 0000614,-0.00001314,-0.00000980,0.00001146,0.00001336,0.00000462,-0.00
 000873,-0.00000427,-0.00000009,0.00000067,0.00000037,0.00000902,0.0000
 2309,0.00002558,-0.00000442,-0.00002181,-0.00001161,-0.00000513,0.0000
 1095,-0.00001593,0.00000192,-0.00000333,0.00002106,-0.00000166,-0.0000
 0099,-0.00001186,0.00000132,0.00000222,-0.00001203,0.00000016,0.000019
 07,0.00003746,-0.00003369,-0.00003983,-0.00004986,-0.00003705,0.000126
 93,0.00054955,0.00012895,0.00001958,-0.00033764,0.00070548,-0.00018555
 ,-0.01034404,-0.00500024,0.00160743,0.00126724,0.00083022,-0.00003262,
 0.00012423,0.00010030,-0.00008768,-0.33315327,-0.07068077,0.01709399,-
 0.02042162,0.01357492,-0.00700129,0.00003425,0.00038231,0.00046925,0.0
 0000363,-0.00003353,0.00000359,0.00004184,0.00003891,-0.00004074,-0.00
 001402,-0.00000321,-0.00000268,0.00000910,0.00007305,-0.00008171,0.002
 21265,-0.00048125,0.00039202,-0.01067828,-0.00285012,0.00077176,0.0017
 0450,0.00044186,0.00023508,-0.00000250,0.00000116,0.00000037,0.0000042
 0,0.00000005,0.00000048,0.00000331,0.00000040,-0.00000394,0.00000521,-
 0.00000273,0.00000490,-0.00001089,-0.00000137,0.00000116,0.00000819,0.
 00000313,-0.00000785,0.00001362,-0.00001555,0.00002575,0.00000120,0.00
 000350,-0.00000474,0.00070056,-0.00051006,0.00015801,0.00004312,0.0001
 9115,-0.00003026,-0.00000112,-0.00000327,0.00001416,0.00003231,-0.0000
 3785,0.00001309,0.00048636,-0.00058299,-0.00060649,0.36674866,0.000003
 01,-0.00000175,0.00001656,0.00000090,0.00000207,-0.00000860,-0.0000020
 7,0.00000407,-0.00000695,0.00000030,-0.00000831,0.00000870,-0.00000082
 ,0.00000239,-0.00000140,-0.00000265,0.00001397,-0.00000049,0.00001970,
 -0.00001222,-0.00000048,-0.00001511,0.00000016,-0.00000705,-0.00000250
 ,-0.00000340,-0.00001578,0.00000047,0.00001022,0.00001461,0.00000351,-
 0.00000377,-0.00000455,-0.00000639,-0.00001255,-0.00002306,0.00002918,
 -0.00002801,0.00005363,-0.00003057,0.00005373,-0.00003066,0.00018095,-
 0.00007595,-0.00002142,-0.00110839,0.00024668,0.00019238,-0.00827812,-
 0.00132700,0.00191179,0.00093731,0.00063055,0.00038399,-0.00003646,-0.
 00004514,-0.00012463,-0.07167998,-0.05256351,0.00023977,0.04211352,-0.
 00997881,0.00652593,0.00048501,0.00127797,-0.00079330,-0.00007423,0.00
 002808,-0.00003851,0.00003131,-0.00001292,-0.00001684,-0.00000297,0.00
 000349,0.00000153,-0.00018286,-0.00029324,0.00024910,0.00118662,0.0025
 4734,0.00004584,-0.02969120,-0.00845623,-0.00054478,0.00195447,0.00174
 543,0.00192109,0.00000039,-0.00000049,-0.00000247,0.00000056,0.0000001
 7,0.00000195,0.00000102,-0.00000050,-0.00000033,0.00000221,0.00000262,
 0.00000484,0.00000327,-0.00000574,-0.00000044,-0.00000030,-0.00000182,
 0.00000241,0.00001977,0.00000066,0.00002106,0.00000334,0.00000336,-0.0
 0000656,0.00017262,-0.00022855,0.00038960,0.00017487,0.00015325,-0.000
 06841,0.00000560,-0.00002161,-0.00000191,0.00004097,-0.00004187,0.0000
 2443,-0.00046127,-0.00361082,-0.00314494,0.06412457,0.06982362,-0.0000
 0523,-0.00000967,-0.00000231,0.00000939,0.00001125,0.00000367,0.000007
 14,0.00001156,0.00000927,-0.00000365,-0.00000634,-0.00000920,0.0000019
 9,0.00000257,-0.00000099,0.00000303,-0.00002039,0.00000442,-0.00001758
 ,-0.00000433,-0.00000500,0.00001341,-0.00000521,0.00000856,0.00000826,
 0.00001577,-0.00001395,-0.00001243,-0.00001126,0.00000413,0.00000656,-
 0.00000039,-0.00000782,0.00001441,-0.00001752,0.00000610,0.00002410,-0
 .00011268,0.00007447,-0.00009038,0.00016075,0.00013376,-0.00056792,-0.
 00019324,-0.00020906,0.00107370,-0.00076353,0.00094971,0.03575875,0.01
 096475,-0.00591930,-0.00189034,-0.00072640,0.00306764,-0.00015092,0.00
 029294,0.00017352,0.01892796,0.00068338,-0.04380493,-0.01480233,0.0065
 9655,0.00129408,-0.00114353,-0.00030799,0.00036754,0.00003996,0.000004
 95,0.00005842,-0.00001561,0.00000728,-0.00000774,-0.00000432,-0.000001
 71,-0.00000009,0.00029499,0.00022950,-0.00034088,0.00121393,0.00151924
 ,0.00050183,-0.02419683,-0.00990965,-0.00114643,0.00064225,0.00130025,
 0.00257510,0.00000078,0.00000171,0.00000083,-0.00000173,0.00000019,-0.
 00000167,-0.00000220,-0.00000043,0.00000346,-0.00000315,0.00000357,-0.
 00000438,0.00000611,-0.00000569,-0.00000011,-0.00000528,-0.00000301,0.
 00000760,-0.00003910,0.00000012,-0.00007542,0.00000024,-0.00000966,0.0
 0001397,-0.00051076,0.00043335,-0.00012882,-0.00016514,-0.00008802,-0.
 00014768,-0.00000935,0.00002770,0.00000377,-0.00001204,0.00002886,-0.0
 0000496,-0.00099244,-0.00299941,-0.00261986,-0.01456172,-0.00915440,0.
 05084327,0.00001234,0.00003901,-0.00003764,-0.00003924,-0.00004510,0.0
 0001279,-0.00001532,-0.00005604,-0.00000140,0.00002422,0.00005236,0.00
 000072,-0.00000629,-0.00001416,0.00000410,0.00001553,-0.00000294,0.000
 03508,0.00006728,0.00011142,0.00004311,-0.00010091,-0.00007455,-0.0000
 9978,-0.00001270,-0.00003068,0.00009602,0.00001312,-0.00000931,-0.0000
 6019,-0.00001415,0.00001304,0.00002557,-0.00000690,0.00007882,0.000097
 59,-0.00011460,0.00037183,-0.00036011,0.00043101,-0.00074635,-0.000352
 51,0.00234665,-0.00086699,0.00192802,-0.02097897,-0.00131478,0.0026376
 3,-0.33513479,-0.05627813,0.02295641,-0.00215198,-0.00938606,-0.009465
 85,0.00041131,-0.00126810,0.00069081,-0.00969084,-0.00051896,0.0027031
 9,0.00154010,-0.00059345,0.00042906,0.00005897,-0.00009800,-0.00002059
 ,0.00078910,0.00043189,-0.00002422,0.00002931,-0.00002080,0.00008271,-
 0.00000156,0.00002532,-0.00000359,-0.00149822,-0.00266239,-0.00065800,
 0.00048526,0.00077901,0.00013823,-0.00081992,-0.00124947,-0.00059795,0
 .00049906,0.00020376,0.00002411,-0.00000507,-0.00000499,0.00000201,0.0
 0000820,0.00000202,0.00000657,0.00000418,-0.00000133,-0.00000905,-0.00
 000200,-0.00000917,-0.00000668,-0.00000904,0.00004558,0.00000601,0.000
 01382,0.00000826,-0.00002291,0.00014658,0.00001516,0.00032006,0.000005
 10,0.00002732,-0.00004786,-0.00063410,0.00246113,-0.00101046,0.0019935
 6,0.00036669,0.00042712,0.00000514,0.00012424,-0.00000873,0.00027903,-
 0.00040688,0.00006421,0.00064405,0.00061238,0.00062821,0.00068257,-0.0
 0004196,0.00125743,0.36075527,0.00000495,0.00003426,-0.00008065,-0.000
 04394,-0.00004779,0.00003291,0.00000239,-0.00001902,0.00001529,0.00001
 580,0.00005800,-0.00003657,0.00000120,-0.00001370,0.00000388,-0.000071
 94,-0.00010697,-0.00009471,-0.00004991,0.00012890,0.00010884,0.0000108
 2,-0.00002329,-0.00011926,-0.00001337,-0.00000973,0.00011991,0.0000146
 6,-0.00003983,-0.00007995,-0.00001913,0.00001898,0.00002709,0.00002638
 ,0.00013747,0.00018037,-0.00001137,0.00044660,-0.00044487,0.00024252,-
 0.00022042,-0.00016773,-0.00046171,0.00144712,-0.00184669,0.02884386,-
 0.00026141,-0.00124013,-0.06111940,-0.04950706,0.01070510,-0.02981970,
 -0.01723316,-0.01467691,0.00008119,-0.00033026,0.00173872,-0.01246026,
 -0.00042396,0.00291800,0.00028163,0.00076594,-0.00118780,0.00016845,0.
 00007310,-0.00015370,0.00059099,0.00019273,-0.00002002,-0.00009704,-0.
 00003927,0.00014224,0.00000048,0.00002003,0.00000413,0.00284588,0.0001
 6488,0.00016784,-0.00038445,-0.00021931,-0.00035160,0.00025266,-0.0002
 8380,-0.00058131,0.00024677,-0.00005481,0.00015700,-0.00000623,0.00000
 048,0.00000510,0.00000260,-0.00000024,-0.00000131,0.00000080,0.0000020
 8,-0.00000609,-0.00000604,-0.00002055,-0.00002147,-0.00003380,0.000052
 56,0.00001569,0.00001776,0.00001579,-0.00003759,-0.00017664,-0.0000100
 5,0.00003439,-0.00001353,-0.00000766,0.00001627,0.00175165,-0.00386635
 ,0.00195415,0.00019267,-0.00109438,-0.00048241,-0.00010432,0.00001836,
 0.00000019,-0.00024109,-0.00022895,-0.00004489,0.00023840,0.00034258,0
 .00013680,-0.00065749,0.00013693,0.00189532,0.06995350,0.06993501,0.00
 001368,0.00002144,-0.00003263,-0.00004724,-0.00002784,0.00000465,0.000
 00010,-0.00003321,0.00001203,0.00001792,0.00002701,-0.00000476,-0.0000
 0438,-0.00000641,0.00000229,-0.00005353,-0.00000362,0.00002925,0.00004
 735,0.00003701,-0.00001268,-0.00003387,-0.00001380,0.00000469,-0.00002
 379,-0.00003048,0.00007418,0.00002463,-0.00000267,-0.00003690,-0.00001
 361,0.00000802,0.00002108,0.00001086,0.00007902,0.00007173,0.00014294,
 0.00024186,-0.00031659,-0.00031032,-0.00026954,-0.00025124,-0.00102619
 ,-0.00020098,0.00072939,-0.01048448,0.00160486,0.00077043,0.02502344,0
 .01017501,-0.04146286,-0.02614793,-0.01949821,-0.00852026,-0.00118073,
 -0.00080812,0.00137552,0.03549593,0.00750017,-0.00663137,-0.00166372,-
 0.00102828,0.00207169,-0.00011136,-0.00026273,0.00025444,-0.00000149,0
 .00004770,-0.00006929,0.00001148,-0.00000341,0.00000013,0.00000258,-0.
 00000381,0.00000072,0.00090408,-0.00146219,-0.00017582,-0.00029515,-0.
 00040974,-0.00006246,0.00156516,0.00146056,0.00164635,-0.00063248,-0.0
 0011151,0.00000672,-0.00000447,-0.00000147,-0.00000148,0.00000738,0.00
 000148,0.00000795,0.00000698,-0.00000093,-0.00001203,0.00000682,-0.000
 00902,0.00000624,-0.00002918,0.00003073,0.00001305,0.00001957,0.000011
 95,-0.00003628,0.00017085,0.00001718,-0.00006307,0.00001824,0.00003863
 ,-0.00002494,-0.00061657,0.00125468,-0.00050404,0.00040482,-0.00062184
 ,0.00024142,0.00004568,0.00003478,-0.00000112,0.00006207,-0.00003026,-
 0.00000747,-0.00065375,-0.00044679,-0.00038728,0.00133677,0.00155134,-
 0.00605681,-0.02194731,0.00121840,0.05740924,-0.00000063,0.00000310,0.
 00002596,0.00000842,-0.00000309,-0.00001214,0.00000143,0.00000550,-0.0
 0001964,-0.00001094,-0.00001108,0.00002112,0.00000192,0.00000161,-0.00
 000119,0.00001828,0.00000561,-0.00000167,-0.00000130,0.00000194,0.0000
 3868,-0.00001343,-0.00000450,-0.00004214,0.00000538,-0.00001086,-0.000
 01247,-0.00000200,0.00001631,0.00001478,0.00000308,-0.00000378,-0.0000
 0224,-0.00000862,-0.00001569,-0.00004176,0.00000389,0.00002346,0.00009
 544,-0.00005303,-0.00002119,-0.00008930,0.00002963,0.00001086,0.000197
 59,-0.00010366,-0.00003426,-0.00014336,0.00044537,0.00063741,0.0000505
 1,-0.00009748,-0.00002075,0.00043305,0.00001931,0.00008002,-0.00001250
 ,-0.00116582,-0.00155801,0.00200121,-0.00055495,0.00066265,-0.00032141
 ,0.00060442,-0.00012812,0.00010320,-0.00013168,0.00015035,0.00015008,-
 0.00001249,-0.00015974,0.00009614,0.00002605,0.00000623,0.00002664,0.0
 0090245,-0.00054045,0.00027802,-0.00064868,-0.00096405,0.00260164,0.00
 837583,-0.00301948,0.02038717,-0.33079735,0.05709247,-0.26618248,0.000
 00240,-0.00000145,-0.00000261,-0.00000150,-0.00000062,0.00000095,-0.00
 000080,0.00000061,0.00000163,0.00000111,0.00000087,0.00000554,0.000002
 36,-0.00000396,-0.00000104,-0.00000314,-0.00000080,0.00000325,0.000000
 91,0.00000235,0.00000368,0.00000076,0.00000097,-0.00000221,-0.00000032
 ,-0.00001034,0.00002265,-0.00003166,0.00003217,-0.00009808,-0.00000498
 ,-0.00000717,-0.00000628,0.00000903,0.00000084,-0.00000862,0.00096299,
 -0.00093122,0.00259860,0.00030868,0.00012238,-0.00010041,-0.00002420,0
 .00000334,-0.00005779,0.32193497,0.00000056,-0.00000947,0.00000640,0.0
 0000150,0.00000278,-0.00000663,0.00000183,0.00000627,-0.00000763,-0.00
 000443,-0.00001698,0.00000996,-0.00000032,0.00000476,-0.00000074,0.000
 00289,0.00002258,0.00001180,0.00000429,-0.00002713,-0.00000547,0.00000
 106,0.00001423,0.00000532,0.00000274,0.00000835,-0.00000254,-0.0000021
 6,-0.00000738,0.00000399,0.00000064,0.00000249,-0.00000604,-0.00000169
 ,0.00001026,-0.00000617,0.00000084,-0.00000490,0.00001682,-0.00004685,
 0.00001623,-0.00004320,0.00002572,-0.00000214,0.00015819,-0.00015604,-
 0.00016776,0.00004085,0.00045392,-0.00078745,0.00007556,0.00005057,-0.
 00005021,-0.00039448,-0.00000408,-0.00007805,-0.00005063,-0.00076067,0
 .00237179,-0.00430031,0.00091239,-0.00048214,0.00169785,-0.00067804,-0
 .00191453,-0.00159006,-0.00029186,0.00027173,0.00032153,0.00000598,-0.
 00023729,0.00003820,0.00003407,-0.00000203,0.00007011,0.00076225,-0.00
 099776,0.00008001,-0.00082340,-0.00391173,0.00607834,0.00916246,-0.002
 97695,-0.00044837,0.04228905,-0.00566620,0.05718817,0.00000038,0.00000
 422,-0.00000222,-0.00000116,-0.00000024,0.00000033,0.00000048,0.000001
 17,0.00000042,0.00000076,0.00000034,0.00000022,-0.00000090,-0.00000161
 ,0.00000307,-0.00000084,0.00000003,-0.00000026,0.00000289,0.00000122,0
 .00000258,0.00000241,0.00000084,-0.00000086,-0.00001184,0.00001262,-0.
 00000620,-0.00012152,-0.00003464,0.00014348,-0.00001932,-0.00006346,-0
 .00000459,0.00001028,0.00000912,-0.00001659,0.00029161,0.00060206,-0.0
 0025347,0.00033608,0.00004741,0.00015938,-0.00002210,0.00007015,-0.000
 07497,-0.05141045,0.01395940,0.00001221,0.00000694,0.00008593,0.000005
 28,-0.00001098,-0.00004872,0.00000254,0.00001765,-0.00005739,-0.000016
 76,-0.00003974,0.00006410,-0.00000065,0.00000938,-0.00000638,0.0000071
 2,0.00003672,0.00000363,0.00001734,-0.00002745,0.00007554,-0.00002855,
 0.00000925,-0.00007721,-0.00000713,-0.00003979,-0.00004799,0.00001508,
 0.00005546,0.00005551,-0.00000150,-0.00001409,-0.00001212,-0.00002959,
 -0.00003452,-0.00011717,0.00000749,0.00006852,0.00021488,-0.00011049,-
 0.00006823,-0.00027100,0.00007307,-0.00006027,0.00041638,0.00002261,0.
 00007322,-0.00009802,-0.00000617,-0.00097165,-0.00024587,0.00013959,0.
 00013036,0.00006323,-0.00003337,-0.00002698,-0.00017853,0.00134690,0.0
 0140086,-0.00512926,0.00047818,0.00062548,0.00144825,-0.00035769,-0.00
 186704,-0.00004788,0.00013121,0.00014719,-0.00020026,-0.00003141,-0.00
 013254,0.00016294,0.00000139,0.00004115,0.00000168,-0.00034130,0.00040
 757,-0.00030983,0.00269537,-0.00139876,-0.00170369,-0.03157288,0.00412
 203,-0.02398052,-0.21193513,0.05590930,-0.22797383,0.00000161,-0.00000
 270,-0.00001419,-0.00000103,-0.00000121,0.00000458,0.00000165,0.000001
 36,0.00000208,0.00000713,0.00000040,0.00001304,0.00000098,-0.00001213,
 0.00000292,-0.00000035,0.00000233,0.00000237,0.00000518,0.00000973,0.0
 0001272,0.00000667,0.00000495,-0.00000822,-0.00000872,0.00000110,0.000
 01712,0.00002833,0.00007055,-0.00004039,-0.00001270,0.00000048,0.00000
 642,0.00000175,-0.00002032,0.00001719,0.00098424,-0.00006785,0.0030367
 5,0.00038265,0.00045739,0.00040228,0.00011803,0.00007802,-0.00008181,0
 .23800181,-0.05889113,0.25454076\\-0.01345380,-0.00402374,0.00860147,0
 .05543444,-0.00828720,-0.01662528,-0.03087499,-0.03600049,-0.00852430,
 0.00915912,0.02037232,0.03998939,-0.00688059,-0.02518395,-0.01902567,0
 .04177057,0.00593496,-0.00931736,-0.01092620,-0.00355627,-0.00122780,0
 .00326720,-0.00347513,0.02217939,-0.00174014,0.02277755,-0.00330553,0.
 00555062,0.01952229,-0.01250665,0.00634474,-0.03152200,0.01582073,-0.0
 2125632,0.01734759,0.00207755,0.01147208,0.00017862,0.01552483,-0.0654
 1041,0.01573797,-0.00886323,0.02816396,-0.02494770,0.00196831,-0.05205
 348,0.01441976,0.00195249,0.01062436,0.03860382,0.00708354,-0.00601103
 ,-0.00896483,-0.00487667,0.00593827,0.01947915,-0.01943737,0.00777778,
 0.01962098,-0.01080500,-0.00682346,0.00234526,-0.01227333,-0.00030186,
 -0.01417236,0.03201745,0.00523272,-0.02448285,-0.01807934,-0.01700352,
 -0.01376466,-0.00094465,0.00611535,0.03572304,-0.00230754,0.02010353,-
 0.00115011,0.01523884,0.00196200,-0.01065190,-0.01091525,0.01638490,0.
 00013420,0.00158059,0.00127535,-0.00698381,0.01929648,0.00014951,0.004
 10691,0.00268506,0.01933092,0.00257934,0.00382630,-0.01464776,0.000367
 96,-0.00006387,0.01817705,-0.00180965,0.00368880,-0.00131182,0.0050318
 1,-0.01765815,-0.01988350,-0.00247198,0.00299322,0.01640402,0.00208358
 ,-0.00197949,-0.01668032,0.00004588,-0.00184767,0.01547263,-0.00060099
 ,0.00050808,-0.01885144,-0.00052838,0.00224570,-0.00031432,-0.00973437
 ,-0.01627233,0.01926799,0.00146313,-0.00004601,-0.02022617,-0.00529755
 ,-0.00247835,0.02177309,0.00161540,-0.00203980,-0.02024436,-0.00703902
 ,0.00254964,-0.00225671,-0.00484257,-0.00040725\\\@


 IF GOD HAD MEANT MAN TO SEE THE SUN RISE, HE
 WOULD HAVE SCHEDULED IT FOR A LATER HOUR.
 Job cpu time:  3 days 22 hours 22 minutes 39.0 seconds.
 File lengths (MBytes):  RWF=   2340 Int=      0 D2E=      0 Chk=     43 Scr=      1
 Normal termination of Gaussian 09 at Fri Feb  5 14:35:07 2016.
Gaussian '09 finished on node006 at Fri Feb  5 14:35:07 EST 2016.
