Gaussian '09 started on node008 at Tue Mar 29 18:47:47 EDT 2016.
 Entering Gaussian System, Link 0=/usr/local/gaussian/g09/g09
 Initial command:
 /usr/local/gaussian/g09/l1.exe /home/srmcgrat/thesis/gaussian/cellobiose/483K/9330ps/1/2dp/gaussian10012/Gau-10048.inp -scrdir=/home/srmcgrat/thesis/gaussian/cellobiose/483K/9330ps/1/2dp/gaussian10012/
 Entering Link 1 = /usr/local/gaussian/g09/l1.exe PID=     10050.
  
 Copyright (c) 1988,1990,1992,1993,1995,1998,2003,2009,2010,
            Gaussian, Inc.  All Rights Reserved.
  
 This is part of the Gaussian(R) 09 program.  It is based on
 the Gaussian(R) 03 system (copyright 2003, Gaussian, Inc.),
 the Gaussian(R) 98 system (copyright 1998, Gaussian, Inc.),
 the Gaussian(R) 94 system (copyright 1995, Gaussian, Inc.),
 the Gaussian 92(TM) system (copyright 1992, Gaussian, Inc.),
 the Gaussian 90(TM) system (copyright 1990, Gaussian, Inc.),
 the Gaussian 88(TM) system (copyright 1988, Gaussian, Inc.),
 the Gaussian 86(TM) system (copyright 1986, Carnegie Mellon
 University), and the Gaussian 82(TM) system (copyright 1983,
 Carnegie Mellon University). Gaussian is a federally registered
 trademark of Gaussian, Inc.
  
 This software contains proprietary and confidential information,
 including trade secrets, belonging to Gaussian, Inc.
  
 This software is provided under written license and may be
 used, copied, transmitted, or stored only in accord with that
 written license.
  
 The following legend is applicable only to US Government
 contracts under FAR:
  
                    RESTRICTED RIGHTS LEGEND
  
 Use, reproduction and disclosure by the US Government is
 subject to restrictions as set forth in subparagraphs (a)
 and (c) of the Commercial Computer Software - Restricted
 Rights clause in FAR 52.227-19.
  
 Gaussian, Inc.
 340 Quinnipiac St., Bldg. 40, Wallingford CT 06492
  
  
 ---------------------------------------------------------------
 Warning -- This program may not be used in any manner that
 competes with the business of Gaussian, Inc. or will provide
 assistance to any competitor of Gaussian, Inc.  The licensee
 of this program is prohibited from giving any competitor of
 Gaussian, Inc. access to this program.  By using this program,
 the user acknowledges that Gaussian, Inc. is engaged in the
 business of creating and licensing software in the field of
 computational chemistry and represents and warrants to the
 licensee that it is not a competitor of Gaussian, Inc. and that
 it will not use this program in any manner prohibited above.
 ---------------------------------------------------------------
  

 Cite this work as:
 Gaussian 09, Revision B.01,
 M. J. Frisch, G. W. Trucks, H. B. Schlegel, G. E. Scuseria, 
 M. A. Robb, J. R. Cheeseman, G. Scalmani, V. Barone, B. Mennucci, 
 G. A. Petersson, H. Nakatsuji, M. Caricato, X. Li, H. P. Hratchian, 
 A. F. Izmaylov, J. Bloino, G. Zheng, J. L. Sonnenberg, M. Hada, 
 M. Ehara, K. Toyota, R. Fukuda, J. Hasegawa, M. Ishida, T. Nakajima, 
 Y. Honda, O. Kitao, H. Nakai, T. Vreven, J. A. Montgomery, Jr., 
 J. E. Peralta, F. Ogliaro, M. Bearpark, J. J. Heyd, E. Brothers, 
 K. N. Kudin, V. N. Staroverov, T. Keith, R. Kobayashi, J. Normand, 
 K. Raghavachari, A. Rendell, J. C. Burant, S. S. Iyengar, J. Tomasi, 
 M. Cossi, N. Rega, J. M. Millam, M. Klene, J. E. Knox, J. B. Cross, 
 V. Bakken, C. Adamo, J. Jaramillo, R. Gomperts, R. E. Stratmann, 
 O. Yazyev, A. J. Austin, R. Cammi, C. Pomelli, J. W. Ochterski, 
 R. L. Martin, K. Morokuma, V. G. Zakrzewski, G. A. Voth, 
 P. Salvador, J. J. Dannenberg, S. Dapprich, A. D. Daniels, 
 O. Farkas, J. B. Foresman, J. V. Ortiz, J. Cioslowski, 
 and D. J. Fox, Gaussian, Inc., Wallingford CT, 2010.
 
 ******************************************
 Gaussian 09:  EM64L-G09RevB.01 12-Aug-2010
                29-Mar-2016 
 ******************************************
 -------------------------------------------------
 # freq=raman b3lyp/6-31+g(2d,p) geom=connectivity
 -------------------------------------------------
 1/10=4,30=1,38=1,57=2/1,3;
 2/12=2,17=6,18=5,40=1/2;
 3/5=1,6=6,7=112,11=2,16=1,25=1,30=1,71=2,74=-5/1,2,3;
 4//1;
 5/5=2,38=5,98=1/2;
 8/6=4,10=90,11=11/1;
 10/13=10,15=4/2;
 11/6=3,8=1,9=11,15=111,16=1/1,2,10;
 10/6=1/2;
 6/7=2,8=2,9=2,10=2,18=1,28=1/1;
 7/8=1,10=1,25=1/1,2,3,16;
 1/10=4,30=1/3;
 99//99;
 -----------------
 483 9330/9330.com
 -----------------
 Symbolic Z-matrix:
 Charge =  0 Multiplicity = 1
 O                     7.725     7.377     12.353 
 C                     8.175     7.849     13.631 
 C                     7.564     9.142     14.146 
 O                     7.75      10.171    13.164 
 H                     7.58      9.773     12.262 
 C                     8.243     9.656     15.405 
 O                     7.599     10.721    16.12 
 H                     8.129     11.018    16.914 
 C                     8.58      5.347     14.358 
 O                     8.161     4.621     13.193 
 H                     8.384     3.648     13.25 
 C                     8.118     6.758     14.688 
 O                     8.813     7.206     15.861 
 C                     8.263     8.447     16.326 
 O                     8.867     8.803     17.578 
 C                     8.164     8.376     18.754 
 C                     8.597     7.026     19.303 
 O                     8.482     5.924     18.391 
 H                     8.596     6.135     17.42 
 C                     8.096     6.682     20.696 
 O                     8.634     5.431     21.15 
 H                     8.167     5.238     22.013 
 C                     8.115     10.845    19.467 
 O                     8.704     11.536    18.356 
 H                     8.651     12.521    18.521 
 C                     8.433     9.406     19.839 
 O                     7.818     9.089     21.096 
 C                     8.304     7.854     21.642 
 O                     7.562     7.532     22.828 
 H                     8.17142   7.33765   23.54384 
 H                     9.3431    7.94722   21.87964 
 H                     7.03815   6.54371   20.61393 
 H                     9.65307   7.13718   19.4344 
 H                     7.11475   8.35027   18.5459 
 H                     9.48845   9.37518   20.01216 
 H                     8.3325    11.43299   20.3341 
 H                     7.0562    10.88848   19.3188 
 H                     8.48406   7.17338   11.80167 
 H                     8.31704   4.74088   15.19965 
 H                     9.64877   5.38245   14.32088 
 H                     7.08765   6.67145   14.96329 
 H                     9.21492   8.06373   13.49924 
 H                     6.51928   9.00136   14.32951 
 H                     9.24781   9.94193   15.17371 
 H                     7.23643   8.23899   16.54461 
 

 GradGradGradGradGradGradGradGradGradGradGradGradGradGradGradGradGradGrad
 Berny optimization.
 Initialization pass.
 Trust Radius=3.00D-01 FncErr=1.00D-07 GrdErr=1.00D-07
 Number of steps in this run=      2 maximum allowed number of steps=      2.
 GradGradGradGradGradGradGradGradGradGradGradGradGradGradGradGradGradGrad

                          Input orientation:                          
 ---------------------------------------------------------------------
 Center     Atomic      Atomic             Coordinates (Angstroms)
 Number     Number       Type             X           Y           Z
 ---------------------------------------------------------------------
      1          8           0        7.725000    7.377000   12.353000
      2          6           0        8.175000    7.849000   13.631000
      3          6           0        7.564000    9.142000   14.146000
      4          8           0        7.750000   10.171000   13.164000
      5          1           0        7.580000    9.773000   12.262000
      6          6           0        8.243000    9.656000   15.405000
      7          8           0        7.599000   10.721000   16.120000
      8          1           0        8.129000   11.018000   16.914000
      9          6           0        8.580000    5.347000   14.358000
     10          8           0        8.161000    4.621000   13.193000
     11          1           0        8.384000    3.648000   13.250000
     12          6           0        8.118000    6.758000   14.688000
     13          8           0        8.813000    7.206000   15.861000
     14          6           0        8.263000    8.447000   16.326000
     15          8           0        8.867000    8.803000   17.578000
     16          6           0        8.164000    8.376000   18.754000
     17          6           0        8.597000    7.026000   19.303000
     18          8           0        8.482000    5.924000   18.391000
     19          1           0        8.596000    6.135000   17.420000
     20          6           0        8.096000    6.682000   20.696000
     21          8           0        8.634000    5.431000   21.150000
     22          1           0        8.167000    5.238000   22.013000
     23          6           0        8.115000   10.845000   19.467000
     24          8           0        8.704000   11.536000   18.356000
     25          1           0        8.651000   12.521000   18.521000
     26          6           0        8.433000    9.406000   19.839000
     27          8           0        7.818000    9.089000   21.096000
     28          6           0        8.304000    7.854000   21.642000
     29          8           0        7.562000    7.532000   22.828000
     30          1           0        8.171422    7.337648   23.543843
     31          1           0        9.343103    7.947217   21.879644
     32          1           0        7.038153    6.543710   20.613927
     33          1           0        9.653065    7.137182   19.434397
     34          1           0        7.114746    8.350268   18.545905
     35          1           0        9.488445    9.375179   20.012163
     36          1           0        8.332500   11.432988   20.334101
     37          1           0        7.056205   10.888476   19.318803
     38          1           0        8.484063    7.173380   11.801673
     39          1           0        8.317042    4.740882   15.199650
     40          1           0        9.648768    5.382451   14.320875
     41          1           0        7.087650    6.671445   14.963295
     42          1           0        9.214918    8.063727   13.499236
     43          1           0        6.519278    9.001357   14.329506
     44          1           0        9.247812    9.941932   15.173709
     45          1           0        7.236431    8.238994   16.544607
 ---------------------------------------------------------------------
                    Distance matrix (angstroms):
                    1          2          3          4          5
     1  O    0.000000
     2  C    1.434771   0.000000
     3  C    2.521110   1.519998   0.000000
     4  O    2.909430   2.406325   1.434490   0.000000
     5  H    2.402108   2.435151   1.986926   1.000454   0.000000
     6  C    3.844069   2.533170   1.519973   2.351671   3.214297
     7  O    5.038700   3.843863   2.528071   3.010521   3.972811
     8  H    5.850027   4.563197   3.391228   3.863101   4.846909
     9  C    2.978582   2.636770   3.934365   5.038404   4.998269
    10  O    2.913972   3.257610   4.658762   5.565273   5.267583
    11  H    3.891572   4.223416   5.626655   6.554302   6.256052
    12  C    2.447414   1.520125   2.506818   3.755871   3.907063
    13  O    3.676826   2.406947   2.872163   4.146686   4.589399
    14  C    4.149587   2.761951   2.392494   3.637800   4.329072
    15  O    5.535184   4.119198   3.686645   4.754210   5.554919
    16  C    6.493345   5.150047   4.709609   5.885705   6.666238
    17  C    7.013279   5.746912   5.669144   6.949515   7.626007
    18  O    6.256333   5.143683   5.405393   6.774538   7.293356
    19  H    5.289205   4.179899   4.563568   5.926090   6.393142
    20  C    8.380114   7.161170   7.016917   8.308060   8.997383
    21  O    9.055408   7.911559   7.998277   9.328733   9.947885
    22  H    9.903852   8.779254   8.803097  10.139683  10.769995
    23  C    7.923896   6.560374   5.613987   6.349434   7.303933
    24  O    7.368292   6.016597   4.975433   5.452541   6.442700
    25  H    8.084704   6.779842   5.633812   5.918763   6.919077
    26  C    7.788344   6.405472   5.764990   6.753321   7.633690
    27  O    8.909525   7.575703   6.954842   8.005746   8.863637
    28  C    9.319243   8.012040   7.641764   8.806355   9.601622
    29  O   10.477415   9.222856   8.830019  10.019609  10.801054
    30  H   11.199813   9.926024   9.588749  10.767852  11.556847
    31  H    9.679895   8.331521   8.025084   9.134859   9.946914
    32  H    8.331209   7.194266   6.990115   8.316572   8.970875
    33  H    7.343101   6.030819   6.029148   7.221052   7.917602
    34  H    6.298550   5.052890   4.493087   5.716949   6.459728
    35  H    8.109577   6.691308   6.178166   7.110054   7.991587
    36  H    8.973186   7.602719   6.643178   7.303579   8.275302
    37  H    7.829442   6.545320   5.483240   6.235200   7.163597
    38  H    0.960000   1.974442   3.196538   3.373501   2.790566
    39  H    3.924671   3.484427   4.587710   5.826799   5.873264
    40  H    3.398771   2.954959   4.302447   5.279572   5.272162
    41  H    2.778068   2.084220   2.645472   3.990370   4.142347
    42  H    2.001327   1.070000   2.075213   2.588236   2.669330
    43  H    2.828228   2.134772   1.070000   2.059405   2.448499
    44  H    4.105390   2.812693   2.128685   2.516911   3.359789
    45  H    4.307122   3.085792   2.583802   3.927455   4.562010
                    6          7          8          9         10
     6  C    0.000000
     7  O    1.435335   0.000000
     8  H    2.035957   0.999772   0.000000
     9  C    4.447163   5.739937   6.236728   0.000000
    10  O    5.500081   6.789195   7.400573   1.435222   0.000000
    11  H    6.384354   7.673360   8.234490   2.037813   0.999853
    12  C    2.987996   4.245628   4.806537   1.520942   2.608379
    13  O    2.556430   3.727748   4.013478   2.401912   3.771678
    14  C    1.519974   2.377900   2.640784   3.685582   4.946147
    15  O    2.416384   2.722556   2.427296   4.732304   6.100474
    16  C    3.586146   3.571583   3.219781   5.354691   6.710049
    17  C    4.715572   4.978003   4.675726   5.222294   6.580746
    18  O    4.785514   5.380366   5.315541   4.075245   5.368431
    19  H    4.072134   4.869847   4.931310   3.161810   4.510981
    20  C    6.071323   6.123749   5.753739   6.495131   7.781192
    21  O    7.142026   7.372667   7.029459   6.792734   8.012096
    22  H    7.949224   8.069285   7.707765   7.666908   8.841557
    23  C    4.234377   3.388811   2.558893   7.519715   8.837611
    24  O    3.529210   2.623918   1.636555   7.369064   8.646886
    25  H    4.252546   3.179859   2.261403   8.294690   9.541367
    26  C    4.445105   4.031841   3.353593   6.821910   8.193871
    27  O    5.734945   5.241370   4.615938   7.744924   9.085047
    28  C    6.492387   6.261725   5.691705   7.708299   9.047560
    29  O    7.750875   7.427540   6.888329   8.806330  10.082953
    30  H    8.462899   8.178520   7.582982   9.407940  10.701413
    31  H    6.786103   6.626407   5.963336   7.994910   9.376507
    32  H    6.186350   6.161143   5.907510   6.553322   7.747758
    33  H    4.956689   5.296051   4.871953   5.488718   6.892929
    34  H    3.583738   3.426351   3.287646   5.357717   6.607244
    35  H    4.780790   4.531023   3.761060   7.001504   8.418154
    36  H    5.240394   4.336311   3.451191   8.533129   9.870558
    37  H    4.271456   3.248848   2.636426   7.592066   8.833306
    38  H    4.382406   5.658348   6.406486   3.143195   2.924860
    39  H    4.919963   6.092983   6.509728   1.070000   2.016275
    40  H    4.627606   5.994873   6.386972   1.070000   2.016275
    41  H    3.230712   4.242445   4.876699   2.085101   2.913821
    42  H    2.666813   4.067025   4.644088   2.919110   3.613433
    43  H    2.134588   2.707184   3.652077   4.195439   4.813982
    44  H    1.070000   2.054506   2.332011   4.714314   5.780717
    45  H    2.078410   2.544032   2.942109   3.866531   5.017766
                   11         12         13         14         15
    11  H    0.000000
    12  C    3.436670   0.000000
    13  O    4.434042   1.435151   0.000000
    14  C    5.701475   2.357284   1.434854   0.000000
    15  O    6.748251   3.618719   2.345509   1.434941   0.000000
    16  C    7.259229   4.376345   3.187405   2.431055   1.435101
    17  C    6.935060   4.647525   3.453465   3.315618   2.491235
    18  O    5.623136   3.813169   2.855518   3.267677   3.016262
    19  H    4.859940   2.842611   1.903841   2.579354   2.686378
    20  C    8.045559   6.008521   4.915881   4.715932   3.849027
    21  O    8.102567   6.616995   5.581773   5.701304   4.917709
    22  H    8.908724   7.481205   6.491336   6.530610   5.733101
    23  C    9.514214   6.288276   5.170373   3.954515   2.881595
    24  O    9.401818   6.052017   4.998580   3.722540   2.846251
    25  H   10.323994   6.941768   5.945676   4.643926   3.841800
    26  C    8.750536   5.800339   4.561676   3.645511   2.379934
    27  O    9.564756   6.825396   5.651632   4.833538   3.682190
    28  C    9.387359   7.042296   5.839430   5.349129   4.211136
    29  O   10.368183   8.195597   7.085927   6.603380   5.557065
    30  H   10.937180   8.874954   7.710709   7.303171   6.182425
    31  H    9.688855   7.391540   6.087240   5.679734   4.411710
    32  H    8.026447   6.027321   5.116544   4.848616   4.203085
    33  H    7.213299   5.002848   3.671459   3.648292   2.615159
    34  H    7.195064   4.292466   3.376704   2.501164   2.052364
    35  H    8.930131   6.088880   4.732201   3.993874   2.576574
    36  H   10.525834   7.333483   6.173082   4.998582   3.846897
    37  H    9.540330   6.295441   5.348211   4.046483   3.264749
    38  H    3.812606   2.938950   4.072764   4.705371   6.014005
    39  H    2.236070   2.090494   2.600032   3.873873   4.739178
    40  H    2.398902   2.090494   2.528997   3.915653   4.787502
    41  H    3.709060   1.070000   2.017041   2.528044   3.813960
    42  H    4.500133   2.078777   2.544634   3.007265   4.159794
    43  H    5.770697   2.777963   3.290888   2.708112   4.012962
    44  H    6.637801   3.413182   2.854252   2.128956   2.687527
    45  H    5.766158   2.533278   2.004985   1.070000   2.011159
                   16         17         18         19         20
    16  C    0.000000
    17  C    1.520326   0.000000
    18  O    2.499039   1.435052   0.000000
    19  H    2.643532   2.083164   1.000179   0.000000
    20  C    2.577911   1.519798   2.456946   3.358777   0.000000
    21  O    3.825538   2.440656   2.806819   3.796045   1.435465
    22  H    4.524172   3.275049   3.699825   4.699393   1.955675
    23  C    2.570356   3.852789   5.050614   5.158068   4.340665
    24  O    3.230419   4.609594   5.616498   5.482569   5.422783
    25  H    4.180010   5.550627   6.600445   6.480449   6.255603
    26  C    1.520028   2.445116   3.771396   4.071556   2.875447
    27  O    2.472458   2.842122   4.216058   4.779579   2.455796
    28  C    2.938133   2.498470   3.784915   4.567878   1.520449
    29  O    4.203833   3.708488   4.808226   5.680425   2.356497
    30  H    4.901105   4.273522   5.352257   6.255245   2.923316
    31  H    3.368055   2.836266   4.123778   4.871419   2.134726
    32  H    2.843263   2.093116   2.722157   3.577024   1.070000
    33  H    2.053028   1.070000   1.982897   2.485870   2.055063
    34  H    1.070000   2.126960   2.789293   2.892955   2.892903
    35  H    2.082184   2.610791   3.943569   4.244353   3.108014
    36  H    3.445328   4.533726   5.843538   6.052280   4.770617
    37  H    2.803346   4.158488   5.247831   5.345274   4.546678
    38  H    7.062832   7.503625   6.706727   5.714575   8.916339
    39  H    5.086345   4.705064   3.407594   2.636539   5.833238
    40  H    5.551438   5.350611   4.268552   3.358456   6.688956
    41  H    4.293423   4.608350   3.775189   2.932285   5.820721
    42  H    5.367913   5.928100   5.389337   4.413098   7.413134
    43  H    4.761547   5.740610   5.460599   4.698929   6.956847
    44  H    4.055278   5.096790   5.203961   4.468044   6.515330
    45  H    2.400120   3.306242   3.212446   2.653589   4.516321
                   21         22         23         24         25
    21  O    0.000000
    22  H    1.000053   0.000000
    23  C    5.693263   6.158187   0.000000
    24  O    6.714340   7.302522   1.434825   0.000000
    25  H    7.561748   8.091379   1.997796   1.000129   0.000000
    26  C    4.190435   4.708424   1.519944   2.609527   3.389376
    27  O    3.748298   3.974027   2.413584   3.778942   4.370714
    28  C    2.494372   2.645726   3.703029   4.951254   5.625117
    29  O    2.894662   2.508523   4.751642   6.110234   6.680291
    30  H    3.095121   2.598465   5.378230   6.695037   7.233678
    31  H    2.714140   2.956494   3.965632   5.069900   5.716554
    32  H    2.017975   2.221841   4.579971   5.726800   6.535259
    33  H    2.625423   3.530506   4.014302   4.627447   5.551930
    34  H    4.196615   4.776422   2.841234   3.565204   4.444738
    35  H    4.193006   4.781821   2.084209   2.833263   3.580652
    36  H    6.064689   6.420589   1.070000   2.015318   2.138351
    37  H    5.968816   6.357707   1.070000   2.015318   2.417643
    38  H    9.510499  10.397953   8.507305   7.876550   8.589195
    39  H    5.998616   6.833109   7.450594   7.502394   8.465998
    40  H    6.904278   7.834876   7.659927   7.418961   8.342390
    41  H    6.496555   7.274483   6.225541   6.147107   7.022722
    42  H    8.111899   9.031447   6.675290   5.992151   6.738204
    43  H    7.983648   8.712860   5.686756   5.235464   5.873734
    44  H    7.512745   8.370845   4.531131   3.600523   4.267568
    45  H    5.572045   6.306763   4.012921   4.037964   4.923689
                   26         27         28         29         30
    26  C    0.000000
    27  O    1.434839   0.000000
    28  C    2.382468   1.435109   0.000000
    29  O    3.633819   2.342991   1.435564   0.000000
    30  H    4.251161   3.030525   1.975147   0.960000   0.000000
    31  H    2.668439   2.060026   1.070000   2.060124   2.124610
    32  H    3.277013   2.705376   2.091928   2.480575   3.240224
    33  H    2.607642   3.152456   2.684644   4.005618   4.372985
    34  H    2.127077   2.746503   3.353567   4.382458   5.207817
    35  H    1.070000   2.011712   2.524532   3.877813   4.284722
    36  H    2.088996   2.517832   3.810586   4.693710   5.205786
    37  H    2.088996   2.641377   4.020234   4.882235   5.630547
    38  H    8.341812   9.513031   9.865481  11.070624  11.747481
    39  H    6.580300   7.343168   7.155107   8.157950   8.740135
    40  H    6.936623   7.936784   7.843202   9.019220   9.542981
    41  H    5.749805   6.632349   6.890794   7.925853   8.674342
    42  H    6.527304   7.791879   8.196241   9.488978  10.124733
    43  H    5.846417   6.890559   7.614081   8.687386   9.507972
    44  H    4.766140   6.151861   6.862145   8.199873   8.831765
    45  H    3.694145   4.666467   5.222197   6.331419   7.118704
                   31         32         33         34         35
    31  H    0.000000
    32  H    2.980716   0.000000
    33  H    2.594507   2.929379   0.000000
    34  H    4.030118   2.747041   2.950265   0.000000
    35  H    2.355353   3.792528   2.317228   2.972340   0.000000
    36  H    3.944696   5.065440   4.583373   3.766129   2.382106
    37  H    4.520931   4.533725   4.563907   2.653921   2.947305
    38  H   10.144077   8.952260   7.721811   6.981745   8.559723
    39  H    7.480355   5.848088   5.045820   5.066617   6.783007
    40  H    7.987894   6.911319   5.406219   5.751529   6.954016
    41  H    7.385835   5.652292   5.175811   3.956548   6.210078
    42  H    8.382198   7.593917   6.023005   5.473728   6.649281
    43  H    8.129563   6.767806   6.273411   4.307728   6.422484
    44  H    6.996967   6.784282   5.117062   4.295937   4.877475
    45  H    5.743329   4.412785   3.924921   2.008080   4.287941
                   36         37         38         39         40
    36  H    0.000000
    37  H    1.719376   0.000000
    38  H    9.537797   8.505761   0.000000
    39  H    8.434874   7.506666   4.182247   0.000000
    40  H    8.631364   7.875086   3.303081   1.719695   0.000000
    41  H    7.284744   6.062573   3.492530   2.300944   2.938288
    42  H    7.671112   6.819575   2.051485   3.839126   2.837703
    43  H    6.727241   5.361212   3.686709   4.705396   4.784377
    44  H    5.448917   4.783398   4.429314   5.283742   4.655852
    45  H    5.075749   3.840364   5.018719   3.900438   4.350195
                   41         42         43         44         45
    41  H    0.000000
    42  H    2.933801   0.000000
    43  H    2.480569   2.972369   0.000000
    44  H    3.925131   2.516464   3.007035   0.000000
    45  H    2.231567   3.635851   2.449934   2.970692   0.000000
 Stoichiometry    C12H22O11
 Framework group  C1[X(C12H22O11)]
 Deg. of freedom   129
 Full point group                 C1      NOp   1
 Largest Abelian subgroup         C1      NOp   1
 Largest concise Abelian subgroup C1      NOp   1
                         Standard orientation:                         
 ---------------------------------------------------------------------
 Center     Atomic      Atomic             Coordinates (Angstroms)
 Number     Number       Type             X           Y           Z
 ---------------------------------------------------------------------
      1          8           0        4.994365   -0.386258   -0.419033
      2          6           0        3.683978   -0.011318    0.029157
      3          6           0        3.107614    1.282754   -0.521820
      4          8           0        4.026452    2.352854   -0.260319
      5          1           0        4.952367    2.015443   -0.432784
      6          6           0        1.809772    1.688032    0.157646
      7          8           0        1.047227    2.745522   -0.442710
      8          1           0        0.228466    2.968443    0.085951
      9          6           0        3.092486   -2.568263    0.283576
     10          8           0        4.303877   -3.204399   -0.149697
     11          1           0        4.298020   -4.189847    0.019314
     12          6           0        2.691495   -1.154480   -0.108455
     13          8           0        1.482948   -0.811110    0.585210
     14          6           0        0.958357    0.430541    0.093365
     15          8           0       -0.322243    0.682812    0.689587
     16          6           0       -1.459620    0.230532   -0.059632
     17          6           0       -1.939021   -1.169597    0.288513
     18          8           0       -0.964313   -2.211327    0.133225
     19          1           0       -0.008956   -1.953381    0.278535
     20          6           0       -3.301280   -1.562270   -0.259069
     21          8           0       -3.693299   -2.864203    0.201205
     22          1           0       -4.535622   -3.078810   -0.293308
     23          6           0       -2.310030    2.655140    0.009724
     24          8           0       -1.250442    3.373275    0.658012
     25          1           0       -1.469880    4.349029    0.654761
     26          6           0       -2.605679    1.182421    0.241933
     27          8           0       -3.831687    0.830475   -0.415184
     28          6           0       -4.315529   -0.457751   -0.007868
     29          8           0       -5.468133   -0.803764   -0.790570
     30          1           0       -6.182512   -1.070724   -0.207479
     31          1           0       -4.576395   -0.435117    1.029598
     32          1           0       -3.192834   -1.637439   -1.320902
     33          1           0       -2.095141   -1.124091    1.346083
     34          1           0       -1.231886    0.274095   -1.104208
     35          1           0       -2.795457    1.084075    1.290366
     36          1           0       -3.212683    3.181283    0.240572
     37          1           0       -2.145831    2.764902   -1.041890
     38          1           0        5.542812   -0.600401    0.339220
     39          1           0        2.291214   -3.204758   -0.029056
     40          1           0        3.108647   -2.589609    1.353241
     41          1           0        2.439790   -1.199404   -1.147458
     42          1           0        3.784991    0.152900    1.081644
     43          1           0        2.950848    1.189787   -1.576183
     44          1           0        2.006735    1.930688    1.180985
     45          1           0        0.770038    0.267474   -0.947233
 ---------------------------------------------------------------------
 Rotational constants (GHZ):      0.3926811      0.1489200      0.1111669
 Standard basis: 6-31+G(2d,p) (6D, 7F)
 There are   685 symmetry adapted basis functions of A   symmetry.
 Integral buffers will be    131072 words long.
 Raffenetti 2 integral format.
 Two-electron integral symmetry is turned on.
   685 basis functions,  1028 primitive gaussians,   685 cartesian basis functions
    91 alpha electrons       91 beta electrons
       nuclear repulsion energy      2286.6011569319 Hartrees.
 NAtoms=   45 NActive=   45 NUniq=   45 SFac= 1.00D+00 NAtFMM=   50 NAOKFM=F Big=F
 One-electron integrals computed using PRISM.
 NBasis=   685 RedAO= T  NBF=   685
 NBsUse=   685 1.00D-06 NBFU=   685
 Harris functional with IExCor=  402 diagonalized for initial guess.
 ExpMin= 4.38D-02 ExpMax= 5.48D+03 ExpMxC= 8.25D+02 IAcc=2 IRadAn=         0 AccDes= 0.00D+00
 HarFok:  IExCor=  402 AccDes= 0.00D+00 IRadAn=         0 IDoV= 1
 ScaDFX=  1.000000  1.000000  1.000000  1.000000
 FoFCou: FMM=F IPFlag=           0 FMFlag=      100000 FMFlg1=           0
         NFxFlg=           0 DoJE=T BraDBF=F KetDBF=T FulRan=T
         Omega=  0.000000  0.000000  1.000000  0.000000  0.000000 ICntrl=     500 IOpCl=  0
         NMat0=    1 NMatS0=    1 NMatT0=    0 NMatD0=    1 NMtDS0=    0 NMtDT0=    0
         I1Cent=           4 NGrid=           0.
 Petite list used in FoFCou.
 Initial guess orbital symmetries:
       Occupied  (A) (A) (A) (A) (A) (A) (A) (A) (A) (A) (A) (A)
                 (A) (A) (A) (A) (A) (A) (A) (A) (A) (A) (A) (A)
                 (A) (A) (A) (A) (A) (A) (A) (A) (A) (A) (A) (A)
                 (A) (A) (A) (A) (A) (A) (A) (A) (A) (A) (A) (A)
                 (A) (A) (A) (A) (A) (A) (A) (A) (A) (A) (A) (A)
                 (A) (A) (A) (A) (A) (A) (A) (A) (A) (A) (A) (A)
                 (A) (A) (A) (A) (A) (A) (A) (A) (A) (A) (A) (A)
                 (A) (A) (A) (A) (A) (A) (A)
       Virtual   (A) (A) (A) (A) (A) (A) (A) (A) (A) (A) (A) (A)
                 (A) (A) (A) (A) (A) (A) (A) (A) (A) (A) (A) (A)
                 (A) (A) (A) (A) (A) (A) (A) (A) (A) (A) (A) (A)
                 (A) (A) (A) (A) (A) (A) (A) (A) (A) (A) (A) (A)
                 (A) (A) (A) (A) (A) (A) (A) (A) (A) (A) (A) (A)
                 (A) (A) (A) (A) (A) (A) (A) (A) (A) (A) (A) (A)
                 (A) (A) (A) (A) (A) (A) (A) (A) (A) (A) (A) (A)
                 (A) (A) (A) (A) (A) (A) (A) (A) (A) (A) (A) (A)
                 (A) (A) (A) (A) (A) (A) (A) (A) (A) (A) (A) (A)
                 (A) (A) (A) (A) (A) (A) (A) (A) (A) (A) (A) (A)
                 (A) (A) (A) (A) (A) (A) (A) (A) (A) (A) (A) (A)
                 (A) (A) (A) (A) (A) (A) (A) (A) (A) (A) (A) (A)
                 (A) (A) (A) (A) (A) (A) (A) (A) (A) (A) (A) (A)
                 (A) (A) (A) (A) (A) (A) (A) (A) (A) (A) (A) (A)
                 (A) (A) (A) (A) (A) (A) (A) (A) (A) (A) (A) (A)
                 (A) (A) (A) (A) (A) (A) (A) (A) (A) (A) (A) (A)
                 (A) (A) (A) (A) (A) (A) (A) (A) (A) (A) (A) (A)
                 (A) (A) (A) (A) (A) (A) (A) (A) (A) (A) (A) (A)
                 (A) (A) (A) (A) (A) (A) (A) (A) (A) (A) (A) (A)
                 (A) (A) (A) (A) (A) (A) (A) (A) (A) (A) (A) (A)
                 (A) (A) (A) (A) (A) (A) (A) (A) (A) (A) (A) (A)
                 (A) (A) (A) (A) (A) (A) (A) (A) (A) (A) (A) (A)
                 (A) (A) (A) (A) (A) (A) (A) (A) (A) (A) (A) (A)
                 (A) (A) (A) (A) (A) (A) (A) (A) (A) (A) (A) (A)
                 (A) (A) (A) (A) (A) (A) (A) (A) (A) (A) (A) (A)
                 (A) (A) (A) (A) (A) (A) (A) (A) (A) (A) (A) (A)
                 (A) (A) (A) (A) (A) (A) (A) (A) (A) (A) (A) (A)
                 (A) (A) (A) (A) (A) (A) (A) (A) (A) (A) (A) (A)
                 (A) (A) (A) (A) (A) (A) (A) (A) (A) (A) (A) (A)
                 (A) (A) (A) (A) (A) (A) (A) (A) (A) (A) (A) (A)
                 (A) (A) (A) (A) (A) (A) (A) (A) (A) (A) (A) (A)
                 (A) (A) (A) (A) (A) (A) (A) (A) (A) (A) (A) (A)
                 (A) (A) (A) (A) (A) (A) (A) (A) (A) (A) (A) (A)
                 (A) (A) (A) (A) (A) (A) (A) (A) (A) (A) (A) (A)
                 (A) (A) (A) (A) (A) (A) (A) (A) (A) (A) (A) (A)
                 (A) (A) (A) (A) (A) (A) (A) (A) (A) (A) (A) (A)
                 (A) (A) (A) (A) (A) (A) (A) (A) (A) (A) (A) (A)
                 (A) (A) (A) (A) (A) (A) (A) (A) (A) (A) (A) (A)
                 (A) (A) (A) (A) (A) (A) (A) (A) (A) (A) (A) (A)
                 (A) (A) (A) (A) (A) (A) (A) (A) (A) (A) (A) (A)
                 (A) (A) (A) (A) (A) (A) (A) (A) (A) (A) (A) (A)
                 (A) (A) (A) (A) (A) (A) (A) (A) (A) (A) (A) (A)
                 (A) (A) (A) (A) (A) (A) (A) (A) (A) (A) (A) (A)
                 (A) (A) (A) (A) (A) (A) (A) (A) (A) (A) (A) (A)
                 (A) (A) (A) (A) (A) (A) (A) (A) (A) (A) (A) (A)
                 (A) (A) (A) (A) (A) (A) (A) (A) (A) (A) (A) (A)
                 (A) (A) (A) (A) (A) (A) (A) (A) (A) (A) (A) (A)
                 (A) (A) (A) (A) (A) (A) (A) (A) (A) (A) (A) (A)
                 (A) (A) (A) (A) (A) (A) (A) (A) (A) (A) (A) (A)
                 (A) (A) (A) (A) (A) (A)
 The electronic state of the initial guess is 1-A.
 Requested convergence on RMS density matrix=1.00D-08 within 128 cycles.
 Requested convergence on MAX density matrix=1.00D-06.
 Requested convergence on             energy=1.00D-06.
 No special actions if energy rises.
 SCF Done:  E(RB3LYP) =  -1297.96977995     A.U. after   13 cycles
             Convg  =    0.5005D-08             -V/T =  2.0065
 Range of M.O.s used for correlation:     1   685
 NBasis=   685 NAE=    91 NBE=    91 NFC=     0 NFV=     0
 NROrb=    685 NOA=    91 NOB=    91 NVA=   594 NVB=   594

 **** Warning!!: The largest alpha MO coefficient is  0.70621084D+02

          Differentiating once with respect to electric field.
                with respect to dipole field.
          Electric field/nuclear overlap derivatives assumed to be zero.
          There are     3 degrees of freedom in the 1st order CPHF.  IDoFFX=0.
      3 vectors produced by pass  0 Test12= 1.80D-12 3.33D-08 XBig12= 1.22D+02 1.41D+00.
 AX will form     3 AO Fock derivatives at one time.
      3 vectors produced by pass  1 Test12= 1.80D-12 3.33D-08 XBig12= 2.43D+01 4.96D-01.
      3 vectors produced by pass  2 Test12= 1.80D-12 3.33D-08 XBig12= 1.01D+01 2.32D-01.
      3 vectors produced by pass  3 Test12= 1.80D-12 3.33D-08 XBig12= 1.02D+00 1.05D-01.
      3 vectors produced by pass  4 Test12= 1.80D-12 3.33D-08 XBig12= 2.44D-01 3.71D-02.
      3 vectors produced by pass  5 Test12= 1.80D-12 3.33D-08 XBig12= 6.30D-02 2.38D-02.
      3 vectors produced by pass  6 Test12= 1.80D-12 3.33D-08 XBig12= 1.98D-02 1.44D-02.
      3 vectors produced by pass  7 Test12= 1.80D-12 3.33D-08 XBig12= 3.28D-03 8.53D-03.
      3 vectors produced by pass  8 Test12= 1.80D-12 3.33D-08 XBig12= 4.52D-04 2.15D-03.
      3 vectors produced by pass  9 Test12= 1.80D-12 3.33D-08 XBig12= 1.35D-04 1.38D-03.
      3 vectors produced by pass 10 Test12= 1.80D-12 3.33D-08 XBig12= 3.05D-05 5.60D-04.
      3 vectors produced by pass 11 Test12= 1.80D-12 3.33D-08 XBig12= 9.21D-06 3.59D-04.
      3 vectors produced by pass 12 Test12= 1.80D-12 3.33D-08 XBig12= 1.13D-06 1.22D-04.
      3 vectors produced by pass 13 Test12= 1.80D-12 3.33D-08 XBig12= 2.27D-07 3.72D-05.
      3 vectors produced by pass 14 Test12= 1.80D-12 3.33D-08 XBig12= 3.84D-08 2.32D-05.
      3 vectors produced by pass 15 Test12= 1.80D-12 3.33D-08 XBig12= 6.84D-09 9.62D-06.
      3 vectors produced by pass 16 Test12= 1.80D-12 3.33D-08 XBig12= 1.15D-09 2.52D-06.
      3 vectors produced by pass 17 Test12= 1.80D-12 3.33D-08 XBig12= 1.20D-10 9.38D-07.
      3 vectors produced by pass 18 Test12= 1.80D-12 3.33D-08 XBig12= 2.73D-11 2.89D-07.
      3 vectors produced by pass 19 Test12= 1.80D-12 3.33D-08 XBig12= 1.09D-11 1.95D-07.
      3 vectors produced by pass 20 Test12= 1.80D-12 3.33D-08 XBig12= 5.76D-12 1.86D-07.
      2 vectors produced by pass 21 Test12= 1.80D-12 3.33D-08 XBig12= 1.55D-12 7.47D-08.
      2 vectors produced by pass 22 Test12= 1.80D-12 3.33D-08 XBig12= 3.97D-13 3.99D-08.
 Inverted reduced A of dimension    67 with in-core refinement.
 End of Minotr Frequency-dependent properties file   721 does not exist.
 End of Minotr Frequency-dependent properties file   722 does not exist.
 Symmetrizing basis deriv contribution to polar:
 IMax=3 JMax=2 DiffMx= 0.00D+00
 G2DrvN: will do    16 centers at a time, making    3 passes doing MaxLOS=2.
 Calling FoFCou, ICntrl=  3107 FMM=F I1Cent=   0 AccDes= 0.00D+00.
 Calling FoFCou, ICntrl=  3107 FMM=F I1Cent=   0 AccDes= 0.00D+00.
 Calling FoFCou, ICntrl=  3107 FMM=F I1Cent=   0 AccDes= 0.00D+00.
 FoFDir/FoFCou used for L=0 through L=2.
 End of G2Drv Frequency-dependent properties file   721 does not exist.
 End of G2Drv Frequency-dependent properties file   722 does not exist.
          IDoAtm=111111111111111111111111111111111111111111111
          Differentiating once with respect to electric field.
                with respect to dipole field.
          Differentiating once with respect to nuclear coordinates.
          There are   138 degrees of freedom in the 1st order CPHF.  IDoFFX=5.
 Will reuse    3 saved solutions.
    135 vectors produced by pass  0 Test12= 5.41D-14 1.00D-09 XBig12= 1.58D-01 6.91D-02.
 AX will form    45 AO Fock derivatives at one time.
    135 vectors produced by pass  1 Test12= 5.41D-14 1.00D-09 XBig12= 1.91D-02 1.06D-02.
    132 vectors produced by pass  2 Test12= 5.41D-14 1.00D-09 XBig12= 1.11D-04 1.45D-03.
    132 vectors produced by pass  3 Test12= 5.41D-14 1.00D-09 XBig12= 5.06D-07 5.74D-05.
    132 vectors produced by pass  4 Test12= 5.41D-14 1.00D-09 XBig12= 1.00D-09 1.82D-06.
