Gaussian '09 started on node015 at Mon Feb 29 14:22:25 EST 2016.
 Entering Gaussian System, Link 0=/usr/local/gaussian/g09/g09
 Initial command:
 /usr/local/gaussian/g09/l1.exe /home/srmcgrat/thesis/gaussian/cellobiose/300/7000/2/gdp/gaussian9208/Gau-9244.inp -scrdir=/home/srmcgrat/thesis/gaussian/cellobiose/300/7000/2/gdp/gaussian9208/
 Entering Link 1 = /usr/local/gaussian/g09/l1.exe PID=      9246.
  
 Copyright (c) 1988,1990,1992,1993,1995,1998,2003,2009,2010,
            Gaussian, Inc.  All Rights Reserved.
  
 This is part of the Gaussian(R) 09 program.  It is based on
 the Gaussian(R) 03 system (copyright 2003, Gaussian, Inc.),
 the Gaussian(R) 98 system (copyright 1998, Gaussian, Inc.),
 the Gaussian(R) 94 system (copyright 1995, Gaussian, Inc.),
 the Gaussian 92(TM) system (copyright 1992, Gaussian, Inc.),
 the Gaussian 90(TM) system (copyright 1990, Gaussian, Inc.),
 the Gaussian 88(TM) system (copyright 1988, Gaussian, Inc.),
 the Gaussian 86(TM) system (copyright 1986, Carnegie Mellon
 University), and the Gaussian 82(TM) system (copyright 1983,
 Carnegie Mellon University). Gaussian is a federally registered
 trademark of Gaussian, Inc.
  
 This software contains proprietary and confidential information,
 including trade secrets, belonging to Gaussian, Inc.
  
 This software is provided under written license and may be
 used, copied, transmitted, or stored only in accord with that
 written license.
  
 The following legend is applicable only to US Government
 contracts under FAR:
  
                    RESTRICTED RIGHTS LEGEND
  
 Use, reproduction and disclosure by the US Government is
 subject to restrictions as set forth in subparagraphs (a)
 and (c) of the Commercial Computer Software - Restricted
 Rights clause in FAR 52.227-19.
  
 Gaussian, Inc.
 340 Quinnipiac St., Bldg. 40, Wallingford CT 06492
  
  
 ---------------------------------------------------------------
 Warning -- This program may not be used in any manner that
 competes with the business of Gaussian, Inc. or will provide
 assistance to any competitor of Gaussian, Inc.  The licensee
 of this program is prohibited from giving any competitor of
 Gaussian, Inc. access to this program.  By using this program,
 the user acknowledges that Gaussian, Inc. is engaged in the
 business of creating and licensing software in the field of
 computational chemistry and represents and warrants to the
 licensee that it is not a competitor of Gaussian, Inc. and that
 it will not use this program in any manner prohibited above.
 ---------------------------------------------------------------
  

 Cite this work as:
 Gaussian 09, Revision B.01,
 M. J. Frisch, G. W. Trucks, H. B. Schlegel, G. E. Scuseria, 
 M. A. Robb, J. R. Cheeseman, G. Scalmani, V. Barone, B. Mennucci, 
 G. A. Petersson, H. Nakatsuji, M. Caricato, X. Li, H. P. Hratchian, 
 A. F. Izmaylov, J. Bloino, G. Zheng, J. L. Sonnenberg, M. Hada, 
 M. Ehara, K. Toyota, R. Fukuda, J. Hasegawa, M. Ishida, T. Nakajima, 
 Y. Honda, O. Kitao, H. Nakai, T. Vreven, J. A. Montgomery, Jr., 
 J. E. Peralta, F. Ogliaro, M. Bearpark, J. J. Heyd, E. Brothers, 
 K. N. Kudin, V. N. Staroverov, T. Keith, R. Kobayashi, J. Normand, 
 K. Raghavachari, A. Rendell, J. C. Burant, S. S. Iyengar, J. Tomasi, 
 M. Cossi, N. Rega, J. M. Millam, M. Klene, J. E. Knox, J. B. Cross, 
 V. Bakken, C. Adamo, J. Jaramillo, R. Gomperts, R. E. Stratmann, 
 O. Yazyev, A. J. Austin, R. Cammi, C. Pomelli, J. W. Ochterski, 
 R. L. Martin, K. Morokuma, V. G. Zakrzewski, G. A. Voth, 
 P. Salvador, J. J. Dannenberg, S. Dapprich, A. D. Daniels, 
 O. Farkas, J. B. Foresman, J. V. Ortiz, J. Cioslowski, 
 and D. J. Fox, Gaussian, Inc., Wallingford CT, 2010.
 
 ******************************************
 Gaussian 09:  EM64L-G09RevB.01 12-Aug-2010
                29-Feb-2016 
 ******************************************
 ------------------------------------------------
 # freq=raman b3lyp/6-31+g(d,p) geom=connectivity
 ------------------------------------------------
 1/10=4,30=1,38=1,57=2/1,3;
 2/12=2,17=6,18=5,40=1/2;
 3/5=1,6=6,7=111,11=2,16=1,25=1,30=1,71=2,74=-5/1,2,3;
 4//1;
 5/5=2,38=5,98=1/2;
 8/6=4,10=90,11=11/1;
 10/13=10,15=4/2;
 11/6=3,8=1,9=11,15=111,16=1/1,2,10;
 10/6=1/2;
 6/7=2,8=2,9=2,10=2,18=1,28=1/1;
 7/8=1,10=1,25=1/1,2,3,16;
 1/10=4,30=1/3;
 99//99;
 ------------
 300 7000.com
 ------------
 Symbolic Z-matrix:
 Charge =  0 Multiplicity = 1
 O                     7.815     7.737     22.672 
 C                     8.478     7.938     23.928 
 C                     8.069     9.273     24.529 
 O                     8.383     10.367    23.654 
 H                     7.952     10.014    22.824 
 C                     8.633     9.603     25.901 
 O                     8.368     10.906    26.44 
 H                     8.588     10.963    27.414 
 C                     8.291     5.565     24.603 
 O                     7.604     4.836     23.576 
 H                     7.816     3.863     23.667 
 C                     7.98      6.996     25.011 
 O                     8.481     7.207     26.339 
 C                     8.167     8.511     26.851 
 O                     8.88      8.614     28.092 
 C                     8.269     8.3       29.352 
 C                     8.894     6.999     29.829 
 O                     8.743     5.965     28.846 
 H                     8.931     6.287     27.918 
 C                     8.331     6.581     31.177 
 O                     8.962     5.439     31.776 
 H                     8.507     5.389     32.665 
 C                     7.875     10.723    29.965 
 O                     8.517     11.421    28.887 
 H                     8.106     12.324    29.012 
 C                     8.496     9.399     30.379 
 O                     7.831     8.925     31.559 
 C                     8.443     7.759     32.131 
 O                     7.635     7.516     33.292 
 H                     8.20288   7.35743   34.04961 
 H                     9.46119   7.94797   32.40021 
 H                     7.2932    6.35535   31.04677 
 H                     9.94214   7.17212   29.95681 
 H                     7.21789   8.15792   29.21097 
 H                     9.54223   9.52129   30.56701 
 H                     7.86974   11.3672   30.81933 
 H                     6.86015   10.53773   29.68099 
 H                     8.4697    7.62605   21.97871 
 H                     8.19948   4.97802   25.49293 
 H                     9.32569   5.55418   24.33059 
 H                     6.91539   7.09458   25.05319 
 H                     9.54073   7.87442   23.82098 
 H                     7.00403   9.25047   24.63018 
 H                     9.69667   9.51553   25.8245 
 H                     7.11431   8.59577   27.02293 
 

 GradGradGradGradGradGradGradGradGradGradGradGradGradGradGradGradGradGrad
 Berny optimization.
 Initialization pass.
 Trust Radius=3.00D-01 FncErr=1.00D-07 GrdErr=1.00D-07
 Number of steps in this run=      2 maximum allowed number of steps=      2.
 GradGradGradGradGradGradGradGradGradGradGradGradGradGradGradGradGradGrad

                          Input orientation:                          
 ---------------------------------------------------------------------
 Center     Atomic      Atomic             Coordinates (Angstroms)
 Number     Number       Type             X           Y           Z
 ---------------------------------------------------------------------
      1          8           0        7.815000    7.737000   22.672000
      2          6           0        8.478000    7.938000   23.928000
      3          6           0        8.069000    9.273000   24.529000
      4          8           0        8.383000   10.367000   23.654000
      5          1           0        7.952000   10.014000   22.824000
      6          6           0        8.633000    9.603000   25.901000
      7          8           0        8.368000   10.906000   26.440000
      8          1           0        8.588000   10.963000   27.414000
      9          6           0        8.291000    5.565000   24.603000
     10          8           0        7.604000    4.836000   23.576000
     11          1           0        7.816000    3.863000   23.667000
     12          6           0        7.980000    6.996000   25.011000
     13          8           0        8.481000    7.207000   26.339000
     14          6           0        8.167000    8.511000   26.851000
     15          8           0        8.880000    8.614000   28.092000
     16          6           0        8.269000    8.300000   29.352000
     17          6           0        8.894000    6.999000   29.829000
     18          8           0        8.743000    5.965000   28.846000
     19          1           0        8.931000    6.287000   27.918000
     20          6           0        8.331000    6.581000   31.177000
     21          8           0        8.962000    5.439000   31.776000
     22          1           0        8.507000    5.389000   32.665000
     23          6           0        7.875000   10.723000   29.965000
     24          8           0        8.517000   11.421000   28.887000
     25          1           0        8.106000   12.324000   29.012000
     26          6           0        8.496000    9.399000   30.379000
     27          8           0        7.831000    8.925000   31.559000
     28          6           0        8.443000    7.759000   32.131000
     29          8           0        7.635000    7.516000   33.292000
     30          1           0        8.202879    7.357431   34.049607
     31          1           0        9.461192    7.947972   32.400211
     32          1           0        7.293203    6.355350   31.046771
     33          1           0        9.942139    7.172115   29.956815
     34          1           0        7.217893    8.157923   29.210975
     35          1           0        9.542230    9.521290   30.567009
     36          1           0        7.869738   11.367200   30.819329
     37          1           0        6.860153   10.537727   29.680993
     38          1           0        8.469703    7.626051   21.978707
     39          1           0        8.199480    4.978020   25.492932
     40          1           0        9.325686    5.554180   24.330590
     41          1           0        6.915387    7.094579   25.053193
     42          1           0        9.540735    7.874422   23.820981
     43          1           0        7.004033    9.250470   24.630178
     44          1           0        9.696671    9.515529   25.824499
     45          1           0        7.114311    8.595766   27.022931
 ---------------------------------------------------------------------
                    Distance matrix (angstroms):
                    1          2          3          4          5
     1  O    0.000000
     2  C    1.434401   0.000000
     3  C    2.423275   1.520101   0.000000
     4  O    2.864236   2.446251   1.435638   0.000000
     5  H    2.286176   2.409412   1.862739   0.999635   0.000000
     6  C    3.818052   2.586306   1.519664   2.386463   3.178146
     7  O    4.954412   3.889893   2.531405   2.837700   3.747556
     8  H    5.787156   4.616809   3.383591   3.812459   4.730031
     9  C    2.944982   2.474212   3.715377   4.895740   4.803474
    10  O    3.045905   3.241941   4.561952   5.586133   5.243881
    11  H    3.999738   4.136664   5.484082   6.528681   6.209988
    12  C    2.459111   1.519295   2.329157   3.656159   3.727208
    13  O    3.764485   2.519383   2.777445   4.147822   4.529273
    14  C    4.264624   2.994825   2.445799   3.702999   4.303715
    15  O    5.592831   4.237626   3.713081   4.797485   5.529286
    16  C    6.719039   5.440083   4.924232   6.062400   6.756705
    17  C    7.275406   5.989706   5.825951   7.052317   7.684245
    18  O    6.489949   5.305627   5.480295   6.816456   7.299628
    19  H    5.555940   4.341786   4.598322   5.926922   6.387316
    20  C    8.598699   7.376385   7.177145   8.422115   9.038901
    21  O    9.459346   8.250476   8.247182   9.517737  10.103912
    22  H   10.288441   9.101286   9.026173  10.295338  10.887788
    23  C    7.880840   6.675717   5.629408   6.341413   7.176524
    24  O    7.258849   6.060074   4.879218   5.339772   6.249707
    25  H    7.830763   6.724763   5.422846   5.710932   6.606902
    26  C    7.913523   6.614397   5.866916   6.795250   7.599486
    27  O    8.966068   7.721719   7.042631   8.054383   8.803453
    28  C    9.479850   8.205027   7.760314   8.869318   9.588866
    29  O   10.623824   9.411335   8.947937  10.078628  10.766593
    30  H   11.390543  10.141976   9.712327  10.823983  11.538395
    31  H    9.868766   8.529075   8.102460   9.138403   9.912111
    32  H    8.504000   7.388195   7.183027   8.481394   9.024062
    33  H    7.610016   6.251151   6.114208   7.236275   7.931835
    34  H    6.579658   5.435629   4.887604   6.092410   6.691590
    35  H    8.276363   6.907665   6.220097   7.060363   7.919961
    36  H    8.919659   7.721387   6.632769   7.252984   8.109452
    37  H    7.608008   6.517126   5.440945   6.218750   6.963101
    38  H    0.960000   1.974113   3.062188   3.213553   2.585505
    39  H    3.964524   3.359772   4.403754   5.697057   5.704870
    40  H    3.130144   2.561884   3.930426   4.950724   4.903756
    41  H    2.625279   2.102185   2.520143   3.849723   3.816659
    42  H    2.077788   1.070000   2.150189   2.753394   2.845320
    43  H    2.604365   2.094805   1.070000   2.025121   2.178050
    44  H    4.079474   2.751448   2.094386   2.676154   3.506472
    45  H    4.489883   3.445418   2.754954   4.012050   4.510447
                    6          7          8          9         10
     6  C    0.000000
     7  O    1.434767   0.000000
     8  H    2.034894   1.000162   0.000000
     9  C    4.255257   5.648609   6.093302   0.000000
    10  O    5.402662   6.755079   7.296481   1.434622   0.000000
    11  H    6.213360   7.589340   8.065110   1.999631   0.999977
    12  C    2.831070   4.180991   4.677730   1.520180   2.620344
    13  O    2.440443   3.702104   3.908275   2.397073   3.744989
    14  C    1.520566   2.438308   2.550787   3.707802   4.954616
    15  O    2.416529   2.871326   2.462265   4.670808   6.024593
    16  C    3.706711   3.909064   3.308954   5.480302   6.767843
    17  C    4.719970   5.198716   4.651791   5.452618   6.741118
    18  O    4.681898   5.508443   5.201409   4.285715   5.508617
    19  H    3.892679   4.882275   4.715574   3.452551   4.766476
    20  C    6.087681   6.414527   5.781708   6.652167   7.832545
    21  O    7.208520   7.662494   7.048510   7.205418   8.333533
    22  H    7.970280   8.319089   7.658266   8.066813   9.150472
    23  C    4.283113   3.564009   2.659618   7.451783   8.691923
    24  O    3.497824   2.505042   1.544194   7.259233   8.508967
    25  H    4.166520   2.948653   2.153659   8.072025   9.266728
    26  C    4.484737   4.219378   3.353474   6.935687   8.239990
    27  O    5.754637   5.515151   4.680547   7.738678   8.972165
    28  C    6.499949   6.503592   5.704098   7.842673   9.079420
    29  O    7.744576   7.679798   6.880473   8.929471  10.078890
    30  H    8.463296   8.397960   7.561728   9.615558  10.789473
    31  H    6.757571   6.743079   5.891957   8.236772   9.539404
    32  H    6.230670   6.563988   6.008657   6.568290   7.630035
    33  H    4.906392   5.365426   4.761345   5.828586   7.186037
    34  H    3.879009   4.068535   3.602051   5.395205   6.552648
    35  H    4.754473   4.508707   3.595907   7.265480   8.636138
    36  H    5.280619   4.431647   3.503647   8.513856   9.756691
    37  H    4.278440   3.593503   2.881939   7.249921   8.386533
    38  H    4.395381   5.538189   6.378999   3.341673   3.329440
    39  H    4.663143   6.005522   6.297733   1.070000   2.012310
    40  H    4.397607   5.831702   6.269524   1.070000   2.012310
    41  H    3.156129   4.308161   4.830706   2.105849   2.785223
    42  H    2.852796   4.174330   4.832888   2.739857   3.611504
    43  H    2.095901   2.806536   3.631994   3.903807   4.578077
    44  H    1.070000   2.019311   2.418850   4.367454   5.597590
    45  H    2.140016   2.692346   2.815758   4.052926   5.124155
                   11         12         13         14         15
    11  H    0.000000
    12  C    3.413052   0.000000
    13  O    4.331760   1.434959   0.000000
    14  C    5.644906   2.390773   1.435673   0.000000
    15  O    6.579113   3.594508   2.282950   1.434942   0.000000
    16  C    7.225746   4.541830   3.212127   2.511957   1.435102
    17  C    6.997630   4.903930   3.520502   3.418063   2.371833
    18  O    5.665666   4.043805   2.810028   3.285410   2.757623
    19  H    5.018964   3.139702   1.882058   2.582317   2.334054
    20  C    8.003302   6.189910   4.880637   4.739839   3.735199
    21  O    8.339843   7.010977   5.737434   5.858740   4.864073
    22  H    9.152604   7.838616   6.582103   6.607956   5.608216
    23  C    9.312781   6.200296   5.086980   3.830823   2.994334
    24  O    9.212121   5.906976   4.924571   3.568739   2.939905
    25  H   10.012075   6.664192   5.785261   4.383219   3.899946
    26  C    8.727006   5.903905   4.596378   3.652885   2.448275
    27  O    9.375912   6.827851   5.533753   4.738096   3.635548
    28  C    9.338696   7.175719   5.818368   5.340419   4.151568
    29  O   10.296494   8.304480   7.011092   6.539077   5.458537
    30  H   10.961718   9.048576   7.717088   7.290539   6.126218
    31  H    9.780728   7.596092   6.184504   5.725878   4.397961
    32  H    7.806801   6.108408   4.929429   4.797378   4.043525
    33  H    7.418388   5.323729   3.901888   3.819662   2.585480
    34  H    7.038448   4.423874   3.278404   2.568063   2.054924
    35  H    9.088797   6.299753   4.935403   4.089091   2.717976
    36  H   10.366857   7.270230   6.144449   4.898355   4.004880
    37  H    9.035139   5.967137   4.988968   3.718109   3.210203
    38  H    4.175909   3.135534   4.380398   4.961250   6.206185
    39  H    2.173557   2.086306   2.400716   3.785149   4.520909
    40  H    2.362116   2.086306   2.734780   4.054356   4.869224
    41  H    3.629840   1.070000   2.029060   2.608619   3.924626
    42  H    4.369202   2.150270   2.812278   3.387240   4.384649
    43  H    5.532796   2.485995   3.045862   2.613687   3.988553
    44  H    6.335836   3.155435   2.659300   2.098256   2.573182
    45  H    5.844118   2.712293   2.065011   1.070000   2.064194
                   16         17         18         19         20
    16  C    0.000000
    17  C    1.520117   0.000000
    18  O    2.435762   1.434659   0.000000
    19  H    2.558665   2.039665   1.000106   0.000000
    20  C    2.507874   1.519473   2.445968   3.326788   0.000000
    21  O    3.813312   2.495803   2.984885   3.950219   1.435662
    22  H    4.416620   3.284017   3.869397   4.849762   1.914676
    23  C    2.530204   3.863293   4.964287   4.998344   4.339706
    24  O    3.165181   4.536913   5.460833   5.241022   5.357639
    25  H    4.041627   5.444636   6.392981   6.190544   6.141653
    26  C    1.521203   2.494174   3.768747   3.991277   2.933454
    27  O    2.335234   2.798633   4.117489   4.628815   2.426986
    28  C    2.836512   2.465807   3.754952   4.489354   1.519982
    29  O    4.066966   3.720852   4.837373   5.663032   2.414926
    30  H    4.791693   4.291812   5.413698   6.266785   2.978445
    31  H    3.291935   2.798818   4.132843   4.809381   2.154575
    32  H    2.757914   2.111824   2.664146   3.532174   1.070000
    33  H    2.106494   1.070000   2.031987   2.441843   2.105715
    34  H    1.070000   2.129411   2.695936   2.847257   2.755168
    35  H    2.142174   2.706807   4.030861   4.225101   3.237974
    36  H    3.423475   4.594675   5.817249   5.945790   4.821660
    37  H    2.664678   4.084241   5.015192   5.046308   4.478517
    38  H    7.406749   7.886718   7.070607   6.105821   9.258507
    39  H    5.092425   4.834068   3.537317   2.851229   5.907239
    40  H    5.819851   5.701436   4.571348   3.682704   6.994075
    41  H    4.665302   5.170336   4.359071   3.594718   6.306246
    42  H    5.691274   6.105810   5.434435   4.435904   7.566202
    43  H    4.979873   5.972340   5.620629   4.827539   7.193594
    44  H    3.994874   4.797210   4.758699   3.923315   6.255061
    45  H    2.616361   3.686594   3.591258   3.071141   4.774505
                   21         22         23         24         25
    21  O    0.000000
    22  H    0.999923   0.000000
    23  C    5.690514   6.011737   0.000000
    24  O    6.657978   7.117472   1.435776   0.000000
    25  H    7.468310   7.848531   1.877437   0.999977   0.000000
    26  C    4.224969   4.615844   1.519873   2.512964   3.252140
    27  O    3.671300   3.766100   2.403243   3.720241   4.256294
    28  C    2.403703   2.430258   3.714765   4.892776   5.539039
    29  O    2.893633   2.382780   4.627243   5.952392   6.454232
    30  H    3.070168   2.425767   5.302695   6.577521   7.074863
    31  H    2.633206   2.743890   4.018338   5.029520   5.697906
    32  H    2.038714   2.241830   4.537079   5.641197   6.358122
    33  H    2.696997   3.545897   4.108761   4.607445   5.550315
    34  H    4.124780   4.610751   2.753173   3.527082   4.264331
    35  H    4.296908   4.748588   2.141537   2.735402   3.512263
    36  H    6.103427   6.288997   1.070000   2.038563   2.058573
    37  H    5.899477   6.174608   1.070000   2.038563   2.278258
    38  H   10.050497  10.917996   8.586363   7.882156   8.465826
    39  H    6.345935   7.190413   7.287625   7.289205   8.145920
    40  H    7.455177   8.376152   7.782530   7.472243   8.320679
    41  H    7.219813   7.961271   6.181597   5.998429   6.666075
    42  H    8.339577   9.244598   6.974098   6.268237   6.985978
    43  H    8.332089   9.040366   5.602433   5.012066   5.464548
    44  H    7.251082   8.076881   4.681903   3.794912   4.536288
    45  H    5.997565   6.637459   3.709386   3.663910   4.340458
                   26         27         28         29         30
    26  C    0.000000
    27  O    1.435026   0.000000
    28  C    2.400399   1.435717   0.000000
    29  O    3.573875   2.242094   1.435212   0.000000
    30  H    4.210378   2.966259   1.974834   0.960000   0.000000
    31  H    2.668777   2.078400   1.070000   2.077707   2.156988
    32  H    3.340126   2.674828   2.113722   2.550488   3.293737
    33  H    2.688601   3.177500   2.705352   4.069964   4.450878
    34  H    2.130285   2.545099   3.191641   4.152205   5.002334
    35  H    1.070000   2.065894   2.600008   3.883850   4.313310
    36  H    2.111849   2.552050   3.881781   4.582679   5.159838
    37  H    2.111849   2.659011   4.028556   4.771854   5.567943
    38  H    8.585392   9.689026  10.153198  11.344577  12.076836
    39  H    6.595958   7.246490   7.201188   8.221037   8.881346
    40  H    7.214865   8.114581   8.153941   9.328131   9.948452
    41  H    6.014392   6.820140   7.271204   8.280904   9.091875
    42  H    6.813474   7.993988   8.383004   9.667497  10.328695
    43  H    5.941126   6.985584   7.781866   8.856278   9.682276
    44  H    4.711546   6.059204   6.665511   8.000761   8.633725
    45  H    3.717183   4.604124   5.343965   6.382651   7.217522
                   31         32         33         34         35
    31  H    0.000000
    32  H    3.011382   0.000000
    33  H    2.608342   2.978585   0.000000
    34  H    3.904830   2.573925   2.991590   0.000000
    35  H    2.417132   3.912987   2.459855   3.016644   0.000000
    36  H    4.089381   5.050026   4.757890   3.648447   2.503654
    37  H    4.567973   4.420990   4.571876   2.452011   3.001950
    38  H   10.473511   9.231934   8.125535   7.359049   8.860088
    39  H    7.623847   5.793402   5.270405   4.989905   6.941941
    40  H    8.418277   7.062573   5.886606   5.919495   7.394442
    41  H    7.822281   6.050799   5.763050   4.302250   6.572016
    42  H    8.579914   7.718226   6.188927   5.876053   6.944139
    43  H    8.252729   7.045424   6.428459   4.714138   6.462333
    44  H    6.764072   6.560146   4.756877   4.410856   4.745027
    45  H    5.902764   4.608986   4.316372   2.233824   4.394528
                   36         37         38         39         40
    36  H    0.000000
    37  H    1.732945   0.000000
    38  H    9.618355   8.390096   0.000000
    39  H    8.324715   7.088300   4.408499   0.000000
    40  H    8.832594   7.716308   3.249109   1.717946   0.000000
    41  H    7.239779   5.768435   3.485803   2.514377   2.950344
    42  H    7.998038   6.972693   2.145407   3.603266   2.385261
    43  H    6.598150   5.214256   3.437618   4.519653   4.375201
    44  H    5.631580   4.895229   4.457095   4.789625   4.249904
    45  H    4.760689   3.301682   5.312403   4.075117   4.624946
                   41         42         43         44         45
    41  H    0.000000
    42  H    3.003157   0.000000
    43  H    2.198787   2.997193   0.000000
    44  H    3.767155   2.594539   2.957526   0.000000
    45  H    2.484552   4.081710   2.483157   2.991787   0.000000
 Stoichiometry    C12H22O11
 Framework group  C1[X(C12H22O11)]
 Deg. of freedom   129
 Full point group                 C1      NOp   1
 Largest Abelian subgroup         C1      NOp   1
 Largest concise Abelian subgroup C1      NOp   1
                         Standard orientation:                         
 ---------------------------------------------------------------------
 Center     Atomic      Atomic             Coordinates (Angstroms)
 Number     Number       Type             X           Y           Z
 ---------------------------------------------------------------------
      1          8           0       -5.099862   -0.333585    0.385889
      2          6           0       -3.828835   -0.144516   -0.251489
      3          6           0       -3.228311    1.189361    0.161852
      4          8           0       -4.089583    2.286674   -0.177519
      5          1           0       -4.930739    1.941521    0.237927
      6          6           0       -1.842607    1.507347   -0.374889
      7          8           0       -1.301211    2.808686   -0.106632
      8          1           0       -0.322422    2.858315   -0.306217
      9          6           0       -3.172822   -2.520364   -0.035348
     10          8           0       -4.218719   -3.238662    0.634194
     11          1           0       -4.129329   -4.213534    0.430262
     12          6           0       -2.762569   -1.089934    0.275311
     13          8           0       -1.422937   -0.890272   -0.198637
     14          6           0       -0.909568    0.412545    0.118027
     15          8           0        0.346911    0.503391   -0.569045
     16          6           0        1.591664    0.185586    0.070568
     17          6           0        2.073675   -1.122273   -0.536002
     18          8           0        1.081238   -2.149249   -0.399487
     19          1           0        0.159472   -1.822777   -0.609191
     20          6           0        3.406775   -1.544920    0.058144
     21          8           0        4.011878   -2.694570   -0.552824
     22          1           0        4.890687   -2.747109   -0.078714
     23          6           0        2.211313    2.607251    0.462368
     24          8           0        1.151576    3.307729   -0.206765
     25          1           0        1.273471    4.212551    0.201150
     26          6           0        2.630110    1.276805   -0.141399
     27          8           0        3.792736    0.799840    0.551498
     28          6           0        4.370292   -0.373523   -0.040898
     29          8           0        5.512332   -0.618468    0.793117
     30          1           0        6.280818   -0.785294    0.242482
     31          1           0        4.662237   -0.192703   -1.054295
     32          1           0        3.253132   -1.763141    1.094326
     33          1           0        2.224795   -0.956635   -1.582246
     34          1           0        1.427468    0.051085    1.119305
     35          1           0        2.841051    1.391263   -1.184138
     36          1           0        3.069353    3.246227    0.481775
     37          1           0        1.904670    2.430199    1.472083
     38          1           0       -5.779778   -0.444461   -0.282706
     39          1           0       -2.288725   -3.112187    0.078746
     40          1           0       -3.423265   -2.536117   -1.075507
     41          1           0       -2.742372   -0.984824    1.339945
     42          1           0       -3.913662   -0.214217   -1.315841
     43          1           0       -3.149909    1.173007    1.228850
     44          1           0       -1.897053    1.413561   -1.439379
     45          1           0       -0.759498    0.502971    1.173585
 ---------------------------------------------------------------------
 Rotational constants (GHZ):      0.4096810      0.1433821      0.1093888
 Standard basis: 6-31+G(d,p) (6D, 7F)
 There are   547 symmetry adapted basis functions of A   symmetry.
 Integral buffers will be    131072 words long.
 Raffenetti 2 integral format.
 Two-electron integral symmetry is turned on.
   547 basis functions,   890 primitive gaussians,   547 cartesian basis functions
    91 alpha electrons       91 beta electrons
       nuclear repulsion energy      2284.9110940161 Hartrees.
 NAtoms=   45 NActive=   45 NUniq=   45 SFac= 1.00D+00 NAtFMM=   50 NAOKFM=F Big=F
 One-electron integrals computed using PRISM.
 NBasis=   547 RedAO= T  NBF=   547
 NBsUse=   547 1.00D-06 NBFU=   547
 Harris functional with IExCor=  402 diagonalized for initial guess.
 ExpMin= 4.38D-02 ExpMax= 5.48D+03 ExpMxC= 8.25D+02 IAcc=2 IRadAn=         0 AccDes= 0.00D+00
 HarFok:  IExCor=  402 AccDes= 0.00D+00 IRadAn=         0 IDoV= 1
 ScaDFX=  1.000000  1.000000  1.000000  1.000000
 FoFCou: FMM=F IPFlag=           0 FMFlag=      100000 FMFlg1=           0
         NFxFlg=           0 DoJE=T BraDBF=F KetDBF=T FulRan=T
         Omega=  0.000000  0.000000  1.000000  0.000000  0.000000 ICntrl=     500 IOpCl=  0
         NMat0=    1 NMatS0=    1 NMatT0=    0 NMatD0=    1 NMtDS0=    0 NMtDT0=    0
         I1Cent=           4 NGrid=           0.
 Petite list used in FoFCou.
 Initial guess orbital symmetries:
       Occupied  (A) (A) (A) (A) (A) (A) (A) (A) (A) (A) (A) (A)
                 (A) (A) (A) (A) (A) (A) (A) (A) (A) (A) (A) (A)
                 (A) (A) (A) (A) (A) (A) (A) (A) (A) (A) (A) (A)
                 (A) (A) (A) (A) (A) (A) (A) (A) (A) (A) (A) (A)
                 (A) (A) (A) (A) (A) (A) (A) (A) (A) (A) (A) (A)
                 (A) (A) (A) (A) (A) (A) (A) (A) (A) (A) (A) (A)
                 (A) (A) (A) (A) (A) (A) (A) (A) (A) (A) (A) (A)
                 (A) (A) (A) (A) (A) (A) (A)
       Virtual   (A) (A) (A) (A) (A) (A) (A) (A) (A) (A) (A) (A)
                 (A) (A) (A) (A) (A) (A) (A) (A) (A) (A) (A) (A)
                 (A) (A) (A) (A) (A) (A) (A) (A) (A) (A) (A) (A)
                 (A) (A) (A) (A) (A) (A) (A) (A) (A) (A) (A) (A)
                 (A) (A) (A) (A) (A) (A) (A) (A) (A) (A) (A) (A)
                 (A) (A) (A) (A) (A) (A) (A) (A) (A) (A) (A) (A)
                 (A) (A) (A) (A) (A) (A) (A) (A) (A) (A) (A) (A)
                 (A) (A) (A) (A) (A) (A) (A) (A) (A) (A) (A) (A)
                 (A) (A) (A) (A) (A) (A) (A) (A) (A) (A) (A) (A)
                 (A) (A) (A) (A) (A) (A) (A) (A) (A) (A) (A) (A)
                 (A) (A) (A) (A) (A) (A) (A) (A) (A) (A) (A) (A)
                 (A) (A) (A) (A) (A) (A) (A) (A) (A) (A) (A) (A)
                 (A) (A) (A) (A) (A) (A) (A) (A) (A) (A) (A) (A)
                 (A) (A) (A) (A) (A) (A) (A) (A) (A) (A) (A) (A)
                 (A) (A) (A) (A) (A) (A) (A) (A) (A) (A) (A) (A)
                 (A) (A) (A) (A) (A) (A) (A) (A) (A) (A) (A) (A)
                 (A) (A) (A) (A) (A) (A) (A) (A) (A) (A) (A) (A)
                 (A) (A) (A) (A) (A) (A) (A) (A) (A) (A) (A) (A)
                 (A) (A) (A) (A) (A) (A) (A) (A) (A) (A) (A) (A)
                 (A) (A) (A) (A) (A) (A) (A) (A) (A) (A) (A) (A)
                 (A) (A) (A) (A) (A) (A) (A) (A) (A) (A) (A) (A)
                 (A) (A) (A) (A) (A) (A) (A) (A) (A) (A) (A) (A)
                 (A) (A) (A) (A) (A) (A) (A) (A) (A) (A) (A) (A)
                 (A) (A) (A) (A) (A) (A) (A) (A) (A) (A) (A) (A)
                 (A) (A) (A) (A) (A) (A) (A) (A) (A) (A) (A) (A)
                 (A) (A) (A) (A) (A) (A) (A) (A) (A) (A) (A) (A)
                 (A) (A) (A) (A) (A) (A) (A) (A) (A) (A) (A) (A)
                 (A) (A) (A) (A) (A) (A) (A) (A) (A) (A) (A) (A)
                 (A) (A) (A) (A) (A) (A) (A) (A) (A) (A) (A) (A)
                 (A) (A) (A) (A) (A) (A) (A) (A) (A) (A) (A) (A)
                 (A) (A) (A) (A) (A) (A) (A) (A) (A) (A) (A) (A)
                 (A) (A) (A) (A) (A) (A) (A) (A) (A) (A) (A) (A)
                 (A) (A) (A) (A) (A) (A) (A) (A) (A) (A) (A) (A)
                 (A) (A) (A) (A) (A) (A) (A) (A) (A) (A) (A) (A)
                 (A) (A) (A) (A) (A) (A) (A) (A) (A) (A) (A) (A)
                 (A) (A) (A) (A) (A) (A) (A) (A) (A) (A) (A) (A)
                 (A) (A) (A) (A) (A) (A) (A) (A) (A) (A) (A) (A)
                 (A) (A) (A) (A) (A) (A) (A) (A) (A) (A) (A) (A)
 The electronic state of the initial guess is 1-A.
 Requested convergence on RMS density matrix=1.00D-08 within 128 cycles.
 Requested convergence on MAX density matrix=1.00D-06.
 Requested convergence on             energy=1.00D-06.
 No special actions if energy rises.
 SCF Done:  E(RB3LYP) =  -1297.93368808     A.U. after   14 cycles
             Convg  =    0.2311D-08             -V/T =  2.0087
 Range of M.O.s used for correlation:     1   547
 NBasis=   547 NAE=    91 NBE=    91 NFC=     0 NFV=     0
 NROrb=    547 NOA=    91 NOB=    91 NVA=   456 NVB=   456

 **** Warning!!: The largest alpha MO coefficient is  0.81077205D+02

          Differentiating once with respect to electric field.
                with respect to dipole field.
          Electric field/nuclear overlap derivatives assumed to be zero.
          There are     3 degrees of freedom in the 1st order CPHF.  IDoFFX=0.
      3 vectors produced by pass  0 Test12= 1.38D-12 3.33D-08 XBig12= 1.21D+02 1.10D+00.
 AX will form     3 AO Fock derivatives at one time.
      3 vectors produced by pass  1 Test12= 1.38D-12 3.33D-08 XBig12= 2.16D+01 3.93D-01.
      3 vectors produced by pass  2 Test12= 1.38D-12 3.33D-08 XBig12= 9.45D+00 2.11D-01.
      3 vectors produced by pass  3 Test12= 1.38D-12 3.33D-08 XBig12= 8.81D-01 9.09D-02.
      3 vectors produced by pass  4 Test12= 1.38D-12 3.33D-08 XBig12= 2.59D-01 3.54D-02.
      3 vectors produced by pass  5 Test12= 1.38D-12 3.33D-08 XBig12= 4.86D-02 1.70D-02.
      3 vectors produced by pass  6 Test12= 1.38D-12 3.33D-08 XBig12= 1.65D-02 1.38D-02.
      3 vectors produced by pass  7 Test12= 1.38D-12 3.33D-08 XBig12= 1.95D-03 4.99D-03.
      3 vectors produced by pass  8 Test12= 1.38D-12 3.33D-08 XBig12= 4.18D-04 1.71D-03.
      3 vectors produced by pass  9 Test12= 1.38D-12 3.33D-08 XBig12= 8.52D-05 1.09D-03.
      3 vectors produced by pass 10 Test12= 1.38D-12 3.33D-08 XBig12= 2.86D-05 3.99D-04.
      3 vectors produced by pass 11 Test12= 1.38D-12 3.33D-08 XBig12= 4.48D-06 2.30D-04.
      3 vectors produced by pass 12 Test12= 1.38D-12 3.33D-08 XBig12= 6.55D-07 7.33D-05.
      3 vectors produced by pass 13 Test12= 1.38D-12 3.33D-08 XBig12= 2.09D-07 5.01D-05.
      3 vectors produced by pass 14 Test12= 1.38D-12 3.33D-08 XBig12= 4.17D-08 1.26D-05.
      3 vectors produced by pass 15 Test12= 1.38D-12 3.33D-08 XBig12= 9.80D-09 6.35D-06.
      3 vectors produced by pass 16 Test12= 1.38D-12 3.33D-08 XBig12= 7.74D-10 2.34D-06.
      3 vectors produced by pass 17 Test12= 1.38D-12 3.33D-08 XBig12= 1.40D-10 7.00D-07.
      3 vectors produced by pass 18 Test12= 1.38D-12 3.33D-08 XBig12= 3.44D-11 3.19D-07.
      3 vectors produced by pass 19 Test12= 1.38D-12 3.33D-08 XBig12= 1.46D-11 2.91D-07.
      2 vectors produced by pass 20 Test12= 1.38D-12 3.33D-08 XBig12= 3.55D-12 1.29D-07.
      1 vectors produced by pass 21 Test12= 1.38D-12 3.33D-08 XBig12= 5.44D-13 6.34D-08.
 Inverted reduced A of dimension    63 with in-core refinement.
 End of Minotr Frequency-dependent properties file   721 does not exist.
 End of Minotr Frequency-dependent properties file   722 does not exist.
 Symmetrizing basis deriv contribution to polar:
 IMax=3 JMax=2 DiffMx= 0.00D+00
 G2DrvN: will do    23 centers at a time, making    2 passes doing MaxLOS=2.
 Calling FoFCou, ICntrl=  3107 FMM=F I1Cent=   0 AccDes= 0.00D+00.
 Calling FoFCou, ICntrl=  3107 FMM=F I1Cent=   0 AccDes= 0.00D+00.
 FoFDir/FoFCou used for L=0 through L=2.
 End of G2Drv Frequency-dependent properties file   721 does not exist.
 End of G2Drv Frequency-dependent properties file   722 does not exist.
          IDoAtm=111111111111111111111111111111111111111111111
          Differentiating once with respect to electric field.
                with respect to dipole field.
          Differentiating once with respect to nuclear coordinates.
          There are   138 degrees of freedom in the 1st order CPHF.  IDoFFX=5.
 Will reuse    3 saved solutions.
    135 vectors produced by pass  0 Test12= 4.15D-14 1.00D-09 XBig12= 2.12D-01 5.54D-02.
 AX will form    68 AO Fock derivatives at one time.
    135 vectors produced by pass  1 Test12= 4.15D-14 1.00D-09 XBig12= 4.45D-02 2.08D-02.
    132 vectors produced by pass  2 Test12= 4.15D-14 1.00D-09 XBig12= 2.24D-04 1.49D-03.
    132 vectors produced by pass  3 Test12= 4.15D-14 1.00D-09 XBig12= 7.73D-07 8.63D-05.
    132 vectors produced by pass  4 Test12= 4.15D-14 1.00D-09 XBig12= 1.92D-09 3.31D-06.
    132 vectors produced by pass  5 Test12= 4.15D-14 1.00D-09 XBig12= 5.08D-12 1.50D-07.
     82 vectors produced by pass  6 Test12= 4.15D-14 1.00D-09 XBig12= 2.13D-13 2.76D-08.
 Inverted reduced A of dimension   880 with in-core refinement.
 Isotropic polarizability for W=    0.000000      187.71 Bohr**3.
 End of Minotr Frequency-dependent properties file   721 does not exist.
 End of Minotr Frequency-dependent properties file   722 does not exist.

 **********************************************************************

            Population analysis using the SCF density.

 **********************************************************************

 Orbital symmetries:
       Occupied  (A) (A) (A) (A) (A) (A) (A) (A) (A) (A) (A) (A)
                 (A) (A) (A) (A) (A) (A) (A) (A) (A) (A) (A) (A)
                 (A) (A) (A) (A) (A) (A) (A) (A) (A) (A) (A) (A)
                 (A) (A) (A) (A) (A) (A) (A) (A) (A) (A) (A) (A)
                 (A) (A) (A) (A) (A) (A) (A) (A) (A) (A) (A) (A)
                 (A) (A) (A) (A) (A) (A) (A) (A) (A) (A) (A) (A)
                 (A) (A) (A) (A) (A) (A) (A) (A) (A) (A) (A) (A)
                 (A) (A) (A) (A) (A) (A) (A)
       Virtual   (A) (A) (A) (A) (A) (A) (A) (A) (A) (A) (A) (A)
                 (A) (A) (A) (A) (A) (A) (A) (A) (A) (A) (A) (A)
                 (A) (A) (A) (A) (A) (A) (A) (A) (A) (A) (A) (A)
                 (A) (A) (A) (A) (A) (A) (A) (A) (A) (A) (A) (A)
                 (A) (A) (A) (A) (A) (A) (A) (A) (A) (A) (A) (A)
                 (A) (A) (A) (A) (A) (A) (A) (A) (A) (A) (A) (A)
                 (A) (A) (A) (A) (A) (A) (A) (A) (A) (A) (A) (A)
                 (A) (A) (A) (A) (A) (A) (A) (A) (A) (A) (A) (A)
                 (A) (A) (A) (A) (A) (A) (A) (A) (A) (A) (A) (A)
                 (A) (A) (A) (A) (A) (A) (A) (A) (A) (A) (A) (A)
                 (A) (A) (A) (A) (A) (A) (A) (A) (A) (A) (A) (A)
                 (A) (A) (A) (A) (A) (A) (A) (A) (A) (A) (A) (A)
                 (A) (A) (A) (A) (A) (A) (A) (A) (A) (A) (A) (A)
                 (A) (A) (A) (A) (A) (A) (A) (A) (A) (A) (A) (A)
                 (A) (A) (A) (A) (A) (A) (A) (A) (A) (A) (A) (A)
                 (A) (A) (A) (A) (A) (A) (A) (A) (A) (A) (A) (A)
                 (A) (A) (A) (A) (A) (A) (A) (A) (A) (A) (A) (A)
                 (A) (A) (A) (A) (A) (A) (A) (A) (A) (A) (A) (A)
                 (A) (A) (A) (A) (A) (A) (A) (A) (A) (A) (A) (A)
                 (A) (A) (A) (A) (A) (A) (A) (A) (A) (A) (A) (A)
                 (A) (A) (A) (A) (A) (A) (A) (A) (A) (A) (A) (A)
                 (A) (A) (A) (A) (A) (A) (A) (A) (A) (A) (A) (A)
                 (A) (A) (A) (A) (A) (A) (A) (A) (A) (A) (A) (A)
                 (A) (A) (A) (A) (A) (A) (A) (A) (A) (A) (A) (A)
                 (A) (A) (A) (A) (A) (A) (A) (A) (A) (A) (A) (A)
                 (A) (A) (A) (A) (A) (A) (A) (A) (A) (A) (A) (A)
                 (A) (A) (A) (A) (A) (A) (A) (A) (A) (A) (A) (A)
                 (A) (A) (A) (A) (A) (A) (A) (A) (A) (A) (A) (A)
                 (A) (A) (A) (A) (A) (A) (A) (A) (A) (A) (A) (A)
                 (A) (A) (A) (A) (A) (A) (A) (A) (A) (A) (A) (A)
                 (A) (A) (A) (A) (A) (A) (A) (A) (A) (A) (A) (A)
                 (A) (A) (A) (A) (A) (A) (A) (A) (A) (A) (A) (A)
                 (A) (A) (A) (A) (A) (A) (A) (A) (A) (A) (A) (A)
                 (A) (A) (A) (A) (A) (A) (A) (A) (A) (A) (A) (A)
                 (A) (A) (A) (A) (A) (A) (A) (A) (A) (A) (A) (A)
                 (A) (A) (A) (A) (A) (A) (A) (A) (A) (A) (A) (A)
                 (A) (A) (A) (A) (A) (A) (A) (A) (A) (A) (A) (A)
                 (A) (A) (A) (A) (A) (A) (A) (A) (A) (A) (A) (A)
 The electronic state is 1-A.
 Alpha  occ. eigenvalues --  -19.20878 -19.20013 -19.19560 -19.19163 -19.18958
 Alpha  occ. eigenvalues --  -19.18779 -19.17389 -19.16805 -19.15437 -19.14569
 Alpha  occ. eigenvalues --  -19.13124 -10.31645 -10.31158 -10.27068 -10.26518
 Alpha  occ. eigenvalues --  -10.26243 -10.26158 -10.26016 -10.25121 -10.24853
 Alpha  occ. eigenvalues --  -10.24328 -10.24159 -10.24147  -1.10246  -1.09716
 Alpha  occ. eigenvalues --   -1.07293  -1.06071  -1.04590  -1.04077  -1.03092
 Alpha  occ. eigenvalues --   -1.02408  -1.01946  -1.00420  -0.99203  -0.82627
 Alpha  occ. eigenvalues --   -0.81186  -0.79969  -0.78474  -0.72330  -0.70107
 Alpha  occ. eigenvalues --   -0.67648  -0.64966  -0.63418  -0.62385  -0.61750
 Alpha  occ. eigenvalues --   -0.60600  -0.57471  -0.56462  -0.55393  -0.54833
 Alpha  occ. eigenvalues --   -0.54216  -0.53828  -0.53236  -0.51930  -0.51551
 Alpha  occ. eigenvalues --   -0.50703  -0.50431  -0.50012  -0.49006  -0.46951
 Alpha  occ. eigenvalues --   -0.46447  -0.45587  -0.44560  -0.43948  -0.43610
 Alpha  occ. eigenvalues --   -0.43060  -0.41810  -0.41175  -0.40666  -0.40036
 Alpha  occ. eigenvalues --   -0.39529  -0.38581  -0.38432  -0.37001  -0.35922
 Alpha  occ. eigenvalues --   -0.35457  -0.34961  -0.34383  -0.33836  -0.33533
 Alpha  occ. eigenvalues --   -0.33032  -0.32006  -0.31384  -0.30422  -0.30225
 Alpha  occ. eigenvalues --   -0.29630  -0.28395  -0.28318  -0.26867  -0.26503
 Alpha  occ. eigenvalues --   -0.26215
 Alpha virt. eigenvalues --   -0.02414  -0.02282  -0.02025  -0.00258   0.00103
 Alpha virt. eigenvalues --    0.00736   0.01701   0.01979   0.03146   0.03630
 Alpha virt. eigenvalues --    0.03796   0.04332   0.04700   0.05148   0.05518
 Alpha virt. eigenvalues --    0.06145   0.06322   0.07378   0.07694   0.07906
 Alpha virt. eigenvalues --    0.08668   0.08733   0.08823   0.09403   0.09958
 Alpha virt. eigenvalues --    0.10525   0.10899   0.11092   0.11964   0.12074
 Alpha virt. eigenvalues --    0.12523   0.12835   0.13019   0.13484   0.13581
 Alpha virt. eigenvalues --    0.13992   0.14100   0.14560   0.14739   0.15120
 Alpha virt. eigenvalues --    0.15730   0.15937   0.16409   0.16597   0.17080
 Alpha virt. eigenvalues --    0.17335   0.17520   0.17645   0.17866   0.18306
 Alpha virt. eigenvalues --    0.18638   0.18790   0.19139   0.19812   0.20018
 Alpha virt. eigenvalues --    0.20733   0.20900   0.21023   0.21389   0.21842
 Alpha virt. eigenvalues --    0.21953   0.22153   0.22595   0.22806   0.23089
 Alpha virt. eigenvalues --    0.23777   0.23880   0.24314   0.24399   0.24819
 Alpha virt. eigenvalues --    0.25066   0.25274   0.25449   0.25663   0.26063
 Alpha virt. eigenvalues --    0.26148   0.26451   0.26614   0.26800   0.27116
 Alpha virt. eigenvalues --    0.27494   0.27797   0.28264   0.28663   0.28978
 Alpha virt. eigenvalues --    0.29161   0.29639   0.29830   0.29965   0.30665
 Alpha virt. eigenvalues --    0.31129   0.31469   0.32000   0.32094   0.32429
 Alpha virt. eigenvalues --    0.32790   0.33155   0.33466   0.33780   0.34027
 Alpha virt. eigenvalues --    0.34284   0.34811   0.35083   0.35557   0.35778
 Alpha virt. eigenvalues --    0.36083   0.36281   0.36834   0.37118   0.37728
 Alpha virt. eigenvalues --    0.37801   0.38154   0.38990   0.39128   0.39762
 Alpha virt. eigenvalues --    0.39868   0.40423   0.40946   0.41141   0.41471
 Alpha virt. eigenvalues --    0.41859   0.42429   0.42481   0.43501   0.43972
 Alpha virt. eigenvalues --    0.44211   0.44826   0.45445   0.46073   0.46873
 Alpha virt. eigenvalues --    0.47461   0.48247   0.48422   0.49801   0.50377
 Alpha virt. eigenvalues --    0.51048   0.51808   0.55219   0.62708   0.63802
 Alpha virt. eigenvalues --    0.65567   0.66417   0.68027   0.68081   0.70826
 Alpha virt. eigenvalues --    0.70975   0.71483   0.72065   0.72588   0.73795
 Alpha virt. eigenvalues --    0.74677   0.75558   0.77035   0.77483   0.77953
 Alpha virt. eigenvalues --    0.79500   0.80410   0.80796   0.81713   0.83324
 Alpha virt. eigenvalues --    0.84398   0.86811   0.87124   0.88829   0.89557
 Alpha virt. eigenvalues --    0.91536   0.91927   0.92970   0.93502   0.94938
 Alpha virt. eigenvalues --    0.95531   0.96199   0.96807   0.98629   1.00389
 Alpha virt. eigenvalues --    1.00844   1.01797   1.03032   1.03335   1.03757
 Alpha virt. eigenvalues --    1.04087   1.05352   1.06394   1.07060   1.07598
 Alpha virt. eigenvalues --    1.07721   1.07924   1.08476   1.09425   1.10666
 Alpha virt. eigenvalues --    1.11216   1.12081   1.13146   1.14453   1.15761
 Alpha virt. eigenvalues --    1.16672   1.17529   1.19630   1.20331   1.21390
 Alpha virt. eigenvalues --    1.22290   1.22966   1.23941   1.24257   1.25065
 Alpha virt. eigenvalues --    1.26095   1.26644   1.27195   1.27562   1.28248
 Alpha virt. eigenvalues --    1.28860   1.29635   1.29863   1.30806   1.31623
 Alpha virt. eigenvalues --    1.32292   1.33263   1.33370   1.33882   1.35066
 Alpha virt. eigenvalues --    1.36049   1.36723   1.37396   1.37744   1.38425
 Alpha virt. eigenvalues --    1.39445   1.40144   1.42600   1.43081   1.43636
 Alpha virt. eigenvalues --    1.44575   1.44940   1.45599   1.46014   1.47272
 Alpha virt. eigenvalues --    1.48732   1.49192   1.49980   1.51391   1.52417
 Alpha virt. eigenvalues --    1.52951   1.54363   1.56290   1.56675   1.56888
 Alpha virt. eigenvalues --    1.57521   1.58365   1.59775   1.60432   1.61491
 Alpha virt. eigenvalues --    1.61980   1.63577   1.63867   1.64922   1.65720
 Alpha virt. eigenvalues --    1.66716   1.67650   1.68972   1.69201   1.70357
 Alpha virt. eigenvalues --    1.70796   1.71428   1.72313   1.72433   1.73457
 Alpha virt. eigenvalues --    1.73534   1.74585   1.75293   1.76863   1.77708
 Alpha virt. eigenvalues --    1.77846   1.78403   1.79069   1.80029   1.81942
 Alpha virt. eigenvalues --    1.82759   1.83269   1.85075   1.85682   1.86602
 Alpha virt. eigenvalues --    1.87424   1.88514   1.89216   1.90121   1.90206
 Alpha virt. eigenvalues --    1.91438   1.91943   1.92764   1.93654   1.94657
 Alpha virt. eigenvalues --    1.95338   1.96701   1.96889   1.97336   1.98829
 Alpha virt. eigenvalues --    1.99076   1.99750   1.99922   2.00669   2.02587
 Alpha virt. eigenvalues --    2.03029   2.04110   2.04489   2.06563   2.07158
 Alpha virt. eigenvalues --    2.08081   2.09654   2.10347   2.11327   2.11441
 Alpha virt. eigenvalues --    2.12835   2.13065   2.13927   2.16010   2.16123
 Alpha virt. eigenvalues --    2.17519   2.18763   2.19487   2.20193   2.20738
 Alpha virt. eigenvalues --    2.22287   2.22833   2.23866   2.25763   2.28395
 Alpha virt. eigenvalues --    2.28743   2.31570   2.32536   2.33192   2.34283
 Alpha virt. eigenvalues --    2.34676   2.36162   2.36700   2.37827   2.38718
 Alpha virt. eigenvalues --    2.39312   2.40756   2.41583   2.43794   2.44072
 Alpha virt. eigenvalues --    2.44770   2.46252   2.47753   2.47935   2.48759
 Alpha virt. eigenvalues --    2.50805   2.51273   2.51981   2.53821   2.55528
 Alpha virt. eigenvalues --    2.56047   2.56822   2.57361   2.59655   2.60568
 Alpha virt. eigenvalues --    2.61060   2.62432   2.63277   2.64067   2.64551
 Alpha virt. eigenvalues --    2.65760   2.66017   2.68835   2.69898   2.70313
 Alpha virt. eigenvalues --    2.71214   2.72762   2.73706   2.74083   2.74991
 Alpha virt. eigenvalues --    2.75226   2.76695   2.78564   2.79466   2.79944
 Alpha virt. eigenvalues --    2.81251   2.82481   2.83673   2.84769   2.85797
 Alpha virt. eigenvalues --    2.86694   2.87530   2.88456   2.88841   2.90043
 Alpha virt. eigenvalues --    2.91503   2.91800   2.92400   2.92806   2.94154
 Alpha virt. eigenvalues --    2.95595   2.96977   2.97655   2.98946   3.01353
 Alpha virt. eigenvalues --    3.02257   3.03033   3.03519   3.05558   3.06266
 Alpha virt. eigenvalues --    3.06829   3.08665   3.11162   3.11507   3.13241
 Alpha virt. eigenvalues --    3.17194   3.19453   3.22342   3.24306   3.30652
 Alpha virt. eigenvalues --    3.33220   3.35915   3.37459   3.38287   3.40783
 Alpha virt. eigenvalues --    3.42764   3.44820   3.46574   3.47014   3.49283
 Alpha virt. eigenvalues --    3.49803   3.50808   3.52125   3.53436   3.55212
 Alpha virt. eigenvalues --    3.55364   3.57147   3.60165   3.62195   3.64316
 Alpha virt. eigenvalues --    3.65946   3.68742   3.77017   4.30768   4.33365
 Alpha virt. eigenvalues --    4.35215   4.37375   4.41057   4.42813   4.46177
 Alpha virt. eigenvalues --    4.47820   4.50007   4.51449   4.53112   4.55712
 Alpha virt. eigenvalues --    4.57077   4.58702   4.61702   4.66385   4.71279
 Alpha virt. eigenvalues --    4.78454   4.80751   4.86664   4.87618   4.89564
 Alpha virt. eigenvalues --    4.90278
          Condensed to atoms (all electrons):
              1          2          3          4          5          6
     1  O    8.259247   0.286846  -0.140661  -0.005312   0.032640   0.035966
     2  C    0.286846   9.045886  -1.768014  -0.045255  -0.128229  -2.116801
     3  C   -0.140661  -1.768014  10.387973   0.274543   0.044981  -0.161102
     4  O   -0.005312  -0.045255   0.274543   8.220999   0.193292  -0.166807
     5  H    0.032640  -0.128229   0.044981   0.193292   0.440888   0.050987
     6  C    0.035966  -2.116801  -0.161102  -0.166807   0.050987  10.691366
     7  O   -0.000780   0.037895  -0.251443   0.010366  -0.000713   0.491192
     8  H    0.000006  -0.007178   0.050508  -0.000582   0.000008  -0.012170
     9  C   -0.016328   0.320858  -0.483154   0.009134  -0.006734   0.067819
    10  O   -0.011178  -0.016894   0.005089  -0.000086  -0.000004  -0.005252
    11  H   -0.000003  -0.001585  -0.000946   0.000002   0.000000  -0.000231
    12  C   -0.153290  -1.521961  -0.485244   0.022553   0.025369   0.692486
    13  O    0.007698   0.023009  -0.019187   0.000098  -0.000286  -0.154830
    14  C    0.037855   1.115905  -0.637450   0.001972   0.008714  -2.838368
    15  O    0.000377  -0.044090   0.022750  -0.000728   0.000114   0.142662
    16  C    0.003712   0.073445  -0.399626  -0.000147   0.001455  -0.174293
    17  C    0.000316  -0.009933  -0.031795   0.000219   0.000092   0.085624
    18  O    0.000010   0.009021  -0.002004  -0.000009   0.000000  -0.000495
    19  H   -0.000009  -0.007580   0.006542  -0.000002   0.000000   0.011664
    20  C    0.000072  -0.003225  -0.003393  -0.000059   0.000004   0.062249
    21  O    0.000000   0.000017  -0.000041   0.000000   0.000000  -0.000556
    22  H    0.000000   0.000001   0.000000   0.000000   0.000000  -0.000022
    23  C    0.000092   0.004694   0.022674   0.000067  -0.000003  -0.136352
    24  O   -0.000001   0.007742   0.002530  -0.000641  -0.000005  -0.025812
    25  H    0.000000  -0.000348   0.001320   0.000006   0.000000   0.001664
    26  C   -0.000138   0.049169  -0.124591   0.000677  -0.000014  -0.370856
    27  O    0.000000  -0.000242   0.000405   0.000001   0.000000   0.002456
    28  C    0.000004   0.000959  -0.005559   0.000018   0.000000  -0.008848
    29  O    0.000000  -0.000002   0.000067   0.000000   0.000000  -0.000248
    30  H    0.000000   0.000000   0.000001   0.000000   0.000000  -0.000003
    31  H    0.000000  -0.000004   0.000016   0.000000   0.000000   0.000033
    32  H    0.000000   0.000033   0.000037   0.000000   0.000000  -0.000595
    33  H    0.000000   0.000284   0.000126   0.000000   0.000000  -0.000088
    34  H   -0.000002  -0.001686   0.002749   0.000000   0.000000   0.012285
    35  H    0.000000  -0.000168   0.001007   0.000000   0.000000   0.006746
    36  H    0.000000   0.000015   0.000112   0.000000   0.000000   0.001092
    37  H    0.000000  -0.000063  -0.000233   0.000003   0.000000  -0.000499
    38  H    0.230761   0.068410  -0.030210   0.000245  -0.002978   0.000847
    39  H    0.000126  -0.029929  -0.007177   0.000033   0.000000   0.005676
    40  H    0.002286  -0.010408  -0.002113   0.000013   0.000000   0.007485
    41  H    0.006871   0.004660  -0.066180   0.000138   0.000013  -0.007930
    42  H   -0.040774   0.432071  -0.063504   0.001014  -0.000394  -0.025033
    43  H   -0.002964   0.167320   0.152257  -0.039423  -0.008675  -0.244124
    44  H   -0.000627   0.149154  -0.277131   0.006159  -0.000250   0.282963
    45  H   -0.000054   0.036707  -0.054297  -0.000201   0.000005  -0.082676
              7          8          9         10         11         12
     1  O   -0.000780   0.000006  -0.016328  -0.011178  -0.000003  -0.153290
     2  C    0.037895  -0.007178   0.320858  -0.016894  -0.001585  -1.521961
     3  C   -0.251443   0.050508  -0.483154   0.005089  -0.000946  -0.485244
     4  O    0.010366  -0.000582   0.009134  -0.000086   0.000002   0.022553
     5  H   -0.000713   0.000008  -0.006734  -0.000004   0.000000   0.025369
     6  C    0.491192  -0.012170   0.067819  -0.005252  -0.000231   0.692486
     7  O    8.251683   0.209560   0.004014   0.000018   0.000000   0.045053
     8  H    0.209560   0.339833  -0.000226   0.000000   0.000000   0.000084
     9  C    0.004014  -0.000226   7.318948   0.044897   0.004870  -1.704442
    10  O    0.000018   0.000000   0.044897   8.301452   0.202679   0.114574
    11  H    0.000000   0.000000   0.004870   0.202679   0.441059   0.018085
    12  C    0.045053   0.000084  -1.704442   0.114574   0.018085  10.746445
    13  O    0.012248   0.001475  -0.018821  -0.000429  -0.000683  -0.119853
    14  C   -0.167995  -0.049173  -0.559378   0.012263  -0.004522  -1.393827
    15  O   -0.000830   0.024753  -0.014477  -0.000044   0.000005   0.048761
    16  C   -0.019312   0.003029  -0.088627  -0.002102  -0.000055  -0.259890
    17  C    0.010277   0.002886  -0.012582  -0.000224   0.000013  -0.058562
    18  O   -0.000072   0.000008   0.009055  -0.000047   0.000001  -0.018549
    19  H   -0.000066  -0.000005  -0.001929  -0.000038  -0.000002   0.011242
    20  C    0.002369   0.001712  -0.002102   0.000097   0.000009  -0.014811
    21  O   -0.000004   0.000000   0.000221   0.000000   0.000000  -0.000075
    22  H    0.000000   0.000000   0.000002   0.000000   0.000000   0.000028
    23  C   -0.017972   0.041563  -0.000286  -0.000024  -0.000001  -0.036341
    24  O   -0.015514  -0.048660   0.000328  -0.000001   0.000000  -0.000300
    25  H    0.001064   0.001226  -0.000018   0.000000   0.000000  -0.000579
    26  C    0.012067  -0.042684   0.020887  -0.000006   0.000004   0.141175
    27  O    0.000035   0.000040   0.000027   0.000000   0.000000   0.000584
    28  C    0.000876  -0.000688  -0.001631  -0.000005   0.000000   0.001749
    29  O   -0.000006   0.000000   0.000000   0.000000   0.000000   0.000104
    30  H    0.000000   0.000000   0.000000   0.000000   0.000000   0.000000
    31  H    0.000000   0.000000  -0.000003   0.000000   0.000000   0.000034
    32  H    0.000000   0.000000  -0.000082   0.000000   0.000000   0.000785
    33  H   -0.000032   0.000007   0.000031   0.000000   0.000000   0.002193
    34  H   -0.000417   0.000167   0.000161   0.000002   0.000000   0.005605
    35  H   -0.000157   0.000075   0.000017   0.000000   0.000000   0.000443
    36  H   -0.000363   0.000138  -0.000004   0.000000   0.000000  -0.000168
    37  H    0.001378   0.001106   0.000029   0.000000   0.000000   0.001243
    38  H   -0.000018   0.000000  -0.010761   0.000336   0.000005  -0.011912
    39  H   -0.000016   0.000000   0.473045  -0.048419  -0.011241  -0.066843
    40  H    0.000000   0.000000   0.586441  -0.072094  -0.002225  -0.235070
    41  H   -0.000234   0.000002   0.077503   0.001654  -0.000106   0.173750
    42  H   -0.000265   0.000002  -0.002222   0.000124  -0.000007  -0.120789
    43  H    0.007607  -0.000113   0.038434   0.000048   0.000000  -0.031264
    44  H   -0.046477  -0.004677   0.021936   0.000020   0.000000  -0.000094
    45  H    0.004503  -0.000710   0.013216   0.000055   0.000000  -0.001617
             13         14         15         16         17         18
     1  O    0.007698   0.037855   0.000377   0.003712   0.000316   0.000010
     2  C    0.023009   1.115905  -0.044090   0.073445  -0.009933   0.009021
     3  C   -0.019187  -0.637450   0.022750  -0.399626  -0.031795  -0.002004
     4  O    0.000098   0.001972  -0.000728  -0.000147   0.000219  -0.000009
     5  H   -0.000286   0.008714   0.000114   0.001455   0.000092   0.000000
     6  C   -0.154830  -2.838368   0.142662  -0.174293   0.085624  -0.000495
     7  O    0.012248  -0.167995  -0.000830  -0.019312   0.010277  -0.000072
     8  H    0.001475  -0.049173   0.024753   0.003029   0.002886   0.000008
     9  C   -0.018821  -0.559378  -0.014477  -0.088627  -0.012582   0.009055
    10  O   -0.000429   0.012263  -0.000044  -0.002102  -0.000224  -0.000047
    11  H   -0.000683  -0.004522   0.000005  -0.000055   0.000013   0.000001
    12  C   -0.119853  -1.393827   0.048761  -0.259890  -0.058562  -0.018549
    13  O    8.476422   0.263124  -0.031116   0.060807  -0.086670   0.024563
    14  C    0.263124  10.969727   0.028711  -0.713295  -0.204421  -0.070676
    15  O   -0.031116   0.028711   8.408161  -0.126565   0.029308   0.003408
    16  C    0.060807  -0.713295  -0.126565  14.348093  -2.579988  -0.120109
    17  C   -0.086670  -0.204421   0.029308  -2.579988   8.886736   0.394013
    18  O    0.024563  -0.070676   0.003408  -0.120109   0.394013   8.206913
    19  H    0.015735  -0.007568   0.022818  -0.111203   0.057848   0.197301
    20  C   -0.011781  -0.356787   0.050647  -1.328124  -0.511529  -0.114301
    21  O   -0.000042   0.002922  -0.000538   0.036408  -0.188261   0.010113
    22  H    0.000000  -0.000445   0.000043  -0.022907   0.036383  -0.000641
    23  C    0.015327  -0.209683  -0.018879   0.385533  -0.377498   0.003657
    24  O   -0.001432   0.099773  -0.014205  -0.034871  -0.006066   0.000121
    25  H    0.000004  -0.015252   0.001280   0.003207  -0.001228   0.000001
    26  C    0.007811  -0.350617  -0.029572  -4.015649   0.363546   0.054747
    27  O    0.000347   0.013315   0.011722  -0.116699  -0.023903   0.001362
    28  C    0.003574  -0.045492   0.002406   0.590870  -0.038330   0.003477
    29  O    0.000018   0.002509   0.000251   0.003870  -0.005748  -0.000595
    30  H    0.000000   0.000091  -0.000001  -0.004961   0.011675  -0.000030
    31  H    0.000005   0.006726   0.000177   0.113605  -0.011333  -0.000765
    32  H    0.000429   0.005951  -0.001302   0.121637  -0.198897   0.002846
    33  H    0.002739   0.039622  -0.011112   0.052444   0.351209  -0.051146
    34  H    0.001605   0.025978  -0.064697   0.298561   0.027681  -0.002774
    35  H   -0.000206   0.045864   0.006005   0.011112   0.003877  -0.000416
    36  H   -0.000012  -0.006150  -0.000068   0.041059  -0.003253   0.000031
    37  H    0.000228   0.014830   0.001706  -0.051300   0.008751  -0.000024
    38  H   -0.000670   0.001962  -0.000007   0.000212  -0.000039   0.000000
    39  H   -0.002035  -0.001436  -0.000337   0.003718  -0.000276  -0.000125
    40  H    0.003672   0.003019  -0.000255  -0.001026  -0.000233  -0.000033
    41  H   -0.033096   0.078479  -0.000958   0.007595   0.001732   0.000041
    42  H    0.010128   0.060948  -0.000341   0.000074   0.000349   0.000049
    43  H    0.008101   0.134257  -0.000294   0.009656   0.000469   0.000053
    44  H    0.018908   0.058556  -0.011380   0.008858   0.005058   0.000161
    45  H   -0.055633   0.351574  -0.068634   0.035638   0.033362  -0.001095
             19         20         21         22         23         24
     1  O   -0.000009   0.000072   0.000000   0.000000   0.000092  -0.000001
     2  C   -0.007580  -0.003225   0.000017   0.000001   0.004694   0.007742
     3  C    0.006542  -0.003393  -0.000041   0.000000   0.022674   0.002530
     4  O   -0.000002  -0.000059   0.000000   0.000000   0.000067  -0.000641
     5  H    0.000000   0.000004   0.000000   0.000000  -0.000003  -0.000005
     6  C    0.011664   0.062249  -0.000556  -0.000022  -0.136352  -0.025812
     7  O   -0.000066   0.002369  -0.000004   0.000000  -0.017972  -0.015514
     8  H   -0.000005   0.001712   0.000000   0.000000   0.041563  -0.048660
     9  C   -0.001929  -0.002102   0.000221   0.000002  -0.000286   0.000328
    10  O   -0.000038   0.000097   0.000000   0.000000  -0.000024  -0.000001
    11  H   -0.000002   0.000009   0.000000   0.000000  -0.000001   0.000000
    12  C    0.011242  -0.014811  -0.000075   0.000028  -0.036341  -0.000300
    13  O    0.015735  -0.011781  -0.000042   0.000000   0.015327  -0.001432
    14  C   -0.007568  -0.356787   0.002922  -0.000445  -0.209683   0.099773
    15  O    0.022818   0.050647  -0.000538   0.000043  -0.018879  -0.014205
    16  C   -0.111203  -1.328124   0.036408  -0.022907   0.385533  -0.034871
    17  C    0.057848  -0.511529  -0.188261   0.036383  -0.377498  -0.006066
    18  O    0.197301  -0.114301   0.010113  -0.000641   0.003657   0.000121
    19  H    0.355119   0.028752  -0.000648   0.000012  -0.004402   0.000026
    20  C    0.028752   8.532765   0.263077  -0.016652   0.086638  -0.008684
    21  O   -0.000648   0.263077   8.228359   0.191944   0.003437   0.000037
    22  H    0.000012  -0.016652   0.191944   0.450567  -0.000440   0.000000
    23  C   -0.004402   0.086638   0.003437  -0.000440   6.328178  -0.156700
    24  O    0.000026  -0.008684   0.000037   0.000000  -0.156700   8.506784
    25  H    0.000000   0.001014   0.000000   0.000000   0.051211   0.201998
    26  C    0.010921   0.519836   0.010844   0.007106  -0.727311   0.139240
    27  O    0.000070  -0.182799   0.005747   0.001833  -0.083344   0.003359
    28  C   -0.003818  -1.043369  -0.040563  -0.000681  -0.120459   0.013902
    29  O    0.000025  -0.115354  -0.012292   0.028148  -0.011536   0.000106
    30  H    0.000000  -0.029503  -0.000023  -0.002776   0.001013   0.000000
    31  H    0.000005  -0.133340   0.004866  -0.000835  -0.000480   0.000029
    32  H   -0.000050   0.367998  -0.040089  -0.007362   0.013938   0.000000
    33  H   -0.004089  -0.140684   0.001981  -0.000197   0.016027  -0.000109
    34  H   -0.000151   0.013502  -0.000619   0.000007  -0.003969   0.000217
    35  H    0.000021  -0.038597   0.000131   0.000005  -0.009372   0.004982
    36  H    0.000000   0.001985  -0.000009   0.000000   0.466437  -0.044274
    37  H    0.000001  -0.003387  -0.000002   0.000000   0.471582  -0.068242
    38  H    0.000000   0.000001   0.000000   0.000000   0.000004   0.000000
    39  H    0.000565  -0.000915   0.000001   0.000000   0.000029   0.000000
    40  H    0.000059   0.000090   0.000000   0.000000   0.000011   0.000000
    41  H    0.000193   0.000493   0.000000   0.000000   0.000653   0.000003
    42  H    0.000001   0.000021   0.000000   0.000000   0.000106   0.000004
    43  H   -0.000003   0.000041   0.000000   0.000000   0.001245   0.000205
    44  H    0.000011   0.000446   0.000000   0.000000   0.001644   0.000636
    45  H    0.000432   0.009437  -0.000005   0.000000   0.010473   0.000130
             25         26         27         28         29         30
     1  O    0.000000  -0.000138   0.000000   0.000004   0.000000   0.000000
     2  C   -0.000348   0.049169  -0.000242   0.000959  -0.000002   0.000000
     3  C    0.001320  -0.124591   0.000405  -0.005559   0.000067   0.000001
     4  O    0.000006   0.000677   0.000001   0.000018   0.000000   0.000000
     5  H    0.000000  -0.000014   0.000000   0.000000   0.000000   0.000000
     6  C    0.001664  -0.370856   0.002456  -0.008848  -0.000248  -0.000003
     7  O    0.001064   0.012067   0.000035   0.000876  -0.000006   0.000000
     8  H    0.001226  -0.042684   0.000040  -0.000688   0.000000   0.000000
     9  C   -0.000018   0.020887   0.000027  -0.001631   0.000000   0.000000
    10  O    0.000000  -0.000006   0.000000  -0.000005   0.000000   0.000000
    11  H    0.000000   0.000004   0.000000   0.000000   0.000000   0.000000
    12  C   -0.000579   0.141175   0.000584   0.001749   0.000104   0.000000
    13  O    0.000004   0.007811   0.000347   0.003574   0.000018   0.000000
    14  C   -0.015252  -0.350617   0.013315  -0.045492   0.002509   0.000091
    15  O    0.001280  -0.029572   0.011722   0.002406   0.000251  -0.000001
    16  C    0.003207  -4.015649  -0.116699   0.590870   0.003870  -0.004961
    17  C   -0.001228   0.363546  -0.023903  -0.038330  -0.005748   0.011675
    18  O    0.000001   0.054747   0.001362   0.003477  -0.000595  -0.000030
    19  H    0.000000   0.010921   0.000070  -0.003818   0.000025   0.000000
    20  C    0.001014   0.519836  -0.182799  -1.043369  -0.115354  -0.029503
    21  O    0.000000   0.010844   0.005747  -0.040563  -0.012292  -0.000023
    22  H    0.000000   0.007106   0.001833  -0.000681   0.028148  -0.002776
    23  C    0.051211  -0.727311  -0.083344  -0.120459  -0.011536   0.001013
    24  O    0.201998   0.139240   0.003359   0.013902   0.000106   0.000000
    25  H    0.413806  -0.016719  -0.000377  -0.002611   0.000002   0.000000
    26  C   -0.016719  10.908900   0.319395  -0.573722  -0.063325   0.012610
    27  O   -0.000377   0.319395   8.360638   0.129639  -0.060951   0.001669
    28  C   -0.002611  -0.573722   0.129639   6.108318   0.387277   0.014210
    29  O    0.000002  -0.063325  -0.060951   0.387277   8.225071   0.233256
    30  H    0.000000   0.012610   0.001669   0.014210   0.233256   0.405738
    31  H    0.000000  -0.072764  -0.056951   0.429849  -0.048481  -0.007371
    32  H    0.000000  -0.011111   0.004460  -0.012882  -0.004523   0.000231
    33  H    0.000000  -0.035332   0.004360  -0.003629  -0.000353   0.000009
    34  H   -0.000006  -0.080279   0.004368  -0.001275  -0.000753   0.000002
    35  H   -0.000173   0.220753  -0.035984   0.028936  -0.000364   0.000015
    36  H   -0.010075  -0.115046  -0.002601  -0.000022  -0.000273   0.000000
    37  H   -0.003224  -0.098717   0.007340   0.008123  -0.000061   0.000000
    38  H    0.000000  -0.000006   0.000000   0.000000   0.000000   0.000000
    39  H    0.000000   0.000115   0.000000   0.000060   0.000000   0.000000
    40  H    0.000000  -0.000068   0.000000  -0.000003   0.000000   0.000000
    41  H    0.000000  -0.000852   0.000000  -0.000040   0.000000   0.000000
    42  H    0.000000  -0.000040   0.000000  -0.000006   0.000000   0.000000
    43  H    0.000000   0.001058   0.000000  -0.000020   0.000000   0.000000
    44  H   -0.000018   0.004388  -0.000002  -0.000006   0.000000   0.000000
    45  H    0.000021  -0.012227   0.000074  -0.001146  -0.000004   0.000000
             31         32         33         34         35         36
     1  O    0.000000   0.000000   0.000000  -0.000002   0.000000   0.000000
     2  C   -0.000004   0.000033   0.000284  -0.001686  -0.000168   0.000015
     3  C    0.000016   0.000037   0.000126   0.002749   0.001007   0.000112
     4  O    0.000000   0.000000   0.000000   0.000000   0.000000   0.000000
     5  H    0.000000   0.000000   0.000000   0.000000   0.000000   0.000000
     6  C    0.000033  -0.000595  -0.000088   0.012285   0.006746   0.001092
     7  O    0.000000   0.000000  -0.000032  -0.000417  -0.000157  -0.000363
     8  H    0.000000   0.000000   0.000007   0.000167   0.000075   0.000138
     9  C   -0.000003  -0.000082   0.000031   0.000161   0.000017  -0.000004
    10  O    0.000000   0.000000   0.000000   0.000002   0.000000   0.000000
    11  H    0.000000   0.000000   0.000000   0.000000   0.000000   0.000000
    12  C    0.000034   0.000785   0.002193   0.005605   0.000443  -0.000168
    13  O    0.000005   0.000429   0.002739   0.001605  -0.000206  -0.000012
    14  C    0.006726   0.005951   0.039622   0.025978   0.045864  -0.006150
    15  O    0.000177  -0.001302  -0.011112  -0.064697   0.006005  -0.000068
    16  C    0.113605   0.121637   0.052444   0.298561   0.011112   0.041059
    17  C   -0.011333  -0.198897   0.351209   0.027681   0.003877  -0.003253
    18  O   -0.000765   0.002846  -0.051146  -0.002774  -0.000416   0.000031
    19  H    0.000005  -0.000050  -0.004089  -0.000151   0.000021   0.000000
    20  C   -0.133340   0.367998  -0.140684   0.013502  -0.038597   0.001985
    21  O    0.004866  -0.040089   0.001981  -0.000619   0.000131  -0.000009
    22  H   -0.000835  -0.007362  -0.000197   0.000007   0.000005   0.000000
    23  C   -0.000480   0.013938   0.016027  -0.003969  -0.009372   0.466437
    24  O    0.000029   0.000000  -0.000109   0.000217   0.004982  -0.044274
    25  H    0.000000   0.000000   0.000000  -0.000006  -0.000173  -0.010075
    26  C   -0.072764  -0.011111  -0.035332  -0.080279   0.220753  -0.115046
    27  O   -0.056951   0.004460   0.004360   0.004368  -0.035984  -0.002601
    28  C    0.429849  -0.012882  -0.003629  -0.001275   0.028936  -0.000022
    29  O   -0.048481  -0.004523  -0.000353  -0.000753  -0.000364  -0.000273
    30  H   -0.007371   0.000231   0.000009   0.000002   0.000015   0.000000
    31  H    0.627070   0.005217   0.002899   0.000005   0.006548  -0.000035
    32  H    0.005217   0.590472   0.006722   0.002939   0.000025   0.000001
    33  H    0.002899   0.006722   0.620983   0.006005   0.003052   0.000003
    34  H    0.000005   0.002939   0.006005   0.602083   0.005425   0.000063
    35  H    0.006548   0.000025   0.003052   0.005425   0.596551  -0.005599
    36  H   -0.000035   0.000001   0.000003   0.000063  -0.005599   0.578201
    37  H   -0.000003  -0.000002   0.000005   0.004599   0.005866  -0.046615
    38  H    0.000000   0.000000   0.000000   0.000000   0.000000   0.000000
    39  H    0.000000   0.000000   0.000000   0.000000   0.000000   0.000000
    40  H    0.000000   0.000000   0.000000   0.000000   0.000000   0.000000
    41  H    0.000000   0.000000   0.000000  -0.000008   0.000000   0.000000
    42  H    0.000000   0.000000   0.000000   0.000000   0.000000   0.000000
    43  H    0.000000   0.000000   0.000000  -0.000002   0.000000   0.000000
    44  H    0.000000   0.000000  -0.000006   0.000010  -0.000006   0.000000
    45  H    0.000000  -0.000009  -0.000017   0.010013  -0.000002   0.000003
             37         38         39         40         41         42
     1  O    0.000000   0.230761   0.000126   0.002286   0.006871  -0.040774
     2  C   -0.000063   0.068410  -0.029929  -0.010408   0.004660   0.432071
     3  C   -0.000233  -0.030210  -0.007177  -0.002113  -0.066180  -0.063504
     4  O    0.000003   0.000245   0.000033   0.000013   0.000138   0.001014
     5  H    0.000000  -0.002978   0.000000   0.000000   0.000013  -0.000394
     6  C   -0.000499   0.000847   0.005676   0.007485  -0.007930  -0.025033
     7  O    0.001378  -0.000018  -0.000016   0.000000  -0.000234  -0.000265
     8  H    0.001106   0.000000   0.000000   0.000000   0.000002   0.000002
     9  C    0.000029  -0.010761   0.473045   0.586441   0.077503  -0.002222
    10  O    0.000000   0.000336  -0.048419  -0.072094   0.001654   0.000124
    11  H    0.000000   0.000005  -0.011241  -0.002225  -0.000106  -0.000007
    12  C    0.001243  -0.011912  -0.066843  -0.235070   0.173750  -0.120789
    13  O    0.000228  -0.000670  -0.002035   0.003672  -0.033096   0.010128
    14  C    0.014830   0.001962  -0.001436   0.003019   0.078479   0.060948
    15  O    0.001706  -0.000007  -0.000337  -0.000255  -0.000958  -0.000341
    16  C   -0.051300   0.000212   0.003718  -0.001026   0.007595   0.000074
    17  C    0.008751  -0.000039  -0.000276  -0.000233   0.001732   0.000349
    18  O   -0.000024   0.000000  -0.000125  -0.000033   0.000041   0.000049
    19  H    0.000001   0.000000   0.000565   0.000059   0.000193   0.000001
    20  C   -0.003387   0.000001  -0.000915   0.000090   0.000493   0.000021
    21  O   -0.000002   0.000000   0.000001   0.000000   0.000000   0.000000
    22  H    0.000000   0.000000   0.000000   0.000000   0.000000   0.000000
    23  C    0.471582   0.000004   0.000029   0.000011   0.000653   0.000106
    24  O   -0.068242   0.000000   0.000000   0.000000   0.000003   0.000004
    25  H   -0.003224   0.000000   0.000000   0.000000   0.000000   0.000000
    26  C   -0.098717  -0.000006   0.000115  -0.000068  -0.000852  -0.000040
    27  O    0.007340   0.000000   0.000000   0.000000   0.000000   0.000000
    28  C    0.008123   0.000000   0.000060  -0.000003  -0.000040  -0.000006
    29  O   -0.000061   0.000000   0.000000   0.000000   0.000000   0.000000
    30  H    0.000000   0.000000   0.000000   0.000000   0.000000   0.000000
    31  H   -0.000003   0.000000   0.000000   0.000000   0.000000   0.000000
    32  H   -0.000002   0.000000   0.000000   0.000000   0.000000   0.000000
    33  H    0.000005   0.000000   0.000000   0.000000   0.000000   0.000000
    34  H    0.004599   0.000000   0.000000   0.000000  -0.000008   0.000000
    35  H    0.005866   0.000000   0.000000   0.000000   0.000000   0.000000
    36  H   -0.046615   0.000000   0.000000   0.000000   0.000000   0.000000
    37  H    0.594959   0.000000   0.000000   0.000000   0.000000   0.000000
    38  H    0.000000   0.392765  -0.000007  -0.000060  -0.000113  -0.010479
    39  H    0.000000  -0.000007   0.607331  -0.052459  -0.005508   0.000225
    40  H    0.000000  -0.000060  -0.052459   0.640505   0.006923   0.004435
    41  H    0.000000  -0.000113  -0.005508   0.006923   0.597296   0.005797
    42  H    0.000000  -0.010479   0.000225   0.004435   0.005797   0.598347
    43  H    0.000000   0.000012   0.000009  -0.000013   0.003904   0.006149
    44  H   -0.000001   0.000017   0.000002  -0.000021   0.000042   0.003293
    45  H    0.000134   0.000002  -0.000034  -0.000012   0.005408   0.000000
             43         44         45
     1  O   -0.002964  -0.000627  -0.000054
     2  C    0.167320   0.149154   0.036707
     3  C    0.152257  -0.277131  -0.054297
     4  O   -0.039423   0.006159  -0.000201
     5  H   -0.008675  -0.000250   0.000005
     6  C   -0.244124   0.282963  -0.082676
     7  O    0.007607  -0.046477   0.004503
     8  H   -0.000113  -0.004677  -0.000710
     9  C    0.038434   0.021936   0.013216
    10  O    0.000048   0.000020   0.000055
    11  H    0.000000   0.000000   0.000000
    12  C   -0.031264  -0.000094  -0.001617
    13  O    0.008101   0.018908  -0.055633
    14  C    0.134257   0.058556   0.351574
    15  O   -0.000294  -0.011380  -0.068634
    16  C    0.009656   0.008858   0.035638
    17  C    0.000469   0.005058   0.033362
    18  O    0.000053   0.000161  -0.001095
    19  H   -0.000003   0.000011   0.000432
    20  C    0.000041   0.000446   0.009437
    21  O    0.000000   0.000000  -0.000005
    22  H    0.000000   0.000000   0.000000
    23  C    0.001245   0.001644   0.010473
    24  O    0.000205   0.000636   0.000130
    25  H    0.000000  -0.000018   0.000021
    26  C    0.001058   0.004388  -0.012227
    27  O    0.000000  -0.000002   0.000074
    28  C   -0.000020  -0.000006  -0.001146
    29  O    0.000000   0.000000  -0.000004
    30  H    0.000000   0.000000   0.000000
    31  H    0.000000   0.000000   0.000000
    32  H    0.000000   0.000000  -0.000009
    33  H    0.000000  -0.000006  -0.000017
    34  H   -0.000002   0.000010   0.010013
    35  H    0.000000  -0.000006  -0.000002
    36  H    0.000000   0.000000   0.000003
    37  H    0.000000  -0.000001   0.000134
    38  H    0.000012   0.000017   0.000002
    39  H    0.000009   0.000002  -0.000034
    40  H   -0.000013  -0.000021  -0.000012
    41  H    0.003904   0.000042   0.005408
    42  H    0.006149   0.003293   0.000000
    43  H    0.653401   0.008324   0.004675
    44  H    0.008324   0.627696   0.006047
    45  H    0.004675   0.006047   0.636457
 Mulliken atomic charges:
              1
     1  O   -0.532764
     2  C   -0.120505
     3  C    0.039371
     4  O   -0.482300
     5  H    0.349722
     6  C   -0.119272
     7  O   -0.579517
     8  H    0.488677
     9  C   -0.088069
    10  O   -0.526461
    11  H    0.354873
    12  C    0.183132
    13  O   -0.421293
    14  C    0.247888
    15  O   -0.365638
    16  C   -0.043845
    17  C    0.039342
    18  O   -0.537045
    19  H    0.422200
    20  C    0.116141
    21  O   -0.476340
    22  H    0.336876
    23  C   -0.011179
    24  O   -0.556632
    25  H    0.372804
    26  C   -0.063602
    27  O   -0.309394
    28  C    0.180556
    29  O   -0.555832
    30  H    0.364148
    31  H    0.135281
    32  H    0.153183
    33  H    0.136092
    34  H    0.132605
    35  H    0.143586
    36  H    0.145427
    37  H    0.150489
    38  H    0.371680
    39  H    0.135821
    40  H    0.121154
    41  H    0.141876
    42  H    0.140718
    43  H    0.129672
    44  H    0.136369
    45  H    0.120006
 Sum of Mulliken atomic charges =   0.00000
 Mulliken charges with hydrogens summed into heavy atoms:
              1
     1  O   -0.161084
     2  C    0.020213
     3  C    0.169043
     4  O   -0.132578
     6  C    0.017097
     7  O   -0.090840
     9  C    0.168906
    10  O   -0.171588
    12  C    0.325008
    13  O   -0.421293
    14  C    0.367894
    15  O   -0.365638
    16  C    0.088760
    17  C    0.175434
    18  O   -0.114846
    20  C    0.269324
    21  O   -0.139464
    23  C    0.284737
    24  O   -0.183829
    26  C    0.079984
    27  O   -0.309394
    28  C    0.315837
    29  O   -0.191684
 Sum of Mulliken charges with hydrogens summed into heavy atoms =   0.00000
 APT atomic charges:
              1
     1  O   -0.630985
     2  C    0.385812
     3  C    0.401036
     4  O   -0.621437
     5  H    0.254966
     6  C    0.386698
     7  O   -0.796506
     8  H    0.555152
     9  C    0.472032
    10  O   -0.620302
    11  H    0.256528
    12  C    0.451827
    13  O   -0.849142
    14  C    0.946926
    15  O   -0.902349
    16  C    0.470415
    17  C    0.399856
    18  O   -0.708647
    19  H    0.389597
    20  C    0.369946
    21  O   -0.604182
    22  H    0.252909
    23  C    0.432269
    24  O   -0.666815
    25  H    0.265243
    26  C    0.430533
    27  O   -0.790302
    28  C    0.904942
    29  O   -0.670108
    30  H    0.267556
    31  H   -0.073262
    32  H   -0.037061
    33  H   -0.056845
    34  H   -0.036185
    35  H   -0.045585
    36  H   -0.039608
    37  H   -0.030487
    38  H    0.272095
    39  H   -0.048792
    40  H   -0.068528
    41  H   -0.046813
    42  H   -0.037089
    43  H   -0.064724
    44  H   -0.050309
    45  H   -0.070275
 Sum of APT charges=   0.00000
 APT Atomic charges with hydrogens summed into heavy atoms:
              1
     1  O   -0.358890
     2  C    0.348723
     3  C    0.336312
     4  O   -0.366471
[...]
 0.00011149,0.00001360,0.00013406,-0.00000917,0.00001239,-0.00002557,-0
 .00001845,0.00001041,0.00001184,0.00004473,-0.00003854,0.00001065,-0.0
 0006913,0.00005646,-0.00001856,-0.00000599,0.00000274,-0.00000313,0.00
 000802,-0.00000696,0.00000403,-0.00000165,0.00000023,-0.00000070,-0.00
 001522,-0.00000486,0.00000381,0.00000981,0.00000620,0.00001000,-0.0000
 0819,-0.00000155,-0.00000149,-0.00000799,-0.00000662,-0.00000245,0.000
 01072,-0.00000504,0.00001019,-0.00001086,0.00001005,-0.00000522,0.0000
 0395,-0.00000268,-0.00000016,-0.00000112,0.00000035,0.00000030,0.00000
 264,0.00000036,0.00000146,0.00000394,0.00000117,-0.00000179,0.00000467
 ,0.00000110,0.00000631,0.00000831,-0.00000070,-0.00000457,0.00000451,0
 .00000043,0.00000442,0.00000102,0.00000005,0.00000064,0.00000573,0.000
 00145,-0.00000113,0.00086502,-0.00005736,-0.00027597,0.00045958,0.0000
 3232,-0.00008824,0.00095741,-0.00082568,-0.00027765,0.00008959,-0.0007
 6796,0.00106236,0.38179223,-0.00656084,0.00140878,-0.00197881,0.021342
 28,-0.04515475,-0.00180008,0.03268058,-0.00163775,-0.00626328,-0.00246
 116,0.00324399,0.00034828,0.00050655,-0.00004498,0.00009316,0.00140714
 ,0.00104116,0.00162325,-0.00059524,-0.00011889,-0.00003252,-0.00006995
 ,0.00001189,0.00006167,-0.00235959,0.00187022,0.00012297,0.00054925,0.
 00004172,0.00008159,-0.00005037,-0.00007916,0.00001666,-0.02514005,0.0
 0079522,0.00360019,0.00165852,0.00093847,-0.00081334,0.00028816,-0.000
 54459,-0.00005927,-0.00003235,0.00009954,-0.00002980,-0.00002454,0.000
 02048,-0.00000161,0.00000763,0.00000571,-0.00000240,0.00001836,-0.0000
 1782,-0.00000991,-0.00002206,0.00003505,-0.00000027,-0.00000584,-0.000
 00029,0.00000021,0.00000207,0.00000029,-0.00000138,-0.00000047,0.00000
 026,-0.00000011,0.00000691,-0.00000392,0.00000339,-0.00000169,-0.00000
 859,-0.00003066,0.00000781,0.00000551,0.00000023,0.00000447,-0.0000033
 6,0.00000800,-0.00000290,0.00000166,-0.00000368,0.00000201,-0.00000009
 ,0.00000506,0.00000137,-0.00000079,-0.00000467,0.00000009,0.00000069,0
 .00000101,-0.00000050,0.00000043,-0.00000016,0.00000074,-0.00000010,-0
 .00000039,-0.00000063,0.00000042,-0.00000074,0.00000111,-0.00000629,0.
 00000567,-0.00000153,0.00000138,-0.00000145,-0.00000026,0.00000061,-0.
 00000321,-0.00000346,-0.00000147,0.00000308,-0.00026420,0.00123401,0.0
 0036580,0.00033476,0.00023626,-0.00016454,0.00079437,-0.00036926,-0.00
 021288,-0.00146488,-0.00278920,0.00295317,-0.02114288,0.04472415,-0.03
 975782,-0.00010714,-0.01254482,0.04330343,-0.00278032,-0.04953820,0.01
 267544,0.00144264,-0.00111352,-0.00130568,0.00005924,0.00088398,-0.000
 14598,-0.00048507,-0.00024052,0.00127219,0.00014653,0.00071289,-0.0003
 9282,0.00002177,-0.00003940,0.00001711,0.00002851,0.00002940,0.0003088
 3,-0.00165039,0.00018360,-0.00020064,-0.00000127,0.00011771,0.00002558
 ,-0.00001929,0.00006324,0.02333978,-0.00160087,-0.00151628,-0.00154710
 ,-0.00064362,0.00165821,0.00043700,-0.00005523,-0.00017199,-0.00011801
 ,0.00002057,-0.00019895,-0.00000248,-0.00003446,0.00003902,0.00001854,
 -0.00000815,-0.00000101,-0.00005060,0.00002048,-0.00000955,0.00007338,
 -0.00002324,0.00000707,0.00000511,-0.00000653,0.00001124,-0.00000974,0
 .00001273,-0.00001412,0.00000211,-0.00000129,0.00000214,0.00001389,0.0
 0000618,0.00000269,-0.00001009,-0.00001065,-0.00001467,0.00000567,0.00
 000527,0.00000204,0.00000357,0.00001213,0.00001176,-0.00000869,0.00000
 770,-0.00002752,0.00000913,-0.00001256,0.00002356,0.00000225,0.0000025
 0,-0.00001381,0.00000058,0.00000038,0.00000264,-0.00000253,-0.00000002
 ,-0.00000284,-0.00000417,-0.00000078,0.00000240,-0.00000728,-0.0000020
 3,-0.00000891,-0.00000807,-0.00000012,0.00000971,-0.00000436,-0.000001
 84,-0.00000589,-0.00000195,-0.00000249,-0.00000235,-0.00000568,0.00000
 091,0.00000319,-0.00255147,0.00041270,0.00342261,-0.00016076,-0.000142
 94,0.00000287,-0.00069692,0.00028364,0.00029649,0.00131510,0.00256197,
 -0.00308480,-0.03572072,0.00492914,0.06208850,0.00193504,-0.00015544,-
 0.00001625,-0.01446987,0.00130174,0.00001412,-0.35046244,0.00503338,0.
 02106106,-0.00352291,-0.00998021,0.00941378,0.00026347,-0.00096980,0.0
 0015591,-0.01707777,0.00159818,-0.00170234,0.00197788,-0.00076756,-0.0
 0031719,0.00002777,-0.00001427,0.00030537,0.00084990,0.00035408,-0.000
 15591,-0.00000078,-0.00001104,-0.00003780,0.00000084,0.00001824,0.0000
 0770,-0.00131335,-0.00238745,0.00080182,0.00060081,0.00066526,-0.00011
 179,-0.00144802,-0.00125464,0.00105803,0.00079781,-0.00004190,-0.00000
 537,-0.00004756,0.00007267,-0.00011766,-0.00000667,-0.00001501,-0.0000
 4044,0.00005243,0.00000450,0.00004198,-0.00004131,0.00000560,-0.000017
 66,-0.00002233,0.00001010,-0.00000566,0.00001670,-0.00000007,0.0000081
 3,-0.00000549,-0.00000109,-0.00000401,-0.00009948,-0.00007078,0.000044
 02,0.00005599,0.00002769,-0.00015546,-0.00003104,-0.00001045,0.0000035
 4,-0.00000331,-0.00001645,-0.00000537,0.00001904,0.00001605,-0.0000055
 3,-0.00000879,-0.00001004,-0.00000611,0.00000583,0.00000508,0.00000253
 ,-0.00000151,-0.00000127,-0.00000119,0.00000394,0.00000167,0.00000305,
 0.00000670,0.00000136,-0.00000232,0.00001207,0.00000167,0.00001260,0.0
 0001327,0.00001005,-0.00004427,0.00001181,-0.00000272,0.00001313,0.000
 01658,0.00001224,-0.00001163,0.00003034,0.00001103,-0.00001449,0.00029
 836,-0.00036588,-0.00026623,0.00001595,0.00010751,-0.00000158,0.000186
 07,-0.00048762,-0.00005967,0.00199297,-0.00024486,-0.00042379,0.000259
 35,0.00169108,0.00061216,0.37829344,-0.00175676,0.00202165,0.00155561,
 0.03217950,-0.00556422,-0.00308502,0.00178059,-0.03809889,-0.00527800,
 -0.03350491,-0.01347791,0.01701064,-0.00028059,-0.00012862,-0.00125361
 ,-0.00778092,0.00200235,-0.00069014,0.00048143,0.00092625,0.00114888,0
 .00007763,0.00000448,-0.00012925,0.00054783,-0.00000663,-0.00014091,-0
 .00018463,-0.00004330,-0.00007003,0.00001878,0.00002697,-0.00000245,0.
 00322658,-0.00059255,-0.00108800,-0.00052001,-0.00009914,0.00000475,0.
 00060837,-0.00000370,0.00076700,0.00005037,-0.00010732,-0.00008473,0.0
 0003436,0.00000877,-0.00000133,-0.00000430,-0.00001083,-0.00000868,-0.
 00001219,0.00000292,0.00001414,0.00000908,-0.00000450,-0.00001464,-0.0
 0000026,0.00000140,0.00000207,0.00000198,-0.00000381,-0.00000167,-0.00
 000128,0.00000194,-0.00000027,-0.00001204,0.00001964,-0.00002546,0.000
 02193,0.00000915,0.00009968,-0.00002975,-0.00001219,-0.00001322,-0.000
 00639,0.00002770,0.00000055,0.00000766,-0.00001781,0.00000229,-0.00000
 404,0.00000929,-0.00000743,-0.00000132,-0.00000253,0.00000464,-0.00000
 022,-0.00000007,-0.00000095,0.00000075,-0.00000061,0.00000066,0.000000
 07,0.00000053,0.00000008,-0.00000075,0.00000086,0.00000083,-0.00000210
 ,0.00000465,-0.00000535,0.00000318,-0.00000514,0.00000209,-0.00000020,
 -0.00000465,0.00000730,0.00000460,0.00000460,-0.00000566,0.00001783,0.
 00018268,0.00038802,-0.00012017,0.00004161,0.00003800,-0.00037759,-0.0
 0013967,0.00013692,-0.00040890,-0.00124805,0.00048579,0.00094752,-0.00
 482075,-0.00221974,0.00558691,0.05874119,-0.00027913,0.00117398,0.0017
 4432,0.01594358,-0.00453126,-0.00015875,0.02044247,-0.00638114,-0.0448
 5263,0.02631511,0.01552591,-0.01008236,0.00190877,0.00061453,0.0006041
 2,-0.03590784,0.00037003,-0.00077027,0.00238471,0.00047054,0.00185288,
 0.00007289,0.00018183,-0.00002552,-0.00016857,-0.00016311,-0.00004386,
 -0.00002937,-0.00000902,0.00000612,0.00000063,0.00000616,-0.00000996,-
 0.00015245,0.00205815,-0.00018265,0.00032476,0.00010124,-0.00008268,-0
 .00245895,-0.00058659,0.00056162,0.00047841,-0.00002282,0.00010779,0.0
 0012253,0.00001367,0.00003847,-0.00000817,-0.00001850,0.00000164,0.000
 02192,0.00001573,0.00001113,-0.00002808,-0.00001614,-0.00000899,-0.000
 00303,-0.00000143,0.00000577,0.00000142,0.00000785,-0.00000598,-0.0000
 0101,-0.00000089,-0.00000011,-0.00002321,0.00001186,0.00000918,0.00000
 621,0.00000162,0.00007656,-0.00001036,0.00000218,-0.00000517,-0.000014
 75,0.00000963,0.00001419,0.00000824,-0.00000060,-0.00002293,-0.0000027
 1,-0.00000884,0.00001332,0.00000613,0.00000153,-0.00000829,-0.00000134
 ,0.00000061,0.00000179,0.00000044,0.00000121,0.00000015,0.00000077,0.0
 0000138,-0.00000082,0.00000385,-0.00000044,0.00000859,0.00002652,0.000
 01359,-0.00006026,0.00000579,-0.00000171,0.00000776,0.00000240,-0.0000
 0376,0.00000299,0.00001003,0.00000303,-0.00000559,0.00001917,0.0003693
 7,0.00016343,-0.00007276,-0.00004136,0.00001729,-0.00014019,0.00013686
 ,0.00001933,-0.00062877,0.00035376,0.00038953,0.00060035,-0.00231618,-
 0.00090549,-0.02686934,-0.00643913,0.05775666,0.00063346,0.00002821,-0
 .00008365,-0.00054791,0.00117822,0.00074206,-0.01724016,-0.00257816,-0
 .00082721,0.00175779,0.00055675,0.00012731,0.00017070,0.00001798,0.000
 16904,-0.35246787,0.01272901,0.01783707,-0.00229529,0.01313201,0.00721
 127,-0.00022338,0.00029090,-0.00148890,-0.00011214,-0.00004623,0.00003
 466,0.00008256,0.00003715,0.00002348,-0.00001645,-0.00000993,0.0000042
 1,-0.00035605,-0.00030347,-0.00010431,0.00236546,-0.00050624,-0.000864
 90,-0.01442445,0.00061210,0.00119343,0.00147945,0.00009721,-0.00105956
 ,0.00033209,0.00006358,0.00020328,-0.00002612,0.00007124,0.00004448,0.
 00009296,-0.00005183,-0.00008592,-0.00011736,-0.00004893,0.00005991,-0
 .00001561,0.00001298,0.00001252,0.00001897,-0.00002635,-0.00001349,-0.
 00000379,0.00000722,0.00000044,0.00004529,0.00024789,-0.00021762,0.000
 05066,-0.00003915,0.00083008,-0.00005503,-0.00006341,-0.00009803,-0.00
 004134,0.00012568,-0.00001010,0.00004834,-0.00013737,0.00000916,-0.000
 04453,0.00008368,-0.00002357,0.00000903,-0.00002545,0.00000280,-0.0000
 0223,0.00000220,0.00000121,0.00000733,-0.00000394,0.00000439,0.0000079
 0,0.00000409,-0.00000417,0.00000962,-0.00001519,0.00002708,0.00005684,
 0.00006697,-0.00029184,0.00001630,-0.00000950,0.00002451,-0.00001322,-
 0.00004201,0.00006731,0.00000072,-0.00001974,-0.00001452,-0.00004093,-
 0.00011055,-0.00013276,0.00001098,-0.00001881,-0.00001316,0.00007250,-
 0.00005674,-0.00003664,0.00015230,0.00021499,-0.00001306,0.00069605,-0
 .00091595,-0.00050203,-0.00013115,-0.00070118,-0.00247899,0.37991072,0
 .00004635,-0.00009618,0.00007462,-0.00092877,0.00014157,-0.00014915,-0
 .00512024,0.00179531,-0.00047425,0.00053767,0.00038120,-0.00032518,-0.
 00009090,-0.00005446,0.00004270,0.01510570,-0.03582154,0.00402226,0.03
 806129,-0.02499878,-0.01487237,0.00168136,0.00050697,0.00178216,-0.000
 07529,0.00002136,-0.00000320,0.00002532,-0.00002162,-0.00000153,-0.000
 00496,-0.00000218,-0.00000258,-0.00022079,-0.00019137,-0.00021020,0.00
 107452,0.00226693,-0.00018884,-0.02729869,-0.00018911,0.00343989,0.001
 04114,0.00074551,-0.00160490,-0.00014676,0.00009096,-0.00009090,0.0000
 8903,0.00000727,-0.00006729,0.00007809,-0.00000357,0.00004239,-0.00010
 690,0.00002058,0.00000561,-0.00002541,0.00001340,-0.00000949,0.0000064
 5,0.00001951,0.00000377,-0.00000282,-0.00000601,-0.00000305,-0.0002327
 7,-0.00032327,0.00029872,-0.00028509,-0.00002837,-0.00125076,0.0001067
 2,0.00010706,0.00018836,0.00011720,-0.00012534,0.00000206,-0.00003603,
 0.00013069,-0.00004935,0.00003660,-0.00008435,0.00002828,0.00000170,0.
 00002621,-0.00001411,0.00000169,-0.00000087,0.00000068,-0.00000412,0.0
 0000605,-0.00000134,0.00000516,0.00000293,-0.00000431,0.00001459,-0.00
 001991,0.00002092,0.00016659,0.00002905,-0.00008070,-0.00000789,0.0000
 2726,0.00000915,0.00004695,0.00005369,-0.00007644,0.00004274,-0.000000
 54,0.00003083,0.00002342,0.00003423,0.00001824,0.00000062,-0.00001200,
 0.00001128,0.00002801,-0.00003625,-0.00002592,0.00016782,0.00010322,0.
 00004394,0.00006192,-0.00000508,-0.00020668,-0.00031799,0.00022121,-0.
 00110885,-0.02273636,0.05838630,0.00051163,0.00016996,-0.00015800,-0.0
 0109543,0.00099745,0.00128156,-0.03668233,-0.00143728,-0.00105538,0.00
 203750,-0.00019629,0.00236391,0.00018943,-0.00034958,0.00055032,0.0169
 0638,0.00433066,-0.04438459,0.01386394,-0.01267010,-0.00094397,0.00085
 085,-0.00009811,0.00073097,-0.00002086,-0.00001515,0.00008281,0.000000
 32,-0.00000998,-0.00000102,0.00000531,-0.00000009,0.00000217,-0.000327
 62,-0.00005346,-0.00043378,-0.00174374,-0.00126047,0.00065747,0.028004
 22,0.00247110,-0.00338981,-0.00055924,-0.00080597,0.00240863,0.0002561
 6,-0.00011043,-0.00027807,-0.00006625,-0.00001451,0.00011117,-0.000103
 51,0.00000733,-0.00002136,0.00011907,0.00001350,0.00003877,0.00002650,
 -0.00003889,-0.00002077,-0.00001626,-0.00000480,0.00002138,0.00000433,
 -0.00000445,0.00000266,0.00003482,-0.00007236,0.00005729,-0.00016517,-
 0.00001482,-0.00044002,0.00003400,0.00002958,0.00010079,0.00001162,-0.
 00006630,-0.00002515,-0.00005173,0.00004536,0.00005789,0.00002000,-0.0
 0000344,-0.00000972,-0.00001079,0.00000235,0.00000664,0.00000204,-0.00
 000117,-0.00000170,-0.00000335,0.00000037,-0.00000457,-0.00000929,-0.0
 0000513,0.00000863,-0.00003707,0.00003646,-0.00003842,-0.00029476,-0.0
 0007006,0.00009338,-0.00002343,-0.00000377,-0.00005159,-0.00000876,0.0
 0001414,-0.00002250,-0.00003023,-0.00000018,0.00003240,0.00009137,-0.0
 0009902,-0.00006069,0.00000898,-0.00003703,0.00001383,0.00000383,-0.00
 003052,-0.00000278,0.00021156,0.00006159,-0.00015757,0.00055466,-0.000
 48353,-0.00021886,-0.00249908,-0.00111578,-0.00579862,-0.02122982,0.00
 795866,0.05162261,0.00004298,-0.00001994,0.00019936,0.00024416,0.00033
 679,-0.00010729,-0.00059114,-0.00026688,-0.00078052,0.00054302,0.00011
 611,-0.00013231,-0.00004266,0.00000574,0.00012200,-0.01107045,0.001947
 62,0.00322659,0.00219492,-0.00028899,-0.00139537,-0.00047503,-0.000081
 27,0.00004084,0.00039903,-0.00005928,0.00016772,-0.00000297,0.00016757
 ,0.00008860,-0.00000374,-0.00000255,0.00002545,0.00004787,-0.00028490,
 -0.00041097,-0.00200513,0.00876368,0.00399534,-0.34789523,0.01423919,0
 .05369532,-0.02010635,-0.00119481,-0.00929002,0.00036621,-0.00098739,0
 .00378681,0.00035597,0.00020214,-0.00002370,0.00035587,-0.00001467,-0.
 00029775,-0.00031586,-0.00031502,0.00041781,-0.00006890,0.00006832,0.0
 0005939,0.00003779,0.00003117,-0.00007342,-0.00001555,0.00000717,-0.00
 000768,-0.00048058,0.00004785,-0.00008987,0.00019554,-0.00002791,0.000
 03330,-0.00002626,-0.00005929,-0.00003392,0.00047135,0.00030527,-0.000
 03318,0.00009286,-0.00015956,-0.00036885,-0.00001472,0.00000175,0.0000
 8133,0.00003422,-0.00000253,-0.00006561,-0.00000040,0.00000437,0.00000
 868,0.00000468,0.00000369,0.00000160,0.00002634,0.00002266,-0.00003969
 ,0.00008834,-0.00024688,0.00018970,0.00106940,0.00044099,-0.00131022,0
 .00004779,0.00009751,0.00024509,0.00011469,0.00000036,0.00002659,0.000
 23102,-0.00004421,-0.00007079,0.00000940,0.00000167,0.00000140,-0.0000
 0209,-0.00006952,-0.00000363,0.00001727,-0.00015328,-0.00010720,0.0002
 0871,0.00036786,0.00118771,0.00000790,-0.00018391,-0.00022527,0.000949
 43,0.00010355,0.00057196,0.00014698,-0.00092684,0.00123020,0.37481329,
 0.00002926,0.00036519,-0.00028583,-0.00046229,-0.00070724,-0.00020079,
 -0.00110614,0.00004214,-0.00150464,0.00046484,0.00000982,0.00025572,0.
 00010354,-0.00012579,0.00002743,-0.02423831,0.00293952,0.00659440,0.00
 195924,0.00305251,-0.00072017,-0.00032058,-0.00006731,-0.00016387,-0.0
 0025337,0.00014022,-0.00004397,-0.00012739,-0.00030198,-0.00019723,-0.
 00001242,0.00003616,-0.00002753,0.00388016,0.00081967,0.00453405,0.035
 29069,-0.01968011,-0.01660147,0.01242704,-0.04180785,0.00094776,-0.004
 41674,0.00486158,-0.00087147,0.00087018,-0.00043453,0.00048197,0.00003
 107,-0.00030680,-0.00008631,-0.00026410,0.00024028,0.00050534,0.000139
 48,0.00010405,-0.00111078,0.00005729,0.00002730,0.00010015,-0.00002882
 ,0.00006177,-0.00006284,0.00000025,-0.00000088,0.00000477,-0.00012407,
 0.00002375,-0.00009751,0.00001563,-0.00006762,0.00000170,-0.00003557,-
 0.00002377,-0.00003293,-0.00011365,0.00022600,0.00005776,-0.00001716,-
 0.00003264,-0.00014017,0.00001726,-0.00006023,0.00010441,0.00001075,0.
 00001194,-0.00004423,-0.00000099,0.00000058,0.00000893,-0.00000559,0.0
 0000177,-0.00000659,-0.00001410,-0.00000939,-0.00000414,0.00000146,0.0
 0002430,0.00002713,0.00008203,-0.00004318,0.00019455,-0.00000694,-0.00
 005851,-0.00002672,0.00003810,-0.00001785,0.00001830,0.00004579,-0.000
 03177,-0.00006926,-0.00002975,0.00001915,-0.00000356,0.00004222,0.0000
 8435,-0.00001011,-0.00012566,0.00013159,0.00008609,-0.00139756,0.00036
 533,-0.00023955,0.00001153,-0.00011080,0.00004171,0.00059041,0.0001330
 4,0.00020552,-0.00111359,-0.00311763,0.00293420,-0.02189340,0.05328387
 ,-0.00010843,-0.00000203,-0.00030556,-0.00008251,0.00017524,-0.0001271
 8,0.00208982,-0.00012387,0.00150562,-0.00061776,0.00004011,-0.00003821
 ,0.00000279,-0.00000981,-0.00004138,0.02339517,-0.00044579,-0.00209863
 ,-0.00217425,-0.00026338,0.00127890,0.00004218,0.00037723,-0.00034958,
 -0.00010021,-0.00002676,0.00002681,-0.00008982,-0.00013308,-0.00009093
 ,0.00000265,0.00002073,-0.00001023,0.00242795,0.00017926,0.00312724,0.
 01211552,-0.00981735,-0.00254783,0.05973798,0.00195265,-0.05385577,-0.
 03778636,0.00072783,-0.01306196,-0.00561913,-0.00175860,0.00501636,0.0
 0018168,0.00016519,-0.00043417,0.00010747,0.00017083,0.00026721,-0.000
 11044,-0.00013795,-0.00060511,0.00002971,0.00011465,0.00013329,0.00001
 698,0.00006472,-0.00008015,-0.00001174,0.00000486,-0.00000637,-0.00016
 593,0.00012058,0.00002752,0.00005673,-0.00012423,0.00019152,0.00001313
 ,-0.00002062,-0.00004662,-0.00012380,-0.00002254,-0.00004091,0.0001443
 5,0.00003192,-0.00019156,-0.00000260,-0.00006471,0.00010956,0.00002833
 ,0.00001473,-0.00006698,-0.00000092,0.00000412,0.00001227,-0.00000289,
 -0.00000031,0.00000426,0.00003030,0.00001781,-0.00006079,0.00029783,-0
 .00007538,0.00005270,0.00152612,0.00034125,0.00001563,0.00013770,0.000
 08146,0.00008285,0.00004086,-0.00001678,0.00001963,0.00006133,-0.00009
 906,-0.00005343,-0.00003102,0.00000096,0.00001961,0.00001057,0.0000446
 5,-0.00000158,-0.00011369,0.00010079,0.00001582,-0.00092693,0.00017020
 ,-0.00003522,-0.00019691,-0.00000770,0.00009655,-0.00066078,0.00001149
 ,-0.00038367,0.00096458,0.00279687,-0.00272637,-0.05453560,0.00541980,
 0.06525686\\0.00260920,-0.00536441,-0.01553971,0.00964102,-0.02090275,
 -0.02881411,-0.00446362,-0.05088724,0.01386245,0.01411334,0.02168815,0
 .02640449,-0.01384963,-0.02040309,-0.01356410,-0.01383162,-0.00266810,
 -0.02173941,0.01278966,0.01622830,0.02102903,0.00355037,0.00766066,0.0
 1766701,-0.01715368,0.03371760,-0.01512424,0.01167201,0.00574376,0.006
 06697,0.00459892,-0.03314332,-0.00212351,0.01881625,0.03735067,0.02965
 809,-0.00753368,-0.00442095,0.01847275,-0.02559817,0.00496166,-0.02480
 008,0.00145476,-0.01089839,0.01668747,-0.01363037,0.00620297,0.0153456
 7,-0.00298812,0.02420488,0.01679302,0.00392050,-0.00260335,0.00401956,
 0.00382422,0.00153895,-0.02627796,-0.00541781,0.00437080,0.00038492,0.
 00998630,-0.00917535,-0.01805058,-0.01325900,0.00548078,0.02432552,0.0
 0157331,0.00743478,-0.00564229,0.00767231,-0.03027268,-0.03037596,-0.0
 1928958,0.02116855,0.01679897,0.01134557,0.00995354,0.01287953,-0.0067
 0315,-0.00890302,-0.00446324,0.04135848,-0.00967787,-0.00496733,-0.009
 82852,0.00553959,0.01290474,-0.00335297,-0.00369582,-0.00543988,-0.018
 93583,-0.00459180,-0.00519608,0.02027261,0.00161225,0.00185968,-0.0225
 1721,-0.00529614,-0.00232979,0.01969659,0.00073644,0.00148520,-0.02023
 509,-0.00382996,-0.00277391,0.00021274,-0.00862220,-0.01624903,0.01951
 358,0.00382485,0.00290576,-0.00325565,0.00344816,0.00183558,-0.0006148
 0,0.00760754,-0.01944951,-0.02253591,-0.00047458,0.00177616,0.02170619
 ,-0.00308172,0.00052008,-0.01769113,0.00145344,0.00241825,0.02360497,0
 .00130123,0.00028832,-0.02238518,0.00478497,0.00109463,0.02113783,0.00
 089822,-0.00456314\\\@


 WE THE UNWILLING
 LED BY THE UNQUALIFIED
 HAVE BEEN DOING THE UNBELIEVABLE SO LONG WITH SO LITTLE
 THAT WE NOW ATTEMPT THE IMPOSSIBLE WITH NOTHING.

                                    -- ANONYMOUS
 Job cpu time:  0 days 13 hours 26 minutes  1.3 seconds.
 File lengths (MBytes):  RWF=   1329 Int=      0 D2E=      0 Chk=     19 Scr=      1
 Normal termination of Gaussian 09 at Tue Mar  1 03:49:31 2016.
Gaussian '09 finished on node015 at Tue Mar  1 03:49:31 EST 2016.
