Gaussian '09 started on node017 at Mon Mar 21 22:32:49 EDT 2016.
 Entering Gaussian System, Link 0=/usr/local/gaussian/g09/g09
 Initial command:
 /usr/local/gaussian/g09/l1.exe /home/srmcgrat/thesis/gaussian/cellobiose/300K/5043ps/1/2dp/gaussian19653/Gau-19689.inp -scrdir=/home/srmcgrat/thesis/gaussian/cellobiose/300K/5043ps/1/2dp/gaussian19653/
 Entering Link 1 = /usr/local/gaussian/g09/l1.exe PID=     19691.
  
 Copyright (c) 1988,1990,1992,1993,1995,1998,2003,2009,2010,
            Gaussian, Inc.  All Rights Reserved.
  
 This is part of the Gaussian(R) 09 program.  It is based on
 the Gaussian(R) 03 system (copyright 2003, Gaussian, Inc.),
 the Gaussian(R) 98 system (copyright 1998, Gaussian, Inc.),
 the Gaussian(R) 94 system (copyright 1995, Gaussian, Inc.),
 the Gaussian 92(TM) system (copyright 1992, Gaussian, Inc.),
 the Gaussian 90(TM) system (copyright 1990, Gaussian, Inc.),
 the Gaussian 88(TM) system (copyright 1988, Gaussian, Inc.),
 the Gaussian 86(TM) system (copyright 1986, Carnegie Mellon
 University), and the Gaussian 82(TM) system (copyright 1983,
 Carnegie Mellon University). Gaussian is a federally registered
 trademark of Gaussian, Inc.
  
 This software contains proprietary and confidential information,
 including trade secrets, belonging to Gaussian, Inc.
  
 This software is provided under written license and may be
 used, copied, transmitted, or stored only in accord with that
 written license.
  
 The following legend is applicable only to US Government
 contracts under FAR:
  
                    RESTRICTED RIGHTS LEGEND
  
 Use, reproduction and disclosure by the US Government is
 subject to restrictions as set forth in subparagraphs (a)
 and (c) of the Commercial Computer Software - Restricted
 Rights clause in FAR 52.227-19.
  
 Gaussian, Inc.
 340 Quinnipiac St., Bldg. 40, Wallingford CT 06492
  
  
 ---------------------------------------------------------------
 Warning -- This program may not be used in any manner that
 competes with the business of Gaussian, Inc. or will provide
 assistance to any competitor of Gaussian, Inc.  The licensee
 of this program is prohibited from giving any competitor of
 Gaussian, Inc. access to this program.  By using this program,
 the user acknowledges that Gaussian, Inc. is engaged in the
 business of creating and licensing software in the field of
 computational chemistry and represents and warrants to the
 licensee that it is not a competitor of Gaussian, Inc. and that
 it will not use this program in any manner prohibited above.
 ---------------------------------------------------------------
  

 Cite this work as:
 Gaussian 09, Revision B.01,
 M. J. Frisch, G. W. Trucks, H. B. Schlegel, G. E. Scuseria, 
 M. A. Robb, J. R. Cheeseman, G. Scalmani, V. Barone, B. Mennucci, 
 G. A. Petersson, H. Nakatsuji, M. Caricato, X. Li, H. P. Hratchian, 
 A. F. Izmaylov, J. Bloino, G. Zheng, J. L. Sonnenberg, M. Hada, 
 M. Ehara, K. Toyota, R. Fukuda, J. Hasegawa, M. Ishida, T. Nakajima, 
 Y. Honda, O. Kitao, H. Nakai, T. Vreven, J. A. Montgomery, Jr., 
 J. E. Peralta, F. Ogliaro, M. Bearpark, J. J. Heyd, E. Brothers, 
 K. N. Kudin, V. N. Staroverov, T. Keith, R. Kobayashi, J. Normand, 
 K. Raghavachari, A. Rendell, J. C. Burant, S. S. Iyengar, J. Tomasi, 
 M. Cossi, N. Rega, J. M. Millam, M. Klene, J. E. Knox, J. B. Cross, 
 V. Bakken, C. Adamo, J. Jaramillo, R. Gomperts, R. E. Stratmann, 
 O. Yazyev, A. J. Austin, R. Cammi, C. Pomelli, J. W. Ochterski, 
 R. L. Martin, K. Morokuma, V. G. Zakrzewski, G. A. Voth, 
 P. Salvador, J. J. Dannenberg, S. Dapprich, A. D. Daniels, 
 O. Farkas, J. B. Foresman, J. V. Ortiz, J. Cioslowski, 
 and D. J. Fox, Gaussian, Inc., Wallingford CT, 2010.
 
 ******************************************
 Gaussian 09:  EM64L-G09RevB.01 12-Aug-2010
                21-Mar-2016 
 ******************************************
 -------------------------------------------------
 # freq=raman b3lyp/6-31+g(2d,p) geom=connectivity
 -------------------------------------------------
 1/10=4,30=1,38=1,57=2/1,3;
 2/12=2,17=6,18=5,40=1/2;
 3/5=1,6=6,7=112,11=2,16=1,25=1,30=1,71=2,74=-5/1,2,3;
 4//1;
 5/5=2,38=5,98=1/2;
 8/6=4,10=90,11=11/1;
 10/13=10,15=4/2;
 11/6=3,8=1,9=11,15=111,16=1/1,2,10;
 10/6=1/2;
 6/7=2,8=2,9=2,10=2,18=1,28=1/1;
 7/8=1,10=1,25=1/1,2,3,16;
 1/10=4,30=1/3;
 99//99;
 -----------------
 300 5043/5043.com
 -----------------
 Symbolic Z-matrix:
 Charge =  0 Multiplicity = 1
 O                     7.668     7.544     12.278 
 C                     8.273     7.954     13.513 
 C                     7.685     9.28      13.968 
 O                     7.906     10.347    13.034 
 H                     7.876     9.967     12.11 
 C                     8.213     9.669     15.339 
 O                     7.569     10.831    15.879 
 H                     8.054     11.096    16.712 
 C                     8.697     5.525     14.161 
 O                     7.868     4.776     13.26 
 H                     7.96      3.808     13.492 
 C                     8.195     6.892     14.597 
 O                     8.977     7.352     15.708 
 C                     8.239     8.455     16.255 
 O                     9.029     8.744     17.417 
 C                     8.493     8.435     18.712 
 C                     8.902     7.006     19.032 
 O                     8.551     5.961     18.114 
 H                     8.583     6.42      17.226 
 C                     8.392     6.614     20.409 
 O                     8.781     5.332     20.923 
 H                     8.395     5.169     21.831 
 C                     8.555     10.857    19.65 
 O                     8.653     11.445    18.344 
 H                     8.472     12.427    18.395 
 C                     8.972     9.401     19.783 
 O                     8.485     9.042     21.084 
 C                     8.76      7.677     21.432 
 O                     7.954     7.496     22.605 
 H                     8.35382   7.33235   11.64046 
 H                     8.84158   4.93357   15.04089 
 H                     9.64979   5.6602    13.69323 
 H                     7.17632   6.79773   14.91055 
 H                     9.31074   8.12206   13.31363 
 H                     6.62709   9.14676   14.05732 
 H                     9.236     9.94615   15.1922 
 H                     7.24902   8.15623   16.5299 
 H                     9.16067   11.43453   20.31672 
 H                     10.0411   9.3634    19.80538 
 H                     7.42528   8.48281   18.66122 
 H                     9.9704    7.00721   19.09043 
 H                     8.52299   7.37809   23.36916 
 H                     9.79323   7.57764   21.69173 
 H                     7.32397   6.60423   20.34486 
 H                     7.53766   10.93816   19.97146 
 

 GradGradGradGradGradGradGradGradGradGradGradGradGradGradGradGradGradGrad
 Berny optimization.
 Initialization pass.
 Trust Radius=3.00D-01 FncErr=1.00D-07 GrdErr=1.00D-07
 Number of steps in this run=      2 maximum allowed number of steps=      2.
 GradGradGradGradGradGradGradGradGradGradGradGradGradGradGradGradGradGrad

                          Input orientation:                          
 ---------------------------------------------------------------------
 Center     Atomic      Atomic             Coordinates (Angstroms)
 Number     Number       Type             X           Y           Z
 ---------------------------------------------------------------------
      1          8           0        7.668000    7.544000   12.278000
      2          6           0        8.273000    7.954000   13.513000
      3          6           0        7.685000    9.280000   13.968000
      4          8           0        7.906000   10.347000   13.034000
      5          1           0        7.876000    9.967000   12.110000
      6          6           0        8.213000    9.669000   15.339000
      7          8           0        7.569000   10.831000   15.879000
      8          1           0        8.054000   11.096000   16.712000
      9          6           0        8.697000    5.525000   14.161000
     10          8           0        7.868000    4.776000   13.260000
     11          1           0        7.960000    3.808000   13.492000
     12          6           0        8.195000    6.892000   14.597000
     13          8           0        8.977000    7.352000   15.708000
     14          6           0        8.239000    8.455000   16.255000
     15          8           0        9.029000    8.744000   17.417000
     16          6           0        8.493000    8.435000   18.712000
     17          6           0        8.902000    7.006000   19.032000
     18          8           0        8.551000    5.961000   18.114000
     19          1           0        8.583000    6.420000   17.226000
     20          6           0        8.392000    6.614000   20.409000
     21          8           0        8.781000    5.332000   20.923000
     22          1           0        8.395000    5.169000   21.831000
     23          6           0        8.555000   10.857000   19.650000
     24          8           0        8.653000   11.445000   18.344000
     25          1           0        8.472000   12.427000   18.395000
     26          6           0        8.972000    9.401000   19.783000
     27          8           0        8.485000    9.042000   21.084000
     28          6           0        8.760000    7.677000   21.432000
     29          8           0        7.954000    7.496000   22.605000
     30          1           0        8.353821    7.332348   11.640463
     31          1           0        8.841583    4.933574   15.040892
     32          1           0        9.649789    5.660203   13.693226
     33          1           0        7.176324    6.797727   14.910547
     34          1           0        9.310740    8.122063   13.313627
     35          1           0        6.627092    9.146759   14.057322
     36          1           0        9.236004    9.946150   15.192197
     37          1           0        7.249016    8.156235   16.529902
     38          1           0        9.160668   11.434533   20.316724
     39          1           0       10.041105    9.363397   19.805381
     40          1           0        7.425275    8.482810   18.661222
     41          1           0        9.970403    7.007214   19.090434
     42          1           0        8.522991    7.378086   23.369163
     43          1           0        9.793233    7.577644   21.691725
     44          1           0        7.323969    6.604232   20.344857
     45          1           0        7.537661   10.938163   19.971456
 ---------------------------------------------------------------------
                    Distance matrix (angstroms):
                    1          2          3          4          5
     1  O    0.000000
     2  C    1.435044   0.000000
     3  C    2.422826   1.520212   0.000000
     4  O    2.912900   2.467910   1.435161   0.000000
     5  H    2.437707   2.485596   1.990129   0.999538   0.000000
     6  C    3.765949   2.505813   1.519785   2.422180   3.260186
     7  O    4.876615   3.790871   2.463935   2.905486   3.878931
     8  H    5.694388   4.489290   3.311126   3.756406   4.741807
     9  C    2.946335   2.549455   3.893767   5.014728   4.961049
    10  O    2.943832   3.213677   4.562978   5.575712   5.316864
    11  H    3.939131   4.157851   5.499544   6.555242   6.312706
    12  C    2.465886   1.519534   2.521564   3.803093   3.967689
    13  O    3.676309   2.382445   2.900698   4.155399   4.582143
    14  C    4.119768   2.787601   2.493574   3.750386   4.427069
    15  O    5.449921   4.054239   3.740218   4.800149   5.566811
    16  C    6.547584   5.225836   4.885942   6.019967   6.805448
    17  C    6.886851   5.635043   5.682980   6.937601   7.598308
    18  O    6.111013   5.021806   5.380988   6.742360   7.249254
    19  H    5.155900   4.029345   4.427253   5.783816   6.265342
    20  C    8.215975   7.025993   7.006703   8.280224   8.965616
    21  O    8.992649   7.876614   8.072171   9.388939   9.998561
    22  H    9.870611   8.772698   8.901190  10.219492  10.853018
    23  C    8.130752   6.794829   5.960617   6.667290   7.622647
    24  O    7.279037   5.972440   4.977311   5.473547   6.453756
    25  H    7.868151   6.624293   5.488288   5.778155   6.775547
    26  C    7.840529   6.472659   5.956948   6.897846   7.771519
    27  O    8.969790   7.651714   7.164782   8.175620   9.042078
    28  C    9.219863   7.938795   7.709509   8.853509   9.639774
    29  O   10.331071   9.109116   8.823423   9.986718  10.782252
    30  H    0.960000   1.974684   3.107748   3.351211   2.718486
    31  H    3.978090   3.432305   4.623873   5.848771   5.904055
    32  H    3.078806   2.681331   4.127812   5.043951   4.919495
    33  H    2.780103   2.119624   2.703484   4.080588   4.286829
    34  H    2.026148   1.070000   2.100489   2.646097   2.628876
    35  H    2.611190   2.104275   1.070000   2.030608   2.454512
    36  H    4.089193   2.777722   2.085192   2.566594   3.368974
    37  H    4.316138   3.192356   2.831302   4.177608   4.817418
    38  H    9.054579   7.693681   6.864832   7.469605   8.435304
    39  H    8.099586   6.686303   6.295490   7.167827   8.016913
    40  H    6.456454   5.244279   4.767526   5.947430   6.732346
    41  H    7.210995   5.906382   6.052103   7.217778   7.865959
    42  H   11.125306   9.876139   9.628156  10.770828  11.571078
    43  H    9.650698   8.327323   8.185267   9.283706  10.059536
    44  H    8.128697   7.028286   6.924911   8.233815   8.912117
    45  H    8.409911   7.152455   6.229984   6.972334   7.928438
                    6          7          8          9         10
     6  C    0.000000
     7  O    1.434078   0.000000
     8  H    1.986640   0.999669   0.000000
     9  C    4.335283   5.690127   6.160933   0.000000
    10  O    5.327543   6.603907   7.203700   1.435285   0.000000
    11  H    6.150345   7.427865   7.968198   1.984646   0.999656
    12  C    2.874477   4.189406   4.708155   1.520128   2.524273
    13  O    2.467457   3.757013   3.984656   2.410298   3.722682
    14  C    1.521029   2.497129   2.686625   3.630358   4.758435
    15  O    2.416519   2.975334   2.641885   4.590612   5.862900
    16  C    3.602539   3.823674   3.357624   5.405675   6.595696
    17  C    4.604839   5.133120   4.778033   5.095295   6.273599
    18  O    4.643720   5.447609   5.346105   3.979651   5.043018
    19  H    3.775403   4.722237   4.733816   3.195035   4.352369
    20  C    5.921990   6.243502   5.819826   6.349524   7.400069
    21  O    7.093183   7.559754   7.175287   6.765275   7.737201
    22  H    7.901214   8.256320   7.838990   7.684194   8.596175
    23  C    4.484755   3.897860   2.989978   7.653725   8.847747
    24  O    3.518210   2.761934   1.773140   7.248850   8.422520
    25  H    4.124655   3.113339   2.186041   8.100308   9.234221
    26  C    4.516308   4.387998   3.625850   6.834170   8.072111
    27  O    5.785511   5.579570   4.849645   7.768022   8.932772
    28  C    6.433655   6.496307   5.870809   7.583041   8.717399
    29  O    7.588397   7.517282   6.906334   8.702760   9.733181
    30  H    4.377094   5.551730   6.322615   3.120478   3.064937
    31  H    4.786256   6.091102   6.433381   1.070000   2.035749
    32  H    4.565456   5.987022   6.419302   1.070000   2.035749
    33  H    3.082609   4.166460   4.742436   2.119932   2.700019
    34  H    2.774920   4.117419   4.687498   2.799903   3.644244
    35  H    2.104884   2.653746   3.589279   4.172818   4.612929
    36  H    1.070000   2.008373   2.242563   4.571702   5.686411
    37  H    2.153131   2.771359   3.053421   3.825147   4.743563
    38  H    5.365904   4.753005   3.785942   8.545789   9.787973
    39  H    4.835692   4.866377   4.064419   6.956934   8.283031
    40  H    3.614514   3.643544   3.320169   5.533346   6.565793
    41  H    4.924107   5.540883   5.103697   5.302625   6.587289
    42  H    8.356309   8.302726   7.639415   9.394386  10.459209
    43  H    6.872265   7.022771   6.340460   7.882062   9.091190
    44  H    5.936480   6.153819   5.822936   6.425733   7.337139
    45  H    4.850413   4.093979   3.303873   8.025447   9.117293
                   11         12         13         14         15
    11  H    0.000000
    12  C    3.284403   0.000000
    13  O    4.301730   1.434380   0.000000
    14  C    5.413559   2.279006   1.435431   0.000000
    15  O    6.396287   3.475322   2.204779   1.434526   0.000000
    16  C    6.995829   4.404870   3.229731   2.470175   1.435201
    17  C    6.465769   4.492446   3.342801   3.201703   2.375920
    18  O    5.132989   3.655514   2.811618   3.126222   2.908502
    19  H    4.599286   2.699068   1.824331   2.280877   2.374105
    20  C    7.476975   5.821979   4.794400   4.546252   3.727564
    21  O    7.629966   6.541810   5.595984   5.642439   4.898498
    22  H    8.460524   7.439051   6.526511   6.474095   5.715416
    23  C    9.378880   6.433011   5.291736   4.170789   3.110584
    24  O    9.074465   5.914354   4.879152   3.670888   2.880296
    25  H    9.929185   6.718464   5.764601   4.517817   3.851133
    26  C    8.478353   5.813210   4.561146   3.725452   2.456187
    27  O    9.236279   6.840159   5.656814   4.870762   3.719090
    28  C    8.868639   6.903092   5.737324   5.260994   4.163061
    29  O    9.830979   8.034361   6.973943   6.428328   5.443204
    30  H    4.000539   2.993366   4.115045   4.750524   5.984731
    31  H    2.107884   2.109631   2.512400   3.773275   4.494481
    32  H    2.515260   2.109631   2.715537   4.045232   4.874595
    33  H    3.400719   1.070000   2.045870   2.383985   3.674601
    34  H    4.524098   2.098804   2.537204   3.148198   4.159790
    35  H    5.531599   2.798844   3.386438   2.811862   4.149556
    36  H    6.495825   3.281125   2.657583   2.084969   2.537275
    37  H    5.351774   2.495853   2.075631   1.070000   2.073826
    38  H   10.304488   7.367657   6.159639   5.121005   3.957867
    39  H    8.663267   6.053357   4.686850   4.083867   2.666903
    40  H    6.990038   4.431823   3.522513   2.540241   2.046519
    41  H    6.754195   4.832833   3.542116   3.624021   2.589024
    42  H   10.517644   8.791741   7.674649   7.200814   6.127807
    43  H    9.209042   7.304765   6.043354   5.722183   4.496412
    44  H    7.428667   5.820599   4.979168   4.581436   4.007254
    45  H    9.643700   6.759313   5.754070   4.524381   3.682892
                   16         17         18         19         20
    16  C    0.000000
    17  C    1.520435   0.000000
    18  O    2.545907   1.434556   0.000000
    19  H    2.505299   1.925303   1.000124   0.000000
    20  C    2.491195   1.519833   2.391383   3.194621   0.000000
    21  O    3.821004   2.528398   2.887736   3.858854   1.434936
    22  H    4.517136   3.386151   3.803642   4.775602   2.027343
    23  C    2.598032   3.915678   5.131289   5.056039   4.313432
    24  O    3.036630   4.498896   5.489769   5.148344   5.260314
    25  H    4.004622   5.475209   6.472585   6.120697   6.152525
    26  C    1.519749   2.510961   3.846609   3.946635   2.914729
    27  O    2.448448   2.920597   4.279932   4.665689   2.521797
    28  C    2.836239   2.496078   3.741318   4.393383   1.520501
    29  O    4.040754   3.728959   4.783484   5.521509   2.406696
    30  H    7.158341   7.419018   6.620133   5.664197   8.797995
    31  H    5.085128   4.497504   3.253311   2.655376   5.642919
    32  H    5.850278   5.556336   4.565201   3.767735   6.898796
    33  H    4.343425   4.472998   3.584962   2.735459   5.634235
    34  H    5.468918   5.840587   5.318927   4.328197   7.311816
    35  H    5.065002   5.874136   5.505190   4.615335   7.062123
    36  H    3.901877   4.847693   4.988746   4.122681   6.247447
    37  H    2.527204   3.211836   3.003928   2.297515   4.328083
    38  H    3.466716   4.618369   5.931548   5.918769   4.882305
    39  H    2.110457   2.730017   4.081358   4.176465   3.262374
    40  H    1.070000   2.121122   2.815357   2.766835   2.735276
    41  H    2.089139   1.070000   2.015612   2.397044   2.093941
    42  H    4.775682   4.369563   5.442946   6.217716   3.059992
    43  H    3.362206   2.862728   4.117864   4.769435   2.130129
    44  H    2.717456   2.091696   2.626038   3.368438   1.070000
    45  H    2.960529   4.266838   5.408249   5.389254   4.429416
                   21         22         23         24         25
    21  O    0.000000
    22  H    1.000014   0.000000
    23  C    5.674260   6.093907   0.000000
    24  O    6.635992   7.184282   1.435613   0.000000
    25  H    7.538255   8.030603   2.011669   0.999843   0.000000
    26  C    4.229993   4.736777   1.520366   2.520004   3.366485
    27  O    3.725270   3.945407   2.314191   3.648319   4.323091
    28  C    2.399697   2.565636   3.651020   4.872886   5.645247
    29  O    2.862857   2.491683   4.515479   5.851438   6.504397
    30  H    9.505228  10.417716   8.753075   7.870249   8.461277
    31  H    5.895897   6.808849   7.510858   7.303749   8.218155
    32  H    7.289180   8.248585   7.980503   7.489137   8.323666
    33  H    6.393194   7.213223   6.390685   5.963750   6.746028
    34  H    8.122046   9.061170   6.942669   6.064584   6.712400
    35  H    8.144277   8.909441   6.157906   5.268949   5.742745
    36  H    7.371534   8.222053   4.600589   3.538405   4.122653
    37  H    5.442664   6.191808   4.328365   4.009751   4.818062
    38  H    6.144317   6.491239   1.070000   2.037027   2.269863
    39  H    4.369107   4.940218   2.112700   2.897506   3.719802
    40  H    4.108678   4.687131   2.809046   3.222190   4.089394
    41  H    2.753056   3.656723   4.139726   4.688993   5.665944
    42  H    3.199492   2.694882   5.092745   6.465985   7.087767
    43  H    2.580401   2.788551   4.056605   5.240595   6.010849
    44  H    2.018852   2.327148   4.481551   5.403961   6.246963
    45  H    5.820687   6.121779   1.070000   2.037027   2.361110
                   26         27         28         29         30
    26  C    0.000000
    27  O    1.434800   0.000000
    28  C    2.395062   1.435254   0.000000
    29  O    3.553735   2.232827   1.434687   0.000000
    30  H    8.423917   9.597943   9.806017  10.973045   0.000000
    31  H    6.516325   7.316110   6.955523   8.035518   4.189863
    32  H    7.179019   8.210775   8.046603   9.255570   2.947785
    33  H    5.808810   6.697829   6.768345   7.765112   3.516500
    34  H    6.603273   7.868089   8.149195   9.410755   2.082984
    35  H    6.192465   7.268906   7.816352   8.806162   3.480644
    36  H    4.630590   6.007898   6.656633   7.911790   4.497224
    37  H    3.885970   4.801255   5.152019   6.151401   5.079960
    38  H    2.110856   2.601818   3.939978   4.712144   9.631014
    39  H    1.070000   2.039516   2.670403   3.959930   8.581256
    40  H    2.119862   2.702881   3.179313   4.099601   7.174734
    41  H    2.684524   3.212644   2.719673   4.081294   7.630276
    42  H    4.141782   2.827017   1.974367   0.960000  11.730010
    43  H    2.764468   2.055515   1.070000   2.055119  10.156769
    44  H    3.294481   2.799471   2.096401   2.510067   8.795296
    45  H    2.110856   2.393875   3.776571   4.354007   9.114465
                   31         32         33         34         35
    31  H    0.000000
    32  H    1.731298   0.000000
    33  H    2.503027   2.982258   0.000000
    34  H    3.656504   2.513922   2.976534   0.000000
    35  H    4.860279   4.628751   2.558828   2.967331   0.000000
    36  H    5.030346   4.559328   3.772820   2.619523   2.955230
    37  H    3.890882   4.476675   2.114979   3.820510   2.735248
    38  H    8.378466   8.800731   7.393534   7.748442   7.129729
    39  H    6.615325   7.157179   6.224871   6.649602   6.688990
    40  H    5.264009   6.131603   4.119350   5.681715   4.719515
    41  H    4.687537   5.571992   5.032118   5.920266   6.409961
    42  H    8.685461   9.891641   8.584784  10.113747   9.666076
    43  H    7.220133   8.226370   7.310326   8.409621   8.412532
    44  H    5.764225   7.109489   5.439758   7.462525   6.817858
    45  H    7.878183   8.469600   6.548784   7.443180   6.246219
                   36         37         38         39         40
    36  H    0.000000
    37  H    2.990213   0.000000
    38  H    5.336829   5.361127   0.000000
    39  H    4.719031   4.470096   2.307867   0.000000
    40  H    4.177827   2.163387   3.803281   2.987824   0.000000
    41  H    4.936896   3.909286   4.664827   2.463279   2.973093
    42  H    8.600356   7.000288   5.116521   4.352778   4.958841
    43  H    6.940043   5.783790   4.143231   2.609339   3.951013
    44  H    6.432278   4.119249   5.167791   3.909841   2.524668
    45  H    5.168150   4.434720   1.731977   2.962212   2.785337
                   41         42         43         44         45
    41  H    0.000000
    42  H    4.532116   0.000000
    43  H    2.668988   2.113561   0.000000
    44  H    2.956279   3.344089   2.976382   0.000000
    45  H    4.706038   5.018908   4.397729   4.355233   0.000000
 Stoichiometry    C12H22O11
 Framework group  C1[X(C12H22O11)]
 Deg. of freedom   129
 Full point group                 C1      NOp   1
 Largest Abelian subgroup         C1      NOp   1
 Largest concise Abelian subgroup C1      NOp   1
                         Standard orientation:                         
 ---------------------------------------------------------------------
 Center     Atomic      Atomic             Coordinates (Angstroms)
 Number     Number       Type             X           Y           Z
 ---------------------------------------------------------------------
      1          8           0        4.956690   -0.429404   -0.387080
      2          6           0        3.673234   -0.069517    0.144497
      3          6           0        3.228453    1.268209   -0.424454
      4          8           0        4.119033    2.345547   -0.099037
      5          1           0        5.051732    1.986781   -0.078152
      6          6           0        1.815208    1.607191    0.020040
      7          8           0        1.293471    2.781428   -0.616780
      8          1           0        0.422730    3.009665   -0.181974
      9          6           0        3.055801   -2.526352    0.431653
     10          8           0        4.029817   -3.223376   -0.359229
     11          1           0        3.815266   -4.198935   -0.319679
     12          6           0        2.623022   -1.150584   -0.048717
     13          8           0        1.449760   -0.744941    0.669860
     14          6           0        0.928974    0.373836   -0.063340
     15          8           0       -0.291607    0.607249    0.653294
     16          6           0       -1.538538    0.291645    0.016616
     17          6           0       -1.851785   -1.158590    0.348904
     18          8           0       -0.886869   -2.169433    0.024738
     19          1           0       -0.014484   -1.693180    0.135991
     20          6           0       -3.180309   -1.559866   -0.270689
     21          8           0       -3.689170   -2.866609    0.033489
     22          1           0       -4.564046   -3.033898   -0.421082
     23          6           0       -2.536366    2.688887    0.102317
     24          8           0       -1.254777    3.300378    0.313489
     25          1           0       -1.316626    4.287327    0.165870
     26          6           0       -2.663025    1.215356    0.454708
     27          8           0       -3.918139    0.847780   -0.135399
     28          6           0       -4.251553   -0.533937    0.063718
     29          8           0       -5.361156   -0.708631   -0.828799
     30          1           0        5.550020   -0.653754    0.333493
     31          1           0        2.182431   -3.141552    0.492088
     32          1           0        3.452999   -2.418121    1.419286
     33          1           0        2.383225   -1.212090   -1.089685
     34          1           0        3.796075    0.062536    1.199188
     35          1           0        3.215931    1.174071   -1.490231
     36          1           0        1.884027    1.847673    1.060392
     37          1           0        0.730630    0.107752   -1.080571
     38          1           0       -3.257139    3.228236    0.680666
     39          1           0       -2.758585    1.136002    1.517474
     40          1           0       -1.414997    0.381749   -1.042402
     41          1           0       -1.984184   -1.199907    1.409877
     42          1           0       -6.159893   -0.864712   -0.319625
     43          1           0       -4.579850   -0.678659    1.071774
     44          1           0       -3.042038   -1.526988   -1.331208
     45          1           0       -2.788349    2.802426   -0.931372
 ---------------------------------------------------------------------
 Rotational constants (GHZ):      0.3976745      0.1503096      0.1123324
 Standard basis: 6-31+G(2d,p) (6D, 7F)
 There are   685 symmetry adapted basis functions of A   symmetry.
 Integral buffers will be    131072 words long.
 Raffenetti 2 integral format.
 Two-electron integral symmetry is turned on.
   685 basis functions,  1028 primitive gaussians,   685 cartesian basis functions
    91 alpha electrons       91 beta electrons
       nuclear repulsion energy      2292.0368566378 Hartrees.
 NAtoms=   45 NActive=   45 NUniq=   45 SFac= 1.00D+00 NAtFMM=   50 NAOKFM=F Big=F
 One-electron integrals computed using PRISM.
 NBasis=   685 RedAO= T  NBF=   685
 NBsUse=   685 1.00D-06 NBFU=   685
 Harris functional with IExCor=  402 diagonalized for initial guess.
 ExpMin= 4.38D-02 ExpMax= 5.48D+03 ExpMxC= 8.25D+02 IAcc=2 IRadAn=         0 AccDes= 0.00D+00
 HarFok:  IExCor=  402 AccDes= 0.00D+00 IRadAn=         0 IDoV= 1
 ScaDFX=  1.000000  1.000000  1.000000  1.000000
 FoFCou: FMM=F IPFlag=           0 FMFlag=      100000 FMFlg1=           0
         NFxFlg=           0 DoJE=T BraDBF=F KetDBF=T FulRan=T
         Omega=  0.000000  0.000000  1.000000  0.000000  0.000000 ICntrl=     500 IOpCl=  0
         NMat0=    1 NMatS0=    1 NMatT0=    0 NMatD0=    1 NMtDS0=    0 NMtDT0=    0
         I1Cent=           4 NGrid=           0.
 Petite list used in FoFCou.
 Initial guess orbital symmetries:
       Occupied  (A) (A) (A) (A) (A) (A) (A) (A) (A) (A) (A) (A)
                 (A) (A) (A) (A) (A) (A) (A) (A) (A) (A) (A) (A)
                 (A) (A) (A) (A) (A) (A) (A) (A) (A) (A) (A) (A)
                 (A) (A) (A) (A) (A) (A) (A) (A) (A) (A) (A) (A)
                 (A) (A) (A) (A) (A) (A) (A) (A) (A) (A) (A) (A)
                 (A) (A) (A) (A) (A) (A) (A) (A) (A) (A) (A) (A)
                 (A) (A) (A) (A) (A) (A) (A) (A) (A) (A) (A) (A)
                 (A) (A) (A) (A) (A) (A) (A)
       Virtual   (A) (A) (A) (A) (A) (A) (A) (A) (A) (A) (A) (A)
                 (A) (A) (A) (A) (A) (A) (A) (A) (A) (A) (A) (A)
                 (A) (A) (A) (A) (A) (A) (A) (A) (A) (A) (A) (A)
                 (A) (A) (A) (A) (A) (A) (A) (A) (A) (A) (A) (A)
                 (A) (A) (A) (A) (A) (A) (A) (A) (A) (A) (A) (A)
                 (A) (A) (A) (A) (A) (A) (A) (A) (A) (A) (A) (A)
                 (A) (A) (A) (A) (A) (A) (A) (A) (A) (A) (A) (A)
                 (A) (A) (A) (A) (A) (A) (A) (A) (A) (A) (A) (A)
                 (A) (A) (A) (A) (A) (A) (A) (A) (A) (A) (A) (A)
                 (A) (A) (A) (A) (A) (A) (A) (A) (A) (A) (A) (A)
                 (A) (A) (A) (A) (A) (A) (A) (A) (A) (A) (A) (A)
                 (A) (A) (A) (A) (A) (A) (A) (A) (A) (A) (A) (A)
                 (A) (A) (A) (A) (A) (A) (A) (A) (A) (A) (A) (A)
                 (A) (A) (A) (A) (A) (A) (A) (A) (A) (A) (A) (A)
                 (A) (A) (A) (A) (A) (A) (A) (A) (A) (A) (A) (A)
                 (A) (A) (A) (A) (A) (A) (A) (A) (A) (A) (A) (A)
                 (A) (A) (A) (A) (A) (A) (A) (A) (A) (A) (A) (A)
                 (A) (A) (A) (A) (A) (A) (A) (A) (A) (A) (A) (A)
                 (A) (A) (A) (A) (A) (A) (A) (A) (A) (A) (A) (A)
                 (A) (A) (A) (A) (A) (A) (A) (A) (A) (A) (A) (A)
                 (A) (A) (A) (A) (A) (A) (A) (A) (A) (A) (A) (A)
                 (A) (A) (A) (A) (A) (A) (A) (A) (A) (A) (A) (A)
                 (A) (A) (A) (A) (A) (A) (A) (A) (A) (A) (A) (A)
                 (A) (A) (A) (A) (A) (A) (A) (A) (A) (A) (A) (A)
                 (A) (A) (A) (A) (A) (A) (A) (A) (A) (A) (A) (A)
                 (A) (A) (A) (A) (A) (A) (A) (A) (A) (A) (A) (A)
                 (A) (A) (A) (A) (A) (A) (A) (A) (A) (A) (A) (A)
                 (A) (A) (A) (A) (A) (A) (A) (A) (A) (A) (A) (A)
                 (A) (A) (A) (A) (A) (A) (A) (A) (A) (A) (A) (A)
                 (A) (A) (A) (A) (A) (A) (A) (A) (A) (A) (A) (A)
                 (A) (A) (A) (A) (A) (A) (A) (A) (A) (A) (A) (A)
                 (A) (A) (A) (A) (A) (A) (A) (A) (A) (A) (A) (A)
                 (A) (A) (A) (A) (A) (A) (A) (A) (A) (A) (A) (A)
                 (A) (A) (A) (A) (A) (A) (A) (A) (A) (A) (A) (A)
                 (A) (A) (A) (A) (A) (A) (A) (A) (A) (A) (A) (A)
                 (A) (A) (A) (A) (A) (A) (A) (A) (A) (A) (A) (A)
                 (A) (A) (A) (A) (A) (A) (A) (A) (A) (A) (A) (A)
                 (A) (A) (A) (A) (A) (A) (A) (A) (A) (A) (A) (A)
                 (A) (A) (A) (A) (A) (A) (A) (A) (A) (A) (A) (A)
                 (A) (A) (A) (A) (A) (A) (A) (A) (A) (A) (A) (A)
                 (A) (A) (A) (A) (A) (A) (A) (A) (A) (A) (A) (A)
                 (A) (A) (A) (A) (A) (A) (A) (A) (A) (A) (A) (A)
                 (A) (A) (A) (A) (A) (A) (A) (A) (A) (A) (A) (A)
                 (A) (A) (A) (A) (A) (A) (A) (A) (A) (A) (A) (A)
                 (A) (A) (A) (A) (A) (A) (A) (A) (A) (A) (A) (A)
                 (A) (A) (A) (A) (A) (A) (A) (A) (A) (A) (A) (A)
                 (A) (A) (A) (A) (A) (A) (A) (A) (A) (A) (A) (A)
                 (A) (A) (A) (A) (A) (A) (A) (A) (A) (A) (A) (A)
                 (A) (A) (A) (A) (A) (A) (A) (A) (A) (A) (A) (A)
                 (A) (A) (A) (A) (A) (A)
 The electronic state of the initial guess is 1-A.
 Requested convergence on RMS density matrix=1.00D-08 within 128 cycles.
 Requested convergence on MAX density matrix=1.00D-06.
 Requested convergence on             energy=1.00D-06.
 No special actions if energy rises.
 SCF Done:  E(RB3LYP) =  -1297.99482532     A.U. after   13 cycles
             Convg  =    0.5493D-08             -V/T =  2.0064
 Range of M.O.s used for correlation:     1   685
 NBasis=   685 NAE=    91 NBE=    91 NFC=     0 NFV=     0
 NROrb=    685 NOA=    91 NOB=    91 NVA=   594 NVB=   594

 **** Warning!!: The largest alpha MO coefficient is  0.66643995D+02

          Differentiating once with respect to electric field.
                with respect to dipole field.
          Electric field/nuclear overlap derivatives assumed to be zero.
          There are     3 degrees of freedom in the 1st order CPHF.  IDoFFX=0.
      3 vectors produced by pass  0 Test12= 1.80D-12 3.33D-08 XBig12= 1.21D+02 1.54D+00.
 AX will form     3 AO Fock derivatives at one time.
      3 vectors produced by pass  1 Test12= 1.80D-12 3.33D-08 XBig12= 2.54D+01 4.38D-01.
      3 vectors produced by pass  2 Test12= 1.80D-12 3.33D-08 XBig12= 1.08D+01 2.30D-01.
      3 vectors produced by pass  3 Test12= 1.80D-12 3.33D-08 XBig12= 1.09D+00 9.05D-02.
      3 vectors produced by pass  4 Test12= 1.80D-12 3.33D-08 XBig12= 3.09D-01 5.45D-02.
      3 vectors produced by pass  5 Test12= 1.80D-12 3.33D-08 XBig12= 6.99D-02 2.10D-02.
      3 vectors produced by pass  6 Test12= 1.80D-12 3.33D-08 XBig12= 1.92D-02 1.50D-02.
      3 vectors produced by pass  7 Test12= 1.80D-12 3.33D-08 XBig12= 2.99D-03 6.68D-03.
      3 vectors produced by pass  8 Test12= 1.80D-12 3.33D-08 XBig12= 6.38D-04 2.37D-03.
      3 vectors produced by pass  9 Test12= 1.80D-12 3.33D-08 XBig12= 1.55D-04 1.34D-03.
      3 vectors produced by pass 10 Test12= 1.80D-12 3.33D-08 XBig12= 3.60D-05 7.12D-04.
      3 vectors produced by pass 11 Test12= 1.80D-12 3.33D-08 XBig12= 1.06D-05 3.63D-04.
      3 vectors produced by pass 12 Test12= 1.80D-12 3.33D-08 XBig12= 1.40D-06 1.31D-04.
      3 vectors produced by pass 13 Test12= 1.80D-12 3.33D-08 XBig12= 2.97D-07 4.82D-05.
      3 vectors produced by pass 14 Test12= 1.80D-12 3.33D-08 XBig12= 4.27D-08 2.11D-05.
      3 vectors produced by pass 15 Test12= 1.80D-12 3.33D-08 XBig12= 1.18D-08 1.05D-05.
      3 vectors produced by pass 16 Test12= 1.80D-12 3.33D-08 XBig12= 1.40D-09 4.38D-06.
      3 vectors produced by pass 17 Test12= 1.80D-12 3.33D-08 XBig12= 1.48D-10 1.05D-06.
      3 vectors produced by pass 18 Test12= 1.80D-12 3.33D-08 XBig12= 2.02D-11 3.87D-07.
      3 vectors produced by pass 19 Test12= 1.80D-12 3.33D-08 XBig12= 1.06D-11 3.10D-07.
      3 vectors produced by pass 20 Test12= 1.80D-12 3.33D-08 XBig12= 6.03D-12 1.87D-07.
      3 vectors produced by pass 21 Test12= 1.80D-12 3.33D-08 XBig12= 1.73D-12 1.02D-07.
 Inverted reduced A of dimension    66 with in-core refinement.
 End of Minotr Frequency-dependent properties file   721 does not exist.
 End of Minotr Frequency-dependent properties file   722 does not exist.
 Symmetrizing basis deriv contribution to polar:
 IMax=3 JMax=2 DiffMx= 0.00D+00
 G2DrvN: will do    16 centers at a time, making    3 passes doing MaxLOS=2.
 Calling FoFCou, ICntrl=  3107 FMM=F I1Cent=   0 AccDes= 0.00D+00.
 Calling FoFCou, ICntrl=  3107 FMM=F I1Cent=   0 AccDes= 0.00D+00.
 Calling FoFCou, ICntrl=  3107 FMM=F I1Cent=   0 AccDes= 0.00D+00.
 FoFDir/FoFCou used for L=0 through L=2.
 End of G2Drv Frequency-dependent properties file   721 does not exist.
 End of G2Drv Frequency-dependent properties file   722 does not exist.
          IDoAtm=111111111111111111111111111111111111111111111
          Differentiating once with respect to electric field.
                with respect to dipole field.
          Differentiating once with respect to nuclear coordinates.
          There are   138 degrees of freedom in the 1st order CPHF.  IDoFFX=5.
 Will reuse    3 saved solutions.
    135 vectors produced by pass  0 Test12= 5.41D-14 1.00D-09 XBig12= 1.75D-01 8.02D-02.
 AX will form    45 AO Fock derivatives at one time.
    135 vectors produced by pass  1 Test12= 5.41D-14 1.00D-09 XBig12= 1.63D-02 1.13D-02.
    132 vectors produced by pass  2 Test12= 5.41D-14 1.00D-09 XBig12= 1.19D-04 1.49D-03.
    132 vectors produced by pass  3 Test12= 5.41D-14 1.00D-09 XBig12= 4.46D-07 7.02D-05.
    132 vectors produced by pass  4 Test12= 5.41D-14 1.00D-09 XBig12= 9.30D-10 2.33D-06.
    132 vectors produced by pass  5 Test12= 5.41D-14 1.00D-09 XBig12= 2.35D-12 8.84D-08.
     81 vectors produced by pass  6 Test12= 5.41D-14 1.00D-09 XBig12= 1.10D-13 1.86D-08.
 Inverted reduced A of dimension   879 with in-core refinement.
 Isotropic polarizability for W=    0.000000      191.53 Bohr**3.
 End of Minotr Frequency-dependent properties file   721 does not exist.
 End of Minotr Frequency-dependent properties file   722 does not exist.

 **********************************************************************

            Population analysis using the SCF density.

 **********************************************************************

 Orbital symmetries:
       Occupied  (A) (A) (A) (A) (A) (A) (A) (A) (A) (A) (A) (A)
                 (A) (A) (A) (A) (A) (A) (A) (A) (A) (A) (A) (A)
                 (A) (A) (A) (A) (A) (A) (A) (A) (A) (A) (A) (A)
                 (A) (A) (A) (A) (A) (A) (A) (A) (A) (A) (A) (A)
                 (A) (A) (A) (A) (A) (A) (A) (A) (A) (A) (A) (A)
                 (A) (A) (A) (A) (A) (A) (A) (A) (A) (A) (A) (A)
                 (A) (A) (A) (A) (A) (A) (A) (A) (A) (A) (A) (A)
                 (A) (A) (A) (A) (A) (A) (A)
       Virtual   (A) (A) (A) (A) (A) (A) (A) (A) (A) (A) (A) (A)
                 (A) (A) (A) (A) (A) (A) (A) (A) (A) (A) (A) (A)
                 (A) (A) (A) (A) (A) (A) (A) (A) (A) (A) (A) (A)
                 (A) (A) (A) (A) (A) (A) (A) (A) (A) (A) (A) (A)
                 (A) (A) (A) (A) (A) (A) (A) (A) (A) (A) (A) (A)
                 (A) (A) (A) (A) (A) (A) (A) (A) (A) (A) (A) (A)
                 (A) (A) (A) (A) (A) (A) (A) (A) (A) (A) (A) (A)
                 (A) (A) (A) (A) (A) (A) (A) (A) (A) (A) (A) (A)
                 (A) (A) (A) (A) (A) (A) (A) (A) (A) (A) (A) (A)
                 (A) (A) (A) (A) (A) (A) (A) (A) (A) (A) (A) (A)
                 (A) (A) (A) (A) (A) (A) (A) (A) (A) (A) (A) (A)
                 (A) (A) (A) (A) (A) (A) (A) (A) (A) (A) (A) (A)
                 (A) (A) (A) (A) (A) (A) (A) (A) (A) (A) (A) (A)
                 (A) (A) (A) (A) (A) (A) (A) (A) (A) (A) (A) (A)
                 (A) (A) (A) (A) (A) (A) (A) (A) (A) (A) (A) (A)
                 (A) (A) (A) (A) (A) (A) (A) (A) (A) (A) (A) (A)
                 (A) (A) (A) (A) (A) (A) (A) (A) (A) (A) (A) (A)
                 (A) (A) (A) (A) (A) (A) (A) (A) (A) (A) (A) (A)
                 (A) (A) (A) (A) (A) (A) (A) (A) (A) (A) (A) (A)
                 (A) (A) (A) (A) (A) (A) (A) (A) (A) (A) (A) (A)
                 (A) (A) (A) (A) (A) (A) (A) (A) (A) (A) (A) (A)
                 (A) (A) (A) (A) (A) (A) (A) (A) (A) (A) (A) (A)
                 (A) (A) (A) (A) (A) (A) (A) (A) (A) (A) (A) (A)
                 (A) (A) (A) (A) (A) (A) (A) (A) (A) (A) (A) (A)
                 (A) (A) (A) (A) (A) (A) (A) (A) (A) (A) (A) (A)
                 (A) (A) (A) (A) (A) (A) (A) (A) (A) (A) (A) (A)
                 (A) (A) (A) (A) (A) (A) (A) (A) (A) (A) (A) (A)
                 (A) (A) (A) (A) (A) (A) (A) (A) (A) (A) (A) (A)
                 (A) (A) (A) (A) (A) (A) (A) (A) (A) (A) (A) (A)
                 (A) (A) (A) (A) (A) (A) (A) (A) (A) (A) (A) (A)
                 (A) (A) (A) (A) (A) (A) (A) (A) (A) (A) (A) (A)
                 (A) (A) (A) (A) (A) (A) (A) (A) (A) (A) (A) (A)
                 (A) (A) (A) (A) (A) (A) (A) (A) (A) (A) (A) (A)
                 (A) (A) (A) (A) (A) (A) (A) (A) (A) (A) (A) (A)
                 (A) (A) (A) (A) (A) (A) (A) (A) (A) (A) (A) (A)
                 (A) (A) (A) (A) (A) (A) (A) (A) (A) (A) (A) (A)
                 (A) (A) (A) (A) (A) (A) (A) (A) (A) (A) (A) (A)
                 (A) (A) (A) (A) (A) (A) (A) (A) (A) (A) (A) (A)
                 (A) (A) (A) (A) (A) (A) (A) (A) (A) (A) (A) (A)
                 (A) (A) (A) (A) (A) (A) (A) (A) (A) (A) (A) (A)
                 (A) (A) (A) (A) (A) (A) (A) (A) (A) (A) (A) (A)
                 (A) (A) (A) (A) (A) (A) (A) (A) (A) (A) (A) (A)
                 (A) (A) (A) (A) (A) (A) (A) (A) (A) (A) (A) (A)
                 (A) (A) (A) (A) (A) (A) (A) (A) (A) (A) (A) (A)
                 (A) (A) (A) (A) (A) (A) (A) (A) (A) (A) (A) (A)
                 (A) (A) (A) (A) (A) (A) (A) (A) (A) (A) (A) (A)
                 (A) (A) (A) (A) (A) (A) (A) (A) (A) (A) (A) (A)
                 (A) (A) (A) (A) (A) (A) (A) (A) (A) (A) (A) (A)
                 (A) (A) (A) (A) (A) (A) (A) (A) (A) (A) (A) (A)
                 (A) (A) (A) (A) (A) (A)
 The electronic state is 1-A.
 Alpha  occ. eigenvalues --  -19.19419 -19.18611 -19.18046 -19.17675 -19.17482
 Alpha  occ. eigenvalues --  -19.16919 -19.16425 -19.15990 -19.15186 -19.14670
 Alpha  occ. eigenvalues --  -19.13951 -10.30762 -10.30242 -10.26472 -10.26098
 Alpha  occ. eigenvalues --  -10.25640 -10.25454 -10.25185 -10.24584 -10.24456
 Alpha  occ. eigenvalues --  -10.24385 -10.24236 -10.24182  -1.10804  -1.09174
 Alpha  occ. eigenvalues --   -1.05447  -1.05133  -1.04144  -1.03380  -1.02845
 Alpha  occ. eigenvalues --   -1.02444  -1.01986  -1.01018  -1.00229  -0.82343
 Alpha  occ. eigenvalues --   -0.80560  -0.79516  -0.78323  -0.72124  -0.70030
 Alpha  occ. eigenvalues --   -0.67337  -0.65287  -0.63568  -0.62619  -0.61498
 Alpha  occ. eigenvalues --   -0.60463  -0.56234  -0.55861  -0.55263  -0.54423
 Alpha  occ. eigenvalues --   -0.54277  -0.53611  -0.52845  -0.51900  -0.51648
 Alpha  occ. eigenvalues --   -0.50622  -0.49906  -0.49603  -0.49211  -0.46615
 Alpha  occ. eigenvalues --   -0.45704  -0.45335  -0.44497  -0.43713  -0.43063
 Alpha  occ. eigenvalues --   -0.42517  -0.41514  -0.41238  -0.40407  -0.39841
 Alpha  occ. eigenvalues --   -0.38987  -0.38041  -0.37529  -0.36687  -0.36021
 Alpha  occ. eigenvalues --   -0.35437  -0.34609  -0.34348  -0.34334  -0.34090
 Alpha  occ. eigenvalues --   -0.32830  -0.31795  -0.30803  -0.30423  -0.30143
 Alpha  occ. eigenvalues --   -0.29203  -0.28878  -0.28221  -0.27797  -0.27367
 Alpha  occ. eigenvalues --   -0.26553
 Alpha virt. eigenvalues --   -0.02066  -0.01919  -0.01648  -0.00344   0.00299
 Alpha virt. eigenvalues --    0.01262   0.01910   0.02336   0.03081   0.03260
 Alpha virt. eigenvalues --    0.03749   0.04243   0.04726   0.05238   0.05656
 Alpha virt. eigenvalues --    0.06159   0.06804   0.07271   0.07479   0.08053
 Alpha virt. eigenvalues --    0.08354   0.08862   0.08930   0.09700   0.10021
 Alpha virt. eigenvalues --    0.10844   0.11163   0.11678   0.11885   0.12084
 Alpha virt. eigenvalues --    0.12350   0.12814   0.13011   0.13727   0.13911
 Alpha virt. eigenvalues --    0.14112   0.14399   0.14730   0.14925   0.15234
 Alpha virt. eigenvalues --    0.15592   0.16379   0.16582   0.16800   0.17120
 Alpha virt. eigenvalues --    0.17389   0.17607   0.17723   0.18007   0.18613
 Alpha virt. eigenvalues --    0.18797   0.18967   0.19302   0.19430   0.19705
 Alpha virt. eigenvalues --    0.20422   0.20847   0.20956   0.21070   0.21578
 Alpha virt. eigenvalues --    0.21881   0.22309   0.22575   0.22782   0.22961
 Alpha virt. eigenvalues --    0.23365   0.23688   0.24114   0.24321   0.24636
 Alpha virt. eigenvalues --    0.24774   0.24903   0.25353   0.25820   0.26116
 Alpha virt. eigenvalues --    0.26388   0.26664   0.26879   0.27028   0.27170
 Alpha virt. eigenvalues --    0.27575   0.27746   0.28054   0.28248   0.28803
 Alpha virt. eigenvalues --    0.29198   0.29533   0.29857   0.30269   0.30580
 Alpha virt. eigenvalues --    0.30865   0.31144   0.31740   0.32117   0.32298
 Alpha virt. eigenvalues --    0.32574   0.33143   0.33402   0.33578   0.34016
 Alpha virt. eigenvalues --    0.34158   0.34468   0.35250   0.35609   0.35754
 Alpha virt. eigenvalues --    0.36069   0.36251   0.36794   0.37105   0.37450
 Alpha virt. eigenvalues --    0.38013   0.38410   0.38678   0.38958   0.39582
 Alpha virt. eigenvalues --    0.39842   0.40024   0.40575   0.40909   0.41413
 Alpha virt. eigenvalues --    0.41687   0.42139   0.42985   0.43499   0.43687
 Alpha virt. eigenvalues --    0.44343   0.44942   0.45859   0.46082   0.47212
 Alpha virt. eigenvalues --    0.47427   0.47753   0.48351   0.48786   0.49686
 Alpha virt. eigenvalues --    0.50276   0.52757   0.54008   0.56730   0.58373
 Alpha virt. eigenvalues --    0.59276   0.60201   0.60601   0.61224   0.61987
 Alpha virt. eigenvalues --    0.63114   0.63889   0.64620   0.65147   0.66660
 Alpha virt. eigenvalues --    0.67307   0.67575   0.69227   0.69650   0.70181
 Alpha virt. eigenvalues --    0.71016   0.72355   0.72937   0.73966   0.74230
 Alpha virt. eigenvalues --    0.74919   0.75844   0.76199   0.77146   0.77816
 Alpha virt. eigenvalues --    0.78833   0.79330   0.79503   0.80080   0.81303
 Alpha virt. eigenvalues --    0.82248   0.83237   0.83675   0.84837   0.85278
 Alpha virt. eigenvalues --    0.87406   0.88111   0.88783   0.89105   0.89811
 Alpha virt. eigenvalues --    0.90633   0.90860   0.91043   0.91916   0.92315
 Alpha virt. eigenvalues --    0.92622   0.92633   0.93560   0.94071   0.94334
 Alpha virt. eigenvalues --    0.94772   0.94961   0.95534   0.95912   0.96334
 Alpha virt. eigenvalues --    0.97092   0.97476   0.97815   0.98567   0.99292
 Alpha virt. eigenvalues --    0.99761   0.99978   1.01200   1.02326   1.03233
 Alpha virt. eigenvalues --    1.03919   1.04107   1.04245   1.05290   1.06242
 Alpha virt. eigenvalues --    1.06567   1.06810   1.07618   1.08190   1.08792
 Alpha virt. eigenvalues --    1.09127   1.09681   1.10655   1.10824   1.11980
 Alpha virt. eigenvalues --    1.12467   1.12908   1.13960   1.14518   1.14809
 Alpha virt. eigenvalues --    1.15120   1.15956   1.16338   1.16837   1.17178
 Alpha virt. eigenvalues --    1.17427   1.18307   1.19172   1.19879   1.20023
 Alpha virt. eigenvalues --    1.20529   1.21115   1.21641   1.22192   1.22635
 Alpha virt. eigenvalues --    1.22691   1.24222   1.24906   1.25321   1.25645
 Alpha virt. eigenvalues --    1.25802   1.26695   1.26982   1.27402   1.28052
 Alpha virt. eigenvalues --    1.28478   1.28990   1.30007   1.30243   1.30995
 Alpha virt. eigenvalues --    1.32214   1.32862   1.33542   1.34031   1.34217
 Alpha virt. eigenvalues --    1.35246   1.35411   1.36106   1.36633   1.37435
 Alpha virt. eigenvalues --    1.38152   1.38766   1.39481   1.40080   1.41084
 Alpha virt. eigenvalues --    1.41183   1.41917   1.42421   1.43341   1.44320
 Alpha virt. eigenvalues --    1.45027   1.45666   1.46748   1.47364   1.48380
 Alpha virt. eigenvalues --    1.48703   1.49786   1.50557   1.51045   1.52460
 Alpha virt. eigenvalues --    1.53341   1.55339   1.56050   1.56649   1.57603
 Alpha virt. eigenvalues --    1.58395   1.58773   1.59575   1.59803   1.61089
 Alpha virt. eigenvalues --    1.61147   1.61804   1.63334   1.64011   1.65072
 Alpha virt. eigenvalues --    1.66236   1.67069   1.67656   1.68192   1.69318
 Alpha virt. eigenvalues --    1.69617   1.71452   1.72077   1.72687   1.73836
 Alpha virt. eigenvalues --    1.75019   1.75654   1.77399   1.78182   1.79575
 Alpha virt. eigenvalues --    1.79723   1.80811   1.81563   1.82655   1.83283
 Alpha virt. eigenvalues --    1.84062   1.85946   1.86789   1.87658   1.88538
 Alpha virt. eigenvalues --    1.89811   1.90431   1.91614   1.92197   1.93579
 Alpha virt. eigenvalues --    1.94439   1.95719   1.96143   1.98509   1.99271
 Alpha virt. eigenvalues --    2.01388   2.02737   2.02846   2.03641   2.05465
 Alpha virt. eigenvalues --    2.06026   2.07680   2.08906   2.09381   2.10943
 Alpha virt. eigenvalues --    2.11494   2.13071   2.14385   2.15609   2.17352
 Alpha virt. eigenvalues --    2.19409   2.20896   2.22694   2.23796   2.24121
 Alpha virt. eigenvalues --    2.25600   2.27491   2.28759   2.29973   2.31283
 Alpha virt. eigenvalues --    2.32259   2.34606   2.35603   2.37002   2.40399
 Alpha virt. eigenvalues --    2.41258   2.42331   2.45990   2.50234   2.52469
 Alpha virt. eigenvalues --    2.53166   2.54393   2.54989   2.56204   2.56628
 Alpha virt. eigenvalues --    2.58934   2.63732   2.65027   2.65913   2.66648
 Alpha virt. eigenvalues --    2.67605   2.68409   2.70962   2.72531   2.73080
 Alpha virt. eigenvalues --    2.73657   2.75399   2.75765   2.77729   2.79021
 Alpha virt. eigenvalues --    2.79909   2.81002   2.83334   2.84774   2.85016
 Alpha virt. eigenvalues --    2.87473   2.89219   2.90990   2.91562   2.93084
 Alpha virt. eigenvalues --    2.94114   2.94769   2.95508   2.96664   2.97439
 Alpha virt. eigenvalues --    2.98918   2.99764   2.99958   3.00720   3.01354
 Alpha virt. eigenvalues --    3.01978   3.02612   3.03384   3.04073   3.05190
 Alpha virt. eigenvalues --    3.05261   3.05568   3.06507   3.07164   3.07569
 Alpha virt. eigenvalues --    3.08421   3.10919   3.10993   3.11926   3.13882
 Alpha virt. eigenvalues --    3.14456   3.15382   3.19168   3.20930   3.23372
 Alpha virt. eigenvalues --    3.24120   3.29113   3.34726   3.75274   3.79902
 Alpha virt. eigenvalues --    3.98269   4.01308   4.04606   4.10083   4.11960
 Alpha virt. eigenvalues --    4.12693   4.14557   4.15576   4.15941   4.17145
 Alpha virt. eigenvalues --    4.17608   4.18496   4.19643   4.20087   4.22433
 Alpha virt. eigenvalues --    4.23783   4.24390   4.25714   4.25797   4.26407
 Alpha virt. eigenvalues --    4.28070   4.28523   4.29210   4.29306   4.29651
 Alpha virt. eigenvalues --    4.30369   4.30416   4.31374   4.32406   4.32551
 Alpha virt. eigenvalues --    4.33529   4.34308   4.34645   4.34779   4.35081
 Alpha virt. eigenvalues --    4.36480   4.37253   4.37452   4.38359   4.38616
 Alpha virt. eigenvalues --    4.38924   4.39583   4.40096   4.41544   4.42668
 Alpha virt. eigenvalues --    4.43846   4.45331   4.46261   4.48918   4.49924
 Alpha virt. eigenvalues --    4.50710   4.52495   4.53148   4.54169   4.55560
 Alpha virt. eigenvalues --    4.56152   4.56890   4.58054   4.58894   4.59196
 Alpha virt. eigenvalues --    4.61164   4.62031   4.62820   4.63415   4.64258
 Alpha virt. eigenvalues --    4.65037   4.65249   4.65882   4.66839   4.67852
 Alpha virt. eigenvalues --    4.67949   4.69183   4.69894   4.70805   4.71125
 Alpha virt. eigenvalues --    4.71480   4.72632   4.73135   4.74389   4.74602
 Alpha virt. eigenvalues --    4.75060   4.75304   4.75870   4.76347   4.76989
 Alpha virt. eigenvalues --    4.77716   4.78524   4.79875   4.80111   4.80406
 Alpha virt. eigenvalues --    4.80883   4.82839   4.83403   4.84180   4.85757
 Alpha virt. eigenvalues --    4.86956   4.87985   4.89276   4.90114   4.91734
 Alpha virt. eigenvalues --    4.93009   4.93794   4.95891   4.96161   4.97803
 Alpha virt. eigenvalues --    4.98071   4.99334   5.00663   5.02258   5.02938
 Alpha virt. eigenvalues --    5.06704   5.07370   5.09629   5.13674   5.14550
 Alpha virt. eigenvalues --    5.23652   5.25399   5.28654   5.29625   5.39305
 Alpha virt. eigenvalues --    5.42267   5.78573   6.00405   6.16463   6.49173
 Alpha virt. eigenvalues --    6.73003   6.74745   6.77457   6.79471   6.83442
 Alpha virt. eigenvalues --    6.88108   6.90914   6.93482   6.94805   7.00008
 Alpha virt. eigenvalues --    7.06610  11.87909  11.91172  12.05192  12.11597
 Alpha virt. eigenvalues --   12.28016  12.36188  12.67517  12.75786  12.84306
 Alpha virt. eigenvalues --   12.98042  13.12989  13.17914  13.25477  13.29143
 Alpha virt. eigenvalues --   13.31587  13.34020  13.35528  13.41160  13.44193
 Alpha virt. eigenvalues --   13.51350  13.60426  13.62839  13.87747
          Condensed to atoms (all electrons):
              1          2          3          4          5          6
     1  O    8.195044   0.232258  -0.084134  -0.013976   0.016326   0.025696
     2  C    0.232258   7.106005  -0.135709   0.069979  -0.054459  -1.345520
     3  C   -0.084134  -0.135709   6.414406   0.097989   0.052987  -0.335815
     4  O   -0.013976   0.069979   0.097989   8.216847   0.225352  -0.044002
     5  H    0.016326  -0.054459   0.052987   0.225352   0.435572  -0.027220
     6  C    0.025696  -1.345520  -0.335815  -0.044002  -0.027220  10.204493
     7  O   -0.000186   0.002129  -0.088887   0.006610  -0.000219   0.267179
     8  H    0.000006  -0.003017   0.017019  -0.000457   0.000013   0.029041
     9  C    0.012961   0.147028  -0.393335   0.002592  -0.004859   0.656595
    10  O   -0.015388   0.037497  -0.001312  -0.000046  -0.000034   0.002297
    11  H    0.001645  -0.015943  -0.000717   0.000001   0.000000   0.001086
    12  C   -0.093239  -0.754998  -0.362371   0.014176   0.004788   0.651654
    13  O    0.003714  -0.034742  -0.071640  -0.003362   0.000020   0.008927
    14  C    0.003453   0.483758   0.417173   0.009242   0.015920  -3.564256
    15  O   -0.000039   0.009270  -0.002293   0.000587   0.000000  -0.042624
    16  C    0.001478   0.082450   0.085322  -0.004166   0.000460  -0.202667
    17  C   -0.000285  -0.041511   0.007468   0.001064   0.000017  -0.291190
    18  O    0.000037  -0.001755   0.000059  -0.000011   0.000000   0.006901
    19  H   -0.000091  -0.002274   0.008206   0.000001   0.000000   0.008637
    20  C    0.000069   0.009716  -0.011020  -0.000033   0.000001   0.039235
    21  O    0.000000   0.000084  -0.000033   0.000000   0.000000  -0.000237
    22  H    0.000000  -0.000002   0.000002   0.000000   0.000000  -0.000067
    23  C   -0.000002   0.002777  -0.013066   0.000057  -0.000021  -0.018165
    24  O    0.000001  -0.000665  -0.010280   0.000026  -0.000002  -0.000841
    25  H    0.000000  -0.000056   0.002455   0.000003   0.000000   0.005892
    26  C    0.000036  -0.009000  -0.008005  -0.000221   0.000027  -0.044173
    27  O    0.000000   0.000053  -0.000012   0.000000   0.000000  -0.000388
    28  C    0.000004  -0.000624   0.000290   0.000007   0.000000  -0.018481
    29  O    0.000000  -0.000005   0.000019   0.000000   0.000000  -0.000299
    30  H    0.263043   0.051958  -0.027619   0.001291  -0.002018   0.005346
    31  H   -0.000459  -0.021804   0.001528   0.000012   0.000000  -0.005408
    32  H    0.003342   0.025729  -0.005113  -0.000044   0.000000   0.011218
    33  H    0.006043   0.031183  -0.042677   0.000276   0.000014  -0.048175
    34  H   -0.020004   0.325220  -0.040381   0.000244  -0.000199  -0.038032
    35  H   -0.002368  -0.003352   0.380335  -0.030051  -0.000347  -0.252699
    36  H    0.000056   0.004644  -0.158742   0.002593  -0.000164   0.462638
    37  H    0.000156  -0.034058  -0.058200   0.000023   0.000000   0.061596
    38  H    0.000000  -0.000011  -0.000130   0.000000   0.000000  -0.000869
    39  H    0.000000  -0.000073   0.000171   0.000000   0.000000  -0.003423
    40  H   -0.000001  -0.002485   0.005222   0.000001   0.000000   0.009152
    41  H    0.000000  -0.000356   0.001067  -0.000001   0.000000   0.017526
    42  H    0.000000   0.000000   0.000000   0.000000   0.000000   0.000011
    43  H    0.000000   0.000006   0.000002   0.000000   0.000000  -0.000124
    44  H    0.000000   0.000203   0.000078   0.000000   0.000000   0.002058
    45  H    0.000000   0.000046   0.000043   0.000000   0.000000  -0.004918
              7          8          9         10         11         12
     1  O   -0.000186   0.000006   0.012961  -0.015388   0.001645  -0.093239
     2  C    0.002129  -0.003017   0.147028   0.037497  -0.015943  -0.754998
     3  C   -0.088887   0.017019  -0.393335  -0.001312  -0.000717  -0.362371
     4  O    0.006610  -0.000457   0.002592  -0.000046   0.000001   0.014176
     5  H   -0.000219   0.000013  -0.004859  -0.000034   0.000000   0.004788
     6  C    0.267179   0.029041   0.656595   0.002297   0.001086   0.651654
     7  O    8.232626   0.248600   0.001177  -0.000005   0.000000   0.013928
     8  H    0.248600   0.348926  -0.000270   0.000000   0.000000  -0.004826
     9  C    0.001177  -0.000270   8.873891   0.062063   0.015926  -2.253331
    10  O   -0.000005   0.000000   0.062063   8.250279   0.227188   0.030590
    11  H    0.000000   0.000000   0.015926   0.227188   0.441073   0.008924
    12  C    0.013928  -0.004826  -2.253331   0.030590   0.008924  10.191036
    13  O    0.001140  -0.000383  -0.044007  -0.001316  -0.000696   0.019766
    14  C   -0.045944  -0.064401  -1.640382  -0.003533  -0.004889  -1.203951
    15  O    0.009599   0.006699   0.001043   0.000252  -0.000002  -0.042440
    16  C   -0.008442   0.017984  -0.167747  -0.000911  -0.000299  -0.261924
    17  C    0.000323   0.000031  -0.045526  -0.000578  -0.000018  -0.121283
    18  O    0.000046  -0.000027  -0.005281  -0.000432  -0.000020   0.028222
    19  H   -0.000090  -0.000003  -0.006830   0.000162  -0.000004   0.005839
    20  C    0.001617   0.000225  -0.000734  -0.000023   0.000019  -0.029850
    21  O   -0.000004   0.000000   0.000275  -0.000001   0.000000   0.000032
    22  H    0.000000   0.000000  -0.000010   0.000000   0.000000   0.000034
    23  C    0.004390  -0.001744  -0.001137  -0.000012   0.000000   0.004521
    24  O   -0.040489   0.011895  -0.000126   0.000000   0.000000   0.002494
    25  H    0.003170  -0.003419  -0.000019   0.000000   0.000000  -0.000450
    26  C    0.002776  -0.003068   0.001985  -0.000016  -0.000008  -0.007836
    27  O    0.000048  -0.000032  -0.000038   0.000000   0.000000  -0.000124
    28  C   -0.000128   0.000157  -0.001801   0.000003   0.000000   0.001934
    29  O   -0.000004   0.000000  -0.000020   0.000000   0.000000   0.000071
    30  H   -0.000010   0.000000   0.008678   0.000204  -0.000037  -0.042690
    31  H   -0.000009   0.000000   0.410449  -0.014653  -0.014507  -0.018219
    32  H    0.000008   0.000000   0.630317  -0.059798   0.001556  -0.306551
    33  H    0.000515   0.000000   0.003678  -0.001409  -0.000284   0.072970
    34  H    0.000790   0.000001  -0.080232  -0.001708  -0.000009  -0.019225
    35  H    0.006300  -0.000128   0.004718  -0.000259   0.000000   0.035644
    36  H   -0.036736  -0.006154   0.026485   0.000017   0.000000   0.103839
    37  H    0.001052  -0.000226   0.045569   0.000130   0.000001   0.122903
    38  H   -0.000395   0.000145   0.000002   0.000000   0.000000   0.000179
    39  H   -0.000063  -0.000011   0.000159   0.000000   0.000000   0.001637
    40  H   -0.001317  -0.000152   0.000347   0.000001   0.000000   0.000537
    41  H    0.000009  -0.000001   0.000587   0.000001   0.000000  -0.003811
    42  H    0.000000   0.000000   0.000000   0.000000   0.000000  -0.000003
    43  H    0.000001   0.000000  -0.000002   0.000000   0.000000   0.000130
    44  H    0.000005   0.000000  -0.000188   0.000000   0.000000   0.000073
    45  H    0.000271   0.000076   0.000000   0.000000   0.000000  -0.000082
             13         14         15         16         17         18
     1  O    0.003714   0.003453  -0.000039   0.001478  -0.000285   0.000037
     2  C   -0.034742   0.483758   0.009270   0.082450  -0.041511  -0.001755
     3  C   -0.071640   0.417173  -0.002293   0.085322   0.007468   0.000059
     4  O   -0.003362   0.009242   0.000587  -0.004166   0.001064  -0.000011
     5  H    0.000020   0.015920   0.000000   0.000460   0.000017   0.000000
     6  C    0.008927  -3.564256  -0.042624  -0.202667  -0.291190   0.006901
     7  O    0.001140  -0.045944   0.009599  -0.008442   0.000323   0.000046
     8  H   -0.000383  -0.064401   0.006699   0.017984   0.000031  -0.000027
     9  C   -0.044007  -1.640382   0.001043  -0.167747  -0.045526  -0.005281
    10  O   -0.001316  -0.003533   0.000252  -0.000911  -0.000578  -0.000432
    11  H   -0.000696  -0.004889  -0.000002  -0.000299  -0.000018  -0.000020
    12  C    0.019766  -1.203951  -0.042440  -0.261924  -0.121283   0.028222
    13  O    8.130460   0.248028  -0.019496  -0.005625   0.052171  -0.018700
    14  C    0.248028  11.592780   0.191277  -0.680585   0.423735   0.024316
    15  O   -0.019496   0.191277   8.083003   0.215499  -0.007759  -0.005419
    16  C   -0.005625  -0.680585   0.215499  10.452746  -1.712456   0.018790
    17  C    0.052171   0.423735  -0.007759  -1.712456   7.745189   0.167787
    18  O   -0.018700   0.024316  -0.005419   0.018790   0.167787   8.228935
    19  H    0.030889   0.018010   0.005435  -0.055275   0.034079   0.207228
    20  C   -0.007267  -0.225224   0.005118  -0.824488  -0.013768  -0.079254
    21  O    0.000032   0.001166   0.000276   0.038064  -0.126627   0.009700
    22  H    0.000004  -0.000682  -0.000022  -0.014185   0.029805  -0.000440
    23  C    0.002603   0.072035  -0.024972   0.129629  -0.192173   0.009634
    24  O    0.000293   0.058850  -0.027953   0.025734   0.005107   0.000125
    25  H   -0.000009  -0.013994   0.002162  -0.016638  -0.002188  -0.000001
    26  C   -0.015301  -0.765533  -0.036238  -2.349722  -0.034408   0.004171
    27  O    0.000175  -0.002003   0.001205   0.019176  -0.026040  -0.000911
    28  C    0.003767  -0.038352   0.003609   0.736725  -0.116754  -0.005962
    29  O    0.000028  -0.000901  -0.000131  -0.011806  -0.024398   0.000473
    30  H   -0.000695  -0.002257   0.000010   0.000274  -0.000074  -0.000001
    31  H   -0.001744  -0.012100  -0.000209   0.002947   0.003053   0.000612
    32  H   -0.000955   0.005049  -0.000144  -0.003069   0.001001  -0.000023
    33  H   -0.011146   0.235379   0.000084   0.003621   0.007682   0.000778
    34  H    0.005103   0.127788  -0.001013  -0.004171   0.001956   0.000055
    35  H    0.002100   0.109891  -0.000252  -0.010359   0.003375   0.000047
    36  H    0.008023  -0.103249  -0.014722  -0.045581   0.005315   0.000095
    37  H   -0.036373   0.174752  -0.027329   0.007763  -0.019693  -0.000082
    38  H    0.000014   0.011533   0.000763   0.021239   0.001472   0.000007
    39  H   -0.000086   0.041478  -0.002324   0.030458  -0.007224   0.000035
    40  H   -0.001466   0.008499  -0.029286   0.144270   0.012174  -0.002130
    41  H   -0.003373   0.038513  -0.005145  -0.092677   0.280469  -0.031587
    42  H    0.000000   0.000125  -0.000002   0.003237   0.009636  -0.000019
    43  H    0.000028  -0.000174   0.000353   0.040113  -0.017571   0.000744
    44  H    0.000111  -0.011947   0.000627   0.098067  -0.224926   0.009406
    45  H    0.000031  -0.000149   0.000766   0.048199  -0.000871   0.000022
             19         20         21         22         23         24
     1  O   -0.000091   0.000069   0.000000   0.000000  -0.000002   0.000001
     2  C   -0.002274   0.009716   0.000084  -0.000002   0.002777  -0.000665
     3  C    0.008206  -0.011020  -0.000033   0.000002  -0.013066  -0.010280
     4  O    0.000001  -0.000033   0.000000   0.000000   0.000057   0.000026
     5  H    0.000000   0.000001   0.000000   0.000000  -0.000021  -0.000002
     6  C    0.008637   0.039235  -0.000237  -0.000067  -0.018165  -0.000841
     7  O   -0.000090   0.001617  -0.000004   0.000000   0.004390  -0.040489
     8  H   -0.000003   0.000225   0.000000   0.000000  -0.001744   0.011895
     9  C   -0.006830  -0.000734   0.000275  -0.000010  -0.001137  -0.000126
    10  O    0.000162  -0.000023  -0.000001   0.000000  -0.000012   0.000000
    11  H   -0.000004   0.000019   0.000000   0.000000   0.000000   0.000000
    12  C    0.005839  -0.029850   0.000032   0.000034   0.004521   0.002494
    13  O    0.030889  -0.007267   0.000032   0.000004   0.002603   0.000293
    14  C    0.018010  -0.225224   0.001166  -0.000682   0.072035   0.058850
    15  O    0.005435   0.005118   0.000276  -0.000022  -0.024972  -0.027953
    16  C   -0.055275  -0.824488   0.038064  -0.014185   0.129629   0.025734
    17  C    0.034079  -0.013768  -0.126627   0.029805  -0.192173   0.005107
    18  O    0.207228  -0.079254   0.009700  -0.000440   0.009634   0.000125
    19  H    0.372688  -0.015402  -0.000420   0.000011  -0.002492  -0.000031
    20  C   -0.015402   6.862380   0.200287  -0.016778   0.077903  -0.007430
    21  O   -0.000420   0.200287   8.217066   0.237805  -0.001295   0.000019
    22  H    0.000011  -0.016778   0.237805   0.423289  -0.000012   0.000000
    23  C   -0.002492   0.077903  -0.001295  -0.000012   5.994634   0.079311
    24  O   -0.000031  -0.007430   0.000019   0.000000   0.079311   8.318960
    25  H    0.000000   0.000710   0.000000   0.000000  -0.047752   0.246047
    26  C   -0.007403   0.588101  -0.010594   0.006259  -0.626377  -0.035327
    27  O   -0.000073  -0.069794   0.001410  -0.000739  -0.115873   0.002485
    28  C    0.002478  -0.716259   0.022641  -0.013967  -0.133704   0.007324
    29  O    0.000001  -0.021454  -0.007163   0.013854   0.013972  -0.000008
    30  H    0.000000   0.000001   0.000000   0.000000   0.000001   0.000000
    31  H    0.000681  -0.000600   0.000004   0.000000  -0.000003   0.000000
    32  H    0.000003   0.000007   0.000000   0.000000  -0.000013   0.000000
    33  H   -0.002677   0.000629  -0.000001   0.000000  -0.000004  -0.000004
    34  H   -0.000062   0.000034   0.000000   0.000000   0.000070   0.000008
    35  H   -0.000004   0.000033   0.000000   0.000000   0.000072   0.000023
    36  H   -0.000007   0.000461   0.000000   0.000000   0.001199   0.000515
    37  H   -0.002843   0.009709   0.000026   0.000000  -0.000037   0.000069
    38  H    0.000000  -0.003314   0.000001   0.000000   0.400318  -0.030021
    39  H    0.000014  -0.033909  -0.000002   0.000002   0.031197   0.004182
    40  H   -0.000038   0.039509  -0.000332   0.000007   0.002383   0.001523
    41  H   -0.000036   0.010029  -0.001971  -0.000185   0.017031   0.000008
    42  H    0.000000  -0.017031  -0.001099  -0.001840  -0.000338  -0.000001
    43  H   -0.000001  -0.138661   0.001732   0.000038  -0.000216   0.000043
    44  H   -0.000204   0.343377  -0.028844  -0.004566   0.008059   0.000026
    45  H    0.000000   0.000930  -0.000006   0.000000   0.586131  -0.050214
             25         26         27         28         29         30
     1  O    0.000000   0.000036   0.000000   0.000004   0.000000   0.263043
     2  C   -0.000056  -0.009000   0.000053  -0.000624  -0.000005   0.051958
     3  C    0.002455  -0.008005  -0.000012   0.000290   0.000019  -0.027619
     4  O    0.000003  -0.000221   0.000000   0.000007   0.000000   0.001291
     5  H    0.000000   0.000027   0.000000   0.000000   0.000000  -0.002018
     6  C    0.005892  -0.044173  -0.000388  -0.018481  -0.000299   0.005346
     7  O    0.003170   0.002776   0.000048  -0.000128  -0.000004  -0.000010
     8  H   -0.003419  -0.003068  -0.000032   0.000157   0.000000   0.000000
     9  C   -0.000019   0.001985  -0.000038  -0.001801  -0.000020   0.008678
    10  O    0.000000  -0.000016   0.000000   0.000003   0.000000   0.000204
    11  H    0.000000  -0.000008   0.000000   0.000000   0.000000  -0.000037
    12  C   -0.000450  -0.007836  -0.000124   0.001934   0.000071  -0.042690
    13  O   -0.000009  -0.015301   0.000175   0.003767   0.000028  -0.000695
    14  C   -0.013994  -0.765533  -0.002003  -0.038352  -0.000901  -0.002257
    15  O    0.002162  -0.036238   0.001205   0.003609  -0.000131   0.000010
    16  C   -0.016638  -2.349722   0.019176   0.736725  -0.011806   0.000274
    17  C   -0.002188  -0.034408  -0.026040  -0.116754  -0.024398  -0.000074
    18  O   -0.000001   0.004171  -0.000911  -0.005962   0.000473  -0.000001
    19  H    0.000000  -0.007403  -0.000073   0.002478   0.000001   0.000000
    20  C    0.000710   0.588101  -0.069794  -0.716259  -0.021454   0.000001
    21  O    0.000000  -0.010594   0.001410   0.022641  -0.007163   0.000000
    22  H    0.000000   0.006259  -0.000739  -0.013967   0.013854   0.000000
    23  C   -0.047752  -0.626377  -0.115873  -0.133704   0.013972   0.000001
    24  O    0.246047  -0.035327   0.002485   0.007324  -0.000008   0.000000
    25  H    0.413969   0.061747  -0.000671  -0.000891  -0.000002   0.000000
    26  C    0.061747   9.881235   0.159786  -0.659757  -0.019800  -0.000002
    27  O   -0.000671   0.159786   8.199043   0.197492  -0.056721   0.000000
    28  C   -0.000891  -0.659757   0.197492   5.801655   0.278516   0.000000
    29  O   -0.000002  -0.019800  -0.056721   0.278516   8.137444   0.000000
    30  H    0.000000  -0.000002   0.000000   0.000000   0.000000   0.418612
    31  H    0.000000   0.000419   0.000000   0.000039   0.000000   0.000036
    32  H    0.000000  -0.000145   0.000000   0.000008   0.000000  -0.000554
    33  H    0.000000  -0.000825   0.000002   0.000085   0.000000  -0.000211
    34  H    0.000000  -0.000469   0.000000  -0.000006   0.000000  -0.014302
    35  H    0.000000  -0.001033   0.000000  -0.000013   0.000000  -0.000096
    36  H   -0.000017  -0.005348   0.000001  -0.000027   0.000000   0.000015
    37  H    0.000005   0.014634   0.000211   0.000500  -0.000001   0.000004
    38  H   -0.006974  -0.065021  -0.001852   0.003640  -0.000013   0.000000
    39  H   -0.000257   0.164299  -0.035751   0.054339  -0.001540   0.000000
    40  H   -0.000037   0.058915   0.004562  -0.005088  -0.000379   0.000000
    41  H    0.000000   0.050471   0.000135  -0.044989   0.000232   0.000000
    42  H    0.000000  -0.005640   0.001699   0.000260   0.261489   0.000000
    43  H    0.000000  -0.005926  -0.053489   0.467438  -0.024920   0.000000
    44  H    0.000000   0.019462   0.001530   0.033124  -0.002078   0.000000
    45  H   -0.003364  -0.258278  -0.002381   0.000448  -0.000308   0.000000
             31         32         33         34         35         36
     1  O   -0.000459   0.003342   0.006043  -0.020004  -0.002368   0.000056
     2  C   -0.021804   0.025729   0.031183   0.325220  -0.003352   0.004644
     3  C    0.001528  -0.005113  -0.042677  -0.040381   0.380335  -0.158742
     4  O    0.000012  -0.000044   0.000276   0.000244  -0.030051   0.002593
     5  H    0.000000   0.000000   0.000014  -0.000199  -0.000347  -0.000164
     6  C   -0.005408   0.011218  -0.048175  -0.038032  -0.252699   0.462638
     7  O   -0.000009   0.000008   0.000515   0.000790   0.006300  -0.036736
     8  H    0.000000   0.000000   0.000000   0.000001  -0.000128  -0.006154
     9  C    0.410449   0.630317   0.003678  -0.080232   0.004718   0.026485
    10  O   -0.014653  -0.059798  -0.001409  -0.001708  -0.000259   0.000017
    11  H   -0.014507   0.001556  -0.000284  -0.000009   0.000000   0.000000
    12  C   -0.018219  -0.306551   0.072970  -0.019225   0.035644   0.103839
    13  O   -0.001744  -0.000955  -0.011146   0.005103   0.002100   0.008023
    14  C   -0.012100   0.005049   0.235379   0.127788   0.109891  -0.103249
    15  O   -0.000209  -0.000144   0.000084  -0.001013  -0.000252  -0.014722
    16  C    0.002947  -0.003069   0.003621  -0.004171  -0.010359  -0.045581
    17  C    0.003053   0.001001   0.007682   0.001956   0.003375   0.005315
    18  O    0.000612  -0.000023   0.000778   0.000055   0.000047   0.000095
    19  H    0.000681   0.000003  -0.002677  -0.000062  -0.000004  -0.000007
    20  C   -0.000600   0.000007   0.000629   0.000034   0.000033   0.000461
    21  O    0.000004   0.000000  -0.000001   0.000000   0.000000   0.000000
    22  H    0.000000   0.000000   0.000000   0.000000   0.000000   0.000000
    23  C   -0.000003  -0.000013  -0.000004   0.000070   0.000072   0.001199
    24  O    0.000000   0.000000  -0.000004   0.000008   0.000023   0.000515
    25  H    0.000000   0.000000   0.000000   0.000000   0.000000  -0.000017
    26  C    0.000419  -0.000145  -0.000825  -0.000469  -0.001033  -0.005348
    27  O    0.000000   0.000000   0.000002   0.000000   0.000000   0.000001
    28  C    0.000039   0.000008   0.000085  -0.000006  -0.000013  -0.000027
    29  O    0.000000   0.000000   0.000000   0.000000   0.000000   0.000000
    30  H    0.000036  -0.000554  -0.000211  -0.014302  -0.000096   0.000015
    31  H    0.567215  -0.043989  -0.003720  -0.000008   0.000004   0.000001
    32  H   -0.043989   0.593835   0.006337   0.003057   0.000001  -0.000009
    33  H   -0.003720   0.006337   0.611336   0.006479   0.003108  -0.000019
    34  H   -0.000008   0.003057   0.006479   0.618703   0.006507   0.001992
    35  H    0.000004   0.000001   0.003108   0.006507   0.617886   0.007042
    36  H    0.000001  -0.000009  -0.000019   0.001992   0.007042   0.610853
    37  H   -0.000009  -0.000025   0.001545  -0.000079   0.001975   0.005843
    38  H    0.000000   0.000000   0.000000   0.000000   0.000000   0.000000
    39  H    0.000000   0.000000   0.000000   0.000000   0.000000   0.000000
    40  H   -0.000001   0.000000  -0.000023   0.000000   0.000001  -0.000009
    41  H   -0.000004   0.000000  -0.000003   0.000000   0.000000  -0.000002
    42  H    0.000000   0.000000   0.000000   0.000000   0.000000   0.000000
    43  H    0.000000   0.000000   0.000000   0.000000   0.000000   0.000000
    44  H    0.000000   0.000000   0.000000   0.000000   0.000000   0.000000
    45  H    0.000000   0.000000   0.000000   0.000000   0.000000   0.000001
             37         38         39         40         41         42
     1  O    0.000156   0.000000   0.000000  -0.000001   0.000000   0.000000
     2  C   -0.034058  -0.000011  -0.000073  -0.002485  -0.000356   0.000000
     3  C   -0.058200  -0.000130   0.000171   0.005222   0.001067   0.000000
     4  O    0.000023   0.000000   0.000000   0.000001  -0.000001   0.000000
     5  H    0.000000   0.000000   0.000000   0.000000   0.000000   0.000000
     6  C    0.061596  -0.000869  -0.003423   0.009152   0.017526   0.000011
     7  O    0.001052  -0.000395  -0.000063  -0.001317   0.000009   0.000000
     8  H   -0.000226   0.000145  -0.000011  -0.000152  -0.000001   0.000000
     9  C    0.045569   0.000002   0.000159   0.000347   0.000587   0.000000
    10  O    0.000130   0.000000   0.000000   0.000001   0.000001   0.000000
    11  H    0.000001   0.000000   0.000000   0.000000   0.000000   0.000000
    12  C    0.122903   0.000179   0.001637   0.000537  -0.003811  -0.000003
    13  O   -0.036373   0.000014  -0.000086  -0.001466  -0.003373   0.000000
    14  C    0.174752   0.011533   0.041478   0.008499   0.038513   0.000125
    15  O   -0.027329   0.000763  -0.002324  -0.029286  -0.005145  -0.000002
    16  C    0.007763   0.021239   0.030458   0.144270  -0.092677   0.003237
    17  C   -0.019693   0.001472  -0.007224   0.012174   0.280469   0.009636
    18  O   -0.000082   0.000007   0.000035  -0.002130  -0.031587  -0.000019
    19  H   -0.002843   0.000000   0.000014  -0.000038  -0.000036   0.000000
    20  C    0.009709  -0.003314  -0.033909   0.039509   0.010029  -0.017031
    21  O    0.000026   0.000001  -0.000002  -0.000332  -0.001971  -0.001099
    22  H    0.000000   0.000000   0.000002   0.000007  -0.000185  -0.001840
    23  C   -0.000037   0.400318   0.031197   0.002383   0.017031  -0.000338
    24  O    0.000069  -0.030021   0.004182   0.001523   0.000008  -0.000001
    25  H    0.000005  -0.006974  -0.000257  -0.000037   0.000000   0.000000
    26  C    0.014634  -0.065021   0.164299   0.058915   0.050471  -0.005640
    27  O    0.000211  -0.001852  -0.035751   0.004562   0.000135   0.001699
    28  C    0.000500   0.003640   0.054339  -0.005088  -0.044989   0.000260
    29  O   -0.000001  -0.000013  -0.001540  -0.000379   0.000232   0.261489
    30  H    0.000004   0.000000   0.000000   0.000000   0.000000   0.000000
    31  H   -0.000009   0.000000   0.000000  -0.000001  -0.000004   0.000000
    32  H   -0.000025   0.000000   0.000000   0.000000   0.000000   0.000000
    33  H    0.001545   0.000000   0.000000  -0.000023  -0.000003   0.000000
    34  H   -0.000079   0.000000   0.000000   0.000000   0.000000   0.000000
    35  H    0.001975   0.000000   0.000000   0.000001   0.000000   0.000000
    36  H    0.005843   0.000000   0.000000  -0.000009  -0.000002   0.000000
    37  H    0.586164  -0.000001   0.000005   0.004870  -0.000073   0.000000
    38  H   -0.000001   0.573242  -0.008209  -0.000052   0.000001  -0.000001
    39  H    0.000005  -0.008209   0.627266   0.006476   0.002371   0.000026
    40  H    0.004870  -0.000052   0.006476   0.617175   0.006628   0.000004
    41  H   -0.000073   0.000001   0.002371   0.006628   0.635889   0.000012
    42  H    0.000000  -0.000001   0.000026   0.000004   0.000012   0.426292
    43  H    0.000000   0.000009   0.003087  -0.000017   0.002065  -0.009995
    44  H   -0.000012   0.000001  -0.000040   0.002317   0.007046   0.000010
    45  H    0.000002  -0.046007   0.006026   0.001756  -0.000007   0.000002
             43         44         45
     1  O    0.000000   0.000000   0.000000
     2  C    0.000006   0.000203   0.000046
     3  C    0.000002   0.000078   0.000043
     4  O    0.000000   0.000000   0.000000
     5  H    0.000000   0.000000   0.000000
     6  C   -0.000124   0.002058  -0.004918
     7  O    0.000001   0.000005   0.000271
     8  H    0.000000   0.000000   0.000076
     9  C   -0.000002  -0.000188   0.000000
    10  O    0.000000   0.000000   0.000000
    11  H    0.000000   0.000000   0.000000
    12  C    0.000130   0.000073  -0.000082
    13  O    0.000028   0.000111   0.000031
    14  C   -0.000174  -0.011947  -0.000149
    15  O    0.000353   0.000627   0.000766
    16  C    0.040113   0.098067   0.048199
    17  C   -0.017571  -0.224926  -0.000871
    18  O    0.000744   0.009406   0.000022
    19  H   -0.000001  -0.000204   0.000000
    20  C   -0.138661   0.343377   0.000930
    21  O    0.001732  -0.028844  -0.000006
    22  H    0.000038  -0.004566   0.000000
    23  C   -0.000216   0.008059   0.586131
    24  O    0.000043   0.000026  -0.050214
    25  H    0.000000   0.000000  -0.003364
    26  C   -0.005926   0.019462  -0.258278
[...]
 0000087,-0.00000899,-0.00000582,-0.00001107,-0.00000718,-0.00001814,0.
 00004156,-0.00001003,0.00000546,-0.00001529,0.00001389,-0.00001601,0.0
 0005312,-0.00011374,0.00003435,-0.00015329,0.00072017,0.00079053,0.000
 24235,-0.00010001,-0.00003338,0.00049825,0.00001067,0.00010571,0.00002
 758,-0.00252477,-0.00170659,0.00270501,-0.00016627,0.00035913,-0.00034
 362,0.00033197,-0.00008541,-0.00009273,-0.00013429,0.00010358,0.000241
 85,0.00000691,-0.00013651,0.00002030,0.00001385,-0.00001491,0.00003006
 ,0.00037845,-0.00092447,0.00037022,-0.00120869,-0.00088124,0.00220839,
 0.01051982,-0.00200698,0.02789119,-0.22765576,0.03904424,-0.26580822,0
 .00000176,-0.00000012,-0.00000057,0.00000251,-0.00000248,-0.00000167,-
 0.00000201,-0.00000140,0.00000327,-0.00000128,0.00000139,0.00000023,-0
 .00000118,-0.00000023,0.00000114,-0.00000099,-0.00000023,-0.00000012,-
 0.00000151,-0.00000031,0.00000085,-0.00000164,0.00000117,0.00000037,0.
 00000684,-0.00002665,-0.00001166,-0.00003334,0.00001900,-0.00004729,0.
 00001410,-0.00001610,0.00001768,-0.00003816,0.00001433,-0.00009428,0.2
 1917191,-0.00000100,-0.00001241,-0.00000791,-0.00000098,0.00000624,0.0
 0000277,0.00000255,0.00000313,0.00000171,0.00000099,-0.00000933,-0.000
 00130,-0.00000065,0.00000340,0.00000004,-0.00000916,0.00002228,0.00001
 268,0.00000063,-0.00002979,-0.00002850,0.00000715,0.00001319,0.0000311
 0,0.00000371,0.00001492,0.00000266,-0.00000678,-0.00001575,-0.00000196
 ,0.00000158,0.00000422,-0.00000594,0.00001255,0.00001440,0.00001324,0.
 00000866,-0.00001390,-0.00003079,-0.00000527,0.00001954,0.00001504,-0.
 00001889,-0.00003970,-0.00001280,-0.00001957,-0.00005704,-0.00005778,0
 .00016282,-0.00097672,0.00003431,0.00004479,-0.00008957,-0.00051962,0.
 00000500,-0.00009825,-0.00005297,0.00065257,0.00244628,-0.00479081,0.0
 0058493,-0.00026989,0.00137195,-0.00089646,-0.00126261,-0.00142961,-0.
 00016842,0.00022404,0.00036142,0.00001704,-0.00017231,-0.00008160,0.00
 001589,-0.00002343,0.00006351,-0.00056678,-0.00140741,0.00003412,-0.00
 170793,-0.00402131,0.00488423,0.00552588,-0.00214238,-0.00125418,0.030
 30120,-0.00100656,0.05617109,-0.00000049,0.00000480,-0.00000055,-0.000
 00094,0.00000033,0.00000252,-0.00000077,-0.00000065,-0.00000105,-0.000
 00127,0.00000069,-0.00000025,-0.00000019,-0.00000014,-0.00000017,-0.00
 000090,0.00000016,0.00000062,0.00000213,-0.00000133,-0.00000013,0.0000
 0084,-0.00000022,0.00000174,-0.00006055,-0.00005450,-0.00000325,-0.000
 07719,-0.00008235,0.00025661,0.00000222,0.00002044,0.00001068,0.000045
 16,0.00007390,-0.00009902,-0.03431729,0.00851832,0.00001527,0.00001102
 ,0.00007396,-0.00000242,-0.00001197,-0.00005232,-0.00001437,0.00001572
 ,-0.00005472,0.00000373,-0.00003406,0.00006489,-0.00000142,0.00000571,
 -0.00000881,0.00000745,0.00002825,0.00000471,0.00001670,-0.00001822,0.
 00007068,-0.00002358,0.00001336,-0.00008580,-0.00001060,-0.00003225,-0
 .00003833,0.00001919,0.00004391,0.00004627,-0.00000164,-0.00001120,-0.
 00001110,-0.00004691,-0.00002359,-0.00006980,0.00000400,0.00005146,0.0
 0016678,-0.00009370,-0.00006954,-0.00024505,0.00007346,-0.00001226,0.0
 0039730,-0.00004119,-0.00001197,-0.00002651,-0.00021581,-0.00108824,-0
 .00011008,0.00008463,0.00015079,-0.00006917,0.00001355,-0.00006167,-0.
 00012917,0.00276786,0.00132239,-0.00470078,0.00016978,0.00054851,0.001
 02681,-0.00042312,-0.00132864,-0.00015450,0.00009844,0.00018696,-0.000
 15485,-0.00000577,-0.00016176,0.00019353,-0.00000153,0.00002610,0.0000
 0560,0.00024655,0.00046637,-0.00021249,0.00166790,-0.00094131,-0.00123
 555,-0.02502651,0.00304054,-0.02452449,-0.21034491,0.05320364,-0.34159
 542,0.00000279,-0.00000125,-0.00001484,0.00000346,-0.00000958,0.000001
 98,-0.00000135,0.00000166,0.00000493,-0.00000019,0.00000141,0.00000213
 ,0.00000048,0.00000025,0.00000288,-0.00000007,-0.00000040,0.00000321,0
 .00000069,0.00000059,-0.00000284,-0.00000088,0.00000820,0.00000601,-0.
 00001920,0.00000464,0.00001348,0.00003696,0.00007377,-0.00006398,-0.00
 001563,0.00000063,0.00000485,0.00017124,0.00006421,-0.00009278,0.23013
 873,-0.05522317,0.36732156,0.00000044,-0.00001036,-0.00002442,-0.00000
 606,0.00000893,0.00001556,0.00000094,-0.00000488,0.00002315,0.00000740
 ,0.00000650,-0.00002566,-0.00000361,0.00000026,0.00000260,-0.00002607,
 0.00001265,0.00001107,0.00000870,-0.00002278,-0.00006351,0.00001004,0.
 00000719,0.00007447,-0.00000911,0.00001440,0.00000463,0.00000648,-0.00
 001449,-0.00000905,-0.00000492,0.00000308,0.00000094,0.00001044,0.0000
 0576,0.00002435,0.00002897,-0.00004512,-0.00007661,0.00001270,0.000066
 45,0.00010632,0.00000058,-0.00003081,-0.00025170,0.00005084,0.00023512
 ,0.00021177,-0.00079807,-0.00056518,0.00045669,0.00043827,0.00008638,-
 0.00009322,0.00001089,-0.00003054,-0.00004656,-0.00987240,0.00233907,-
 0.00439179,0.00238353,-0.00012285,0.00174249,-0.00054834,-0.00014337,-
 0.00004339,0.00037712,-0.00022746,-0.00021137,-0.00000460,0.00024645,-
 0.00015441,-0.00000619,-0.00000884,-0.00003043,-0.00009864,0.00004208,
 0.00023007,0.00012469,0.00998558,-0.00323964,-0.33224781,0.01544498,-0
 .07622426,-0.02029270,-0.00155823,0.00633239,-0.00000328,0.00000215,0.
 00000360,-0.00000511,-0.00000005,0.00000252,0.00000437,0.00000035,-0.0
 0000613,0.00000452,-0.00000009,-0.00000133,0.00000283,0.00000048,-0.00
 000327,0.00000309,0.00000076,-0.00000039,0.00000611,0.00000002,-0.0000
 0148,0.00000657,-0.00000080,0.00000002,-0.00000981,0.00001290,-0.00000
 014,0.00012384,0.00057948,-0.00112041,0.00003635,-0.00014543,0.0001538
 8,0.00077479,0.00010724,-0.00052519,0.00040086,0.00005240,0.00027980,0
 .35863921,0.00000080,0.00001845,0.00001466,0.00000560,-0.00002062,-0.0
 0000703,-0.00001069,-0.00000114,-0.00001688,-0.00000103,0.00000715,0.0
 0001835,0.00000111,-0.00000287,-0.00000137,0.00004103,-0.00005661,-0.0
 0002340,0.00000837,0.00007875,0.00011625,-0.00004587,-0.00004041,-0.00
 016527,0.00000283,-0.00002104,0.00001152,0.00000670,0.00001484,-0.0000
 0418,-0.00000385,0.00000013,0.00000636,-0.00002055,0.00000724,0.000009
 86,0.00000726,0.00016409,0.00000511,-0.00010867,-0.00011528,-0.0001337
 2,0.00012283,0.00035025,0.00036506,-0.00037988,-0.00087871,0.00012710,
 -0.00078294,-0.00015929,0.00125221,0.00040264,-0.00003962,-0.00057407,
 0.00009827,-0.00014373,0.00007323,-0.02148997,0.00157114,-0.00873062,0
 .00082391,0.00330480,0.00059178,-0.00044415,-0.00014235,0.00007998,0.0
 0006098,0.00005708,0.00002914,-0.00017538,-0.00041112,0.00040466,-0.00
 000501,0.00002533,0.00004047,0.00371309,0.00139545,-0.00420100,0.03559
 781,-0.02307392,0.01677964,0.01609652,-0.04028256,0.00276512,-0.005951
 04,0.00411586,0.00165431,0.00000102,-0.00000307,-0.00000097,-0.0000030
 8,0.00000972,0.00000059,0.00000080,0.00000288,-0.00000317,0.00000398,-
 0.00000504,0.00000307,-0.00000023,0.00000144,-0.00000075,0.00000199,-0
 .00000020,0.00000156,-0.00000593,0.00000606,-0.00000561,0.00001435,-0.
 00000103,0.00001078,-0.00004303,-0.00004701,-0.00000579,-0.00137078,0.
 00027476,0.00028204,-0.00000824,-0.00010880,-0.00003177,0.00039601,0.0
 0014415,-0.00028870,-0.00026008,0.00036229,-0.00066399,-0.02525719,0.0
 5633671,-0.00000567,-0.00000602,-0.00003950,-0.00000318,0.00000374,0.0
 0002755,0.00000660,-0.00000578,0.00003251,0.00000196,0.00001822,-0.000
 03713,-0.00000144,-0.00000188,0.00000394,-0.00001264,-0.00002674,-0.00
 000619,0.00000039,0.00001497,-0.00003547,0.00000339,-0.00001224,0.0000
 3934,-0.00000284,0.00001751,0.00002018,-0.00000217,-0.00002310,-0.0000
 2356,-0.00000278,0.00000602,0.00000517,0.00002247,0.00001510,0.0000468
 1,0.00001448,-0.00001032,-0.00012997,0.00004722,0.00005091,0.00015267,
 0.00003812,0.00007682,-0.00037754,-0.00000855,-0.00023051,-0.00000898,
 -0.00157038,0.00027034,0.00189303,0.00070716,-0.00016320,-0.00032197,0
 .00004430,-0.00002028,0.00009112,-0.02773436,0.00043562,-0.00499210,0.
 00255014,0.00137991,0.00193390,0.00010665,-0.00036606,-0.00007892,0.00
 009914,0.00007592,0.00010524,0.00006723,0.00012437,-0.00014138,-0.0000
 0818,-0.00001795,-0.00000599,-0.00169805,-0.00062910,0.00251044,-0.009
 05298,0.00935545,-0.00062434,-0.08508147,0.00044178,-0.06883649,0.0401
 7979,0.00018606,-0.00765870,-0.00000289,0.00000111,0.00000666,-0.00000
 569,0.00000629,0.00000172,0.00000357,0.,-0.00000731,0.00000413,-0.0000
 0192,-0.00000030,0.00000136,0.00000092,-0.00000379,0.00000204,-0.00000
 004,-0.00000133,0.00000202,0.00000216,-0.00000235,0.00000856,-0.000005
 49,0.00000490,0.00000623,0.00001567,-0.00001615,0.00073754,-0.00008252
 ,-0.00016571,0.00017341,-0.00003729,0.00011671,0.00069156,0.00003966,-
 0.00035511,0.00213324,0.00003939,0.00372941,0.07809861,-0.00733186,0.0
 7657396,0.00000304,-0.00000722,-0.00001687,0.00000120,0.00000532,0.000
 01292,-0.00001564,-0.00001866,0.00002350,0.00001231,0.00000878,-0.0000
 1758,-0.00000404,-0.00000086,0.00000351,0.00002617,0.00001054,0.000037
 11,0.00002978,0.00001170,-0.00002001,-0.00002247,-0.00001260,-0.000001
 50,-0.00001453,0.00001116,-0.00000254,0.00002013,-0.00000807,-0.000005
 70,-0.00001015,0.00000413,0.00000244,-0.00002707,-0.00000055,0.0000181
 8,0.00005686,-0.00001815,-0.00006823,-0.00018409,-0.00002859,0.0001046
 5,0.00073036,-0.00009102,0.00005727,-0.00077497,0.00131090,-0.00045287
 ,-0.01669608,-0.00374567,0.00099440,0.00232556,0.00064677,-0.00073041,
 0.00010755,0.00002813,-0.00004423,-0.35033354,-0.01360494,-0.01510733,
 -0.00809762,0.01229029,-0.00661868,0.00028547,0.00050690,0.00038092,-0
 .00006788,0.00001123,0.00000150,0.00004788,0.00000190,-0.00000148,-0.0
 0001716,-0.00000771,0.00000424,-0.00002146,-0.00010867,-0.00026538,0.0
 0140515,-0.00116774,0.00042267,-0.01261910,-0.00097465,-0.00070239,0.0
 0187274,0.00003790,0.00068056,-0.00000288,0.00000196,0.00000320,-0.000
 00915,-0.00000121,0.00000310,0.00000718,-0.00000021,-0.00000903,0.0000
 1553,-0.00000047,0.00000287,0.00000490,0.00000235,-0.00000605,0.000008
 54,0.00000143,0.00000130,0.00000688,0.00001134,-0.00001201,0.00004391,
 0.00000161,0.00003335,0.00001975,-0.00000073,0.00000711,0.00009504,0.0
 0018407,0.00004962,0.00090996,-0.00084936,0.00026574,0.00018853,-0.000
 95408,0.00236923,0.00040352,0.00036820,0.00048229,0.00042741,-0.000755
 70,-0.00069944,0.37983203,0.00000365,-0.00000328,0.00001306,-0.0000042
 1,0.00000607,-0.00000870,-0.00000273,0.00000580,-0.00000443,0.00000183
 ,-0.00000873,0.00000530,-0.00000077,0.00000256,-0.00000186,-0.00001121
 ,0.00001500,-0.00000128,0.00001529,-0.00000955,-0.00000901,-0.00001167
 ,-0.00000329,-0.00000247,0.00000027,-0.00000045,-0.00001044,-0.0000045
 8,0.00000519,0.00001346,0.00000602,-0.00000404,-0.00000594,-0.00000054
 ,-0.00000803,-0.00001851,0.00001718,-0.00004196,0.00003722,-0.00000818
 ,0.00006631,-0.00000930,0.00018400,-0.00006974,-0.00007510,-0.00131063
 ,0.00023240,0.00017039,-0.00759087,0.00081025,0.00049510,0.00095600,0.
 00033602,0.00017051,-0.00000905,-0.00002723,-0.00008365,-0.01553168,-0
 .03723404,-0.00414868,0.04145787,-0.02106266,0.01249580,0.00083634,0.0
 0105347,-0.00079128,-0.00007198,0.00001488,-0.00001539,0.00002040,-0.0
 0002342,0.00000904,-0.00000656,-0.00000042,0.00000448,-0.00015073,-0.0
 0028526,0.00004053,0.00150973,0.00178736,0.00064201,-0.02796047,-0.001
 48448,-0.00392147,0.00143191,0.00107398,0.00215054,0.00000053,0.000000
 17,-0.00000308,0.00000656,-0.00000654,-0.00000108,-0.00000167,-0.00000
 223,0.00000404,-0.00000214,0.00000633,-0.00000041,0.00000040,-0.000001
 53,0.00000093,-0.00000007,0.00000052,0.00000137,0.00000191,0.00000014,
 -0.00000261,0.00000858,0.00001178,0.00001996,0.00001025,-0.00001743,-0
 .00000378,0.00013365,0.00009361,-0.00001795,0.00018191,-0.00011821,0.0
 0034192,-0.00021244,0.00001360,0.00153393,-0.00002648,0.00004087,0.000
 44803,-0.00084346,-0.00283192,-0.00350995,0.00695739,0.05771982,-0.000
 00193,-0.00000692,-0.00000294,-0.00000356,0.00000594,-0.00000030,0.000
 01138,0.00002000,0.00000283,-0.00000495,-0.00000718,-0.00000805,0.0000
 0064,0.00000359,-0.00000236,-0.00003082,-0.00001676,-0.00002567,-0.000
 01118,-0.00000436,-0.00000792,0.00000877,-0.00000700,0.00000655,0.0000
 0587,0.00001622,-0.00001105,-0.00001395,-0.00001127,0.00000682,0.00000
 569,-0.00000104,-0.00000912,0.00002959,0.00001411,-0.00000459,-0.00003
 875,-0.00015062,0.00008488,0.00009360,0.00016674,0.00013871,-0.0006774
 1,-0.00000826,-0.00024045,0.00108658,-0.00132206,0.00109291,0.03593208
 ,0.00373629,-0.00273639,-0.00177856,0.00034456,0.00351810,-0.00004007,
 0.00030298,0.00013841,-0.01269295,-0.00407102,-0.04343692,-0.01406320,
 0.01052050,-0.00099140,-0.00116622,0.00005476,0.00029896,0.00001799,-0
 .00000569,0.00007951,-0.00000177,-0.00002255,0.00000822,-0.00000452,-0
 .00000181,0.00000792,0.00030617,0.00016277,-0.00045458,0.00152646,0.00
 032986,0.00083729,-0.02777171,-0.00482394,-0.00433075,0.00051758,0.000
 94331,0.00257853,0.00000044,0.00000234,-0.00000139,0.00000893,-0.00000
 647,-0.00000097,-0.00000483,-0.00000274,0.00000952,-0.00001561,0.00000
 401,-0.00000904,-0.00000185,-0.00000299,0.00000501,-0.00000511,0.00000
 009,-0.00000190,-0.00000045,-0.00001046,0.00001073,-0.00004115,-0.0000
 0062,-0.00005029,-0.00000621,0.00002214,0.00000350,-0.00013417,-0.0000
 1361,-0.00012510,-0.00052083,0.00046524,-0.00011155,0.00201162,0.00164
 381,-0.00569895,-0.00004152,0.00025385,0.00048601,-0.00130514,-0.00257
 952,-0.00336421,0.01882757,-0.00595176,0.05230319,0.00000843,0.0000221
 2,0.00004108,0.00000385,-0.00002560,-0.00001754,-0.00003230,0.00002855
 ,-0.00002976,0.00001144,-0.00000410,0.00003044,-0.00000354,0.00000160,
 -0.00000451,0.00005492,-0.00010743,-0.00000784,0.00008213,0.00022072,0
 .00027306,-0.00016988,-0.00022379,-0.00047639,-0.00000884,-0.00002229,
 -0.00001391,0.00001583,0.00002575,0.00001520,-0.00000401,-0.00000486,0
 .00000008,-0.00003262,-0.00001969,-0.00002127,0.00001354,0.00007592,0.
 00003862,-0.00006475,-0.00005440,-0.00006929,0.00018831,0.00003764,-0.
 00009049,0.00039159,-0.00019473,-0.00017202,0.00012636,-0.00004838,0.0
 0014046,0.00004281,0.00015459,-0.00002880,-0.00001423,-0.00003160,-0.0
 0001278,-0.00002198,-0.00002892,0.00015933,0.00001516,-0.00007903,-0.0
 0008189,-0.00000244,0.00003211,-0.00000230,-0.33485875,0.02454009,0.07
 851126,0.00670169,-0.00326424,0.00520394,0.00030111,-0.00022975,0.0007
 5523,-0.01182512,0.00157427,0.00211491,0.00156989,-0.00121547,0.000072
 93,0.00058333,-0.00010461,-0.00019297,0.00002166,0.00008847,-0.0001645
 8,0.00000136,-0.00000243,-0.00000565,-0.00000026,0.00000054,0.00000060
 ,0.00000221,0.00000121,-0.00000046,0.00000461,-0.00000004,0.00000131,0
 .00000230,0.00000060,-0.00000079,0.00000668,0.00000109,0.00000476,-0.0
 0000326,0.00000274,-0.00001455,0.00001836,0.00001461,0.00001281,-0.018
 06208,0.00241488,0.00487758,0.00084800,0.00229409,0.00015555,0.0002444
 0,0.00055936,0.00047972,0.00006510,-0.00015362,-0.00000183,0.00000238,
 0.00004256,-0.00001415,0.00003474,-0.00028459,0.00014140,0.00003043,0.
 00002047,-0.00001256,0.35371146,-0.00000166,0.00002394,0.00001547,0.00
 000642,-0.00003150,0.00000045,-0.00000844,0.00003481,-0.00001872,-0.00
 000177,0.00000495,0.00001520,0.00000020,0.00000113,-0.00000450,0.00007
 302,-0.00019491,-0.00009781,0.00007651,0.00015570,0.00027919,-0.000313
 66,-0.00009756,-0.00049493,-0.00000061,-0.00000676,-0.00000171,-0.0000
 0155,0.00000487,-0.00000204,0.00000042,-0.00000083,0.00000072,0.000013
 37,-0.00001220,0.00000670,-0.00004581,0.00005061,-0.00006988,0.0001467
 9,-0.00010634,0.00009627,-0.00029830,0.00006203,-0.00024614,0.00125459
 ,0.00208542,0.00100456,0.00001250,-0.00015356,-0.00006851,-0.00020000,
 -0.00017893,-0.00008166,0.00002327,-0.00003106,0.00007531,0.00009618,0
 .00007417,-0.00005883,-0.00004511,0.00006340,0.00001594,0.00000600,-0.
 00000900,0.00000419,0.02396847,-0.04942584,-0.01347999,-0.01336889,0.0
 0000682,0.01581103,-0.00120876,0.00046614,0.00027377,0.03580324,-0.007
 10403,-0.00705067,-0.00064387,0.00236894,-0.00200442,0.00016712,-0.000
 00857,-0.00004484,-0.00013452,-0.00003835,0.00008373,0.00000144,-0.000
 00198,-0.00000159,0.00000019,0.00000633,-0.00000042,0.00000008,0.00000
 024,0.00000085,-0.00000126,-0.00000277,-0.00000127,-0.00000079,0.00000
 045,0.00000101,0.00000008,-0.00000091,0.00000057,-0.00000828,-0.000005
 39,-0.00001203,-0.00002166,-0.00001747,-0.00003310,-0.01917396,0.00329
 444,0.00411940,0.00121877,-0.00583641,0.00139370,-0.00076243,-0.000169
 28,-0.00032184,-0.00028375,0.00015447,-0.00006666,-0.00000328,-0.00000
 593,-0.00001306,-0.00022875,0.00013776,-0.00009569,-0.00005713,-0.0000
 5172,0.00001555,-0.02605441,0.05449468,-0.00000137,-0.00002846,-0.0000
 1347,-0.00000874,0.00003347,-0.00000646,0.00003175,-0.00002832,0.00000
 297,-0.00001555,-0.00002209,-0.00000138,0.00000270,0.00000068,0.000003
 09,-0.00007328,0.00021751,0.00007655,-0.00043343,-0.00035780,-0.000254
 89,0.00095234,0.00036566,0.00086854,0.00000257,0.00000510,0.00000078,-
 0.00000635,-0.00000553,0.00000419,0.00000275,-0.00000013,-0.00000282,0
 .00001078,0.00001097,-0.00002534,-0.00002516,-0.00006171,0.00006849,0.
 00008402,0.00007364,-0.00011612,-0.00012291,-0.00024429,0.00022648,0.0
 0073636,0.00044204,-0.00017459,-0.00012680,-0.00013315,0.00001248,-0.0
 0001020,0.00004351,0.00006633,0.00002604,0.00001927,-0.00006258,0.0000
 0763,-0.00007001,0.00003352,-0.00000201,0.00003101,-0.00002125,-0.0000
 0418,-0.00000312,0.00000757,0.07543342,-0.01264262,-0.06123158,0.03368
 237,0.00927839,-0.03109175,0.00063119,-0.00101575,0.00035564,0.0021888
 4,-0.00028988,0.00103286,-0.00131818,0.00186153,0.00015905,-0.00045795
 ,-0.00010771,-0.00009038,0.00011952,-0.00006177,-0.00016449,-0.0000004
 0,0.00000319,-0.00000017,0.00000138,-0.00000669,0.00000006,-0.00000275
 ,0.00000096,0.00000193,-0.00000563,-0.00000055,0.00000135,-0.00000334,
 0.00000046,0.00000341,-0.00001327,-0.00000502,-0.00000863,-0.00001805,
 0.00002468,0.00005583,-0.00003435,-0.00003745,-0.00001033,-0.01980455,
 0.00115585,0.00809625,0.00031173,0.00038689,0.00000864,-0.00017583,-0.
 00009296,-0.00005895,-0.00003221,0.00003807,-0.00003318,-0.00000198,0.
 00003810,0.00002642,0.00007454,0.00012682,-0.00006076,-0.00000750,0.00
 000049,0.00000833,-0.09159397,0.00105669,0.08230836\\0.00747666,-0.007
 90071,-0.00652596,-0.00404850,-0.00218436,0.01374832,0.00728796,-0.011
 60765,0.00677319,-0.00712367,0.01677290,0.01954823,0.00292535,-0.00829
 943,-0.02902172,-0.01137625,-0.01773905,0.00284233,-0.00163143,0.01630
 592,-0.00864232,0.01014653,0.01177591,0.01588807,-0.00075120,0.0104368
 7,0.00354374,0.00413633,0.01922526,-0.00913919,0.00290340,-0.03318050,
 0.00663642,0.00320088,0.00925611,0.01944472,0.02482422,-0.00190180,0.0
 1492872,-0.04001320,-0.01121273,-0.03474233,0.01027031,-0.01841801,0.0
 0061672,0.00908383,0.01512054,0.02059597,-0.01148358,0.03726916,-0.021
 51415,0.01067734,-0.03629804,0.01847866,-0.00641677,0.02187741,-0.0154
 5511,0.01504287,-0.00293159,-0.01703543,-0.00600803,0.00083023,-0.0081
 4048,-0.00648639,-0.01389309,0.03061424,0.00829354,-0.01034469,0.01010
 457,-0.00323569,-0.02383142,0.00490221,-0.00591080,0.03202611,-0.00446
 618,-0.00252926,-0.00522479,0.00278131,0.00026155,0.01511572,0.0190236
 7,0.02312261,-0.01620321,-0.02618172,-0.00715043,0.00937652,0.01152003
 ,-0.00067930,0.00348682,-0.00043858,-0.00468248,0.00558843,-0.01711838
 ,-0.01987946,-0.00215056,0.00690987,0.01999192,0.00489143,-0.00554502,
 -0.02088603,-0.00278222,0.00066395,0.02279772,0.00332984,-0.00085567,-
 0.02185139,-0.00100748,0.00284155,0.01729731,0.00750306,-0.00620929,-0
 .00977956,-0.00689705,-0.01331629,-0.02172379,0.00186629,0.00182607,0.
 02077873,-0.00306847,0.00058602,-0.02391375,-0.00214276,0.00129721,-0.
 00191929,-0.00296095,-0.00219981,-0.02027463,0.00116938,-0.00376925,0.
 02152649,-0.00200726,0.00168105,0.01770930,0.00096390,-0.00747997\\\@


 HEAVEN'S NET CASTS WIDE.
 THOUGH ITS MESHES ARE COARSE, NOTHING SLIPS THROUGH.

                                          -- LAO-TSU
 Job cpu time:  1 days  6 hours 29 minutes 31.4 seconds.
 File lengths (MBytes):  RWF=   1769 Int=      0 D2E=      0 Chk=     28 Scr=      1
 Normal termination of Gaussian 09 at Wed Mar 23 05:02:56 2016.
Gaussian '09 finished on node017 at Wed Mar 23 05:02:56 EDT 2016.
