Gaussian '09 started on node024 at Mon Feb 29 14:22:26 EST 2016.
 Entering Gaussian System, Link 0=/usr/local/gaussian/g09/g09
 Initial command:
 /usr/local/gaussian/g09/l1.exe /home/srmcgrat/thesis/gaussian/cellobiose/290/5000/2/gdp/gaussian7050/Gau-7086.inp -scrdir=/home/srmcgrat/thesis/gaussian/cellobiose/290/5000/2/gdp/gaussian7050/
 Entering Link 1 = /usr/local/gaussian/g09/l1.exe PID=      7088.
  
 Copyright (c) 1988,1990,1992,1993,1995,1998,2003,2009,2010,
            Gaussian, Inc.  All Rights Reserved.
  
 This is part of the Gaussian(R) 09 program.  It is based on
 the Gaussian(R) 03 system (copyright 2003, Gaussian, Inc.),
 the Gaussian(R) 98 system (copyright 1998, Gaussian, Inc.),
 the Gaussian(R) 94 system (copyright 1995, Gaussian, Inc.),
 the Gaussian 92(TM) system (copyright 1992, Gaussian, Inc.),
 the Gaussian 90(TM) system (copyright 1990, Gaussian, Inc.),
 the Gaussian 88(TM) system (copyright 1988, Gaussian, Inc.),
 the Gaussian 86(TM) system (copyright 1986, Carnegie Mellon
 University), and the Gaussian 82(TM) system (copyright 1983,
 Carnegie Mellon University). Gaussian is a federally registered
 trademark of Gaussian, Inc.
  
 This software contains proprietary and confidential information,
 including trade secrets, belonging to Gaussian, Inc.
  
 This software is provided under written license and may be
 used, copied, transmitted, or stored only in accord with that
 written license.
  
 The following legend is applicable only to US Government
 contracts under FAR:
  
                    RESTRICTED RIGHTS LEGEND
  
 Use, reproduction and disclosure by the US Government is
 subject to restrictions as set forth in subparagraphs (a)
 and (c) of the Commercial Computer Software - Restricted
 Rights clause in FAR 52.227-19.
  
 Gaussian, Inc.
 340 Quinnipiac St., Bldg. 40, Wallingford CT 06492
  
  
 ---------------------------------------------------------------
 Warning -- This program may not be used in any manner that
 competes with the business of Gaussian, Inc. or will provide
 assistance to any competitor of Gaussian, Inc.  The licensee
 of this program is prohibited from giving any competitor of
 Gaussian, Inc. access to this program.  By using this program,
 the user acknowledges that Gaussian, Inc. is engaged in the
 business of creating and licensing software in the field of
 computational chemistry and represents and warrants to the
 licensee that it is not a competitor of Gaussian, Inc. and that
 it will not use this program in any manner prohibited above.
 ---------------------------------------------------------------
  

 Cite this work as:
 Gaussian 09, Revision B.01,
 M. J. Frisch, G. W. Trucks, H. B. Schlegel, G. E. Scuseria, 
 M. A. Robb, J. R. Cheeseman, G. Scalmani, V. Barone, B. Mennucci, 
 G. A. Petersson, H. Nakatsuji, M. Caricato, X. Li, H. P. Hratchian, 
 A. F. Izmaylov, J. Bloino, G. Zheng, J. L. Sonnenberg, M. Hada, 
 M. Ehara, K. Toyota, R. Fukuda, J. Hasegawa, M. Ishida, T. Nakajima, 
 Y. Honda, O. Kitao, H. Nakai, T. Vreven, J. A. Montgomery, Jr., 
 J. E. Peralta, F. Ogliaro, M. Bearpark, J. J. Heyd, E. Brothers, 
 K. N. Kudin, V. N. Staroverov, T. Keith, R. Kobayashi, J. Normand, 
 K. Raghavachari, A. Rendell, J. C. Burant, S. S. Iyengar, J. Tomasi, 
 M. Cossi, N. Rega, J. M. Millam, M. Klene, J. E. Knox, J. B. Cross, 
 V. Bakken, C. Adamo, J. Jaramillo, R. Gomperts, R. E. Stratmann, 
 O. Yazyev, A. J. Austin, R. Cammi, C. Pomelli, J. W. Ochterski, 
 R. L. Martin, K. Morokuma, V. G. Zakrzewski, G. A. Voth, 
 P. Salvador, J. J. Dannenberg, S. Dapprich, A. D. Daniels, 
 O. Farkas, J. B. Foresman, J. V. Ortiz, J. Cioslowski, 
 and D. J. Fox, Gaussian, Inc., Wallingford CT, 2010.
 
 ******************************************
 Gaussian 09:  EM64L-G09RevB.01 12-Aug-2010
                29-Feb-2016 
 ******************************************
 ------------------------------------------------
 # freq=raman b3lyp/6-31+g(d,p) geom=connectivity
 ------------------------------------------------
 1/10=4,30=1,38=1,57=2/1,3;
 2/12=2,17=6,18=5,40=1/2;
 3/5=1,6=6,7=111,11=2,16=1,25=1,30=1,71=2,74=-5/1,2,3;
 4//1;
 5/5=2,38=5,98=1/2;
 8/6=4,10=90,11=11/1;
 10/13=10,15=4/2;
 11/6=3,8=1,9=11,15=111,16=1/1,2,10;
 10/6=1/2;
 6/7=2,8=2,9=2,10=2,18=1,28=1/1;
 7/8=1,10=1,25=1/1,2,3,16;
 1/10=4,30=1/3;
 99//99;
 ------------
 290 5000.com
 ------------
 Symbolic Z-matrix:
 Charge =  0 Multiplicity = 1
 O                     7.611     7.562     22.724 
 C                     8.133     8.097     23.949 
 C                     7.501     9.354     24.524 
 O                     7.775     10.373    23.552 
 H                     7.54      10.062    22.631 
 C                     7.945     9.819     25.901 
 O                     7.181     10.944    26.357 
 H                     7.567     11.349    27.186 
 C                     8.338     5.608     24.807 
 O                     7.601     4.893     23.805 
 H                     8.005     3.991     23.953 
 C                     7.895     7.046     25.021 
 O                     8.596     7.513     26.183 
 C                     7.979     8.627     26.845 
 O                     8.821     8.827     27.989 
 C                     8.287     8.448     29.266 
 C                     8.857     7.103     29.687 
 O                     8.689     6.048     28.728 
 H                     9.095     6.309     27.853 
 C                     8.211     6.673     30.994 
 O                     8.706     5.503     31.662 
 H                     8.173     5.242     32.467 
 C                     8.024     10.848    30.05 
 O                     8.734     11.566    29.03 
 H                     8.603     12.551    29.137 
 C                     8.685     9.5       30.288 
 O                     8.006     9.049     31.469 
 C                     8.417     7.785     32.009 
 O                     7.569     7.633     33.157 
 H                     8.11018   7.52892   33.94306 
 H                     8.33769   7.31093   22.14912 
 H                     8.24077   5.08394   25.7348 
 H                     9.37072   5.61178   24.52704 
 H                     6.84865   7.03676   25.24455 
 H                     9.1858    8.25414   23.84028 
 H                     6.44215   9.20332   24.55619 
 H                     8.9549    10.15798   25.8005 
 H                     6.98762   8.37009   27.15494 
 H                     8.03621   11.41484   30.95744 
 H                     7.01139   10.69717   29.7389 
 H                     9.74363   9.57098   30.42641 
 H                     7.22038   8.3862    29.20772 
 H                     9.90545   7.2283    29.86006 
 H                     7.1609    6.55092   30.82883 
 H                     9.44294   7.82753   32.30991 
 

 GradGradGradGradGradGradGradGradGradGradGradGradGradGradGradGradGradGrad
 Berny optimization.
 Initialization pass.
 Trust Radius=3.00D-01 FncErr=1.00D-07 GrdErr=1.00D-07
 Number of steps in this run=      2 maximum allowed number of steps=      2.
 GradGradGradGradGradGradGradGradGradGradGradGradGradGradGradGradGradGrad

                          Input orientation:                          
 ---------------------------------------------------------------------
 Center     Atomic      Atomic             Coordinates (Angstroms)
 Number     Number       Type             X           Y           Z
 ---------------------------------------------------------------------
      1          8           0        7.611000    7.562000   22.724000
      2          6           0        8.133000    8.097000   23.949000
      3          6           0        7.501000    9.354000   24.524000
      4          8           0        7.775000   10.373000   23.552000
      5          1           0        7.540000   10.062000   22.631000
      6          6           0        7.945000    9.819000   25.901000
      7          8           0        7.181000   10.944000   26.357000
      8          1           0        7.567000   11.349000   27.186000
      9          6           0        8.338000    5.608000   24.807000
     10          8           0        7.601000    4.893000   23.805000
     11          1           0        8.005000    3.991000   23.953000
     12          6           0        7.895000    7.046000   25.021000
     13          8           0        8.596000    7.513000   26.183000
     14          6           0        7.979000    8.627000   26.845000
     15          8           0        8.821000    8.827000   27.989000
     16          6           0        8.287000    8.448000   29.266000
     17          6           0        8.857000    7.103000   29.687000
     18          8           0        8.689000    6.048000   28.728000
     19          1           0        9.095000    6.309000   27.853000
     20          6           0        8.211000    6.673000   30.994000
     21          8           0        8.706000    5.503000   31.662000
     22          1           0        8.173000    5.242000   32.467000
     23          6           0        8.024000   10.848000   30.050000
     24          8           0        8.734000   11.566000   29.030000
     25          1           0        8.603000   12.551000   29.137000
     26          6           0        8.685000    9.500000   30.288000
     27          8           0        8.006000    9.049000   31.469000
     28          6           0        8.417000    7.785000   32.009000
     29          8           0        7.569000    7.633000   33.157000
     30          1           0        8.110179    7.528922   33.943062
     31          1           0        8.337692    7.310931   22.149123
     32          1           0        8.240773    5.083944   25.734800
     33          1           0        9.370720    5.611778   24.527043
     34          1           0        6.848654    7.036764   25.244552
     35          1           0        9.185800    8.254139   23.840280
     36          1           0        6.442152    9.203317   24.556187
     37          1           0        8.954896   10.157983   25.800498
     38          1           0        6.987621    8.370087   27.154940
     39          1           0        8.036210   11.414839   30.957438
     40          1           0        7.011394   10.697173   29.738905
     41          1           0        9.743634    9.570978   30.426405
     42          1           0        7.220377    8.386204   29.207721
     43          1           0        9.905452    7.228302   29.860057
     44          1           0        7.160897    6.550920   30.828835
     45          1           0        9.442935    7.827533   32.309911
 ---------------------------------------------------------------------
                    Distance matrix (angstroms):
                    1          2          3          4          5
     1  O    0.000000
     2  C    1.435038   0.000000
     3  C    2.542315   1.519901   0.000000
     4  O    2.934996   2.337937   1.434650   0.000000
     5  H    2.502737   2.439262   2.021444   1.000093   0.000000
     6  C    3.911385   2.609776   1.519701   2.419425   3.303933
     7  O    4.982119   3.848399   2.447527   2.923509   3.845761
     8  H    5.852585   4.623205   3.327255   3.768527   4.733405
     9  C    2.947123   2.640703   3.848789   4.959558   5.020946
    10  O    2.879622   3.251058   4.519677   5.488596   5.300996
    11  H    3.797067   4.107997   5.416810   6.398721   6.230646
    12  C    2.371312   1.520010   2.393556   3.638858   3.864503
    13  O    3.596847   2.355033   2.709352   3.971876   4.497693
    14  C    4.272270   2.948123   2.478720   3.732825   4.473225
    15  O    5.548383   4.162673   3.745177   4.813647   5.645737
    16  C    6.636244   5.330798   4.891339   6.051245   6.869223
    17  C    7.088481   5.868292   5.793298   7.035755   7.763846
    18  O    6.285085   5.229376   5.478558   6.806761   7.389574
    19  H    5.484424   4.400410   4.784883   6.062763   6.616065
    20  C    8.339258   7.187899   7.039372   8.322467   9.048499
    21  O    9.237226   8.157667   8.199590   9.505565  10.183467
    22  H   10.031166   8.983816   8.969469  10.293823  10.971781
    23  C    8.039816   6.693436   5.748238   6.520094   7.476203
    24  O    7.553726   6.181563   5.168875   5.687830   6.680932
    25  H    8.185399   6.853784   5.719701   6.051569   7.046497
    26  C    7.881841   6.515829   5.886159   6.853023   7.762507
    27  O    8.879314   7.581084   6.970013   8.030269   8.908062
    28  C    9.322585   8.071035   7.702340   8.867399   9.690240
    29  O   10.433326   9.236918   8.803133   9.990298  10.802664
    30  H   11.230210  10.010220   9.613570  10.778464  11.606219
    31  H    0.960000   1.974679   3.242564   3.414813   2.904634
    32  H    3.949974   3.504169   4.499631   5.740703   5.908105
    33  H    3.186054   2.835914   4.183310   5.115297   5.172136
    34  H    2.685187   2.110000   2.512834   3.854000   4.057175
    35  H    2.050642   1.070000   2.125022   2.561842   2.727522
    36  H    2.723423   2.109877   1.070000   2.037899   2.376752
    37  H    4.243822   2.889845   2.095149   2.548358   3.472299
    38  H    4.546959   3.415337   2.855432   4.196761   4.861453
    39  H    9.100257   7.754717   6.776624   7.482926   8.450205
    40  H    7.706992   6.445300   5.407315   6.242273   7.155779
    41  H    8.240823   6.835461   6.317822   7.195569   8.115753
    42  H    6.547559   5.345153   4.790889   6.020145   6.794388
    43  H    7.503277   6.231919   6.226836   7.363391   8.116925
    44  H    8.180050   7.118109   6.908246   8.242436   8.926136
    45  H    9.763001   8.467194   8.168330   9.271592  10.114115
                    6          7          8          9         10
     6  C    0.000000
     7  O    1.434314   0.000000
     8  H    2.033472   1.000131   0.000000
     9  C    4.368502   5.675742   6.262041   0.000000
    10  O    5.364422   6.580555   7.287815   1.434712   0.000000
    11  H    6.145233   7.402864   8.048869   1.858735   0.999362
    12  C    2.909713   4.181997   4.828107   1.519832   2.490081
    13  O    2.412667   3.715409   4.096309   2.364099   3.675501
    14  C    1.520906   2.498687   2.774042   3.660148   4.829828
    15  O    2.472081   3.136035   2.928790   4.551964   5.871168
    16  C    3.649634   3.989428   3.641511   5.286859   6.552186
    17  C    4.747862   5.352678   5.093880   5.130184   6.407773
    18  O    4.771363   5.645044   5.633582   3.961192   5.172398
    19  H    4.177667   5.233033   5.308604   3.215986   4.541299
    20  C    5.992222   6.387809   6.064699   6.279277   7.431166
    21  O    7.238515   7.750686   7.450343   6.865674   7.957737
    22  H    8.007076   8.415995   8.096397   7.670514   8.687878
    23  C    4.275428   3.789210   2.943186   7.419248   8.639501
    24  O    3.669492   3.153351   2.193015   7.313570   8.550628
    25  H    4.285847   3.511828   2.514856   8.186842   9.385052
    26  C    4.460396   4.449709   3.780361   6.731228   8.026755
    27  O    5.621321   5.514000   4.881271   7.505528   8.727729
    28  C    6.455045   6.591819   6.056891   7.524252   8.736998
    29  O    7.587457   7.573194   7.032887   8.626383   9.745180
    30  H    8.363402   8.371049   7.781126   9.338601  10.487499
    31  H    4.530032   5.678323   6.501545   3.156625   3.021760
    32  H    4.747195   5.987530   6.466134   1.070000   2.042032
    33  H    4.649855   6.047826   6.575650   1.070000   2.042032
    34  H    3.061655   4.076087   4.783369   2.109732   2.689621
    35  H    2.869659   4.193859   4.836581   2.942000   3.716193
    36  H    2.108587   2.611284   3.575634   4.072278   4.526151
    37  H    1.070000   2.018471   2.294427   4.697866   5.790949
    38  H    2.142029   2.701691   3.034892   3.868523   4.867080
    39  H    5.303074   4.702883   3.801084   8.463944   9.689230
    40  H    4.046272   3.395139   2.692749   7.209941   8.321495
    41  H    4.876053   5.001234   4.289444   7.018455   8.385545
    42  H    3.675920   3.830206   3.603563   5.322954   6.444900
    43  H    5.121447   5.787958   5.440505   5.533142   6.886787
    44  H    5.964790   6.268721   6.037942   6.207831   7.230259
    45  H    6.876328   7.089842   6.494176   7.901954   9.183557
                   11         12         13         14         15
    11  H    0.000000
    12  C    3.238171   0.000000
    13  O    4.210305   1.435177   0.000000
    14  C    5.464141   2.415283   1.435245   0.000000
    15  O    6.351539   3.583080   2.244740   1.434469   0.000000
    16  C    6.940630   4.487682   3.236448   2.447069   1.435105
    17  C    6.579453   4.764478   3.537547   3.342218   2.420057
    18  O    5.244018   3.920241   2.938009   3.271243   2.878608
    19  H    4.665964   3.162814   2.118376   2.763086   2.536513
    20  C    7.537323   5.992972   4.898933   4.591965   3.747244
    21  O    7.887092   6.865963   5.837092   5.787175   4.955112
    22  H    8.607056   7.666460   6.695149   6.565268   5.772747
    23  C    9.175632   6.305766   5.138394   3.899601   2.994557
    24  O    9.148114   6.099705   4.954923   3.739247   2.931445
    25  H   10.025221   6.909974   5.840172   4.586983   3.903025
    26  C    8.422809   5.864086   4.561482   3.621438   2.399339
    27  O    9.059449   6.752854   5.536171   4.643295   3.581049
    28  C    8.914220   7.046329   5.835092   5.250496   4.172455
    29  O    9.907970   8.163660   7.050234   6.402927   5.449896
    30  H   10.598551   8.937712   7.775271   7.183694   6.135236
    31  H    3.792967   2.917849   4.047186   4.889985   6.052785
    32  H    2.103550   2.116302   2.495473   3.722139   4.407783
    33  H    2.195823   2.116302   2.637618   4.049861   4.756573
    34  H    3.504557   1.070000   2.039780   2.523483   3.824537
    35  H    4.425082   2.125997   2.526952   3.259407   4.203942
    36  H    5.474904   2.642127   3.184769   2.816507   4.193416
    37  H    6.507475   3.378673   2.696488   2.094580   2.564953
    38  H    5.519410   2.670252   2.065466   1.070000   2.065358
    39  H   10.206690   7.372109   6.191363   4.968649   4.015524
    40  H    8.912727   6.030791   5.029353   3.687351   3.135982
    41  H    8.721466   6.245908   4.853743   4.102620   2.710295
    42  H    6.895327   4.447459   3.435660   2.493179   2.059509
    43  H    6.998940   5.243245   3.913625   3.841632   2.689372
    44  H    7.385310   5.874943   4.956703   4.566217   4.000143
    45  H    9.307234   7.492337   6.193163   5.713800   4.478394
                   16         17         18         19         20
    16  C    0.000000
    17  C    1.520252   0.000000
    18  O    2.492197   1.435594   0.000000
    19  H    2.687890   2.012619   0.999291   0.000000
    20  C    2.478384   1.520021   2.398722   3.283266   0.000000
    21  O    3.819608   2.546257   2.984237   3.912728   1.435322
    22  H    4.531869   3.414612   3.859535   4.824683   2.054004
    23  C    2.538469   3.853658   5.022938   5.155228   4.284475
    24  O    3.158707   4.512776   5.526441   5.399231   5.298327
    25  H    4.117172   5.481580   6.516417   6.391657   6.176811
    26  C    1.519734   2.477175   3.788129   4.034824   2.952125
    27  O    2.300733   2.772479   4.121355   4.665724   2.431671
    28  C    2.824981   2.459758   3.722380   4.462129   1.519607
    29  O    4.039756   3.739083   4.835563   5.675744   2.452006
    30  H    4.769788   4.342029   5.452067   6.288635   3.072415
    31  H    7.207318   7.558604   6.708206   5.840513   8.868757
    32  H    4.877334   4.480649   3.176407   2.591764   5.494104
    33  H    5.628172   5.395629   4.278209   3.409418   6.655274
    34  H    4.498052   4.875775   4.061888   3.518481   5.919836
    35  H    5.503077   5.968028   5.385505   4.460239   7.390937
    36  H    5.114324   6.047154   5.692836   5.126758   7.139802
    37  H    3.921713   4.944432   5.053012   4.364294   6.298488
    38  H    2.480127   3.392847   3.280441   3.029260   4.372086
    39  H    3.424324   4.569428   5.848033   6.068622   4.745201
    40  H    2.628609   4.040672   5.044908   5.210961   4.382726
    41  H    2.174719   2.724657   4.050704   4.205192   3.327072
    42  H    1.070000   2.134211   2.802531   3.108738   2.665932
    43  H    2.111860   1.070000   2.038239   2.351643   2.113138
    44  H    2.703604   2.117863   2.646041   3.557369   1.070000
    45  H    3.314598   2.783510   4.070042   4.721340   2.140615
                   21         22         23         24         25
    21  O    0.000000
    22  H    1.000117   0.000000
    23  C    5.624295   6.106662   0.000000
    24  O    6.609703   7.219464   1.435278   0.000000
    25  H    7.487359   8.043338   2.017181   0.999417   0.000000
    26  C    4.226621   4.810483   1.520088   2.419364   3.261921
    27  O    3.619581   3.939180   2.291350   3.579664   4.249546
    28  C    2.326253   2.595409   3.657062   4.823991   5.567561
    29  O    2.839840   2.560820   4.494074   5.818749   6.435548
    30  H    3.108473   2.722631   5.116604   6.389470   6.968670
    31  H    9.690154  10.524551   8.662165   8.099946   8.738371
    32  H    5.960180   6.734397   7.203630   7.288256   8.213593
    33  H    7.166680   8.038295   7.728824   7.492315   8.366235
    34  H    6.854619   7.559023   6.244941   6.196622   6.973928
    35  H    8.305316   9.193424   6.829240   6.172985   6.845284
    36  H    8.325259   9.014923   5.948883   5.554263   6.071252
    37  H    7.489194   8.319886   4.404652   3.530013   4.120996
    38  H    5.611292   6.277581   3.949114   4.096285   4.900821
    39  H    5.991233   6.356212   1.070000   2.055426   2.219483
    40  H    5.792186   6.208925   1.070000   2.055426   2.516381
    41  H    4.376279   5.036960   2.174766   2.636176   3.441533
    42  H    4.067361   4.627787   2.723176   3.526151   4.388870
    43  H    2.768095   3.707147   4.083890   4.569127   5.527233
    44  H    2.044418   2.328349   4.451565   5.555312   6.398666
    45  H    2.523156   2.884856   4.030359   5.023598   5.751869
                   26         27         28         29         30
    26  C    0.000000
    27  O    1.434992   0.000000
    28  C    2.444359   1.434649   0.000000
    29  O    3.600320   2.246190   1.435309   0.000000
    30  H    4.192260   2.905593   1.974920   0.960000   0.000000
    31  H    8.435280   9.486359   9.871585  11.039382  11.798147
    32  H    6.358500   6.975518   6.833180   7.876422   8.565661
    33  H    6.984061   7.865604   7.849341   9.044760   9.691533
    34  H    5.905596   6.643214   6.984076   7.967511   8.803280
    35  H    6.586051   7.760225   8.218219   9.476345  10.185730
    36  H    6.162148   7.089176   7.839392   8.815309   9.679842
    37  H    4.543508   5.853389   6.668274   7.900277   8.598073
    38  H    3.738163   4.484320   5.093854   6.075032   6.931543
    39  H    2.129715   2.420703   3.798226   4.399849   4.900997
    40  H    2.129715   2.588232   3.950925   4.624225   5.377739
    41  H    1.070000   2.092567   2.730253   3.992610   4.382355
    42  H    2.133698   2.483926   3.104918   4.035550   4.893887
    43  H    2.614049   3.084081   2.672706   4.061111   4.470381
    44  H    3.363401   2.713746   2.119797   2.599577   3.399417
    45  H    2.731252   2.064920   1.070000   2.065681   2.128988
                   31         32         33         34         35
    31  H    0.000000
    32  H    4.222078   0.000000
    33  H    3.099801   1.736106   0.000000
    34  H    3.445879   2.447825   2.984329   0.000000
    35  H    2.113986   3.812141   2.736404   2.986006   0.000000
    36  H    3.601132   4.646870   4.634275   2.309338   2.990161
    37  H    4.671100   5.124467   4.739470   3.806223   2.742333
    38  H    5.291758   3.792879   4.493692   2.333805   3.978996
    39  H    9.722107   8.209631   8.763927   7.294854   7.871818
    40  H    8.416084   7.003754   7.654486   5.798645   6.744644
    41  H    8.694704   6.663575   7.114549   6.454049   6.739606
    42  H    7.226922   4.899726   5.850654   4.203079   5.717495
    43  H    7.869129   4.938337   5.598225   5.539276   6.148817
    44  H    8.792034   5.409930   6.743729   5.614067   7.472689
    45  H   10.233770   7.225273   8.092454   7.568018   8.484265
                   36         37         38         39         40
    36  H    0.000000
    37  H    2.962023   0.000000
    38  H    2.783043   2.983498   0.000000
    39  H    6.957577   5.386809   4.982875   0.000000
    40  H    5.423671   4.424814   3.477465   1.746459   0.000000
    41  H    6.744956   4.729239   4.442998   2.568486   3.034157
    42  H    4.786447   4.213897   2.065997   3.591619   2.380422
    43  H    6.635222   5.095744   4.139452   4.714383   4.519216
    44  H    6.848205   6.443098   4.103278   4.943726   4.289722
    45  H    8.427201   6.931208   5.735561   4.083727   4.556018
                   41         42         43         44         45
    41  H    0.000000
    42  H    3.042320   0.000000
    43  H    2.415588   2.995982   0.000000
    44  H    3.994150   2.449452   2.988304   0.000000
    45  H    2.584107   3.856872   2.564134   3.005167   0.000000
 Stoichiometry    C12H22O11
 Framework group  C1[X(C12H22O11)]
 Deg. of freedom   129
 Full point group                 C1      NOp   1
 Largest Abelian subgroup         C1      NOp   1
 Largest concise Abelian subgroup C1      NOp   1
                         Standard orientation:                         
 ---------------------------------------------------------------------
 Center     Atomic      Atomic             Coordinates (Angstroms)
 Number     Number       Type             X           Y           Z
 ---------------------------------------------------------------------
      1          8           0       -5.038081   -0.553772    0.263932
      2          6           0       -3.775851   -0.061586   -0.209209
      3          6           0       -3.223138    1.222170    0.387932
      4          8           0       -4.161952    2.234839   -0.001107
      5          1           0       -5.099966    1.947185    0.192729
      6          6           0       -1.814999    1.647146    0.005793
      7          8           0       -1.391035    2.807679    0.734269
      8          1           0       -0.534219    3.181828    0.379106
      9          6           0       -2.942091   -2.567164   -0.224552
     10          8           0       -3.997537   -3.229579    0.486531
     11          1           0       -3.837709   -4.154053    0.142254
     12          6           0       -2.735473   -1.109265    0.151918
     13          8           0       -1.526063   -0.694184   -0.499826
     14          6           0       -0.887620    0.445038    0.095568
     15          8           0        0.308732    0.585946   -0.683269
     16          6           0        1.544975    0.223356   -0.051005
     17          6           0        1.981218   -1.155512   -0.519599
     18          8           0        0.998898   -2.189281   -0.354373
     19          1           0        0.154310   -1.941742   -0.827637
     20          6           0        3.239790   -1.563156    0.228925
     21          8           0        3.920396   -2.765807   -0.159091
     22          1           0        4.687308   -3.005580    0.436382
     23          6           0        2.345114    2.625677    0.129143
     24          8           0        1.380975    3.314254   -0.680993
     25          1           0        1.493608    4.303782   -0.597438
     26          6           0        2.604280    1.240749   -0.441361
     27          8           0        3.734776    0.815311    0.333355
     28          6           0        4.281141   -0.475178    0.026208
     29          8           0        5.372526   -0.592400    0.951005
     30          1           0        6.188850   -0.734633    0.466253
     31          1           0       -5.570641   -0.838423   -0.482362
     32          1           0       -2.029524   -3.094965   -0.041390
     33          1           0       -3.157891   -2.617437   -1.271358
     34          1           0       -2.576881   -1.063083    1.209091
     35          1           0       -3.817354    0.038313   -1.273726
     36          1           0       -3.258296    1.129871    1.453364
     37          1           0       -1.848374    1.930883   -1.025361
     38          1           0       -0.642927    0.239973    1.116829
     39          1           0        3.259497    3.181217    0.142555
     40          1           0        1.970202    2.534360    1.127142
     41          1           0        2.808551    1.251652   -1.491625
     42          1           0        1.420308    0.221202    1.011705
     43          1           0        2.220212   -1.090180   -1.560519
     44          1           0        3.008615   -1.625266    1.271806
     45          1           0        4.645180   -0.492610   -0.979810
 ---------------------------------------------------------------------
 Rotational constants (GHZ):      0.3981421      0.1477398      0.1116362
 Standard basis: 6-31+G(d,p) (6D, 7F)
 There are   547 symmetry adapted basis functions of A   symmetry.
 Integral buffers will be    131072 words long.
 Raffenetti 2 integral format.
 Two-electron integral symmetry is turned on.
   547 basis functions,   890 primitive gaussians,   547 cartesian basis functions
    91 alpha electrons       91 beta electrons
       nuclear repulsion energy      2285.3711262978 Hartrees.
 NAtoms=   45 NActive=   45 NUniq=   45 SFac= 1.00D+00 NAtFMM=   50 NAOKFM=F Big=F
 One-electron integrals computed using PRISM.
 NBasis=   547 RedAO= T  NBF=   547
 NBsUse=   547 1.00D-06 NBFU=   547
 Harris functional with IExCor=  402 diagonalized for initial guess.
 ExpMin= 4.38D-02 ExpMax= 5.48D+03 ExpMxC= 8.25D+02 IAcc=2 IRadAn=         0 AccDes= 0.00D+00
 HarFok:  IExCor=  402 AccDes= 0.00D+00 IRadAn=         0 IDoV= 1
 ScaDFX=  1.000000  1.000000  1.000000  1.000000
 FoFCou: FMM=F IPFlag=           0 FMFlag=      100000 FMFlg1=           0
         NFxFlg=           0 DoJE=T BraDBF=F KetDBF=T FulRan=T
         Omega=  0.000000  0.000000  1.000000  0.000000  0.000000 ICntrl=     500 IOpCl=  0
         NMat0=    1 NMatS0=    1 NMatT0=    0 NMatD0=    1 NMtDS0=    0 NMtDT0=    0
         I1Cent=           4 NGrid=           0.
 Petite list used in FoFCou.
 Initial guess orbital symmetries:
       Occupied  (A) (A) (A) (A) (A) (A) (A) (A) (A) (A) (A) (A)
                 (A) (A) (A) (A) (A) (A) (A) (A) (A) (A) (A) (A)
                 (A) (A) (A) (A) (A) (A) (A) (A) (A) (A) (A) (A)
                 (A) (A) (A) (A) (A) (A) (A) (A) (A) (A) (A) (A)
                 (A) (A) (A) (A) (A) (A) (A) (A) (A) (A) (A) (A)
                 (A) (A) (A) (A) (A) (A) (A) (A) (A) (A) (A) (A)
                 (A) (A) (A) (A) (A) (A) (A) (A) (A) (A) (A) (A)
                 (A) (A) (A) (A) (A) (A) (A)
       Virtual   (A) (A) (A) (A) (A) (A) (A) (A) (A) (A) (A) (A)
                 (A) (A) (A) (A) (A) (A) (A) (A) (A) (A) (A) (A)
                 (A) (A) (A) (A) (A) (A) (A) (A) (A) (A) (A) (A)
                 (A) (A) (A) (A) (A) (A) (A) (A) (A) (A) (A) (A)
                 (A) (A) (A) (A) (A) (A) (A) (A) (A) (A) (A) (A)
                 (A) (A) (A) (A) (A) (A) (A) (A) (A) (A) (A) (A)
                 (A) (A) (A) (A) (A) (A) (A) (A) (A) (A) (A) (A)
                 (A) (A) (A) (A) (A) (A) (A) (A) (A) (A) (A) (A)
                 (A) (A) (A) (A) (A) (A) (A) (A) (A) (A) (A) (A)
                 (A) (A) (A) (A) (A) (A) (A) (A) (A) (A) (A) (A)
                 (A) (A) (A) (A) (A) (A) (A) (A) (A) (A) (A) (A)
                 (A) (A) (A) (A) (A) (A) (A) (A) (A) (A) (A) (A)
                 (A) (A) (A) (A) (A) (A) (A) (A) (A) (A) (A) (A)
                 (A) (A) (A) (A) (A) (A) (A) (A) (A) (A) (A) (A)
                 (A) (A) (A) (A) (A) (A) (A) (A) (A) (A) (A) (A)
                 (A) (A) (A) (A) (A) (A) (A) (A) (A) (A) (A) (A)
                 (A) (A) (A) (A) (A) (A) (A) (A) (A) (A) (A) (A)
                 (A) (A) (A) (A) (A) (A) (A) (A) (A) (A) (A) (A)
                 (A) (A) (A) (A) (A) (A) (A) (A) (A) (A) (A) (A)
                 (A) (A) (A) (A) (A) (A) (A) (A) (A) (A) (A) (A)
                 (A) (A) (A) (A) (A) (A) (A) (A) (A) (A) (A) (A)
                 (A) (A) (A) (A) (A) (A) (A) (A) (A) (A) (A) (A)
                 (A) (A) (A) (A) (A) (A) (A) (A) (A) (A) (A) (A)
                 (A) (A) (A) (A) (A) (A) (A) (A) (A) (A) (A) (A)
                 (A) (A) (A) (A) (A) (A) (A) (A) (A) (A) (A) (A)
                 (A) (A) (A) (A) (A) (A) (A) (A) (A) (A) (A) (A)
                 (A) (A) (A) (A) (A) (A) (A) (A) (A) (A) (A) (A)
                 (A) (A) (A) (A) (A) (A) (A) (A) (A) (A) (A) (A)
                 (A) (A) (A) (A) (A) (A) (A) (A) (A) (A) (A) (A)
                 (A) (A) (A) (A) (A) (A) (A) (A) (A) (A) (A) (A)
                 (A) (A) (A) (A) (A) (A) (A) (A) (A) (A) (A) (A)
                 (A) (A) (A) (A) (A) (A) (A) (A) (A) (A) (A) (A)
                 (A) (A) (A) (A) (A) (A) (A) (A) (A) (A) (A) (A)
                 (A) (A) (A) (A) (A) (A) (A) (A) (A) (A) (A) (A)
                 (A) (A) (A) (A) (A) (A) (A) (A) (A) (A) (A) (A)
                 (A) (A) (A) (A) (A) (A) (A) (A) (A) (A) (A) (A)
                 (A) (A) (A) (A) (A) (A) (A) (A) (A) (A) (A) (A)
                 (A) (A) (A) (A) (A) (A) (A) (A) (A) (A) (A) (A)
 The electronic state of the initial guess is 1-A.
 Requested convergence on RMS density matrix=1.00D-08 within 128 cycles.
 Requested convergence on MAX density matrix=1.00D-06.
 Requested convergence on             energy=1.00D-06.
 No special actions if energy rises.
 SCF Done:  E(RB3LYP) =  -1297.94308004     A.U. after   14 cycles
             Convg  =    0.2652D-08             -V/T =  2.0087
 Range of M.O.s used for correlation:     1   547
 NBasis=   547 NAE=    91 NBE=    91 NFC=     0 NFV=     0
 NROrb=    547 NOA=    91 NOB=    91 NVA=   456 NVB=   456

 **** Warning!!: The largest alpha MO coefficient is  0.69738102D+02

          Differentiating once with respect to electric field.
                with respect to dipole field.
          Electric field/nuclear overlap derivatives assumed to be zero.
          There are     3 degrees of freedom in the 1st order CPHF.  IDoFFX=0.
      3 vectors produced by pass  0 Test12= 1.38D-12 3.33D-08 XBig12= 1.19D+02 1.10D+00.
 AX will form     3 AO Fock derivatives at one time.
      3 vectors produced by pass  1 Test12= 1.38D-12 3.33D-08 XBig12= 2.43D+01 3.78D-01.
      3 vectors produced by pass  2 Test12= 1.38D-12 3.33D-08 XBig12= 1.02D+01 2.35D-01.
      3 vectors produced by pass  3 Test12= 1.38D-12 3.33D-08 XBig12= 9.35D-01 7.80D-02.
      3 vectors produced by pass  4 Test12= 1.38D-12 3.33D-08 XBig12= 2.95D-01 5.14D-02.
      3 vectors produced by pass  5 Test12= 1.38D-12 3.33D-08 XBig12= 5.38D-02 1.67D-02.
      3 vectors produced by pass  6 Test12= 1.38D-12 3.33D-08 XBig12= 1.75D-02 1.26D-02.
      3 vectors produced by pass  7 Test12= 1.38D-12 3.33D-08 XBig12= 2.41D-03 5.46D-03.
      3 vectors produced by pass  8 Test12= 1.38D-12 3.33D-08 XBig12= 3.94D-04 1.60D-03.
      3 vectors produced by pass  9 Test12= 1.38D-12 3.33D-08 XBig12= 1.17D-04 1.06D-03.
      3 vectors produced by pass 10 Test12= 1.38D-12 3.33D-08 XBig12= 3.20D-05 4.47D-04.
      3 vectors produced by pass 11 Test12= 1.38D-12 3.33D-08 XBig12= 7.33D-06 2.77D-04.
      3 vectors produced by pass 12 Test12= 1.38D-12 3.33D-08 XBig12= 5.98D-07 9.83D-05.
      3 vectors produced by pass 13 Test12= 1.38D-12 3.33D-08 XBig12= 2.42D-07 5.54D-05.
      3 vectors produced by pass 14 Test12= 1.38D-12 3.33D-08 XBig12= 3.18D-08 2.04D-05.
      3 vectors produced by pass 15 Test12= 1.38D-12 3.33D-08 XBig12= 4.11D-09 6.90D-06.
      3 vectors produced by pass 16 Test12= 1.38D-12 3.33D-08 XBig12= 9.56D-10 3.08D-06.
      3 vectors produced by pass 17 Test12= 1.38D-12 3.33D-08 XBig12= 1.02D-10 8.45D-07.
      3 vectors produced by pass 18 Test12= 1.38D-12 3.33D-08 XBig12= 2.22D-11 3.12D-07.
      3 vectors produced by pass 19 Test12= 1.38D-12 3.33D-08 XBig12= 7.22D-12 1.82D-07.
      3 vectors produced by pass 20 Test12= 1.38D-12 3.33D-08 XBig12= 3.42D-12 1.36D-07.
      2 vectors produced by pass 21 Test12= 1.38D-12 3.33D-08 XBig12= 9.20D-13 6.29D-08.
 Inverted reduced A of dimension    65 with in-core refinement.
 End of Minotr Frequency-dependent properties file   721 does not exist.
 End of Minotr Frequency-dependent properties file   722 does not exist.
 Symmetrizing basis deriv contribution to polar:
 IMax=3 JMax=2 DiffMx= 0.00D+00
 G2DrvN: will do    23 centers at a time, making    2 passes doing MaxLOS=2.
 Calling FoFCou, ICntrl=  3107 FMM=F I1Cent=   0 AccDes= 0.00D+00.
 Calling FoFCou, ICntrl=  3107 FMM=F I1Cent=   0 AccDes= 0.00D+00.
 FoFDir/FoFCou used for L=0 through L=2.
 End of G2Drv Frequency-dependent properties file   721 does not exist.
 End of G2Drv Frequency-dependent properties file   722 does not exist.
          IDoAtm=111111111111111111111111111111111111111111111
          Differentiating once with respect to electric field.
                with respect to dipole field.
          Differentiating once with respect to nuclear coordinates.
          There are   138 degrees of freedom in the 1st order CPHF.  IDoFFX=5.
 Will reuse    3 saved solutions.
    135 vectors produced by pass  0 Test12= 4.15D-14 1.00D-09 XBig12= 2.25D-01 6.93D-02.
 AX will form    68 AO Fock derivatives at one time.
    135 vectors produced by pass  1 Test12= 4.15D-14 1.00D-09 XBig12= 3.26D-02 1.23D-02.
    132 vectors produced by pass  2 Test12= 4.15D-14 1.00D-09 XBig12= 2.60D-04 1.32D-03.
    132 vectors produced by pass  3 Test12= 4.15D-14 1.00D-09 XBig12= 1.04D-06 6.71D-05.
    132 vectors produced by pass  4 Test12= 4.15D-14 1.00D-09 XBig12= 1.54D-09 2.40D-06.
    132 vectors produced by pass  5 Test12= 4.15D-14 1.00D-09 XBig12= 5.97D-12 1.43D-07.
     77 vectors produced by pass  6 Test12= 4.15D-14 1.00D-09 XBig12= 1.66D-13 2.91D-08.
 Inverted reduced A of dimension   875 with in-core refinement.
 Isotropic polarizability for W=    0.000000      187.02 Bohr**3.
 End of Minotr Frequency-dependent properties file   721 does not exist.
 End of Minotr Frequency-dependent properties file   722 does not exist.

 **********************************************************************

            Population analysis using the SCF density.

 **********************************************************************

 Orbital symmetries:
       Occupied  (A) (A) (A) (A) (A) (A) (A) (A) (A) (A) (A) (A)
                 (A) (A) (A) (A) (A) (A) (A) (A) (A) (A) (A) (A)
                 (A) (A) (A) (A) (A) (A) (A) (A) (A) (A) (A) (A)
                 (A) (A) (A) (A) (A) (A) (A) (A) (A) (A) (A) (A)
                 (A) (A) (A) (A) (A) (A) (A) (A) (A) (A) (A) (A)
                 (A) (A) (A) (A) (A) (A) (A) (A) (A) (A) (A) (A)
                 (A) (A) (A) (A) (A) (A) (A) (A) (A) (A) (A) (A)
                 (A) (A) (A) (A) (A) (A) (A)
       Virtual   (A) (A) (A) (A) (A) (A) (A) (A) (A) (A) (A) (A)
                 (A) (A) (A) (A) (A) (A) (A) (A) (A) (A) (A) (A)
                 (A) (A) (A) (A) (A) (A) (A) (A) (A) (A) (A) (A)
                 (A) (A) (A) (A) (A) (A) (A) (A) (A) (A) (A) (A)
                 (A) (A) (A) (A) (A) (A) (A) (A) (A) (A) (A) (A)
                 (A) (A) (A) (A) (A) (A) (A) (A) (A) (A) (A) (A)
                 (A) (A) (A) (A) (A) (A) (A) (A) (A) (A) (A) (A)
                 (A) (A) (A) (A) (A) (A) (A) (A) (A) (A) (A) (A)
                 (A) (A) (A) (A) (A) (A) (A) (A) (A) (A) (A) (A)
                 (A) (A) (A) (A) (A) (A) (A) (A) (A) (A) (A) (A)
                 (A) (A) (A) (A) (A) (A) (A) (A) (A) (A) (A) (A)
                 (A) (A) (A) (A) (A) (A) (A) (A) (A) (A) (A) (A)
                 (A) (A) (A) (A) (A) (A) (A) (A) (A) (A) (A) (A)
                 (A) (A) (A) (A) (A) (A) (A) (A) (A) (A) (A) (A)
                 (A) (A) (A) (A) (A) (A) (A) (A) (A) (A) (A) (A)
                 (A) (A) (A) (A) (A) (A) (A) (A) (A) (A) (A) (A)
                 (A) (A) (A) (A) (A) (A) (A) (A) (A) (A) (A) (A)
                 (A) (A) (A) (A) (A) (A) (A) (A) (A) (A) (A) (A)
                 (A) (A) (A) (A) (A) (A) (A) (A) (A) (A) (A) (A)
                 (A) (A) (A) (A) (A) (A) (A) (A) (A) (A) (A) (A)
                 (A) (A) (A) (A) (A) (A) (A) (A) (A) (A) (A) (A)
                 (A) (A) (A) (A) (A) (A) (A) (A) (A) (A) (A) (A)
                 (A) (A) (A) (A) (A) (A) (A) (A) (A) (A) (A) (A)
                 (A) (A) (A) (A) (A) (A) (A) (A) (A) (A) (A) (A)
                 (A) (A) (A) (A) (A) (A) (A) (A) (A) (A) (A) (A)
                 (A) (A) (A) (A) (A) (A) (A) (A) (A) (A) (A) (A)
                 (A) (A) (A) (A) (A) (A) (A) (A) (A) (A) (A) (A)
                 (A) (A) (A) (A) (A) (A) (A) (A) (A) (A) (A) (A)
                 (A) (A) (A) (A) (A) (A) (A) (A) (A) (A) (A) (A)
                 (A) (A) (A) (A) (A) (A) (A) (A) (A) (A) (A) (A)
                 (A) (A) (A) (A) (A) (A) (A) (A) (A) (A) (A) (A)
                 (A) (A) (A) (A) (A) (A) (A) (A) (A) (A) (A) (A)
                 (A) (A) (A) (A) (A) (A) (A) (A) (A) (A) (A) (A)
                 (A) (A) (A) (A) (A) (A) (A) (A) (A) (A) (A) (A)
                 (A) (A) (A) (A) (A) (A) (A) (A) (A) (A) (A) (A)
                 (A) (A) (A) (A) (A) (A) (A) (A) (A) (A) (A) (A)
                 (A) (A) (A) (A) (A) (A) (A) (A) (A) (A) (A) (A)
                 (A) (A) (A) (A) (A) (A) (A) (A) (A) (A) (A) (A)
 The electronic state is 1-A.
 Alpha  occ. eigenvalues --  -19.18681 -19.18615 -19.18362 -19.18242 -19.17634
 Alpha  occ. eigenvalues --  -19.17556 -19.17082 -19.16718 -19.16105 -19.15709
 Alpha  occ. eigenvalues --  -19.15474 -10.30787 -10.30597 -10.26127 -10.25884
 Alpha  occ. eigenvalues --  -10.25314 -10.25296 -10.25272 -10.25265 -10.25261
 Alpha  occ. eigenvalues --  -10.25025 -10.24975 -10.24287  -1.09459  -1.08712
 Alpha  occ. eigenvalues --   -1.05169  -1.04519  -1.03582  -1.03164  -1.03094
 Alpha  occ. eigenvalues --   -1.02488  -1.02229  -1.01040  -1.00762  -0.82039
 Alpha  occ. eigenvalues --   -0.80004  -0.79754  -0.78215  -0.71593  -0.70284
 Alpha  occ. eigenvalues --   -0.67238  -0.64523  -0.63232  -0.62084  -0.61669
 Alpha  occ. eigenvalues --   -0.60429  -0.56534  -0.55599  -0.54921  -0.54529
 Alpha  occ. eigenvalues --   -0.53759  -0.53374  -0.53172  -0.52084  -0.51405
 Alpha  occ. eigenvalues --   -0.50034  -0.49946  -0.49261  -0.49172  -0.46240
 Alpha  occ. eigenvalues --   -0.45493  -0.45205  -0.44511  -0.43970  -0.43448
 Alpha  occ. eigenvalues --   -0.42545  -0.42394  -0.41263  -0.40527  -0.38591
 Alpha  occ. eigenvalues --   -0.38276  -0.37108  -0.36943  -0.36715  -0.35573
 Alpha  occ. eigenvalues --   -0.35337  -0.34538  -0.33960  -0.33750  -0.33560
 Alpha  occ. eigenvalues --   -0.32625  -0.31684  -0.31189  -0.30382  -0.29900
 Alpha  occ. eigenvalues --   -0.29507  -0.28753  -0.28156  -0.27834  -0.26642
 Alpha  occ. eigenvalues --   -0.26030
 Alpha virt. eigenvalues --   -0.02022  -0.01860  -0.01695  -0.00157   0.00195
 Alpha virt. eigenvalues --    0.00809   0.01734   0.02135   0.02940   0.03037
 Alpha virt. eigenvalues --    0.03449   0.04275   0.04817   0.05298   0.05621
 Alpha virt. eigenvalues --    0.05846   0.06102   0.07524   0.07800   0.08124
 Alpha virt. eigenvalues --    0.08534   0.08979   0.09212   0.09826   0.10295
 Alpha virt. eigenvalues --    0.10428   0.11131   0.11644   0.11880   0.12066
 Alpha virt. eigenvalues --    0.12433   0.12695   0.12850   0.13584   0.13817
 Alpha virt. eigenvalues --    0.14008   0.14168   0.14656   0.15075   0.15249
 Alpha virt. eigenvalues --    0.15807   0.16567   0.16649   0.16853   0.17401
 Alpha virt. eigenvalues --    0.17421   0.17620   0.17802   0.18089   0.18155
 Alpha virt. eigenvalues --    0.18672   0.18996   0.19200   0.19912   0.19949
 Alpha virt. eigenvalues --    0.20330   0.20618   0.21134   0.21543   0.21875
 Alpha virt. eigenvalues --    0.21977   0.22537   0.22578   0.22960   0.23507
 Alpha virt. eigenvalues --    0.23621   0.23813   0.24121   0.24468   0.24887
 Alpha virt. eigenvalues --    0.24989   0.25188   0.25632   0.25775   0.25877
 Alpha virt. eigenvalues --    0.26384   0.26609   0.26769   0.27253   0.27474
 Alpha virt. eigenvalues --    0.27586   0.28036   0.28220   0.28570   0.28768
 Alpha virt. eigenvalues --    0.29020   0.29640   0.29822   0.30056   0.30436
 Alpha virt. eigenvalues --    0.30749   0.31315   0.31835   0.31954   0.32134
 Alpha virt. eigenvalues --    0.32673   0.32870   0.33335   0.33808   0.34161
 Alpha virt. eigenvalues --    0.34426   0.35189   0.35312   0.35933   0.36263
 Alpha virt. eigenvalues --    0.36789   0.37134   0.37293   0.37390   0.37822
 Alpha virt. eigenvalues --    0.38118   0.38645   0.39292   0.39635   0.39874
 Alpha virt. eigenvalues --    0.40216   0.40557   0.40665   0.41437   0.41943
 Alpha virt. eigenvalues --    0.42076   0.42718   0.43427   0.43560   0.44008
 Alpha virt. eigenvalues --    0.44425   0.44515   0.46145   0.46598   0.47120
 Alpha virt. eigenvalues --    0.47514   0.48225   0.48833   0.49143   0.50140
 Alpha virt. eigenvalues --    0.50514   0.50843   0.54774   0.63573   0.64450
 Alpha virt. eigenvalues --    0.66043   0.66762   0.68029   0.69250   0.69677
 Alpha virt. eigenvalues --    0.70668   0.72170   0.72335   0.73490   0.73891
 Alpha virt. eigenvalues --    0.75428   0.76245   0.76815   0.77744   0.78982
 Alpha virt. eigenvalues --    0.80349   0.81072   0.81442   0.82854   0.84090
 Alpha virt. eigenvalues --    0.84860   0.86032   0.87385   0.88187   0.89863
 Alpha virt. eigenvalues --    0.90073   0.91666   0.92962   0.93608   0.94374
 Alpha virt. eigenvalues --    0.97112   0.97687   0.97971   1.00073   1.00742
 Alpha virt. eigenvalues --    1.01139   1.02063   1.02257   1.03533   1.04155
 Alpha virt. eigenvalues --    1.04304   1.04775   1.05946   1.06928   1.07497
 Alpha virt. eigenvalues --    1.08213   1.08966   1.09013   1.09380   1.09577
 Alpha virt. eigenvalues --    1.11347   1.11986   1.12226   1.13523   1.14274
 Alpha virt. eigenvalues --    1.15542   1.16207   1.18476   1.19709   1.21068
 Alpha virt. eigenvalues --    1.21957   1.22637   1.23268   1.24030   1.25350
 Alpha virt. eigenvalues --    1.25867   1.26148   1.27587   1.28064   1.28779
 Alpha virt. eigenvalues --    1.29247   1.29803   1.30860   1.31134   1.31648
 Alpha virt. eigenvalues --    1.33054   1.33203   1.33934   1.34062   1.34759
 Alpha virt. eigenvalues --    1.35188   1.35737   1.36210   1.36942   1.37613
 Alpha virt. eigenvalues --    1.38112   1.39909   1.42056   1.42883   1.43216
 Alpha virt. eigenvalues --    1.45165   1.45618   1.46897   1.47036   1.48024
 Alpha virt. eigenvalues --    1.49029   1.50257   1.51992   1.52592   1.52915
 Alpha virt. eigenvalues --    1.54551   1.55425   1.55684   1.56854   1.57268
 Alpha virt. eigenvalues --    1.58241   1.59356   1.60292   1.60544   1.62009
 Alpha virt. eigenvalues --    1.62185   1.62882   1.63667   1.64038   1.65388
 Alpha virt. eigenvalues --    1.66354   1.66993   1.67754   1.68623   1.70017
 Alpha virt. eigenvalues --    1.70707   1.71983   1.72192   1.73739   1.73937
 Alpha virt. eigenvalues --    1.74273   1.75563   1.75759   1.76208   1.76710
 Alpha virt. eigenvalues --    1.77694   1.78558   1.79969   1.80474   1.81559
 Alpha virt. eigenvalues --    1.82539   1.83258   1.85416   1.85524   1.86858
 Alpha virt. eigenvalues --    1.87248   1.87751   1.88711   1.89403   1.90459
 Alpha virt. eigenvalues --    1.91729   1.92724   1.94410   1.94919   1.95254
 Alpha virt. eigenvalues --    1.96286   1.97000   1.97682   1.98198   1.98621
 Alpha virt. eigenvalues --    1.99115   2.00631   2.01691   2.02533   2.03371
 Alpha virt. eigenvalues --    2.03654   2.04637   2.05770   2.05957   2.07197
 Alpha virt. eigenvalues --    2.07581   2.09154   2.10486   2.10683   2.11182
 Alpha virt. eigenvalues --    2.12250   2.13133   2.13663   2.14472   2.15781
 Alpha virt. eigenvalues --    2.16223   2.17673   2.19014   2.19908   2.20626
 Alpha virt. eigenvalues --    2.21892   2.22694   2.24845   2.25370   2.26219
 Alpha virt. eigenvalues --    2.27578   2.30974   2.32444   2.33171   2.33513
 Alpha virt. eigenvalues --    2.35419   2.36159   2.36642   2.38926   2.39831
 Alpha virt. eigenvalues --    2.40022   2.41007   2.42118   2.42751   2.43178
 Alpha virt. eigenvalues --    2.44101   2.45576   2.46950   2.47747   2.48441
 Alpha virt. eigenvalues --    2.49832   2.50002   2.52489   2.53700   2.55456
 Alpha virt. eigenvalues --    2.55979   2.57776   2.58389   2.59925   2.60854
 Alpha virt. eigenvalues --    2.61418   2.62673   2.63478   2.63750   2.64736
 Alpha virt. eigenvalues --    2.65607   2.67077   2.67449   2.68259   2.68645
 Alpha virt. eigenvalues --    2.69753   2.70821   2.72049   2.74034   2.74400
 Alpha virt. eigenvalues --    2.75217   2.75794   2.77317   2.79258   2.80684
 Alpha virt. eigenvalues --    2.81422   2.81897   2.82961   2.83329   2.84395
 Alpha virt. eigenvalues --    2.85272   2.85962   2.86413   2.87634   2.88299
 Alpha virt. eigenvalues --    2.90136   2.91557   2.92032   2.92780   2.94405
 Alpha virt. eigenvalues --    2.95113   2.95729   2.97108   2.98138   2.99419
 Alpha virt. eigenvalues --    3.00086   3.01726   3.03732   3.05155   3.05555
 Alpha virt. eigenvalues --    3.06788   3.08201   3.10424   3.11617   3.14285
 Alpha virt. eigenvalues --    3.14984   3.16708   3.23223   3.25529   3.30014
 Alpha virt. eigenvalues --    3.31725   3.36902   3.37777   3.39532   3.40108
 Alpha virt. eigenvalues --    3.42043   3.44572   3.46636   3.47048   3.47748
 Alpha virt. eigenvalues --    3.49072   3.50325   3.51997   3.52788   3.54151
 Alpha virt. eigenvalues --    3.55811   3.56775   3.58647   3.59725   3.62954
 Alpha virt. eigenvalues --    3.63975   3.64800   3.66080   4.30557   4.32889
 Alpha virt. eigenvalues --    4.33373   4.37073   4.39439   4.41963   4.46062
 Alpha virt. eigenvalues --    4.47027   4.48608   4.49724   4.52301   4.54451
 Alpha virt. eigenvalues --    4.57235   4.58749   4.59720   4.61949   4.70741
 Alpha virt. eigenvalues --    4.78433   4.80582   4.84838   4.88380   4.89333
 Alpha virt. eigenvalues --    4.91145
          Condensed to atoms (all electrons):
              1          2          3          4          5          6
     1  O    8.271814   0.295175  -0.063984  -0.015418   0.024300   0.017645
     2  C    0.295175   8.073357  -0.740861  -0.039172  -0.107385  -1.564465
     3  C   -0.063984  -0.740861   8.381778   0.129903   0.087100  -0.750363
     4  O   -0.015418  -0.039172   0.129903   8.261831   0.197038  -0.012610
     5  H    0.024300  -0.107385   0.087100   0.197038   0.427659  -0.002003
     6  C    0.017645  -1.564465  -0.750363  -0.012610  -0.002003  12.955027
     7  O   -0.000434   0.032088  -0.137296   0.000644  -0.000516   0.273851
     8  H    0.000011  -0.011151   0.017809  -0.000667   0.000017   0.065613
     9  C   -0.047172   0.215401  -0.483993   0.003646  -0.004023   0.569616
    10  O   -0.039589  -0.025586   0.008223  -0.000072  -0.000005  -0.005908
    11  H    0.000821  -0.001694  -0.002595   0.000000   0.000000   0.001396
    12  C   -0.200609  -1.178604  -0.832187   0.011403   0.021793   1.048446
    13  O    0.008464  -0.028967  -0.031518  -0.000225   0.000256  -0.047368
    14  C    0.057524   0.588574   0.362060   0.014723   0.006349  -4.990855
    15  O    0.000316  -0.031173  -0.004040  -0.000257   0.000067   0.210559
    16  C    0.005345   0.017087   0.036001  -0.002429   0.001203  -0.606469
    17  C    0.000030   0.005660   0.031757   0.001314   0.000030  -0.339321
    18  O    0.000022   0.008947  -0.004148  -0.000020   0.000000   0.017575
    19  H   -0.000028  -0.002204   0.003955  -0.000001   0.000000   0.003514
    20  C    0.000119   0.004217  -0.016478  -0.000080   0.000001   0.113457
    21  O    0.000000   0.000008   0.000007   0.000000   0.000000  -0.000361
    22  H    0.000000  -0.000001   0.000002   0.000000   0.000000  -0.000092
    23  C    0.000114   0.012785  -0.030214   0.000722   0.000002  -0.333718
    24  O    0.000005  -0.001068  -0.024142  -0.000021  -0.000003  -0.037249
    25  H    0.000000   0.000046   0.002448   0.000003   0.000000  -0.001949
    26  C   -0.000115  -0.009762  -0.052568  -0.000544   0.000005  -0.317604
    27  O    0.000000  -0.000097   0.002102   0.000001   0.000000   0.008973
    28  C    0.000003  -0.000934   0.004020   0.000011   0.000000  -0.009204
    29  O    0.000000  -0.000009   0.000051   0.000000   0.000000  -0.000285
    30  H    0.000000   0.000000   0.000000   0.000000   0.000000   0.000008
    31  H    0.230395   0.078824  -0.007695  -0.000445  -0.001602  -0.004415
    32  H   -0.001250  -0.009591  -0.006372   0.000042   0.000000  -0.003479
    33  H    0.005328  -0.027135   0.004807  -0.000071   0.000001   0.010537
    34  H    0.009193   0.008889  -0.030836   0.000509  -0.000012  -0.065880
    35  H   -0.043838   0.415317  -0.085305   0.000661  -0.001412  -0.016669
    36  H   -0.004299   0.090173   0.233969  -0.040513  -0.005371  -0.232539
    37  H   -0.000345   0.065083  -0.199379   0.005868   0.000004   0.303230
    38  H    0.000210   0.031018  -0.042340  -0.000425   0.000006  -0.167748
    39  H    0.000000   0.000012  -0.000405   0.000000   0.000000  -0.000916
    40  H    0.000000   0.000084   0.000385   0.000000   0.000000   0.007149
    41  H    0.000000  -0.000031   0.000582   0.000000   0.000000   0.002869
    42  H   -0.000002  -0.000166   0.004713   0.000000   0.000000   0.003371
    43  H    0.000000   0.000324   0.000081   0.000000   0.000000   0.004690
    44  H    0.000000   0.000040   0.000065   0.000000   0.000000   0.001199
    45  H    0.000000  -0.000002   0.000013   0.000000   0.000000   0.000418
              7          8          9         10         11         12
     1  O   -0.000434   0.000011  -0.047172  -0.039589   0.000821  -0.200609
     2  C    0.032088  -0.011151   0.215401  -0.025586  -0.001694  -1.178604
     3  C   -0.137296   0.017809  -0.483993   0.008223  -0.002595  -0.832187
     4  O    0.000644  -0.000667   0.003646  -0.000072   0.000000   0.011403
     5  H   -0.000516   0.000017  -0.004023  -0.000005   0.000000   0.021793
     6  C    0.273851   0.065613   0.569616  -0.005908   0.001396   1.048446
     7  O    8.227867   0.214356   0.004980   0.000011   0.000000   0.019094
     8  H    0.214356   0.368221   0.000441   0.000000   0.000000   0.001834
     9  C    0.004980   0.000441   7.879788  -0.119398   0.050306  -1.835753
    10  O    0.000011   0.000000  -0.119398   8.308674   0.184361   0.250459
    11  H    0.000000   0.000000   0.050306   0.184361   0.466196  -0.014409
    12  C    0.019094   0.001834  -1.835753   0.250459  -0.014409  10.948101
    13  O    0.010110  -0.000380  -0.001807   0.000360  -0.000410  -0.183527
    14  C   -0.072546  -0.067333  -1.043297   0.024653  -0.009078  -1.501260
    15  O   -0.008978   0.006911  -0.000214   0.000097   0.000011   0.004265
    16  C    0.020860   0.003087  -0.190116  -0.004302  -0.000065  -0.258043
    17  C    0.001382   0.000977  -0.077784  -0.000819   0.000020  -0.152060
    18  O    0.000037  -0.000025  -0.006496  -0.000150   0.000034   0.000513
    19  H   -0.000047   0.000000   0.003830  -0.000020  -0.000007  -0.004269
    20  C    0.002566   0.000347   0.020103   0.000233   0.000010  -0.032798
    21  O   -0.000003   0.000000   0.000055   0.000000   0.000000  -0.000236
    22  H    0.000000   0.000000  -0.000016   0.000000   0.000000   0.000061
    23  C    0.040283  -0.017404  -0.000338  -0.000042   0.000000   0.001277
    24  O   -0.010509   0.015530  -0.000122  -0.000001   0.000000   0.002113
    25  H    0.000821  -0.002635  -0.000026   0.000000   0.000000  -0.000601
    26  C   -0.049348   0.007618  -0.007574  -0.000196   0.000013   0.080125
    27  O    0.000303  -0.000139  -0.000125   0.000000   0.000000  -0.001004
    28  C    0.000068  -0.000007  -0.004435  -0.000012  -0.000002   0.002150
    29  O   -0.000002  -0.000001  -0.000036   0.000000   0.000000   0.000024
    30  H    0.000000   0.000000   0.000000   0.000000   0.000000  -0.000003
    31  H   -0.000012   0.000000  -0.007063   0.004008  -0.000030  -0.041152
    32  H   -0.000005   0.000000   0.453220  -0.045681  -0.010182  -0.054247
    33  H   -0.000002   0.000000   0.514495  -0.062095  -0.005969  -0.171262
    34  H   -0.000029   0.000002   0.007708   0.003645  -0.000164   0.170638
    35  H   -0.000140   0.000002  -0.009414  -0.000594  -0.000005  -0.109226
    36  H    0.005632  -0.000092   0.024883  -0.000183   0.000000  -0.024959
    37  H   -0.045114  -0.007214   0.012738  -0.000004   0.000000   0.013927
    38  H    0.005741  -0.000652   0.007124  -0.000002   0.000001  -0.010212
    39  H   -0.000386   0.000209  -0.000001   0.000000   0.000000  -0.000012
    40  H    0.001179  -0.000099   0.000104   0.000000   0.000000   0.001684
    41  H    0.000051  -0.000011   0.000072   0.000000   0.000000   0.000559
    42  H   -0.000571  -0.000037  -0.000334   0.000002   0.000000   0.006833
    43  H    0.000002   0.000000   0.000572   0.000000   0.000000   0.002135
    44  H    0.000002   0.000000   0.000123   0.000000   0.000000   0.000634
    45  H    0.000001   0.000000   0.000008   0.000000   0.000000  -0.000028
             13         14         15         16         17         18
     1  O    0.008464   0.057524   0.000316   0.005345   0.000030   0.000022
     2  C   -0.028967   0.588574  -0.031173   0.017087   0.005660   0.008947
     3  C   -0.031518   0.362060  -0.004040   0.036001   0.031757  -0.004148
     4  O   -0.000225   0.014723  -0.000257  -0.002429   0.001314  -0.000020
     5  H    0.000256   0.006349   0.000067   0.001203   0.000030   0.000000
     6  C   -0.047368  -4.990855   0.210559  -0.606469  -0.339321   0.017575
     7  O    0.010110  -0.072546  -0.008978   0.020860   0.001382   0.000037
     8  H   -0.000380  -0.067333   0.006911   0.003087   0.000977  -0.000025
     9  C   -0.001807  -1.043297  -0.000214  -0.190116  -0.077784  -0.006496
    10  O    0.000360   0.024653   0.000097  -0.004302  -0.000819  -0.000150
    11  H   -0.000410  -0.009078   0.000011  -0.000065   0.000020   0.000034
    12  C   -0.183527  -1.501260   0.004265  -0.258043  -0.152060   0.000513
    13  O    8.463769   0.289757  -0.008226   0.066775  -0.021089   0.007666
    14  C    0.289757  12.780033   0.053425  -0.425022  -0.515893  -0.053722
    15  O   -0.008226   0.053425   8.281457   0.035037  -0.054821   0.004090
    16  C    0.066775  -0.425022   0.035037  15.602257  -2.777688  -0.144851
    17  C   -0.021089  -0.515893  -0.054821  -2.777688   9.156651   0.414346
    18  O    0.007666  -0.053722   0.004090  -0.144851   0.414346   8.153234
    19  H    0.012650  -0.001802   0.017840  -0.121350   0.077475   0.201659
    20  C   -0.019004  -0.082791   0.013883  -1.026711  -0.388454  -0.105891
    21  O   -0.000086  -0.000201  -0.000034  -0.025577  -0.159852   0.010171
    22  H    0.000001  -0.000942   0.000034  -0.014333   0.043455  -0.000779
    23  C    0.022441   0.004084   0.005217   0.266194  -0.351374   0.001133
    24  O   -0.002156   0.142034  -0.029667  -0.037709  -0.004126   0.000082
    25  H    0.000047  -0.011632   0.001983  -0.003662   0.001204   0.000002
    26  C   -0.043499  -0.581049  -0.097797  -5.531524   1.071126   0.018880
    27  O    0.000369  -0.009134   0.016207  -0.045302  -0.031477   0.002174
    28  C    0.004932  -0.086616   0.012558   0.526336   0.052970   0.002134
    29  O    0.000013  -0.002041   0.000356  -0.007363   0.014303  -0.000495
    30  H    0.000000   0.000108  -0.000009  -0.003267   0.007847  -0.000035
    31  H   -0.001022  -0.000445  -0.000017   0.000229  -0.000050   0.000001
    32  H    0.001393  -0.007002  -0.000614   0.005595   0.002811  -0.001080
    33  H    0.004128   0.015811   0.000002  -0.001824  -0.001150   0.000110
    34  H   -0.041859   0.161620   0.000556   0.013010   0.003626   0.000167
    35  H    0.005627   0.092732   0.000030   0.000553   0.001269   0.000013
    36  H    0.004465   0.152200  -0.000578   0.009300   0.002094   0.000030
    37  H    0.009698   0.046222  -0.013041   0.033111   0.006953   0.000066
    38  H   -0.062433   0.403422  -0.065192   0.050660   0.029647  -0.000993
    39  H   -0.000007   0.004030  -0.000153   0.004207  -0.001067   0.000019
    40  H    0.000179   0.015939   0.008998  -0.000469  -0.012250   0.000029
    41  H   -0.000152   0.052332   0.006455   0.077753  -0.037527  -0.000576
    42  H    0.002119   0.033497  -0.056836   0.314657  -0.024863  -0.000611
    43  H    0.002219   0.047085  -0.006101   0.039107   0.281692  -0.047729
    44  H    0.000326   0.011143  -0.001225   0.112777  -0.195551   0.003750
    45  H   -0.000002   0.005158  -0.000046   0.111375  -0.015346  -0.000676
             19         20         21         22         23         24
     1  O   -0.000028   0.000119   0.000000   0.000000   0.000114   0.000005
     2  C   -0.002204   0.004217   0.000008  -0.000001   0.012785  -0.001068
     3  C    0.003955  -0.016478   0.000007   0.000002  -0.030214  -0.024142
     4  O   -0.000001  -0.000080   0.000000   0.000000   0.000722  -0.000021
     5  H    0.000000   0.000001   0.000000   0.000000   0.000002  -0.000003
     6  C    0.003514   0.113457  -0.000361  -0.000092  -0.333718  -0.037249
     7  O   -0.000047   0.002566  -0.000003   0.000000   0.040283  -0.010509
     8  H    0.000000   0.000347   0.000000   0.000000  -0.017404   0.015530
     9  C    0.003830   0.020103   0.000055  -0.000016  -0.000338  -0.000122
    10  O   -0.000020   0.000233   0.000000   0.000000  -0.000042  -0.000001
    11  H   -0.000007   0.000010   0.000000   0.000000   0.000000   0.000000
    12  C   -0.004269  -0.032798  -0.000236   0.000061   0.001277   0.002113
    13  O    0.012650  -0.019004  -0.000086   0.000001   0.022441  -0.002156
    14  C   -0.001802  -0.082791  -0.000201  -0.000942   0.004084   0.142034
    15  O    0.017840   0.013883  -0.000034   0.000034   0.005217  -0.029667
    16  C   -0.121350  -1.026711  -0.025577  -0.014333   0.266194  -0.037709
    17  C    0.077475  -0.388454  -0.159852   0.043455  -0.351374  -0.004126
    18  O    0.201659  -0.105891   0.010171  -0.000779   0.001133   0.000082
    19  H    0.387164   0.024381  -0.000781   0.000011  -0.003824   0.000011
    20  C    0.024381   8.451253   0.298009  -0.017326   0.086817  -0.005987
    21  O   -0.000781   0.298009   8.231780   0.217290   0.003706   0.000010
    22  H    0.000011  -0.017326   0.217290   0.412700  -0.000062   0.000000
    23  C   -0.003824   0.086817   0.003706  -0.000062   6.853138  -0.145951
    24  O    0.000011  -0.005987   0.000010   0.000000  -0.145951   8.528750
    25  H    0.000000   0.000385   0.000000   0.000000   0.033753   0.193295
    26  C    0.021921  -0.116030   0.031504   0.008279  -1.398670   0.127866
    27  O    0.000041  -0.226248   0.011190   0.000129  -0.056119   0.005898
    28  C   -0.002587  -1.049774  -0.067950  -0.015713  -0.074206   0.007207
    29  O    0.000021  -0.175983   0.007219   0.017268   0.000570   0.000085
    30  H    0.000000  -0.003260  -0.004031  -0.001815  -0.000414  -0.000002
    31  H    0.000000   0.000001   0.000000   0.000000   0.000002   0.000000
    32  H    0.000979  -0.001873  -0.000001   0.000000   0.000010   0.000000
    33  H    0.000041   0.000267   0.000000   0.000000   0.000005   0.000000
    34  H    0.000136   0.000659   0.000000   0.000000   0.000295   0.000007
    35  H    0.000001   0.000003   0.000000   0.000000   0.000103   0.000007
    36  H   -0.000002   0.000029   0.000000   0.000000   0.000985   0.000030
    37  H   -0.000007   0.000605   0.000000   0.000000   0.012483   0.001222
    38  H    0.000213   0.008946   0.000016   0.000000   0.012043   0.000698
    39  H    0.000000   0.000727  -0.000009   0.000000   0.384354  -0.039088
    40  H    0.000000  -0.001281   0.000004   0.000000   0.560743  -0.076391
    41  H    0.000024  -0.020112   0.000114   0.000002   0.028551   0.009002
    42  H   -0.000004   0.014023  -0.000367   0.000004   0.005439   0.000929
    43  H   -0.005722  -0.092642   0.003099  -0.000127   0.014291   0.000073
    44  H    0.000020   0.369058  -0.038822  -0.007267   0.011488  -0.000003
    45  H    0.000006  -0.124061   0.001943  -0.000569  -0.000777   0.000077
             25         26         27         28         29         30
     1  O    0.000000  -0.000115   0.000000   0.000003   0.000000   0.000000
     2  C    0.000046  -0.009762  -0.000097  -0.000934  -0.000009   0.000000
     3  C    0.002448  -0.052568   0.002102   0.004020   0.000051   0.000000
     4  O    0.000003  -0.000544   0.000001   0.000011   0.000000   0.000000
     5  H    0.000000   0.000005   0.000000   0.000000   0.000000   0.000000
     6  C   -0.001949  -0.317604   0.008973  -0.009204  -0.000285   0.000008
     7  O    0.000821  -0.049348   0.000303   0.000068  -0.000002   0.000000
     8  H   -0.002635   0.007618  -0.000139  -0.000007  -0.000001   0.000000
     9  C   -0.000026  -0.007574  -0.000125  -0.004435  -0.000036   0.000000
    10  O    0.000000  -0.000196   0.000000  -0.000012   0.000000   0.000000
    11  H    0.000000   0.000013   0.000000  -0.000002   0.000000   0.000000
    12  C   -0.000601   0.080125  -0.001004   0.002150   0.000024  -0.000003
    13  O    0.000047  -0.043499   0.000369   0.004932   0.000013   0.000000
    14  C   -0.011632  -0.581049  -0.009134  -0.086616  -0.002041   0.000108
    15  O    0.001983  -0.097797   0.016207   0.012558   0.000356  -0.000009
    16  C   -0.003662  -5.531524  -0.045302   0.526336  -0.007363  -0.003267
    17  C    0.001204   1.071126  -0.031477   0.052970   0.014303   0.007847
    18  O    0.000002   0.018880   0.002174   0.002134  -0.000495  -0.000035
    19  H    0.000000   0.021921   0.000041  -0.002587   0.000021   0.000000
    20  C    0.000385  -0.116030  -0.226248  -1.049774  -0.175983  -0.003260
    21  O    0.000000   0.031504   0.011190  -0.067950   0.007219  -0.004031
    22  H    0.000000   0.008279   0.000129  -0.015713   0.017268  -0.001815
    23  C    0.033753  -1.398670  -0.056119  -0.074206   0.000570  -0.000414
    24  O    0.193295   0.127866   0.005898   0.007207   0.000085  -0.000002
    25  H    0.421860  -0.001609   0.000126  -0.000554   0.000000   0.000000
    26  C   -0.001609  13.349911   0.153764  -0.375178  -0.051634   0.003690
    27  O    0.000126   0.153764   8.472894   0.144865  -0.081024  -0.000669
    28  C   -0.000554  -0.375178   0.144865   5.859439   0.421136   0.006672
    29  O    0.000000  -0.051634  -0.081024   0.421136   8.248031   0.231075
    30  H    0.000000   0.003690  -0.000669   0.006672   0.231075   0.409706
    31  H    0.000000  -0.000002   0.000000   0.000000   0.000000   0.000000
    32  H    0.000000   0.000410   0.000001   0.000129   0.000000   0.000000
    33  H    0.000000  -0.000285   0.000000  -0.000007   0.000000   0.000000
    34  H    0.000000  -0.000042  -0.000001  -0.000075   0.000000   0.000000
    35  H    0.000000  -0.000130   0.000000  -0.000004   0.000000   0.000000
    36  H    0.000000  -0.000746   0.000000  -0.000008   0.000000   0.000000
    37  H    0.000029  -0.010209   0.000007  -0.000079   0.000000   0.000000
    38  H    0.000009   0.015902   0.000109  -0.001336  -0.000001   0.000000
    39  H   -0.012144  -0.001934  -0.012270  -0.001989  -0.000427  -0.000001
    40  H   -0.000179  -0.239989   0.013210   0.005658   0.000064  -0.000001
    41  H   -0.000087   0.146591  -0.031276   0.017968  -0.000689   0.000014
    42  H   -0.000011  -0.076136   0.006486   0.001466  -0.000837   0.000001
    43  H    0.000001  -0.024080   0.005665  -0.006108  -0.000209   0.000000
    44  H    0.000000  -0.007923   0.006439  -0.022068  -0.003506   0.000095
    45  H    0.000000  -0.075692  -0.061096   0.446922  -0.053939  -0.007587
             31         32         33         34         35         36
     1  O    0.230395  -0.001250   0.005328   0.009193  -0.043838  -0.004299
     2  C    0.078824  -0.009591  -0.027135   0.008889   0.415317   0.090173
     3  C   -0.007695  -0.006372   0.004807  -0.030836  -0.085305   0.233969
     4  O   -0.000445   0.000042  -0.000071   0.000509   0.000661  -0.040513
     5  H   -0.001602   0.000000   0.000001  -0.000012  -0.001412  -0.005371
     6  C   -0.004415  -0.003479   0.010537  -0.065880  -0.016669  -0.232539
     7  O   -0.000012  -0.000005  -0.000002  -0.000029  -0.000140   0.005632
     8  H    0.000000   0.000000   0.000000   0.000002   0.000002  -0.000092
     9  C   -0.007063   0.453220   0.514495   0.007708  -0.009414   0.024883
    10  O    0.004008  -0.045681  -0.062095   0.003645  -0.000594  -0.000183
    11  H   -0.000030  -0.010182  -0.005969  -0.000164  -0.000005   0.000000
    12  C   -0.041152  -0.054247  -0.171262   0.170638  -0.109226  -0.024959
    13  O   -0.001022   0.001393   0.004128  -0.041859   0.005627   0.004465
    14  C   -0.000445  -0.007002   0.015811   0.161620   0.092732   0.152200
    15  O   -0.000017  -0.000614   0.000002   0.000556   0.000030  -0.000578
    16  C    0.000229   0.005595  -0.001824   0.013010   0.000553   0.009300
    17  C   -0.000050   0.002811  -0.001150   0.003626   0.001269   0.002094
    18  O    0.000001  -0.001080   0.000110   0.000167   0.000013   0.000030
    19  H    0.000000   0.000979   0.000041   0.000136   0.000001  -0.000002
    20  C    0.000001  -0.001873   0.000267   0.000659   0.000003   0.000029
    21  O    0.000000  -0.000001   0.000000   0.000000   0.000000   0.000000
    22  H    0.000000   0.000000   0.000000   0.000000   0.000000   0.000000
    23  C    0.000002   0.000010   0.000005   0.000295   0.000103   0.000985
    24  O    0.000000   0.000000   0.000000   0.000007   0.000007   0.000030
    25  H    0.000000   0.000000   0.000000   0.000000   0.000000   0.000000
    26  C   -0.000002   0.000410  -0.000285  -0.000042  -0.000130  -0.000746
    27  O    0.000000   0.000001   0.000000  -0.000001   0.000000   0.000000
    28  C    0.000000   0.000129  -0.000007  -0.000075  -0.000004  -0.000008
    29  O    0.000000   0.000000   0.000000   0.000000   0.000000   0.000000
    30  H    0.000000   0.000000   0.000000   0.000000   0.000000   0.000000
    31  H    0.396989   0.000012  -0.000309  -0.000063  -0.011498  -0.000094
    32  H    0.000012   0.598814  -0.057670  -0.008453  -0.000046   0.000002
    33  H   -0.000309  -0.057670   0.632866   0.006852   0.003078   0.000000
    34  H   -0.000063  -0.008453   0.006852   0.613151   0.005933   0.004436
    35  H   -0.011498  -0.000046   0.003078   0.005933   0.603710   0.005931
    36  H   -0.000094   0.000002   0.000000   0.004436   0.005931   0.624513
    37  H    0.000005   0.000001  -0.000003   0.000079   0.002473   0.007376
    38  H    0.000002   0.000005  -0.000015   0.006879  -0.000024   0.002587
    39  H    0.000000   0.000000   0.000000   0.000000   0.000000   0.000000
    40  H    0.000000   0.000000   0.000000   0.000000   0.000000  -0.000001
    41  H    0.000000   0.000000   0.000000   0.000000   0.000000   0.000000
    42  H    0.000000   0.000001   0.000000  -0.000020   0.000000  -0.000002
    43  H    0.000000   0.000001   0.000000   0.000000   0.000000   0.000000
    44  H    0.000000   0.000000   0.000000   0.000000   0.000000   0.000000
    45  H    0.000000   0.000000   0.000000   0.000000   0.000000   0.000000
             37         38         39         40         41         42
     1  O   -0.000345   0.000210   0.000000   0.000000   0.000000  -0.000002
     2  C    0.065083   0.031018   0.000012   0.000084  -0.000031  -0.000166
     3  C   -0.199379  -0.042340  -0.000405   0.000385   0.000582   0.004713
     4  O    0.005868  -0.000425   0.000000   0.000000   0.000000   0.000000
     5  H    0.000004   0.000006   0.000000   0.000000   0.000000   0.000000
     6  C    0.303230  -0.167748  -0.000916   0.007149   0.002869   0.003371
     7  O   -0.045114   0.005741  -0.000386   0.001179   0.000051  -0.000571
     8  H   -0.007214  -0.000652   0.000209  -0.000099  -0.000011  -0.000037
     9  C    0.012738   0.007124  -0.000001   0.000104   0.000072  -0.000334
    10  O   -0.000004  -0.000002   0.000000   0.000000   0.000000   0.000002
    11  H    0.000000   0.000001   0.000000   0.000000   0.000000   0.000000
    12  C    0.013927  -0.010212  -0.000012   0.001684   0.000559   0.006833
    13  O    0.009698  -0.062433  -0.000007   0.000179  -0.000152   0.002119
    14  C    0.046222   0.403422   0.004030   0.015939   0.052332   0.033497
    15  O   -0.013041  -0.065192  -0.000153   0.008998   0.006455  -0.056836
    16  C    0.033111   0.050660   0.004207  -0.000469   0.077753   0.314657
    17  C    0.006953   0.029647  -0.001067  -0.012250  -0.037527  -0.024863
    18  O    0.000066  -0.000993   0.000019   0.000029  -0.000576  -0.000611
    19  H   -0.000007   0.000213   0.000000   0.000000   0.000024  -0.000004
    20  C    0.000605   0.008946   0.000727  -0.001281  -0.020112   0.014023
    21  O    0.000000   0.000016  -0.000009   0.000004   0.000114  -0.000367
    22  H    0.000000   0.000000   0.000000   0.000000   0.000002   0.000004
    23  C    0.012483   0.012043   0.384354   0.560743   0.028551   0.005439
    24  O    0.001222   0.000698  -0.039088  -0.076391   0.009002   0.000929
    25  H    0.000029   0.000009  -0.012144  -0.000179  -0.000087  -0.000011
    26  C   -0.010209   0.015902  -0.001934  -0.239989   0.146591  -0.076136
    27  O    0.000007   0.000109  -0.012270   0.013210  -0.031276   0.006486
    28  C   -0.000079  -0.001336  -0.001989   0.005658   0.017968   0.001466
    29  O    0.000000  -0.000001  -0.000427   0.000064  -0.000689  -0.000837
    30  H    0.000000   0.000000  -0.000001  -0.000001   0.000014   0.000001
    31  H    0.000005   0.000002   0.000000   0.000000   0.000000   0.000000
    32  H    0.000001   0.000005   0.000000   0.000000   0.000000   0.000001
    33  H   -0.000003  -0.000015   0.000000   0.000000   0.000000   0.000000
    34  H    0.000079   0.006879   0.000000   0.000000   0.000000  -0.000020
    35  H    0.002473  -0.000024   0.000000   0.000000   0.000000   0.000000
    36  H    0.007376   0.002587   0.000000  -0.000001   0.000000  -0.000002
    37  H    0.595952   0.006186   0.000001  -0.000032  -0.000005   0.000019
    38  H    0.006186   0.646181   0.000000  -0.000103  -0.000021   0.011044
    39  H    0.000001   0.000000   0.579950  -0.043746  -0.004472   0.000136
    40  H   -0.000032  -0.000103  -0.043746   0.607681   0.005276   0.004869
    41  H   -0.000005  -0.000021  -0.004472   0.005276   0.585373   0.004847
    42  H    0.000019   0.011044   0.000136   0.004869   0.004847   0.608867
    43  H   -0.000003  -0.000047   0.000001   0.000010   0.003101   0.006390
    44  H    0.000000  -0.000048   0.000001  -0.000006  -0.000017   0.003844
    45  H    0.000000   0.000000  -0.000039  -0.000007   0.005289   0.000000
             43         44         45
     1  O    0.000000   0.000000   0.000000
     2  C    0.000324   0.000040  -0.000002
     3  C    0.000081   0.000065   0.000013
     4  O    0.000000   0.000000   0.000000
     5  H    0.000000   0.000000   0.000000
     6  C    0.004690   0.001199   0.000418
     7  O    0.000002   0.000002   0.000001
     8  H    0.000000   0.000000   0.000000
     9  C    0.000572   0.000123   0.000008
    10  O    0.000000   0.000000   0.000000
    11  H    0.000000   0.000000   0.000000
    12  C    0.002135   0.000634  -0.000028
    13  O    0.002219   0.000326  -0.000002
    14  C    0.047085   0.011143   0.005158
    15  O   -0.006101  -0.001225  -0.000046
    16  C    0.039107   0.112777   0.111375
    17  C    0.281692  -0.195551  -0.015346
    18  O   -0.047729   0.003750  -0.000676
    19  H   -0.005722   0.000020   0.000006
    20  C   -0.092642   0.369058  -0.124061
    21  O    0.003099  -0.038822   0.001943
    22  H   -0.000127  -0.007267  -0.000569
    23  C    0.014291   0.011488  -0.000777
    24  O    0.000073  -0.000003   0.000077
    25  H    0.000001   0.000000   0.000000
    26  C   -0.024080  -0.007923  -0.075692
    27  O    0.005665   0.006439  -0.061096
    28  C   -0.006108  -0.022068   0.446922
    29  O   -0.000209  -0.003506  -0.053939
    30  H    0.000000   0.000095  -0.007587
    31  H    0.000000   0.000000   0.000000
    32  H    0.000001   0.000000   0.000000
    33  H    0.000000   0.000000   0.000000
    34  H    0.000000   0.000000   0.000000
    35  H    0.000000   0.000000   0.000000
    36  H    0.000000   0.000000   0.000000
    37  H   -0.000003   0.000000   0.000000
    38  H   -0.000047  -0.000048   0.000000
    39  H    0.000001   0.000001  -0.000039
    40  H    0.000010  -0.000006  -0.000007
    41  H    0.003101  -0.000017   0.005289
    42  H    0.006390   0.003844   0.000000
    43  H    0.629158   0.006762   0.003190
    44  H    0.006762   0.596432   0.005296
    45  H    0.003190   0.005296   0.631142
 Mulliken atomic charges:
              1
     1  O   -0.509750
     2  C   -0.163053
     3  C    0.234886
     4  O   -0.515351
     5  H    0.356504
     6  C   -0.107672
     7  O   -0.535993
     8  H    0.404861
     9  C    0.070321
    10  O   -0.480069
    11  H    0.341443
    12  C    0.018392
    13  O   -0.424026
    14  C    0.098146
    15  O   -0.301336
    16  C   -0.124442
    17  C   -0.046078
    18  O   -0.478607
    19  H    0.386761
    20  C    0.096682
    21  O   -0.517814
    22  H    0.359802
    23  C    0.050086
    24  O   -0.620735
    25  H    0.379077
    26  C    0.034262
    27  O   -0.294972
    28  C    0.202201
    29  O   -0.561737
    30  H    0.361874
    31  H    0.365447
    32  H    0.144118
    33  H    0.129467
    34  H    0.129447
    35  H    0.140861
    36  H    0.140751
    37  H    0.152095
    38  H    0.112940
    39  H    0.145419
    40  H    0.141308
    41  H    0.148150
    42  H    0.127242
    43  H    0.133120
    44  H    0.146941
    45  H    0.129028
 Sum of Mulliken atomic charges =   0.00000
 Mulliken charges with hydrogens summed into heavy atoms:
              1
     1  O   -0.144303
     2  C   -0.022192
     3  C    0.375638
     4  O   -0.158847
     6  C    0.044423
     7  O   -0.131132
     9  C    0.343906
    10  O   -0.138626
    12  C    0.147839
    13  O   -0.424026
    14  C    0.211086
    15  O   -0.301336
    16  C    0.002800
    17  C    0.087043
    18  O   -0.091847
    20  C    0.243624
    21  O   -0.158012
    23  C    0.336812
    24  O   -0.241657
    26  C    0.182413
    27  O   -0.294972
    28  C    0.331230
    29  O   -0.199863
 Sum of Mulliken charges with hydrogens summed into heavy atoms =   0.00000
 APT atomic charges:
              1
     1  O   -0.642603
     2  C    0.444630
     3  C    0.402964
     4  O   -0.653802
     5  H    0.266107
     6  C    0.391297
     7  O   -0.670168
     8  H    0.345162
     9  C    0.467735
    10  O   -0.579797
    11  H    0.236559
    12  C    0.419575
    13  O   -0.846615
    14  C    0.921290
    15  O   -0.868871
    16  C    0.465144
    17  C    0.403184
    18  O   -0.672287
    19  H    0.335485
    20  C    0.383607
    21  O   -0.656006
    22  H    0.270494
    23  C    0.459764
    24  O   -0.633697
    25  H    0.246595
    26  C    0.425876
    27  O   -0.814976
    28  C    0.937749
    29  O   -0.671471
    30  H    0.263947
    31  H    0.267711
    32  H   -0.049159
    33  H   -0.064806
    34  H   -0.045399
    35  H   -0.042938
    36  H   -0.052495
    37  H   -0.023761
    38  H   -0.063089
    39  H   -0.033381
    40  H   -0.028618
    41  H   -0.040763
    42  H   -0.029628
    43  H   -0.054489
    44  H   -0.035447
    45  H   -0.080607
 Sum of APT charges=   0.00000
 APT Atomic charges with hydrogens summed into heavy atoms:
              1
     1  O   -0.374893
     2  C    0.401692
     3  C    0.350469
     4  O   -0.387696
[...]
 02406,0.00002548,0.00003563,0.00000895,-0.00000787,-0.00000216,0.00000
 654,-0.00010731,0.00002567,0.00005486,0.00032746,-0.00001737,-0.000015
 57,0.00032534,-0.00013174,-0.00457035,-0.01319332,-0.00384960,0.009754
 76,-0.35827498,-0.01474997,-0.02343771,-0.01347251,-0.00069960,-0.0039
 2127,0.00175488,-0.00004324,0.00096555,-0.00022850,-0.00004066,-0.0000
 5750,-0.00072524,-0.00052429,0.00103876,0.00049261,-0.00003464,0.00016
 394,-0.00000095,0.00005142,-0.00010196,0.00004278,0.00088953,0.0004865
 8,0.00025018,0.00019556,-0.00016772,0.00006006,-0.00002772,-0.00003473
 ,-0.00838722,-0.00025459,-0.00044204,0.00236593,0.00110975,0.00112289,
 -0.00018104,0.00026953,-0.00033119,0.00005254,-0.00002063,-0.00004970,
 0.00000913,-0.00000196,-0.00001586,-0.00000156,-0.00000359,-0.00000203
 ,-0.00001251,0.00000945,-0.00000191,0.00001146,0.00000199,-0.00001421,
 0.00002908,0.00000675,0.00002395,0.00000818,0.00000314,-0.00001180,0.0
 0001868,0.00000612,0.00001948,-0.00003967,0.00019569,-0.00027335,0.001
 60990,0.00067873,0.00088099,0.00037575,0.00008564,0.00008827,0.0006406
 8,-0.00047024,0.00025997,0.00032657,-0.00055397,-0.00050797,0.38429584
 ,0.00001158,-0.00001278,0.00004329,-0.00001475,0.00003910,-0.00003546,
 0.00001809,0.00002187,-0.00002775,0.00000985,-0.00003392,0.00000826,-0
 .00000613,0.00000620,-0.00000423,-0.00017499,0.00016199,0.00002050,0.0
 0018227,-0.00007558,-0.00023889,-0.00010851,-0.00010566,0.00009240,0.0
 0001711,-0.00003143,-0.00000422,-0.00000661,0.00002511,0.00002469,0.00
 000590,-0.00000232,-0.00000388,-0.00001617,0.00000529,-0.00005965,0.00
 016949,0.00008022,0.00024123,-0.00061604,0.00090443,-0.00143720,-0.010
 99342,-0.00012664,0.00492210,-0.01203469,-0.04574208,-0.00258818,0.032
 81622,0.00079301,0.00533323,-0.00246734,0.00236326,-0.00012052,0.00021
 159,-0.00012289,-0.00006827,0.00182762,0.00109440,-0.00091817,-0.00054
 150,-0.00012668,-0.00018643,-0.00007646,-0.00000640,0.00004788,-0.0026
 1626,0.00099696,0.00029435,0.00051764,0.00002372,-0.00013013,-0.000021
 45,-0.00006132,-0.00002609,-0.02543609,-0.00305385,-0.00454285,0.00099
 799,0.00093929,0.00287750,0.00025761,-0.00026754,0.00000707,-0.0000630
 4,0.00007185,0.00006189,-0.00000786,0.00001670,-0.00000810,0.00000170,
 -0.00000048,-0.00000586,0.00001188,-0.00001003,-0.00000265,-0.00000772
 ,0.00000093,0.00000775,-0.00001227,0.00001777,0.00000385,0.00000198,-0
 .00000619,0.00000014,0.00000355,0.00000760,0.00001181,0.00004372,0.000
 00786,-0.00004712,0.00041114,0.00039302,0.00006117,0.00031776,0.000240
 38,0.00013998,0.00086787,-0.00053864,-0.00006505,-0.00047867,-0.002496
 26,-0.00321320,0.01581742,0.05005160,-0.00000861,-0.00000692,-0.000045
 57,0.00000047,-0.00001235,0.00003165,0.00000749,0.00005683,0.00001080,
 -0.00002655,0.00000292,-0.00002384,0.00000211,-0.00000097,-0.00000346,
 0.00000898,-0.00002584,-0.00033546,-0.00019181,-0.00002744,0.00012761,
 0.00009009,-0.00001816,-0.00001533,-0.00005076,0.00004519,-0.00003739,
 -0.00000004,-0.00003879,-0.00000488,0.00000143,-0.00000283,-0.00000903
 ,0.00000931,-0.00005789,-0.00006858,-0.00095726,-0.00060428,-0.0003420
 6,0.00838950,0.00190987,0.00273588,0.03482542,0.00630031,-0.01681612,-
 0.02809162,-0.00294661,-0.04185938,-0.01000882,-0.00099700,0.00047883,
 0.00089336,0.00052144,0.00086306,0.00011904,0.00019749,-0.00016948,-0.
 00140890,0.00040947,0.00027100,0.00035784,-0.00011809,0.00001826,-0.00
 002147,-0.00001648,-0.00004890,-0.00058470,0.00116324,0.00046522,0.000
 21218,0.00003996,0.00013140,-0.00002459,0.00001172,0.00002047,-0.02127
 341,-0.00208171,-0.00256103,-0.00060779,-0.00060871,0.00097836,-0.0004
 5847,0.00011759,-0.00033332,0.00008913,0.00003802,-0.00013040,0.000027
 62,0.00000815,0.00000260,-0.00000050,0.00000495,0.00000216,0.00000199,
 -0.00001541,-0.00000229,-0.00000107,0.00000614,0.00000622,-0.00004851,
 -0.00003971,-0.00008102,-0.00000772,0.00000261,0.00001547,-0.00003717,
 -0.00001207,-0.00004935,-0.00020461,-0.00016960,0.00011337,-0.00135889
 ,-0.00024167,-0.00071151,0.00010603,0.00018070,0.00000333,0.00055825,-
 0.00022387,0.00030106,-0.00022563,-0.00222348,-0.00278152,0.01986928,-
 0.00278572,0.06009165,-0.00000179,0.00001649,-0.00005077,-0.00001343,-
 0.00002226,0.00004631,-0.00000235,-0.00003851,0.00002636,0.00000881,0.
 00004971,-0.00003379,-0.00000147,-0.00000943,0.00000672,0.00008762,-0.
 00002847,0.00002816,0.00002046,0.00010437,0.00000889,-0.00005065,-0.00
 004170,-0.00004527,-0.00000722,-0.00002000,0.00011800,-0.00000515,-0.0
 0002231,-0.00008670,-0.00001167,0.00001119,0.00002567,0.00000474,0.000
 00626,0.00008464,-0.00003311,0.00023273,-0.00016088,0.00005419,-0.0003
 1986,-0.00018839,0.00174261,-0.00021332,-0.00007114,-0.01588645,0.0000
 2634,-0.00030764,-0.34641949,-0.02743778,-0.04139561,0.00179981,-0.006
 76487,-0.00740230,0.00049888,-0.00073851,0.00029637,-0.01680874,-0.000
 56034,-0.00031906,0.00166872,-0.00015353,0.00019329,0.00014300,-0.0000
 2033,-0.00010055,0.00051471,0.00031317,0.00013901,0.00005959,0.0000218
 8,0.00003563,-0.00000431,0.00000656,-0.00001507,-0.00051354,-0.0016556
 3,-0.00088761,0.00028055,0.00068498,0.00042689,-0.00147857,-0.00118328
 ,-0.00115147,0.00069732,0.00010914,0.00015642,-0.00005307,0.00002292,0
 .00015281,-0.00000593,-0.00000675,0.00001218,0.00000505,0.00004668,-0.
 00000996,0.00001161,0.00000438,-0.00001899,0.00001424,-0.00000894,0.00
 001011,0.00000442,0.00000170,-0.00000913,0.00001080,0.00000171,0.00000
 303,0.00000032,0.00002317,-0.00003607,0.00014472,0.00001724,0.00019360
 ,0.00001155,0.00008150,0.00000379,0.00017036,-0.00031989,0.00003003,0.
 00083243,0.00063272,0.00064096,-0.00008474,0.00200192,-0.00050682,0.37
 201451,-0.00001151,0.00002914,-0.00006000,-0.00001026,-0.00004293,0.00
 005156,0.00001723,-0.00001230,-0.00000481,-0.00001251,0.00005476,-0.00
 002292,0.00000757,-0.00001185,0.00000564,-0.00007194,-0.00012284,-0.00
 009377,-0.00006198,0.00006270,0.00010037,0.00002265,0.00002404,-0.0000
 4661,0.00000892,-0.00005028,0.00020577,-0.00002271,-0.00003348,-0.0001
 3914,-0.00001709,0.00001957,0.00003813,0.00004638,0.00004185,0.0000858
 9,-0.00012749,0.00050003,-0.00013396,0.00024128,-0.00005132,-0.0001824
 9,-0.00150381,0.00143206,-0.00143398,0.03298485,-0.00129479,0.00388580
 ,-0.02896116,-0.04229825,0.00035162,-0.02787397,-0.01510715,-0.0184776
 6,-0.00031103,0.00014584,0.00124970,-0.01240233,0.00020649,0.00017148,
 0.00051100,0.00073925,-0.00117753,0.00016293,0.00003314,-0.00014135,0.
 00028659,0.00004272,0.00013054,-0.00010973,-0.00005475,0.00006395,-0.0
 0000543,0.00000852,0.00000082,0.00184665,0.00158161,0.00096054,-0.0004
 1839,-0.00016871,-0.00032364,0.00051919,-0.00023268,-0.00077413,0.0001
 8186,-0.00010181,0.00016839,-0.00000663,0.00006698,0.00005472,-0.00000
 426,-0.00000788,0.00001414,-0.00000661,0.00008518,-0.00000636,0.000013
 56,0.00002102,-0.00003982,0.00000487,-0.00002441,0.00000623,-0.0000012
 0,0.00000225,-0.00000335,-0.00000074,-0.00000001,-0.00000221,-0.000012
 18,-0.00001106,0.00001813,-0.00021180,-0.00008563,-0.00003492,-0.00011
 662,0.00001879,-0.00002658,-0.00025578,-0.00004325,-0.00009005,-0.0003
 7875,-0.00063471,-0.00024554,0.00187019,-0.00491892,0.00185564,0.03492
 286,0.05999521,-0.00000058,0.00002470,-0.00004414,-0.00002301,-0.00002
 899,0.00004595,0.00000258,-0.00005607,0.00001821,0.00000497,0.00004836
 ,-0.00001311,0.00000049,-0.00001105,0.00000731,0.00004049,0.00000473,0
 .00007224,0.00001221,0.00007239,-0.00000199,-0.00003312,-0.00001649,-0
 .00001155,-0.00001185,-0.00005917,0.00018702,-0.00000405,-0.00001946,-
 0.00011838,-0.00001726,0.00001343,0.00003619,0.00000570,0.00001305,0.0
 0006862,0.00005740,0.00042242,-0.00023830,-0.00023685,-0.00054241,-0.0
 0041445,0.00055704,-0.00098631,0.00149855,-0.01340604,0.00156934,0.000
 22011,-0.04142109,0.00142516,-0.04892290,-0.02603159,-0.01874314,-0.01
 352429,-0.00141223,-0.00027870,0.00108221,0.03283023,0.00317984,0.0030
 8004,-0.00198450,-0.00082348,0.00170395,-0.00009513,-0.00025909,0.0002
 6096,0.00011890,0.00015785,-0.00004249,0.00001784,0.00000825,0.0000085
 0,0.00000464,-0.00000039,-0.00000627,0.00060932,-0.00117501,0.00005778
 ,-0.00029896,-0.00008186,-0.00010197,0.00154530,0.00079609,0.00095556,
 -0.00043362,0.00000218,-0.00007521,-0.00005996,-0.00007901,-0.00005137
 ,-0.00000640,-0.00000924,0.00001030,-0.00000774,0.00007585,-0.00000930
 ,0.00002201,0.00001584,-0.00004668,0.00002009,-0.00001552,0.00001694,0
 .00000515,0.00000187,-0.00001155,0.00000840,0.00000269,0.00000086,0.00
 000565,0.00002690,-0.00002403,0.00017883,0.00002098,0.00000929,0.00004
 613,0.00004653,0.00001339,0.00008859,-0.00011083,-0.00000262,0.0003786
 7,0.00006727,0.00042076,-0.00057107,0.00189935,-0.00033029,0.04733678,
 0.01224636,0.05967144,0.00000207,-0.00000344,-0.00002387,0.00000021,0.
 00000094,0.00002111,-0.00000881,-0.00002028,0.00002288,0.00000945,0.00
 001585,-0.00002274,-0.00000315,-0.00000204,0.00000465,0.00003878,0.000
 00198,0.00002975,0.00001680,0.00002335,-0.00001630,-0.00001633,-0.0000
 1789,0.00000131,-0.00001519,0.00000409,0.00001826,0.00001564,-0.000007
 31,-0.00001847,-0.00000942,0.00000214,0.00000734,-0.00001995,0.0000041
 0,0.00003066,0.00005146,-0.00001181,-0.00005358,-0.00017565,-0.0000764
 6,0.00009182,0.00065881,0.00004746,0.00005417,-0.00072436,0.00146125,-
 0.00055459,-0.01709344,-0.00532368,-0.00170943,0.00188199,0.00057116,-
 0.00069985,0.00026960,0.00006647,-0.00008247,-0.34754105,-0.04496320,-
 0.04319092,-0.01015277,0.00904458,-0.00873355,0.00051093,0.00046373,0.
 00034837,-0.00004459,-0.00004498,-0.00001781,0.00005246,0.00002994,-0.
 00000673,-0.00001124,-0.00000548,-0.00000325,0.00015909,0.00002611,-0.
 00008995,0.00134258,-0.00077617,0.00045765,-0.00548420,-0.00011854,-0.
 00040379,0.00130587,-0.00010085,0.00011557,0.00022606,0.00026429,0.000
 28960,-0.00000341,0.00000003,0.00000538,-0.00001309,0.00000613,-0.0000
 0164,0.00001062,0.00000156,-0.00001192,0.00001528,-0.00000611,0.000006
 24,0.00000387,0.00000159,-0.00000523,0.00000680,0.00000107,0.00000137,
 0.00000343,0.00001226,-0.00001169,0.00005697,-0.00000588,0.00003022,0.
 00000677,-0.00000584,0.00001339,0.00003629,-0.00003633,0.00001303,0.00
 006796,0.00021056,0.00003502,0.00095701,-0.00072232,0.00032473,-0.0002
 3111,-0.00097205,0.00251570,0.37330075,0.00000319,-0.00000539,0.000011
 17,-0.00000054,0.00000631,-0.00000920,-0.00000426,0.00000506,0.0000006
 2,0.00000478,-0.00001078,0.00000345,-0.00000235,0.00000304,-0.00000154
 ,0.00000127,0.00001298,0.00000502,0.00001636,-0.00000875,-0.00001172,-
 0.00001384,-0.00000422,0.00000248,-0.00000128,0.00000904,-0.00002928,0
 .00000047,0.00000288,0.00002298,0.00000513,-0.00000251,-0.00000881,-0.
 00000410,-0.00000215,-0.00000834,0.00003875,-0.00005852,0.00002674,-0.
 00007477,0.00006357,0.00001685,0.00020232,-0.00009479,-0.00001698,-0.0
 0151957,0.00017472,0.00011385,-0.00742460,-0.00016688,-0.00080032,0.00
 086117,0.00046894,0.00037381,-0.00001170,-0.00005629,-0.00005527,-0.04
 623298,-0.04639976,-0.00946416,0.03835662,-0.01051836,0.01547210,0.000
 72495,0.00149915,-0.00073029,-0.00008148,0.00002223,-0.00003781,0.0000
 4086,-0.00000229,-0.00000492,-0.00000498,-0.00000217,0.00000218,-0.000
 16165,-0.00024929,0.00005158,0.00131652,0.00187262,0.00051980,-0.02839
 176,-0.00405765,-0.00493257,0.00156925,0.00136135,0.00204584,0.0000018
 2,0.00006260,0.00043445,0.00000018,0.00000171,-0.00000336,0.00000290,-
 0.00000960,0.00000288,-0.00000159,-0.00000408,0.00000444,0.00000111,0.
 00000503,0.00000046,0.00000095,-0.00000005,-0.00000041,0.00000085,0.00
 000009,0.00000080,0.00000244,0.00000305,-0.00000469,0.00002591,0.00000
 309,0.00001812,0.00000964,-0.00001428,0.00000405,0.00003880,-0.0000427
 1,0.00002782,0.00017190,0.00007789,-0.00001171,0.00012660,-0.00036019,
 0.00039112,-0.00033033,-0.00002716,0.00140518,0.04096006,0.05967952,-0
 .00000091,-0.00001057,-0.00000075,-0.00000145,0.00001089,-0.00000423,0
 .00000491,0.00001837,0.00000390,-0.00000123,-0.00001234,-0.00000539,0.
 00000012,0.00000393,-0.00000270,-0.00002700,-0.00001856,-0.00002114,-0
 .00000446,-0.00001450,-0.00001027,0.00000749,0.00000249,0.00000953,0.0
 0000348,0.00001731,-0.00003235,-0.00000555,-0.00000680,0.00001962,0.00
 000493,-0.00000123,-0.00001004,0.00002574,0.00000800,-0.00000333,0.000
 00065,-0.00012036,-0.00000017,0.00007699,0.00017736,0.00014426,-0.0005
 3942,-0.00011199,-0.00029292,0.00146120,-0.00110429,0.00105097,0.03218
 852,0.00670724,0.00241360,-0.00184556,0.00010733,0.00261495,-0.0002265
 9,0.00020900,0.00027569,-0.04145275,-0.00966856,-0.04964554,-0.0172267
 5,0.00962864,-0.00550373,-0.00119757,0.00009764,0.00065929,0.00000397,
 -0.00000915,0.00007251,0.,0.00000562,-0.00001131,-0.00000884,-0.000001
 98,0.00000206,0.00034361,0.00017970,-0.00030937,0.00165548,0.00088382,
 0.00062456,-0.02579357,-0.00635713,-0.00507816,0.00072361,0.00120112,0
 .00260980,-0.00008778,0.00029834,0.00044784,0.00000014,0.00000354,-0.0
 0000243,0.00000440,-0.00001240,0.00000464,-0.00000496,-0.00000209,0.00
 000811,-0.00001142,0.00000526,-0.00000865,-0.00000217,-0.00000065,0.00
 000295,-0.00000392,0.00000007,-0.00000142,0.00000053,-0.00000769,0.000
 01031,-0.00004915,0.00000395,-0.00005187,-0.00001390,0.00002219,0.0000
 0424,-0.00000576,0.00002010,0.00000832,-0.00010702,0.00004074,-0.00013
 247,-0.00048858,0.00043827,-0.00004787,0.00215954,0.00169482,-0.005061
 76,0.05111504,-0.00165040,0.05809845,0.00000255,-0.00001048,-0.0000250
 4,-0.00000707,0.00000883,0.00001493,-0.00000055,-0.00000406,0.00002119
 ,0.00000657,0.00000500,-0.00002710,-0.00000250,0.00000069,0.00000375,-
 0.00002297,0.00000920,0.00001121,0.00001546,-0.00001209,-0.00004506,0.
 00000473,-0.00000610,0.00003982,-0.00001251,0.00001462,0.00000076,0.00
 000618,-0.00001290,-0.00000775,-0.00000397,0.00000152,0.00000091,0.000
 01092,0.00000608,0.00002431,0.00001954,-0.00006721,-0.00007371,0.00002
 565,0.00006462,0.00013034,0.00005590,-0.00008426,-0.00034704,0.0000935
 7,0.00043467,0.00026016,-0.00052918,-0.00053177,0.00039016,0.00045351,
 0.00008766,0.00007242,-0.00004375,-0.00001406,-0.00011751,-0.00536187,
 0.00183149,-0.00308517,0.00200595,0.00029381,0.00182418,-0.00026203,0.
 00001992,-0.00007754,0.00039569,-0.00013421,-0.00003203,0.00003802,0.0
 0028426,-0.00015309,-0.00001462,0.00000034,-0.00003584,0.00029392,-0.0
 0044646,0.00069518,-0.00494255,0.01009604,-0.00647661,-0.33099607,-0.0
 2386635,-0.08664852,-0.02054444,-0.00329261,0.00585260,0.00021155,0.00
 012420,0.00019484,-0.00000421,0.00000205,0.00000435,-0.00000335,-0.000
 00060,0.00000084,0.00000559,-0.00000064,-0.00000450,0.00000307,-0.0000
 0052,-0.00000111,0.00000296,-0.00000008,-0.00000237,0.00000241,0.00000
 077,-0.00000048,0.00000396,0.00000008,0.00000016,0.00000552,-0.0000007
 5,-0.00000393,-0.00000670,-0.00004231,0.00000060,0.00006927,-0.0001723
 1,0.00009463,0.00026170,0.00064881,-0.00125704,0.00006247,-0.00009963,
 0.00021145,0.00081178,0.00023939,-0.00035806,0.00054018,-0.00022302,-0
 .00067402,0.35734971,-0.00000042,0.00001591,0.00001225,0.00000425,-0.0
 0001677,-0.00000423,-0.00000730,-0.00000198,-0.00001303,-0.00000216,0.
 00000890,0.00001348,0.00000114,-0.00000257,-0.00000083,0.00002333,-0.0
 0004468,-0.00002172,-0.00001072,0.00004807,0.00006844,-0.00002043,-0.0
 0000507,-0.00007602,0.00000126,-0.00002004,0.00002489,0.00000384,0.000
 01217,-0.00001244,-0.00000438,0.00000039,0.00000712,-0.00001880,0.0000
 0183,-0.00000484,-0.00000797,0.00013803,0.00004922,-0.00008685,-0.0000
 9199,-0.00013105,-0.00001362,0.00034616,0.00041537,-0.00022323,-0.0008
 6001,0.00006574,-0.00118852,-0.00014468,0.00138674,0.00053730,-0.00001
 075,-0.00043462,0.00014311,-0.00010015,0.00001716,-0.02289953,-0.00131
 425,-0.00990540,0.00023318,0.00317869,0.00033053,-0.00027122,-0.000147
 55,-0.00005672,0.00006737,0.00036000,-0.00018780,-0.00019018,-0.000346
 53,0.00021493,-0.00001589,0.00001537,0.00003328,0.00365002,0.00222189,
 -0.00348926,0.03491308,-0.01390972,0.01911599,-0.02327812,-0.04339703,
 -0.00861279,-0.00493449,0.00389791,0.00127077,-0.00027913,0.00036108,-
 0.00044845,0.00000105,-0.00000347,-0.00000019,-0.00000024,0.00000965,-
 0.00000396,0.00000135,0.00000274,-0.00000262,0.00000375,-0.00000433,0.
 00000261,0.00000003,0.00000121,-0.00000053,0.00000228,0.00000015,0.000
 00171,-0.00000258,0.00000458,-0.00000629,0.00001162,-0.00000258,0.0000
 0494,0.00003790,0.00004535,-0.00000605,-0.00019510,0.00006297,-0.00004
 126,-0.00134209,0.00023782,-0.00004207,-0.00004768,-0.00016276,0.00001
 222,0.00055641,0.00022501,-0.00025039,-0.00000006,-0.00323702,-0.00267
 504,0.01484841,0.05262805,-0.00000289,-0.00000788,-0.00003940,-0.00000
 505,0.00000581,0.00002881,0.00000708,-0.00000447,0.00002982,0.00000129
 ,0.00001593,-0.00003802,0.00000062,-0.00000140,0.00000423,-0.00001070,
 -0.00002080,-0.00000069,0.00000144,0.00001429,-0.00003224,0.00000371,-
 0.00001637,0.00003024,-0.00000493,0.00001781,0.00002063,-0.00000209,-0
 .00002270,-0.00002666,-0.00000277,0.00000435,0.00000555,0.00001776,0.0
 0001480,0.00004524,0.00000442,-0.00004639,-0.00010366,0.00005862,0.000
 06700,0.00016010,0.00005927,0.00003220,-0.00041339,0.00005941,-0.00018
 267,0.00002122,-0.00199208,0.00000703,0.00139570,0.00065166,-0.0000568
 6,-0.00010262,0.00005398,0.00002163,-0.00000111,-0.02463558,-0.0026014
 1,-0.00566001,0.00210427,0.00185369,0.00193647,0.00019268,-0.00026997,
 -0.00012319,0.00001631,-0.00009301,0.00009893,0.00011712,0.00020403,-0
 .00013667,-0.00000375,-0.00000877,-0.00001830,-0.00212232,-0.00085148,
 0.00270178,-0.01291448,0.01034786,-0.00467162,-0.09385661,-0.01177276,
 -0.07536022,0.03884088,0.00303497,-0.00505614,0.00186657,0.00021233,0.
 00367550,-0.00000304,0.00000088,0.00000681,-0.00000270,0.00000550,-0.0
 0000263,0.00000385,-0.00000034,-0.00000570,0.00000154,-0.00000183,0.00
 000021,0.00000131,-0.00000012,-0.00000277,0.00000168,0.00000005,-0.000
 00120,0.00000080,0.00000176,-0.00000107,0.00000907,-0.00000591,0.00000
 404,0.00000575,-0.00004671,0.00000728,0.00012911,-0.00007586,0.0000018
 3,0.00077854,-0.00006188,-0.00009766,0.00019894,-0.00001710,0.00013966
 ,0.00066201,0.00010058,-0.00039350,0.00010455,-0.00317605,-0.00284774,
 0.08960472,0.00338021,0.08482217\\0.01531644,-0.02855665,-0.00122029,-
 0.00240747,0.04242062,-0.02334538,0.00876196,-0.01970218,0.05133940,0.
 00335223,-0.01240318,0.01819698,-0.00317322,-0.00309008,-0.03094746,-0
 .01817441,-0.01228312,-0.00691512,0.00492572,0.00522199,-0.01262128,-0
 .00056221,0.01811886,0.02143804,0.00379078,-0.00991768,0.01185043,-0.0
 1690911,0.02513228,-0.01167709,0.02098510,-0.01930965,0.01533469,-0.00
 828631,0.00369026,-0.00642715,-0.00015106,0.00339632,-0.00593707,-0.02
 945923,0.01012061,-0.01228134,0.01657459,-0.00707635,0.01688860,-0.024
 05114,-0.00262886,0.01979771,-0.00333523,0.03665314,0.00595979,-0.0034
 5560,-0.01183345,0.01453350,0.01190340,-0.00016149,-0.02245155,0.00441
 919,0.00124500,-0.03539756,-0.00576723,0.01728667,0.00032201,-0.008264
 08,-0.01751796,0.02932827,-0.02030553,-0.00744893,0.01380949,0.0028627
 7,-0.03119546,0.00654461,-0.00314018,0.03042112,-0.00062984,0.04130478
 ,0.01051148,-0.00607999,-0.00759232,-0.00213018,-0.01794062,0.03490135
 ,-0.02609056,-0.00428150,-0.00729065,0.00904533,0.01781069,-0.00339697
 ,-0.00237015,-0.00359052,-0.00277146,0.00079125,0.00069727,0.00115441,
 0.00428761,-0.01897982,-0.02209879,-0.00102479,0.00277384,0.02201504,0
 .00325717,-0.00210323,-0.01803436,-0.00456513,0.00048883,0.02285988,0.
 00341372,-0.00140147,-0.02110955,-0.00272320,0.00237923,0.01868292,0.0
 0634976,-0.00700257,0.00045945,-0.00534335,-0.01664364,0.01820897,0.00
 328604,0.00238701,-0.01848291,-0.00297185,-0.00094912,0.01805291,-0.00
 182058,-0.00033377,-0.02220532,-0.00341929,-0.00200654,0.01939135,0.00
 065601,0.00430338,-0.01949887,0.00027891,-0.00501989\\\@


 A DANDELION FROM A LOVER MEANS MORE THAN AN ORCHID FROM A FRIEND.
 Job cpu time:  0 days 12 hours 59 minutes  5.1 seconds.
 File lengths (MBytes):  RWF=   1323 Int=      0 D2E=      0 Chk=     19 Scr=      1
 Normal termination of Gaussian 09 at Tue Mar  1 03:22:29 2016.
Gaussian '09 finished on node024 at Tue Mar  1 03:22:29 EST 2016.
