Gaussian '09 started on node031 at Wed Oct  7 10:28:10 EDT 2015.
 Entering Gaussian System, Link 0=/usr/local/gaussian/g09/g09
 Initial command:
 /usr/local/gaussian/g09/l1.exe /home/srmcgrat/data/gaussian/cellobiose/450/6-31g2dfp/gas/gaussian18085/Gau-18121.inp -scrdir=/home/srmcgrat/data/gaussian/cellobiose/450/6-31g2dfp/gas/gaussian18085/
 Entering Link 1 = /usr/local/gaussian/g09/l1.exe PID=     18123.
  
 Copyright (c) 1988,1990,1992,1993,1995,1998,2003,2009,2010,
            Gaussian, Inc.  All Rights Reserved.
  
 This is part of the Gaussian(R) 09 program.  It is based on
 the Gaussian(R) 03 system (copyright 2003, Gaussian, Inc.),
 the Gaussian(R) 98 system (copyright 1998, Gaussian, Inc.),
 the Gaussian(R) 94 system (copyright 1995, Gaussian, Inc.),
 the Gaussian 92(TM) system (copyright 1992, Gaussian, Inc.),
 the Gaussian 90(TM) system (copyright 1990, Gaussian, Inc.),
 the Gaussian 88(TM) system (copyright 1988, Gaussian, Inc.),
 the Gaussian 86(TM) system (copyright 1986, Carnegie Mellon
 University), and the Gaussian 82(TM) system (copyright 1983,
 Carnegie Mellon University). Gaussian is a federally registered
 trademark of Gaussian, Inc.
  
 This software contains proprietary and confidential information,
 including trade secrets, belonging to Gaussian, Inc.
  
 This software is provided under written license and may be
 used, copied, transmitted, or stored only in accord with that
 written license.
  
 The following legend is applicable only to US Government
 contracts under FAR:
  
                    RESTRICTED RIGHTS LEGEND
  
 Use, reproduction and disclosure by the US Government is
 subject to restrictions as set forth in subparagraphs (a)
 and (c) of the Commercial Computer Software - Restricted
 Rights clause in FAR 52.227-19.
  
 Gaussian, Inc.
 340 Quinnipiac St., Bldg. 40, Wallingford CT 06492
  
  
 ---------------------------------------------------------------
 Warning -- This program may not be used in any manner that
 competes with the business of Gaussian, Inc. or will provide
 assistance to any competitor of Gaussian, Inc.  The licensee
 of this program is prohibited from giving any competitor of
 Gaussian, Inc. access to this program.  By using this program,
 the user acknowledges that Gaussian, Inc. is engaged in the
 business of creating and licensing software in the field of
 computational chemistry and represents and warrants to the
 licensee that it is not a competitor of Gaussian, Inc. and that
 it will not use this program in any manner prohibited above.
 ---------------------------------------------------------------
  

 Cite this work as:
 Gaussian 09, Revision B.01,
 M. J. Frisch, G. W. Trucks, H. B. Schlegel, G. E. Scuseria, 
 M. A. Robb, J. R. Cheeseman, G. Scalmani, V. Barone, B. Mennucci, 
 G. A. Petersson, H. Nakatsuji, M. Caricato, X. Li, H. P. Hratchian, 
 A. F. Izmaylov, J. Bloino, G. Zheng, J. L. Sonnenberg, M. Hada, 
 M. Ehara, K. Toyota, R. Fukuda, J. Hasegawa, M. Ishida, T. Nakajima, 
 Y. Honda, O. Kitao, H. Nakai, T. Vreven, J. A. Montgomery, Jr., 
 J. E. Peralta, F. Ogliaro, M. Bearpark, J. J. Heyd, E. Brothers, 
 K. N. Kudin, V. N. Staroverov, T. Keith, R. Kobayashi, J. Normand, 
 K. Raghavachari, A. Rendell, J. C. Burant, S. S. Iyengar, J. Tomasi, 
 M. Cossi, N. Rega, J. M. Millam, M. Klene, J. E. Knox, J. B. Cross, 
 V. Bakken, C. Adamo, J. Jaramillo, R. Gomperts, R. E. Stratmann, 
 O. Yazyev, A. J. Austin, R. Cammi, C. Pomelli, J. W. Ochterski, 
 R. L. Martin, K. Morokuma, V. G. Zakrzewski, G. A. Voth, 
 P. Salvador, J. J. Dannenberg, S. Dapprich, A. D. Daniels, 
 O. Farkas, J. B. Foresman, J. V. Ortiz, J. Cioslowski, 
 and D. J. Fox, Gaussian, Inc., Wallingford CT, 2010.
 
 ******************************************
 Gaussian 09:  EM64L-G09RevB.01 12-Aug-2010
                 7-Oct-2015 
 ******************************************
 --------------------------------
 # freq=raman b3lyp/6-31+g(2df,p)
 --------------------------------
 1/10=4,30=1,38=1/1,3;
 2/12=2,17=6,18=5,40=1/2;
 3/5=1,6=6,7=114,11=2,16=1,25=1,30=1,71=2,74=-5/1,2,3;
 4//1;
 5/5=2,38=5,98=1/2;
 8/6=4,10=90,11=11/1;
 10/13=10,15=4/2;
 11/6=3,8=1,9=11,15=111,16=1/1,2,10;
 10/6=1/2;
 6/7=2,8=2,9=2,10=2,18=1,28=1/1;
 7/8=1,10=1,25=1/1,2,3,16;
 1/10=4,30=1/3;
 99//99;
 -----------------------------
 450K 5000ps Cellobiose Unit 1
 -----------------------------
 Symbolic Z-matrix:
 Charge =  0 Multiplicity = 2
 C(PDBName=C4,ResName=GLC,ResNum=1)  11.09     7.535     1.992 
 C(PDBName=C3,ResName=GLC,ResNum=1)  11.438    8.923     2.504 
 O(PDBName=O3,ResName=GLC,ResNum=1)  12.458    9.43      1.631 
 H(PDBName=HO3,ResName=GLC,ResNum=1)  12.064    9.585     0.725 
 C(PDBName=C2,ResName=GLC,ResNum=1)  12.131    8.969     3.856 
 O(PDBName=O2,ResName=GLC,ResNum=1)  12.359    10.294    4.358 
 H(PDBName=HO2,ResName=GLC,ResNum=1)  12.518    10.863    3.551 
 C(PDBName=C6,ResName=GLC,ResNum=1)  10.112    5.271     2.628 
 O(PDBName=O6,ResName=GLC,ResNum=1)  9.424     4.423     3.559 
 H(PDBName=HO6,ResName=GLC,ResNum=1)  9.312     3.496     3.202 
 C(PDBName=C5,ResName=GLC,ResNum=1)  10.356    6.714     3.04 
 O(PDBName=O5,ResName=GLC,ResNum=1)  11.133    6.84      4.24 
 C(PDBName=C1,ResName=GLC,ResNum=1)  11.339    8.126     4.842 
 O(PDBName=O1,ResName=GLC,ResNum=1)  12.028    7.813     6.061 
 C(PDBName=C4,ResName=GLC,ResNum=2)  11.22     7.999     7.232 
 C(PDBName=C3,ResName=GLC,ResNum=2)  10.738    6.64      7.714 
 O(PDBName=O3,ResName=GLC,ResNum=2)  9.858     5.96      6.808 
 H(PDBName=HO3,ResName=GLC,ResNum=2)  10.222    6.028     5.879 
 C(PDBName=C2,ResName=GLC,ResNum=2)  9.917     6.636     8.992 
 O(PDBName=O2,ResName=GLC,ResNum=2)  9.385     5.385     9.454 
 H(PDBName=HO2,ResName=GLC,ResNum=2)  9.133     4.987     8.572 
 C(PDBName=C6,ResName=GLC,ResNum=2)  12.225    10.16     7.975 
 O(PDBName=O6,ResName=GLC,ResNum=2)  12.707    11.122    8.923 
 H(PDBName=HO6,ResName=GLC,ResNum=2)  13.671    10.937    9.112 
 C(PDBName=C5,ResName=GLC,ResNum=2)  11.947    8.715     8.359 
 O(PDBName=O5,ResName=GLC,ResNum=2)  11.2      8.583     9.577 
 C(PDBName=C1,ResName=GLC,ResNum=2)  10.818    7.278     10.034 
 O(PDBName=O1,ResName=GLC,ResNum=2)  10.111    7.42      11.275 
 H                     10.74105   7.50234   11.99462 
 
 Residue   3                        charge    0.00000000 ave dist*************
 Residue   1 PDB Number     1_0 GLC charge    0.00000000 ave dist*************
 Residue   2 PDB Number     2_0 GLC charge    0.00000000 ave dist*************

 GradGradGradGradGradGradGradGradGradGradGradGradGradGradGradGradGradGrad
 Berny optimization.
 Initialization pass.
 Trust Radius=3.00D-01 FncErr=1.00D-07 GrdErr=1.00D-07
 Number of steps in this run=      2 maximum allowed number of steps=      2.
 GradGradGradGradGradGradGradGradGradGradGradGradGradGradGradGradGradGrad

                          Input orientation:                          
 ---------------------------------------------------------------------
 Center     Atomic      Atomic             Coordinates (Angstroms)
 Number     Number       Type             X           Y           Z
 ---------------------------------------------------------------------
      1          6           0       11.090000    7.535000    1.992000
      2          6           0       11.438000    8.923000    2.504000
      3          8           0       12.458000    9.430000    1.631000
      4          1           0       12.064000    9.585000    0.725000
      5          6           0       12.131000    8.969000    3.856000
      6          8           0       12.359000   10.294000    4.358000
      7          1           0       12.518000   10.863000    3.551000
      8          6           0       10.112000    5.271000    2.628000
      9          8           0        9.424000    4.423000    3.559000
     10          1           0        9.312000    3.496000    3.202000
     11          6           0       10.356000    6.714000    3.040000
     12          8           0       11.133000    6.840000    4.240000
     13          6           0       11.339000    8.126000    4.842000
     14          8           0       12.028000    7.813000    6.061000
     15          6           0       11.220000    7.999000    7.232000
     16          6           0       10.738000    6.640000    7.714000
     17          8           0        9.858000    5.960000    6.808000
     18          1           0       10.222000    6.028000    5.879000
     19          6           0        9.917000    6.636000    8.992000
     20          8           0        9.385000    5.385000    9.454000
     21          1           0        9.133000    4.987000    8.572000
     22          6           0       12.225000   10.160000    7.975000
     23          8           0       12.707000   11.122000    8.923000
     24          1           0       13.671000   10.937000    9.112000
     25          6           0       11.947000    8.715000    8.359000
     26          8           0       11.200000    8.583000    9.577000
     27          6           0       10.818000    7.278000   10.034000
     28          8           0       10.111000    7.420000   11.275000
     29          1           0       10.741051    7.502342   11.994622
 ---------------------------------------------------------------------
                    Distance matrix (angstroms):
                    1          2          3          4          5
     1  C    0.000000
     2  C    1.519800   0.000000
     3  O    2.364904   1.435123   0.000000
     4  H    2.599320   1.998740   1.000048   0.000000
     5  C    2.571873   1.519957   2.295664   3.191725   0.000000
     6  O    3.849727   2.482982   2.862311   3.713273   1.435135
     7  H    3.942746   2.454834   2.396558   3.134593   1.957046
     8  C    2.546895   3.887256   4.878013   5.103167   4.388570
     9  O    3.862071   5.041748   6.163797   6.453480   5.299262
    10  H    4.575905   5.870214   6.897660   7.126356   6.190978
    11  C    1.520231   2.517479   3.712188   4.064373   2.983539
    12  O    2.353376   2.728665   3.907762   4.555986   2.382457
    13  C    2.921264   2.472095   3.641854   4.427640   1.519904
    14  O    4.184960   3.772592   4.735450   5.622648   2.491780
    15  C    5.262109   4.822373   5.911988   6.750465   3.628801
    16  C    5.802259   5.731159   6.909804   7.699183   4.716869
    17  O    5.214624   5.458955   6.752942   7.416869   4.789041
    18  H    4.258314   4.609805   5.883775   6.527552   4.047998
    19  C    7.154308   7.045421   8.273297   9.036011   6.059965
    20  O    7.950533   8.064413   9.327630  10.050497   7.191883
    21  H    7.322469   7.591162   8.886695   9.555510   6.861850
    22  C    6.631375   5.664043   6.390112   7.274548   4.288762
    23  O    7.969945   6.902863   7.489868   8.365586   5.535492
    24  H    8.302383   7.260038   7.727081   8.645931   5.819808
    25  C    6.531886   5.880763   6.785155   7.684305   4.513910
    26  O    7.657848   7.085166   8.089431   8.950330   5.809096
    27  C    8.050702   7.732485   8.827860   9.671207   6.538435
    28  O    9.335189   8.997243  10.126956  10.945498   7.843555
    29  H   10.008760   9.621637  10.680282  11.536552   8.385714
                    6          7          8          9         10
     6  O    0.000000
     7  H    1.000145   0.000000
     8  C    5.768227   6.157210   0.000000
     9  O    6.612206   7.144683   1.434994   0.000000
    10  H    7.538790   8.041948   2.029803   0.999661   0.000000
    11  C    4.308774   4.706333   1.520371   2.527185   3.386990
    12  O    3.667031   4.310160   2.470374   3.037488   3.946621
    13  C    2.444357   3.247752   3.815541   4.361826   5.313683
    14  O    3.027397   3.980289   4.681699   4.953072   5.846967
    15  C    3.850224   4.841184   5.465022   5.431788   6.337063
    16  C    5.219396   6.191341   5.304096   4.889347   5.681228
    17  O    5.571450   6.459339   4.244012   3.620321   4.401437
    18  H    5.007890   5.836816   3.339783   2.931762   3.795452
    19  C    6.388919   7.364592   6.511662   5.887097   6.614357
    20  O    7.675427   8.641156   6.865552   5.973106   6.531551
    21  H    7.505273   8.437775   6.030774   5.053014   5.576022
    22  C    3.621961   4.489079   7.547019   7.762720   8.699195
    23  O    4.652517   5.381560   8.977486   9.188427  10.119869
    24  H    4.973460   5.679754   9.317311   9.555366  10.454543
    25  C    4.320994   5.296868   6.933450   6.915692   7.795886
    26  O    5.613267   6.576336   7.774425   7.528353   8.371543
    27  C    6.609683   7.600757   7.705538   7.212481   7.952848
    28  O    7.820375   8.792501   8.910040   8.306060   9.011632
    29  H    8.290302   9.259931   9.649259   9.076160   9.767454
                   11         12         13         14         15
    11  C    0.000000
    12  O    1.435132   0.000000
    13  C    2.491433   1.434795   0.000000
    14  O    3.623510   2.250288   1.434800   0.000000
    15  C    4.468846   3.209815   2.396328   1.434817   0.000000
    16  C    4.690168   3.502100   3.289040   2.402590   1.520371
    17  O    3.874835   2.999108   3.278730   2.949664   2.488441
    18  H    2.923777   2.043425   2.593195   2.545778   2.590647
    19  C    5.968677   4.909356   4.632999   3.799001   2.579376
    20  O    6.621818   5.688438   5.709793   4.938935   3.890695
    21  H    5.922945   5.118577   5.350949   4.761557   3.901706
    22  C    6.302563   5.115182   3.838990   3.034899   2.496396
    23  O    7.717989   6.537850   5.244235   4.427366   3.850166
    24  H    8.105069   6.852973   5.618972   4.665557   4.263056
    25  C    5.901444   4.598302   3.617440   2.470014   1.520301
    26  O    6.851122   5.614811   4.759033   3.693337   2.416709
    27  C    7.031897   5.819064   5.286531   4.187488   2.921070
    28  O    8.268838   7.132469   6.587102   5.569123   4.232136
    29  H    8.997499   7.792720   7.204616   6.079524   4.812341
                   16         17         18         19         20
    16  C    0.000000
    17  O    1.434446   0.000000
    18  H    2.002005   1.000080   0.000000
    19  C    1.518993   2.286988   3.186449   0.000000
    20  O    2.536382   2.748758   3.727552   1.435782   0.000000
    21  H    2.458576   2.141039   3.085750   1.873568   0.999916
    22  C    3.830103   4.960300   5.047638   4.333558   5.749232
    23  O    5.042516   6.263886   6.433506   5.283281   6.650625
    24  H    5.387124   6.679664   6.815143   5.710124   7.022212
    25  C    2.486630   3.789399   4.043018   2.973858   4.341862
    26  O    2.731202   4.043322   4.599969   2.403981   3.679206
    27  C    2.407456   3.614665   4.379696   1.519779   2.444041
    28  O    3.698953   4.706347   5.573760   2.421648   2.825658
    29  H    4.366619   5.482667   6.312205   3.231926   3.574461
                   21         22         23         24         25
    21  H    0.000000
    22  C    6.056138   0.000000
    23  O    7.108790   1.434040   0.000000
    24  H    7.502503   1.996851   0.999621   0.000000
    25  C    4.675676   1.520778   2.586377   2.911438   0.000000
    26  O    4.267755   2.470619   3.024117   3.444326   1.434907
    27  C    3.197710   3.811175   4.424814   4.730536   2.478958
    28  O    3.765924   4.781903   5.096658   5.451739   3.681165
    29  H    4.541708   5.042084   5.138262   5.356397   4.017785
                   26         27         28         29
    26  O    0.000000
    27  C    1.434503   0.000000
    28  O    2.328453   1.435303   0.000000
    29  H    2.687629   1.974915   0.960000   0.000000
 Stoichiometry    C12H7O10(2)
 Framework group  C1[X(C12H7O10)]
 Deg. of freedom    81
 Full point group                 C1      NOp   1
 Largest Abelian subgroup         C1      NOp   1
 Largest concise Abelian subgroup C1      NOp   1
                         Standard orientation:                         
 ---------------------------------------------------------------------
 Center     Atomic      Atomic             Coordinates (Angstroms)
 Number     Number       Type             X           Y           Z
 ---------------------------------------------------------------------
      1          6           0       -4.195983    0.277653   -0.165131
      2          6           0       -3.696640   -1.115236   -0.511986
      3          8           0       -4.631813   -2.034750    0.070701
      4          1           0       -5.507935   -1.953470   -0.404588
      5          6           0       -2.393905   -1.529611    0.152427
      6          8           0       -1.897017   -2.808524   -0.268403
      7          1           0       -2.707968   -3.361579   -0.460182
      8          6           0       -3.515148    2.713277    0.136321
      9          8           0       -2.547335    3.765598    0.013162
     10          1           0       -2.903937    4.637205    0.348509
     11          6           0       -3.108117    1.326019   -0.334177
     12          8           0       -1.961991    0.804644    0.354422
     13          6           0       -1.364188   -0.432059   -0.060108
     14          8           0       -0.196957   -0.528326    0.768720
     15          6           0        1.027230   -0.324089    0.048751
     16          6           0        1.528855    1.083860    0.327281
     17          8           0        0.678224    2.130862   -0.160420
     18          1           0       -0.272513    1.916866    0.064225
     19          6           0        2.859041    1.457262   -0.304001
     20          8           0        3.344997    2.796151   -0.123190
     21          1           0        2.478539    3.288954   -0.202115
     22          6           0        1.719532   -2.718427   -0.092175
     23          8           0        2.641221   -3.817028   -0.086117
     24          1           0        2.763440   -4.133345    0.854228
     25          6           0        2.108940   -1.333078    0.399692
     26          8           0        3.373196   -0.882917   -0.108216
     27          6           0        3.843623    0.429597    0.229133
     28          8           0        5.130487    0.620856   -0.377081
     29          1           0        5.806835    0.221830    0.175125
 ---------------------------------------------------------------------
 Rotational constants (GHZ):      0.3922332      0.1854468      0.1276745
 Standard basis: 6-31+G(2df,p) (6D, 7F)
 There are   739 symmetry adapted basis functions of A   symmetry.
 Integral buffers will be    131072 words long.
 Raffenetti 2 integral format.
 Two-electron integral symmetry is turned on.
   739 basis functions,  1105 primitive gaussians,   805 cartesian basis functions
    80 alpha electrons       79 beta electrons
       nuclear repulsion energy      1744.7386014511 Hartrees.
 NAtoms=   29 NActive=   29 NUniq=   29 SFac= 1.00D+00 NAtFMM=   50 NAOKFM=F Big=F
 One-electron integrals computed using PRISM.
 NBasis=   739 RedAO= T  NBF=   739
 NBsUse=   739 1.00D-06 NBFU=   739
 Harris functional with IExCor=  402 diagonalized for initial guess.
 ExpMin= 4.38D-02 ExpMax= 5.48D+03 ExpMxC= 8.25D+02 IAcc=2 IRadAn=         0 AccDes= 0.00D+00
 HarFok:  IExCor=  402 AccDes= 0.00D+00 IRadAn=         0 IDoV= 1
 ScaDFX=  1.000000  1.000000  1.000000  1.000000
 FoFCou: FMM=F IPFlag=           0 FMFlag=      100000 FMFlg1=           0
         NFxFlg=           0 DoJE=T BraDBF=F KetDBF=T FulRan=T
         Omega=  0.000000  0.000000  1.000000  0.000000  0.000000 ICntrl=     500 IOpCl=  0
         NMat0=    1 NMatS0=    1 NMatT0=    0 NMatD0=    1 NMtDS0=    0 NMtDT0=    0
         I1Cent=           4 NGrid=           0.
 Petite list used in FoFCou.
 Initial guess orbital symmetries:
 Alpha Orbitals:
       Occupied  (A) (A) (A) (A) (A) (A) (A) (A) (A) (A) (A) (A)
                 (A) (A) (A) (A) (A) (A) (A) (A) (A) (A) (A) (A)
                 (A) (A) (A) (A) (A) (A) (A) (A) (A) (A) (A) (A)
                 (A) (A) (A) (A) (A) (A) (A) (A) (A) (A) (A) (A)
                 (A) (A) (A) (A) (A) (A) (A) (A) (A) (A) (A) (A)
                 (A) (A) (A) (A) (A) (A) (A) (A) (A) (A) (A) (A)
                 (A) (A) (A) (A) (A) (A) (A) (A)
       Virtual   (A) (A) (A) (A) (A) (A) (A) (A) (A) (A) (A) (A)
                 (A) (A) (A) (A) (A) (A) (A) (A) (A) (A) (A) (A)
                 (A) (A) (A) (A) (A) (A) (A) (A) (A) (A) (A) (A)
                 (A) (A) (A) (A) (A) (A) (A) (A) (A) (A) (A) (A)
                 (A) (A) (A) (A) (A) (A) (A) (A) (A) (A) (A) (A)
                 (A) (A) (A) (A) (A) (A) (A) (A) (A) (A) (A) (A)
                 (A) (A) (A) (A) (A) (A) (A) (A) (A) (A) (A) (A)
                 (A) (A) (A) (A) (A) (A) (A) (A) (A) (A) (A) (A)
                 (A) (A) (A) (A) (A) (A) (A) (A) (A) (A) (A) (A)
                 (A) (A) (A) (A) (A) (A) (A) (A) (A) (A) (A) (A)
                 (A) (A) (A) (A) (A) (A) (A) (A) (A) (A) (A) (A)
                 (A) (A) (A) (A) (A) (A) (A) (A) (A) (A) (A) (A)
                 (A) (A) (A) (A) (A) (A) (A) (A) (A) (A) (A) (A)
                 (A) (A) (A) (A) (A) (A) (A) (A) (A) (A) (A) (A)
                 (A) (A) (A) (A) (A) (A) (A) (A) (A) (A) (A) (A)
                 (A) (A) (A) (A) (A) (A) (A) (A) (A) (A) (A) (A)
                 (A) (A) (A) (A) (A) (A) (A) (A) (A) (A) (A) (A)
                 (A) (A) (A) (A) (A) (A) (A) (A) (A) (A) (A) (A)
                 (A) (A) (A) (A) (A) (A) (A) (A) (A) (A) (A) (A)
                 (A) (A) (A) (A) (A) (A) (A) (A) (A) (A) (A) (A)
                 (A) (A) (A) (A) (A) (A) (A) (A) (A) (A) (A) (A)
                 (A) (A) (A) (A) (A) (A) (A) (A) (A) (A) (A) (A)
                 (A) (A) (A) (A) (A) (A) (A) (A) (A) (A) (A) (A)
                 (A) (A) (A) (A) (A) (A) (A) (A) (A) (A) (A) (A)
                 (A) (A) (A) (A) (A) (A) (A) (A) (A) (A) (A) (A)
                 (A) (A) (A) (A) (A) (A) (A) (A) (A) (A) (A) (A)
                 (A) (A) (A) (A) (A) (A) (A) (A) (A) (A) (A) (A)
                 (A) (A) (A) (A) (A) (A) (A) (A) (A) (A) (A) (A)
                 (A) (A) (A) (A) (A) (A) (A) (A) (A) (A) (A) (A)
                 (A) (A) (A) (A) (A) (A) (A) (A) (A) (A) (A) (A)
                 (A) (A) (A) (A) (A) (A) (A) (A) (A) (A) (A) (A)
                 (A) (A) (A) (A) (A) (A) (A) (A) (A) (A) (A) (A)
                 (A) (A) (A) (A) (A) (A) (A) (A) (A) (A) (A) (A)
                 (A) (A) (A) (A) (A) (A) (A) (A) (A) (A) (A) (A)
                 (A) (A) (A) (A) (A) (A) (A) (A) (A) (A) (A) (A)
                 (A) (A) (A) (A) (A) (A) (A) (A) (A) (A) (A) (A)
                 (A) (A) (A) (A) (A) (A) (A) (A) (A) (A) (A) (A)
                 (A) (A) (A) (A) (A) (A) (A) (A) (A) (A) (A) (A)
                 (A) (A) (A) (A) (A) (A) (A) (A) (A) (A) (A) (A)
                 (A) (A) (A) (A) (A) (A) (A) (A) (A) (A) (A) (A)
                 (A) (A) (A) (A) (A) (A) (A) (A) (A) (A) (A) (A)
                 (A) (A) (A) (A) (A) (A) (A) (A) (A) (A) (A) (A)
                 (A) (A) (A) (A) (A) (A) (A) (A) (A) (A) (A) (A)
                 (A) (A) (A) (A) (A) (A) (A) (A) (A) (A) (A) (A)
                 (A) (A) (A) (A) (A) (A) (A) (A) (A) (A) (A) (A)
                 (A) (A) (A) (A) (A) (A) (A) (A) (A) (A) (A) (A)
                 (A) (A) (A) (A) (A) (A) (A) (A) (A) (A) (A) (A)
                 (A) (A) (A) (A) (A) (A) (A) (A) (A) (A) (A) (A)
                 (A) (A) (A) (A) (A) (A) (A) (A) (A) (A) (A) (A)
                 (A) (A) (A) (A) (A) (A) (A) (A) (A) (A) (A) (A)
                 (A) (A) (A) (A) (A) (A) (A) (A) (A) (A) (A) (A)
                 (A) (A) (A) (A) (A) (A) (A) (A) (A) (A) (A) (A)
                 (A) (A) (A) (A) (A) (A) (A) (A) (A) (A) (A) (A)
                 (A) (A) (A) (A) (A) (A) (A) (A) (A) (A) (A) (A)
                 (A) (A) (A) (A) (A) (A) (A) (A) (A) (A) (A)
 Beta  Orbitals:
       Occupied  (A) (A) (A) (A) (A) (A) (A) (A) (A) (A) (A) (A)
                 (A) (A) (A) (A) (A) (A) (A) (A) (A) (A) (A) (A)
                 (A) (A) (A) (A) (A) (A) (A) (A) (A) (A) (A) (A)
                 (A) (A) (A) (A) (A) (A) (A) (A) (A) (A) (A) (A)
                 (A) (A) (A) (A) (A) (A) (A) (A) (A) (A) (A) (A)
                 (A) (A) (A) (A) (A) (A) (A) (A) (A) (A) (A) (A)
                 (A) (A) (A) (A) (A) (A) (A)
       Virtual   (A) (A) (A) (A) (A) (A) (A) (A) (A) (A) (A) (A)
                 (A) (A) (A) (A) (A) (A) (A) (A) (A) (A) (A) (A)
                 (A) (A) (A) (A) (A) (A) (A) (A) (A) (A) (A) (A)
                 (A) (A) (A) (A) (A) (A) (A) (A) (A) (A) (A) (A)
                 (A) (A) (A) (A) (A) (A) (A) (A) (A) (A) (A) (A)
                 (A) (A) (A) (A) (A) (A) (A) (A) (A) (A) (A) (A)
                 (A) (A) (A) (A) (A) (A) (A) (A) (A) (A) (A) (A)
                 (A) (A) (A) (A) (A) (A) (A) (A) (A) (A) (A) (A)
                 (A) (A) (A) (A) (A) (A) (A) (A) (A) (A) (A) (A)
                 (A) (A) (A) (A) (A) (A) (A) (A) (A) (A) (A) (A)
                 (A) (A) (A) (A) (A) (A) (A) (A) (A) (A) (A) (A)
                 (A) (A) (A) (A) (A) (A) (A) (A) (A) (A) (A) (A)
                 (A) (A) (A) (A) (A) (A) (A) (A) (A) (A) (A) (A)
                 (A) (A) (A) (A) (A) (A) (A) (A) (A) (A) (A) (A)
                 (A) (A) (A) (A) (A) (A) (A) (A) (A) (A) (A) (A)
                 (A) (A) (A) (A) (A) (A) (A) (A) (A) (A) (A) (A)
                 (A) (A) (A) (A) (A) (A) (A) (A) (A) (A) (A) (A)
                 (A) (A) (A) (A) (A) (A) (A) (A) (A) (A) (A) (A)
                 (A) (A) (A) (A) (A) (A) (A) (A) (A) (A) (A) (A)
                 (A) (A) (A) (A) (A) (A) (A) (A) (A) (A) (A) (A)
                 (A) (A) (A) (A) (A) (A) (A) (A) (A) (A) (A) (A)
                 (A) (A) (A) (A) (A) (A) (A) (A) (A) (A) (A) (A)
                 (A) (A) (A) (A) (A) (A) (A) (A) (A) (A) (A) (A)
                 (A) (A) (A) (A) (A) (A) (A) (A) (A) (A) (A) (A)
                 (A) (A) (A) (A) (A) (A) (A) (A) (A) (A) (A) (A)
                 (A) (A) (A) (A) (A) (A) (A) (A) (A) (A) (A) (A)
                 (A) (A) (A) (A) (A) (A) (A) (A) (A) (A) (A) (A)
                 (A) (A) (A) (A) (A) (A) (A) (A) (A) (A) (A) (A)
                 (A) (A) (A) (A) (A) (A) (A) (A) (A) (A) (A) (A)
                 (A) (A) (A) (A) (A) (A) (A) (A) (A) (A) (A) (A)
                 (A) (A) (A) (A) (A) (A) (A) (A) (A) (A) (A) (A)
                 (A) (A) (A) (A) (A) (A) (A) (A) (A) (A) (A) (A)
                 (A) (A) (A) (A) (A) (A) (A) (A) (A) (A) (A) (A)
                 (A) (A) (A) (A) (A) (A) (A) (A) (A) (A) (A) (A)
                 (A) (A) (A) (A) (A) (A) (A) (A) (A) (A) (A) (A)
                 (A) (A) (A) (A) (A) (A) (A) (A) (A) (A) (A) (A)
                 (A) (A) (A) (A) (A) (A) (A) (A) (A) (A) (A) (A)
                 (A) (A) (A) (A) (A) (A) (A) (A) (A) (A) (A) (A)
                 (A) (A) (A) (A) (A) (A) (A) (A) (A) (A) (A) (A)
                 (A) (A) (A) (A) (A) (A) (A) (A) (A) (A) (A) (A)
                 (A) (A) (A) (A) (A) (A) (A) (A) (A) (A) (A) (A)
                 (A) (A) (A) (A) (A) (A) (A) (A) (A) (A) (A) (A)
                 (A) (A) (A) (A) (A) (A) (A) (A) (A) (A) (A) (A)
                 (A) (A) (A) (A) (A) (A) (A) (A) (A) (A) (A) (A)
                 (A) (A) (A) (A) (A) (A) (A) (A) (A) (A) (A) (A)
                 (A) (A) (A) (A) (A) (A) (A) (A) (A) (A) (A) (A)
                 (A) (A) (A) (A) (A) (A) (A) (A) (A) (A) (A) (A)
                 (A) (A) (A) (A) (A) (A) (A) (A) (A) (A) (A) (A)
                 (A) (A) (A) (A) (A) (A) (A) (A) (A) (A) (A) (A)
                 (A) (A) (A) (A) (A) (A) (A) (A) (A) (A) (A) (A)
                 (A) (A) (A) (A) (A) (A) (A) (A) (A) (A) (A) (A)
                 (A) (A) (A) (A) (A) (A) (A) (A) (A) (A) (A) (A)
                 (A) (A) (A) (A) (A) (A) (A) (A) (A) (A) (A) (A)
                 (A) (A) (A) (A) (A) (A) (A) (A) (A) (A) (A) (A)
                 (A) (A) (A) (A) (A) (A) (A) (A) (A) (A) (A) (A)
 The electronic state of the initial guess is 2-A.
 Initial guess <Sx>= 0.0000 <Sy>= 0.0000 <Sz>= 0.5000 <S**2>= 0.7500 S= 0.5000
 Requested convergence on RMS density matrix=1.00D-08 within 128 cycles.
 Requested convergence on MAX density matrix=1.00D-06.
 Requested convergence on             energy=1.00D-06.
 No special actions if energy rises.
 Rare condition: small coef for last iteration:  0.000D+00
 EnCoef did   100 forward-backward iterations
