Gaussian '09 started on node008 at Mon Feb 29 14:22:26 EST 2016.
 Entering Gaussian System, Link 0=/usr/local/gaussian/g09/g09
 Initial command:
 /usr/local/gaussian/g09/l1.exe /home/srmcgrat/thesis/gaussian/cellobiose/310/8000/2/gdp/gaussian15194/Gau-15230.inp -scrdir=/home/srmcgrat/thesis/gaussian/cellobiose/310/8000/2/gdp/gaussian15194/
 Entering Link 1 = /usr/local/gaussian/g09/l1.exe PID=     15232.
  
 Copyright (c) 1988,1990,1992,1993,1995,1998,2003,2009,2010,
            Gaussian, Inc.  All Rights Reserved.
  
 This is part of the Gaussian(R) 09 program.  It is based on
 the Gaussian(R) 03 system (copyright 2003, Gaussian, Inc.),
 the Gaussian(R) 98 system (copyright 1998, Gaussian, Inc.),
 the Gaussian(R) 94 system (copyright 1995, Gaussian, Inc.),
 the Gaussian 92(TM) system (copyright 1992, Gaussian, Inc.),
 the Gaussian 90(TM) system (copyright 1990, Gaussian, Inc.),
 the Gaussian 88(TM) system (copyright 1988, Gaussian, Inc.),
 the Gaussian 86(TM) system (copyright 1986, Carnegie Mellon
 University), and the Gaussian 82(TM) system (copyright 1983,
 Carnegie Mellon University). Gaussian is a federally registered
 trademark of Gaussian, Inc.
  
 This software contains proprietary and confidential information,
 including trade secrets, belonging to Gaussian, Inc.
  
 This software is provided under written license and may be
 used, copied, transmitted, or stored only in accord with that
 written license.
  
 The following legend is applicable only to US Government
 contracts under FAR:
  
                    RESTRICTED RIGHTS LEGEND
  
 Use, reproduction and disclosure by the US Government is
 subject to restrictions as set forth in subparagraphs (a)
 and (c) of the Commercial Computer Software - Restricted
 Rights clause in FAR 52.227-19.
  
 Gaussian, Inc.
 340 Quinnipiac St., Bldg. 40, Wallingford CT 06492
  
  
 ---------------------------------------------------------------
 Warning -- This program may not be used in any manner that
 competes with the business of Gaussian, Inc. or will provide
 assistance to any competitor of Gaussian, Inc.  The licensee
 of this program is prohibited from giving any competitor of
 Gaussian, Inc. access to this program.  By using this program,
 the user acknowledges that Gaussian, Inc. is engaged in the
 business of creating and licensing software in the field of
 computational chemistry and represents and warrants to the
 licensee that it is not a competitor of Gaussian, Inc. and that
 it will not use this program in any manner prohibited above.
 ---------------------------------------------------------------
  

 Cite this work as:
 Gaussian 09, Revision B.01,
 M. J. Frisch, G. W. Trucks, H. B. Schlegel, G. E. Scuseria, 
 M. A. Robb, J. R. Cheeseman, G. Scalmani, V. Barone, B. Mennucci, 
 G. A. Petersson, H. Nakatsuji, M. Caricato, X. Li, H. P. Hratchian, 
 A. F. Izmaylov, J. Bloino, G. Zheng, J. L. Sonnenberg, M. Hada, 
 M. Ehara, K. Toyota, R. Fukuda, J. Hasegawa, M. Ishida, T. Nakajima, 
 Y. Honda, O. Kitao, H. Nakai, T. Vreven, J. A. Montgomery, Jr., 
 J. E. Peralta, F. Ogliaro, M. Bearpark, J. J. Heyd, E. Brothers, 
 K. N. Kudin, V. N. Staroverov, T. Keith, R. Kobayashi, J. Normand, 
 K. Raghavachari, A. Rendell, J. C. Burant, S. S. Iyengar, J. Tomasi, 
 M. Cossi, N. Rega, J. M. Millam, M. Klene, J. E. Knox, J. B. Cross, 
 V. Bakken, C. Adamo, J. Jaramillo, R. Gomperts, R. E. Stratmann, 
 O. Yazyev, A. J. Austin, R. Cammi, C. Pomelli, J. W. Ochterski, 
 R. L. Martin, K. Morokuma, V. G. Zakrzewski, G. A. Voth, 
 P. Salvador, J. J. Dannenberg, S. Dapprich, A. D. Daniels, 
 O. Farkas, J. B. Foresman, J. V. Ortiz, J. Cioslowski, 
 and D. J. Fox, Gaussian, Inc., Wallingford CT, 2010.
 
 ******************************************
 Gaussian 09:  EM64L-G09RevB.01 12-Aug-2010
                29-Feb-2016 
 ******************************************
 ------------------------------------------------
 # freq=raman b3lyp/6-31+g(d,p) geom=connectivity
 ------------------------------------------------
 1/10=4,30=1,38=1,57=2/1,3;
 2/12=2,17=6,18=5,40=1/2;
 3/5=1,6=6,7=111,11=2,16=1,25=1,30=1,71=2,74=-5/1,2,3;
 4//1;
 5/5=2,38=5,98=1/2;
 8/6=4,10=90,11=11/1;
 10/13=10,15=4/2;
 11/6=3,8=1,9=11,15=111,16=1/1,2,10;
 10/6=1/2;
 6/7=2,8=2,9=2,10=2,18=1,28=1/1;
 7/8=1,10=1,25=1/1,2,3,16;
 1/10=4,30=1/3;
 99//99;
 ------------
 310 8000.com
 ------------
 Symbolic Z-matrix:
 Charge =  0 Multiplicity = 1
 O                     7.551     7.545     22.767 
 C                     8.103     7.914     24.039 
 C                     7.489     9.21      24.542 
 O                     7.686     10.335    23.673 
 H                     7.449     10.07     22.739 
 C                     8.155     9.593     25.854 
 O                     7.6       10.737    26.519 
 H                     8.152     10.91     27.335 
 C                     8.228     5.416     24.796 
 O                     7.723     4.664     23.682 
 H                     7.945     3.693     23.771 
 C                     7.817     6.85      25.086 
 O                     8.518     7.191     26.291 
 C                     8.024     8.429     26.823 
 O                     8.755     8.775     28.009 
 C                     8.061     8.374     29.199 
 C                     8.6       7.074     29.774 
 O                     8.74      5.997     28.835 
 H                     9.211     6.33      28.018 
 C                     7.898     6.677     31.062 
 O                     8.237     5.383     31.583 
 H                     8.121     5.391     32.576 
 C                     8.182     10.769    30.019 
 O                     8.66      11.466    28.859 
 H                     8.449     12.438    28.956 
 C                     8.536     9.316     30.293 
 O                     7.768     9.039     31.473 
 C                     8.28      7.808     32.003 
 O                     7.68      7.504     33.271 
 H                     8.26334   7.3657    22.14891 
 H                     8.36846   7.34802   33.92161 
 H                     9.34407   7.86231   32.10157 
 H                     6.84108   6.71066   30.89866 
 H                     9.602     7.30441   30.07033 
 H                     6.99667   8.37359   29.08897 
 H                     9.58337   9.20058   30.479 
 H                     8.50725   11.33005   30.87008 
 H                     7.1138    10.82506   29.99245 
 H                     9.19373   9.77321   25.67106 
 H                     6.4412    9.06645   24.70451 
 H                     9.16126   8.03873   23.94194 
 H                     6.99183   8.30686   27.0772 
 H                     6.76724   6.86069   25.29288 
 H                     7.99404   4.85066   25.67381 
 H                     9.2937    5.42003   24.70029 
 

 GradGradGradGradGradGradGradGradGradGradGradGradGradGradGradGradGradGrad
 Berny optimization.
 Initialization pass.
 Trust Radius=3.00D-01 FncErr=1.00D-07 GrdErr=1.00D-07
 Number of steps in this run=      2 maximum allowed number of steps=      2.
 GradGradGradGradGradGradGradGradGradGradGradGradGradGradGradGradGradGrad

                          Input orientation:                          
 ---------------------------------------------------------------------
 Center     Atomic      Atomic             Coordinates (Angstroms)
 Number     Number       Type             X           Y           Z
 ---------------------------------------------------------------------
      1          8           0        7.551000    7.545000   22.767000
      2          6           0        8.103000    7.914000   24.039000
      3          6           0        7.489000    9.210000   24.542000
      4          8           0        7.686000   10.335000   23.673000
      5          1           0        7.449000   10.070000   22.739000
      6          6           0        8.155000    9.593000   25.854000
      7          8           0        7.600000   10.737000   26.519000
      8          1           0        8.152000   10.910000   27.335000
      9          6           0        8.228000    5.416000   24.796000
     10          8           0        7.723000    4.664000   23.682000
     11          1           0        7.945000    3.693000   23.771000
     12          6           0        7.817000    6.850000   25.086000
     13          8           0        8.518000    7.191000   26.291000
     14          6           0        8.024000    8.429000   26.823000
     15          8           0        8.755000    8.775000   28.009000
     16          6           0        8.061000    8.374000   29.199000
     17          6           0        8.600000    7.074000   29.774000
     18          8           0        8.740000    5.997000   28.835000
     19          1           0        9.211000    6.330000   28.018000
     20          6           0        7.898000    6.677000   31.062000
     21          8           0        8.237000    5.383000   31.583000
     22          1           0        8.121000    5.391000   32.576000
     23          6           0        8.182000   10.769000   30.019000
     24          8           0        8.660000   11.466000   28.859000
     25          1           0        8.449000   12.438000   28.956000
     26          6           0        8.536000    9.316000   30.293000
     27          8           0        7.768000    9.039000   31.473000
     28          6           0        8.280000    7.808000   32.003000
     29          8           0        7.680000    7.504000   33.271000
     30          1           0        8.263335    7.365697   22.148915
     31          1           0        8.368461    7.348018   33.921608
     32          1           0        9.344065    7.862307   32.101567
     33          1           0        6.841077    6.710658   30.898660
     34          1           0        9.601997    7.304406   30.070334
     35          1           0        6.996672    8.373590   29.088969
     36          1           0        9.583370    9.200580   30.478998
     37          1           0        8.507249   11.330053   30.870077
     38          1           0        7.113800   10.825063   29.992450
     39          1           0        9.193729    9.773207   25.671060
     40          1           0        6.441201    9.066446   24.704513
     41          1           0        9.161264    8.038730   23.941940
     42          1           0        6.991835    8.306864   27.077200
     43          1           0        6.767244    6.860694   25.292879
     44          1           0        7.994038    4.850658   25.673810
     45          1           0        9.293703    5.420033   24.700291
 ---------------------------------------------------------------------
                    Distance matrix (angstroms):
                    1          2          3          4          5
     1  O    0.000000
     2  C    1.434869   0.000000
     3  C    2.434480   1.519744   0.000000
     4  O    2.936522   2.483764   1.435129   0.000000
     5  H    2.527214   2.601164   1.998001   0.999375   0.000000
     6  C    3.753490   2.473049   1.520391   2.351018   3.229426
     7  O    4.926334   3.791139   2.500516   2.875538   3.841366
     8  H    5.705353   4.454440   3.336228   3.736044   4.724725
     9  C    3.017915   2.613174   3.873638   5.074589   5.147602
    10  O    3.027700   3.291557   4.632545   5.671128   5.494466
    11  H    4.000144   4.232450   5.589246   6.647770   6.478979
    12  C    2.435476   1.519902   2.443997   3.762839   4.001529
    13  O    3.671373   2.401345   2.862552   4.175031   4.695541
    14  C    4.178076   2.832335   2.469645   3.697240   4.438757
    15  O    5.517344   4.114283   3.716459   4.730461   5.581717
    16  C    6.505226   5.180634   4.765892   5.875612   6.706904
    17  C    7.100725   5.817459   5.759396   6.977945   7.732531
    18  O    6.374218   5.204063   5.506198   6.824617   7.444275
    19  H    5.639577   4.423704   4.831383   6.102842   6.705228
    20  C    8.347506   7.134054   7.006695   8.247620   8.999243
    21  O    9.103115   7.958383   8.048672   9.348476  10.040182
    22  H   10.058881   8.902035   8.917922  10.192927  10.913807
    23  C    7.961397   6.627041   5.736572   6.380132   7.350122
    24  O    7.329160   6.013265   5.009717   5.396520   6.392944
    25  H    7.940502   6.690529   5.552025   5.737148   6.727445
    26  C    7.794058   6.423831   5.846490   6.751686   7.668963
    27  O    8.835924   7.526102   6.938721   7.907360   8.800425
    28  C    9.268458   7.966672   7.632680   8.725105   9.572299
    29  O   10.504872   9.250776   8.896199  10.006808  10.842543
    30  H    0.960000   1.974529   3.118959   3.387169   2.885238
    31  H   11.186256   9.902361   9.602993  10.696812  11.545792
    32  H    9.510516   8.157690   7.899658   8.938911   9.804226
    33  H    8.205121   7.077812   6.861023   8.127725   8.845044
    34  H    7.589675   6.244645   6.217598   7.333582   8.126030
    35  H    6.400089   5.190123   4.649398   5.801295   6.588211
    36  H    8.145329   6.732040   6.295587   7.156014   8.075828
    37  H    8.994493   7.648297   6.751001   7.311805   8.295905
    38  H    7.947144   6.700476   5.697071   6.364199   7.300344
    39  H    4.012111   2.703694   2.120868   2.565366   3.424784
    40  H    2.701927   2.128994   1.070000   2.054938   2.426112
    41  H    2.053583   1.070000   2.128007   2.742552   2.916328
    42  H    4.412588   3.258787   2.736799   4.022907   4.705065
    43  H    2.731778   2.113270   2.569823   3.941944   4.157732
    44  H    3.988146   3.473980   4.532099   5.846036   6.012629
    45  H    3.360077   2.841646   4.200698   5.272280   5.373247
                    6          7          8          9         10
     6  C    0.000000
     7  O    1.434917   0.000000
     8  H    1.981883   1.000244   0.000000
     9  C    4.309527   5.628157   6.052795   0.000000
    10  O    5.403633   6.704105   7.248515   1.435801   0.000000
    11  H    6.260430   7.568914   8.051710   2.024708   1.000023
    12  C    2.868469   4.148415   4.653367   1.519663   2.599740
    13  O    2.468267   3.669990   3.880058   2.338750   3.718149
    14  C    1.520203   2.366232   2.536511   3.637102   4.912403
    15  O    2.381837   2.720950   2.318644   4.678032   6.057085
    16  C    3.561435   3.602595   3.148662   5.306982   6.656999
    17  C    4.680789   5.001259   4.567748   5.260022   6.609818
    18  O    4.707420   5.397319   5.170427   4.112569   5.418910
    19  H    4.055268   4.925847   4.750197   3.490411   4.877560
    20  C    5.974309   6.100103   5.645647   6.400139   7.651614
    21  O    7.110012   7.396971   6.971403   6.787086   7.950280
    22  H    7.927373   8.095579   7.611071   7.780776   8.932534
    23  C    4.327924   3.548203   2.687868   7.479068   8.811315
    24  O    3.576755   2.670326   1.699934   7.300486   8.599215
    25  H    4.219344   3.090820   2.247362   8.164737   9.422167
    26  C    4.463923   4.139857   3.382020   6.746990   8.124493
    27  O    5.659492   5.239613   4.557537   7.610523   8.935454
    28  C    6.404065   6.254254   5.606158   7.593762   8.912577
    29  O    7.720197   7.486534   6.860008   8.745609  10.000818
    30  H    4.324381   5.559077   6.282512   3.287800   3.153011
    31  H    8.376862   8.177673   7.491193   9.328942  10.605195
    32  H    6.590999   6.516953   5.781835   7.784685   9.151291
    33  H    5.956751   5.997401   5.661508   6.390787   7.552932
    34  H    5.010882   5.329416   4.752352   5.768236   7.163323
    35  H    3.646054   3.543226   3.293109   5.356594   6.597267
    36  H    4.856423   4.687849   3.854304   6.961073   8.380974
    37  H    5.320006   4.484048   3.577627   8.482241   9.834621
    38  H    4.441717   3.508419   2.854315   7.583041   8.840340
    39  H    1.070000   2.046429   2.268522   4.547925   5.676566
    40  H    2.129715   2.725056   3.639366   4.065314   4.697879
    41  H    2.661634   4.044681   4.558033   2.911891   3.677631
    42  H    2.122103   2.566518   2.861602   3.884465   5.033134
    43  H    3.115480   4.150012   4.741802   2.113726   2.886843
    44  H    4.748493   5.959751   6.284912   1.070000   2.018814
    45  H    4.476756   5.869112   6.195556   1.070000   2.018814
                   11         12         13         14         15
    11  H    0.000000
    12  C    3.422318   0.000000
    13  O    4.349107   1.435168   0.000000
    14  C    5.634771   2.356535   1.435167   0.000000
    15  O    6.666593   3.623451   2.348776   1.435504   0.000000
    16  C    7.168570   4.393049   3.172507   2.376924   1.434760
    17  C    6.920708   4.758215   3.485929   3.297909   2.456146
    18  O    5.620012   3.954053   2.819017   3.236576   2.898238
    19  H    5.156892   3.287896   2.050390   2.691244   2.487176
    20  C    7.878144   5.979052   4.838495   4.588518   3.802218
    21  O    7.998044   6.673792   5.599383   5.655182   4.954540
    22  H    8.968958   7.636832   6.549720   6.506601   5.719344
    23  C    9.442640   6.310806   5.178124   3.964212   2.888679
    24  O    9.317644   6.021099   4.989029   3.711221   2.823651
    25  H   10.179060   6.826571   5.885405   4.560964   3.795789
    26  C    8.631564   5.806115   4.531220   3.617985   2.357392
    27  O    9.377198   6.751881   5.552542   4.696822   3.611532
    28  C    9.209304   6.998359   5.750155   5.223368   4.136756
    29  O   10.239333   8.212229   7.037088   6.523087   5.519032
    30  H    4.027555   3.015233   4.153582   4.799476   6.047187
    31  H   10.796913   8.866798   7.633688   7.188700   6.094639
    32  H    9.420130   7.250853   5.907260   5.470556   4.234278
    33  H    7.818468   5.895664   4.926797   4.578538   4.034197
    34  H    7.447785   5.313783   3.933355   3.781530   2.670047
    35  H    7.147590   4.360967   3.397292   2.488592   2.102184
    36  H    8.832606   6.142452   4.765790   4.048863   2.639736
    37  H   10.442107   7.348664   6.172506   5.002847   3.843884
    38  H    9.500719   6.353650   5.373912   4.076150   3.290953
    39  H    6.491416   3.283721   2.740206   2.121821   2.579702
    40  H    5.657453   2.636472   3.216727   2.720216   4.044532
    41  H    4.515959   2.128144   2.578859   3.121888   4.153086
    42  H    5.755625   2.601582   2.047545   1.070000   2.048452
    43  H    3.706415   1.070000   2.042178   2.525923   3.872086
    44  H    2.227838   2.091466   2.476420   3.758466   4.629539
    45  H    2.380173   2.091466   2.503676   3.895115   4.742738
                   16         17         18         19         20
    16  C    0.000000
    17  C    1.520245   0.000000
    18  O    2.498733   1.435705   0.000000
    19  H    2.625871   2.002597   1.000109   0.000000
    20  C    2.525301   1.519657   2.476064   3.333214   0.000000
    21  O    3.828905   2.502745   2.860334   3.815064   1.435548
    22  H    4.506220   3.303503   3.839984   4.779664   1.998930
    23  C    2.534377   3.726630   4.948253   4.976702   4.232372
    24  O    3.167786   4.486701   5.469638   5.233486   5.326197
    25  H    4.089705   5.428114   6.448706   6.226408   6.158568
    26  C    1.519811   2.302177   3.630860   3.814111   2.821830
    27  O    2.387289   2.727646   4.142172   4.621467   2.401013
    28  C    2.868925   2.368459   3.677981   4.351031   1.520055
    29  O    4.181297   3.641471   4.803410   5.596092   2.368783
    30  H    7.124697   7.638086   6.841365   6.034641   8.947115
    31  H    4.842541   4.163094   5.276066   6.049696   2.974720
    32  H    3.214495   2.567611   3.809819   4.363621   2.139336
    33  H    2.672782   2.119125   2.893771   3.749619   1.070000
    34  H    2.068315   1.070000   1.994593   2.305303   2.068972
    35  H    1.070000   2.174594   2.958356   3.197887   2.753844
    36  H    2.153889   2.446708   3.698233   3.799395   3.090116
    37  H    3.424893   4.395905   5.712895   5.799150   4.696693
    38  H    2.744898   4.040667   5.224406   5.338754   4.354921
    39  H    3.960709   4.946954   4.947335   4.167025   6.350405
    40  H    4.827385   5.859177   5.636213   5.112643   6.946176
    41  H    5.381418   5.937899   5.318661   4.420011   7.358355
    42  H    2.376900   3.373259   3.388423   3.117337   4.399570
    43  H    4.384254   4.846126   4.145402   3.698630   5.881761
    44  H    4.984514   4.703402   3.444369   3.027321   5.690109
    45  H    5.521219   5.381390   4.211330   3.441231   6.633196
                   21         22         23         24         25
    21  O    0.000000
    22  H    0.999784   0.000000
    23  C    5.608754   5.955238   0.000000
    24  O    6.678472   7.142285   1.435233   0.000000
    25  H    7.531208   7.929199   1.996702   0.999357   0.000000
    26  C    4.149939   4.559599   1.520395   2.587321   3.397355
    27  O    3.687600   3.827417   2.297479   3.676818   4.283953
    28  C    2.461478   2.489076   3.565583   4.838398   5.545238
    29  O    2.767351   2.267658   4.635486   6.010290   6.599617
    30  H    9.640215  10.613378   8.574808   7.873695   8.491121
    31  H    3.057396   2.387848   5.193095   6.532440   7.111376
    32  H    2.764321   2.797916   3.759833   4.895793   5.624296
    33  H    2.044407   2.488608   4.363716   5.484704   6.257939
    34  H    2.800567   3.483222   3.744655   4.435488   5.378190
    35  H    4.086836   4.724335   2.829831   3.518884   4.318143
    36  H    4.195885   4.587902   2.152992   2.934132   3.753292
    37  H    5.995727   6.191261   1.070000   2.021446   2.212381
    38  H    5.779920   6.100674   1.070000   2.021446   2.336355
    39  H    7.425650   8.248193   4.573814   3.648750   4.294947
    40  H    8.006638   8.848216   5.845754   5.285895   5.785652
    41  H    8.142049   9.090633   6.733795   6.014559   6.708330
    42  H    5.513769   6.325668   4.016565   3.992208   4.766498
    43  H    6.626416   7.552252   6.293855   6.124425   6.881359
    44  H    5.938092   6.924472   7.344574   7.372359   8.279343
    45  H    6.963453   7.962592   7.624697   7.365471   8.250845
                   26         27         28         29         30
    26  C    0.000000
    27  O    1.434905   0.000000
    28  C    2.294275   1.434714   0.000000
    29  O    3.589507   2.365750   1.435354   0.000000
    30  H    8.378792   9.485982   9.864021  11.138231   0.000000
    31  H    4.131322   3.035730   1.974960   0.960000  11.773176
    32  H    2.457053   2.064869   1.070000   2.065205  10.023466
    33  H    3.166607   2.571037   2.119959   2.638405   8.888753
    34  H    2.287453   2.887877   2.395095   3.738739   8.033969
    35  H    2.169644   2.592550   3.233944   4.325795   7.126334
    36  H    1.070000   2.075985   2.441441   3.781068   8.631314
    37  H    2.095294   2.481719   3.706753   4.592108   9.583021
    38  H    2.095294   2.410400   3.808544   4.700950   8.649260
    39  H    4.690839   6.019491   6.692563   8.074637   4.366606
    40  H    5.973411   6.897359   7.631040   8.795485   3.569846
    41  H    6.508328   7.723897   8.112370   9.461048   2.115228
    42  H    3.707313   4.523440   5.115832   6.283416   5.175954
    43  H    5.844505   6.628757   6.943453   8.055891   3.518213
    44  H    6.447473   7.157087   6.991873   8.053331   4.338528
    45  H    6.857920   7.829066   7.749809   8.966828   3.369983
                   31         32         33         34         35
    31  H    0.000000
    32  H    2.128109   0.000000
    33  H    3.446353   3.006366   0.000000
    34  H    4.044234   2.122189   2.943016   0.000000
    35  H    5.127182   3.853233   2.462627   2.982273   0.000000
    36  H    4.093843   2.116831   3.727734   1.939801   3.050753
    37  H    5.018736   3.773870   4.910780   4.247811   3.767607
    38  H    5.394655   4.266191   4.221839   4.311870   2.615285
    39  H    8.639106   6.710109   6.499383   5.061153   4.297451
    40  H    9.571947   8.036976   6.639058   6.472052   4.473484
    41  H   10.034909   8.163581   7.452717   6.187947   5.593702
    42  H    7.047014   5.565508   4.144171   4.095940   2.012881
    43  H    8.789559   7.348569   5.608275   5.572862   4.092896
    44  H    8.625727   7.225556   5.664625   5.285436   5.006905
    45  H    9.466039   7.793980   6.789762   5.699410   5.767179
                   36         37         38         39         40
    36  H    0.000000
    37  H    2.417775   0.000000
    38  H    2.995738   1.722482   0.000000
    39  H    4.857570   5.470356   4.909880   0.000000
    40  H    6.575400   6.885249   5.613146   3.001689   0.000000
    41  H    6.652909   7.698028   6.968819   2.449352   3.006070
    42  H    4.368868   5.081542   3.854204   2.995953   2.551432
    43  H    6.348343   7.355809   6.158108   3.809670   2.306040
    44  H    6.673652   8.321486   7.424216   5.066632   4.596053
    45  H    6.911577   8.579809   7.872311   4.461224   4.629591
                   41         42         43         44         45
    41  H    0.000000
    42  H    3.822064   0.000000
    43  H    2.990674   2.307737   0.000000
    44  H    3.811245   3.862547   2.385451   0.000000
    45  H    2.729507   4.391137   2.968107   1.720772   0.000000
 Stoichiometry    C12H22O11
 Framework group  C1[X(C12H22O11)]
 Deg. of freedom   129
 Full point group                 C1      NOp   1
 Largest Abelian subgroup         C1      NOp   1
 Largest concise Abelian subgroup C1      NOp   1
                         Standard orientation:                         
 ---------------------------------------------------------------------
 Center     Atomic      Atomic             Coordinates (Angstroms)
 Number     Number       Type             X           Y           Z
 ---------------------------------------------------------------------
      1          8           0        5.018676   -0.360765   -0.346652
      2          6           0        3.712267   -0.043721    0.154972
      3          6           0        3.191728    1.244155   -0.461500
      4          8           0        4.012278    2.394571   -0.210831
      5          1           0        4.964132    2.165043   -0.410931
      6          6           0        1.840017    1.572028    0.152474
      7          8           0        1.160426    2.701605   -0.414271
      8          1           0        0.316072    2.838175    0.104288
      9          6           0        3.036997   -2.567517    0.211027
     10          8           0        4.196809   -3.273373   -0.256014
     11          1           0        4.131844   -4.250228   -0.052101
     12          6           0        2.715698   -1.137773   -0.191438
     13          8           0        1.470771   -0.848815    0.461531
     14          6           0        0.918134    0.378215   -0.037159
     15          8           0       -0.309278    0.672335    0.646673
     16          6           0       -1.453971    0.242475   -0.103950
     17          6           0       -2.006457   -1.084588    0.390830
     18          8           0       -1.037816   -2.131371    0.555847
     19          1           0       -0.253672   -1.778511    1.066559
     20          6           0       -3.248798   -1.513631   -0.371974
     21          8           0       -3.739008   -2.829699   -0.074559
     22          1           0       -4.725817   -2.853376   -0.233352
     23          6           0       -2.360310    2.606211    0.015918
     24          8           0       -1.246507    3.334283    0.553734
     25          1           0       -1.367766    4.305685    0.352763
     26          6           0       -2.599066    1.139352    0.336729
     27          8           0       -3.734872    0.834919   -0.485596
     28          6           0       -4.243643   -0.421245   -0.014844
     29          8           0       -5.473581   -0.758298   -0.673546
     30          1           0        5.611497   -0.530398    0.389139
     31          1           0       -6.147318   -0.947065   -0.016245
     32          1           0       -4.389489   -0.387206    1.044624
     33          1           0       -3.041609   -1.457694   -1.420231
     34          1           0       -2.353172   -0.880261    1.382263
     35          1           0       -1.298522    0.262687   -1.162405
     36          1           0       -2.825656    1.001097    1.373282
     37          1           0       -3.243331    3.132984    0.312036
     38          1           0       -2.289993    2.680100   -1.049209
     39          1           0        1.972006    1.741784    1.200645
     40          1           0        3.079262    1.111861   -1.517317
     41          1           0        3.759578    0.067387    1.218136
     42          1           0        0.712713    0.263981   -1.081024
     43          1           0        2.553710   -1.117393   -1.248909
     44          1           0        2.189979   -3.158374   -0.068879
     45          1           0        3.086793   -2.577186    1.279824
 ---------------------------------------------------------------------
 Rotational constants (GHZ):      0.4014066      0.1493945      0.1121325
 Standard basis: 6-31+G(d,p) (6D, 7F)
 There are   547 symmetry adapted basis functions of A   symmetry.
 Integral buffers will be    131072 words long.
 Raffenetti 2 integral format.
 Two-electron integral symmetry is turned on.
   547 basis functions,   890 primitive gaussians,   547 cartesian basis functions
    91 alpha electrons       91 beta electrons
       nuclear repulsion energy      2297.6374328914 Hartrees.
 NAtoms=   45 NActive=   45 NUniq=   45 SFac= 1.00D+00 NAtFMM=   50 NAOKFM=F Big=F
 One-electron integrals computed using PRISM.
 NBasis=   547 RedAO= T  NBF=   547
 NBsUse=   547 1.00D-06 NBFU=   547
 Harris functional with IExCor=  402 diagonalized for initial guess.
 ExpMin= 4.38D-02 ExpMax= 5.48D+03 ExpMxC= 8.25D+02 IAcc=2 IRadAn=         0 AccDes= 0.00D+00
 HarFok:  IExCor=  402 AccDes= 0.00D+00 IRadAn=         0 IDoV= 1
 ScaDFX=  1.000000  1.000000  1.000000  1.000000
 FoFCou: FMM=F IPFlag=           0 FMFlag=      100000 FMFlg1=           0
         NFxFlg=           0 DoJE=T BraDBF=F KetDBF=T FulRan=T
         Omega=  0.000000  0.000000  1.000000  0.000000  0.000000 ICntrl=     500 IOpCl=  0
         NMat0=    1 NMatS0=    1 NMatT0=    0 NMatD0=    1 NMtDS0=    0 NMtDT0=    0
         I1Cent=           4 NGrid=           0.
 Petite list used in FoFCou.
 Initial guess orbital symmetries:
       Occupied  (A) (A) (A) (A) (A) (A) (A) (A) (A) (A) (A) (A)
                 (A) (A) (A) (A) (A) (A) (A) (A) (A) (A) (A) (A)
                 (A) (A) (A) (A) (A) (A) (A) (A) (A) (A) (A) (A)
                 (A) (A) (A) (A) (A) (A) (A) (A) (A) (A) (A) (A)
                 (A) (A) (A) (A) (A) (A) (A) (A) (A) (A) (A) (A)
                 (A) (A) (A) (A) (A) (A) (A) (A) (A) (A) (A) (A)
                 (A) (A) (A) (A) (A) (A) (A) (A) (A) (A) (A) (A)
                 (A) (A) (A) (A) (A) (A) (A)
       Virtual   (A) (A) (A) (A) (A) (A) (A) (A) (A) (A) (A) (A)
                 (A) (A) (A) (A) (A) (A) (A) (A) (A) (A) (A) (A)
                 (A) (A) (A) (A) (A) (A) (A) (A) (A) (A) (A) (A)
                 (A) (A) (A) (A) (A) (A) (A) (A) (A) (A) (A) (A)
                 (A) (A) (A) (A) (A) (A) (A) (A) (A) (A) (A) (A)
                 (A) (A) (A) (A) (A) (A) (A) (A) (A) (A) (A) (A)
                 (A) (A) (A) (A) (A) (A) (A) (A) (A) (A) (A) (A)
                 (A) (A) (A) (A) (A) (A) (A) (A) (A) (A) (A) (A)
                 (A) (A) (A) (A) (A) (A) (A) (A) (A) (A) (A) (A)
                 (A) (A) (A) (A) (A) (A) (A) (A) (A) (A) (A) (A)
                 (A) (A) (A) (A) (A) (A) (A) (A) (A) (A) (A) (A)
                 (A) (A) (A) (A) (A) (A) (A) (A) (A) (A) (A) (A)
                 (A) (A) (A) (A) (A) (A) (A) (A) (A) (A) (A) (A)
                 (A) (A) (A) (A) (A) (A) (A) (A) (A) (A) (A) (A)
                 (A) (A) (A) (A) (A) (A) (A) (A) (A) (A) (A) (A)
                 (A) (A) (A) (A) (A) (A) (A) (A) (A) (A) (A) (A)
                 (A) (A) (A) (A) (A) (A) (A) (A) (A) (A) (A) (A)
                 (A) (A) (A) (A) (A) (A) (A) (A) (A) (A) (A) (A)
                 (A) (A) (A) (A) (A) (A) (A) (A) (A) (A) (A) (A)
                 (A) (A) (A) (A) (A) (A) (A) (A) (A) (A) (A) (A)
                 (A) (A) (A) (A) (A) (A) (A) (A) (A) (A) (A) (A)
                 (A) (A) (A) (A) (A) (A) (A) (A) (A) (A) (A) (A)
                 (A) (A) (A) (A) (A) (A) (A) (A) (A) (A) (A) (A)
                 (A) (A) (A) (A) (A) (A) (A) (A) (A) (A) (A) (A)
                 (A) (A) (A) (A) (A) (A) (A) (A) (A) (A) (A) (A)
                 (A) (A) (A) (A) (A) (A) (A) (A) (A) (A) (A) (A)
                 (A) (A) (A) (A) (A) (A) (A) (A) (A) (A) (A) (A)
                 (A) (A) (A) (A) (A) (A) (A) (A) (A) (A) (A) (A)
                 (A) (A) (A) (A) (A) (A) (A) (A) (A) (A) (A) (A)
                 (A) (A) (A) (A) (A) (A) (A) (A) (A) (A) (A) (A)
                 (A) (A) (A) (A) (A) (A) (A) (A) (A) (A) (A) (A)
                 (A) (A) (A) (A) (A) (A) (A) (A) (A) (A) (A) (A)
                 (A) (A) (A) (A) (A) (A) (A) (A) (A) (A) (A) (A)
                 (A) (A) (A) (A) (A) (A) (A) (A) (A) (A) (A) (A)
                 (A) (A) (A) (A) (A) (A) (A) (A) (A) (A) (A) (A)
                 (A) (A) (A) (A) (A) (A) (A) (A) (A) (A) (A) (A)
                 (A) (A) (A) (A) (A) (A) (A) (A) (A) (A) (A) (A)
                 (A) (A) (A) (A) (A) (A) (A) (A) (A) (A) (A) (A)
 The electronic state of the initial guess is 1-A.
 Requested convergence on RMS density matrix=1.00D-08 within 128 cycles.
 Requested convergence on MAX density matrix=1.00D-06.
 Requested convergence on             energy=1.00D-06.
 No special actions if energy rises.
 SCF Done:  E(RB3LYP) =  -1297.93025628     A.U. after   14 cycles
             Convg  =    0.2394D-08             -V/T =  2.0086
 Range of M.O.s used for correlation:     1   547
 NBasis=   547 NAE=    91 NBE=    91 NFC=     0 NFV=     0
 NROrb=    547 NOA=    91 NOB=    91 NVA=   456 NVB=   456

 **** Warning!!: The largest alpha MO coefficient is  0.83339240D+02

          Differentiating once with respect to electric field.
                with respect to dipole field.
          Electric field/nuclear overlap derivatives assumed to be zero.
          There are     3 degrees of freedom in the 1st order CPHF.  IDoFFX=0.
      3 vectors produced by pass  0 Test12= 1.38D-12 3.33D-08 XBig12= 1.17D+02 9.78D-01.
 AX will form     3 AO Fock derivatives at one time.
      3 vectors produced by pass  1 Test12= 1.38D-12 3.33D-08 XBig12= 2.21D+01 3.88D-01.
      3 vectors produced by pass  2 Test12= 1.38D-12 3.33D-08 XBig12= 9.54D+00 2.04D-01.
      3 vectors produced by pass  3 Test12= 1.38D-12 3.33D-08 XBig12= 9.51D-01 9.68D-02.
      3 vectors produced by pass  4 Test12= 1.38D-12 3.33D-08 XBig12= 2.98D-01 5.54D-02.
      3 vectors produced by pass  5 Test12= 1.38D-12 3.33D-08 XBig12= 4.99D-02 2.13D-02.
      3 vectors produced by pass  6 Test12= 1.38D-12 3.33D-08 XBig12= 1.86D-02 1.92D-02.
      3 vectors produced by pass  7 Test12= 1.38D-12 3.33D-08 XBig12= 2.33D-03 5.19D-03.
      3 vectors produced by pass  8 Test12= 1.38D-12 3.33D-08 XBig12= 4.67D-04 2.02D-03.
      3 vectors produced by pass  9 Test12= 1.38D-12 3.33D-08 XBig12= 1.16D-04 1.34D-03.
      3 vectors produced by pass 10 Test12= 1.38D-12 3.33D-08 XBig12= 2.90D-05 5.80D-04.
      3 vectors produced by pass 11 Test12= 1.38D-12 3.33D-08 XBig12= 7.55D-06 3.21D-04.
      3 vectors produced by pass 12 Test12= 1.38D-12 3.33D-08 XBig12= 6.42D-07 9.22D-05.
      3 vectors produced by pass 13 Test12= 1.38D-12 3.33D-08 XBig12= 1.87D-07 3.73D-05.
      3 vectors produced by pass 14 Test12= 1.38D-12 3.33D-08 XBig12= 2.30D-08 1.77D-05.
      3 vectors produced by pass 15 Test12= 1.38D-12 3.33D-08 XBig12= 7.99D-09 8.16D-06.
      3 vectors produced by pass 16 Test12= 1.38D-12 3.33D-08 XBig12= 1.20D-09 2.80D-06.
      3 vectors produced by pass 17 Test12= 1.38D-12 3.33D-08 XBig12= 1.18D-10 8.13D-07.
      3 vectors produced by pass 18 Test12= 1.38D-12 3.33D-08 XBig12= 3.49D-11 3.33D-07.
      3 vectors produced by pass 19 Test12= 1.38D-12 3.33D-08 XBig12= 1.60D-11 3.75D-07.
      3 vectors produced by pass 20 Test12= 1.38D-12 3.33D-08 XBig12= 6.41D-12 1.98D-07.
      2 vectors produced by pass 21 Test12= 1.38D-12 3.33D-08 XBig12= 2.36D-12 9.65D-08.
      1 vectors produced by pass 22 Test12= 1.38D-12 3.33D-08 XBig12= 4.97D-13 4.71D-08.
 Inverted reduced A of dimension    66 with in-core refinement.
 End of Minotr Frequency-dependent properties file   721 does not exist.
 End of Minotr Frequency-dependent properties file   722 does not exist.
 Symmetrizing basis deriv contribution to polar:
 IMax=3 JMax=2 DiffMx= 0.00D+00
 G2DrvN: will do    23 centers at a time, making    2 passes doing MaxLOS=2.
 Calling FoFCou, ICntrl=  3107 FMM=F I1Cent=   0 AccDes= 0.00D+00.
 Calling FoFCou, ICntrl=  3107 FMM=F I1Cent=   0 AccDes= 0.00D+00.
 FoFDir/FoFCou used for L=0 through L=2.
 End of G2Drv Frequency-dependent properties file   721 does not exist.
 End of G2Drv Frequency-dependent properties file   722 does not exist.
          IDoAtm=111111111111111111111111111111111111111111111
          Differentiating once with respect to electric field.
                with respect to dipole field.
          Differentiating once with respect to nuclear coordinates.
          There are   138 degrees of freedom in the 1st order CPHF.  IDoFFX=5.
 Will reuse    3 saved solutions.
    135 vectors produced by pass  0 Test12= 4.15D-14 1.00D-09 XBig12= 2.34D-01 6.76D-02.
 AX will form    68 AO Fock derivatives at one time.
    135 vectors produced by pass  1 Test12= 4.15D-14 1.00D-09 XBig12= 4.16D-02 1.56D-02.
    132 vectors produced by pass  2 Test12= 4.15D-14 1.00D-09 XBig12= 2.38D-04 1.52D-03.
    132 vectors produced by pass  3 Test12= 4.15D-14 1.00D-09 XBig12= 7.73D-07 7.53D-05.
    132 vectors produced by pass  4 Test12= 4.15D-14 1.00D-09 XBig12= 1.33D-09 2.85D-06.
    132 vectors produced by pass  5 Test12= 4.15D-14 1.00D-09 XBig12= 4.42D-12 1.45D-07.
     76 vectors produced by pass  6 Test12= 4.15D-14 1.00D-09 XBig12= 1.20D-13 1.99D-08.
 Inverted reduced A of dimension   874 with in-core refinement.
 Isotropic polarizability for W=    0.000000      185.93 Bohr**3.
 End of Minotr Frequency-dependent properties file   721 does not exist.
 End of Minotr Frequency-dependent properties file   722 does not exist.

 **********************************************************************

            Population analysis using the SCF density.

 **********************************************************************

 Orbital symmetries:
       Occupied  (A) (A) (A) (A) (A) (A) (A) (A) (A) (A) (A) (A)
                 (A) (A) (A) (A) (A) (A) (A) (A) (A) (A) (A) (A)
                 (A) (A) (A) (A) (A) (A) (A) (A) (A) (A) (A) (A)
                 (A) (A) (A) (A) (A) (A) (A) (A) (A) (A) (A) (A)
                 (A) (A) (A) (A) (A) (A) (A) (A) (A) (A) (A) (A)
                 (A) (A) (A) (A) (A) (A) (A) (A) (A) (A) (A) (A)
                 (A) (A) (A) (A) (A) (A) (A) (A) (A) (A) (A) (A)
                 (A) (A) (A) (A) (A) (A) (A)
       Virtual   (A) (A) (A) (A) (A) (A) (A) (A) (A) (A) (A) (A)
                 (A) (A) (A) (A) (A) (A) (A) (A) (A) (A) (A) (A)
                 (A) (A) (A) (A) (A) (A) (A) (A) (A) (A) (A) (A)
                 (A) (A) (A) (A) (A) (A) (A) (A) (A) (A) (A) (A)
                 (A) (A) (A) (A) (A) (A) (A) (A) (A) (A) (A) (A)
                 (A) (A) (A) (A) (A) (A) (A) (A) (A) (A) (A) (A)
                 (A) (A) (A) (A) (A) (A) (A) (A) (A) (A) (A) (A)
                 (A) (A) (A) (A) (A) (A) (A) (A) (A) (A) (A) (A)
                 (A) (A) (A) (A) (A) (A) (A) (A) (A) (A) (A) (A)
                 (A) (A) (A) (A) (A) (A) (A) (A) (A) (A) (A) (A)
                 (A) (A) (A) (A) (A) (A) (A) (A) (A) (A) (A) (A)
                 (A) (A) (A) (A) (A) (A) (A) (A) (A) (A) (A) (A)
                 (A) (A) (A) (A) (A) (A) (A) (A) (A) (A) (A) (A)
                 (A) (A) (A) (A) (A) (A) (A) (A) (A) (A) (A) (A)
                 (A) (A) (A) (A) (A) (A) (A) (A) (A) (A) (A) (A)
                 (A) (A) (A) (A) (A) (A) (A) (A) (A) (A) (A) (A)
                 (A) (A) (A) (A) (A) (A) (A) (A) (A) (A) (A) (A)
                 (A) (A) (A) (A) (A) (A) (A) (A) (A) (A) (A) (A)
                 (A) (A) (A) (A) (A) (A) (A) (A) (A) (A) (A) (A)
                 (A) (A) (A) (A) (A) (A) (A) (A) (A) (A) (A) (A)
                 (A) (A) (A) (A) (A) (A) (A) (A) (A) (A) (A) (A)
                 (A) (A) (A) (A) (A) (A) (A) (A) (A) (A) (A) (A)
                 (A) (A) (A) (A) (A) (A) (A) (A) (A) (A) (A) (A)
                 (A) (A) (A) (A) (A) (A) (A) (A) (A) (A) (A) (A)
                 (A) (A) (A) (A) (A) (A) (A) (A) (A) (A) (A) (A)
                 (A) (A) (A) (A) (A) (A) (A) (A) (A) (A) (A) (A)
                 (A) (A) (A) (A) (A) (A) (A) (A) (A) (A) (A) (A)
                 (A) (A) (A) (A) (A) (A) (A) (A) (A) (A) (A) (A)
                 (A) (A) (A) (A) (A) (A) (A) (A) (A) (A) (A) (A)
                 (A) (A) (A) (A) (A) (A) (A) (A) (A) (A) (A) (A)
                 (A) (A) (A) (A) (A) (A) (A) (A) (A) (A) (A) (A)
                 (A) (A) (A) (A) (A) (A) (A) (A) (A) (A) (A) (A)
                 (A) (A) (A) (A) (A) (A) (A) (A) (A) (A) (A) (A)
                 (A) (A) (A) (A) (A) (A) (A) (A) (A) (A) (A) (A)
                 (A) (A) (A) (A) (A) (A) (A) (A) (A) (A) (A) (A)
                 (A) (A) (A) (A) (A) (A) (A) (A) (A) (A) (A) (A)
                 (A) (A) (A) (A) (A) (A) (A) (A) (A) (A) (A) (A)
                 (A) (A) (A) (A) (A) (A) (A) (A) (A) (A) (A) (A)
 The electronic state is 1-A.
 Alpha  occ. eigenvalues --  -19.19990 -19.19858 -19.19612 -19.19468 -19.18883
 Alpha  occ. eigenvalues --  -19.17473 -19.16998 -19.16557 -19.15840 -19.14783
 Alpha  occ. eigenvalues --  -19.13611 -10.31848 -10.30311 -10.27045 -10.26144
 Alpha  occ. eigenvalues --  -10.25946 -10.25457 -10.25410 -10.25279 -10.24688
 Alpha  occ. eigenvalues --  -10.24522 -10.24227 -10.24027  -1.10521  -1.09658
 Alpha  occ. eigenvalues --   -1.05801  -1.05076  -1.04866  -1.04142  -1.02690
 Alpha  occ. eigenvalues --   -1.02117  -1.01784  -1.00533  -0.99589  -0.82861
 Alpha  occ. eigenvalues --   -0.80536  -0.80313  -0.78301  -0.71981  -0.69981
 Alpha  occ. eigenvalues --   -0.67077  -0.64694  -0.64014  -0.62168  -0.61899
 Alpha  occ. eigenvalues --   -0.60778  -0.57000  -0.55735  -0.55445  -0.54675
 Alpha  occ. eigenvalues --   -0.53872  -0.53757  -0.53074  -0.51744  -0.51278
 Alpha  occ. eigenvalues --   -0.50496  -0.49949  -0.49164  -0.48461  -0.46763
 Alpha  occ. eigenvalues --   -0.46034  -0.45371  -0.44585  -0.43809  -0.43584
 Alpha  occ. eigenvalues --   -0.42552  -0.41848  -0.40970  -0.40638  -0.40462
 Alpha  occ. eigenvalues --   -0.39102  -0.38026  -0.37592  -0.36690  -0.36070
 Alpha  occ. eigenvalues --   -0.35491  -0.35289  -0.34050  -0.33827  -0.33376
 Alpha  occ. eigenvalues --   -0.33138  -0.31267  -0.31191  -0.30468  -0.29946
 Alpha  occ. eigenvalues --   -0.29419  -0.28306  -0.28231  -0.27457  -0.26626
 Alpha  occ. eigenvalues --   -0.26047
 Alpha virt. eigenvalues --   -0.02776  -0.01909  -0.01798  -0.00194   0.00080
 Alpha virt. eigenvalues --    0.00779   0.01602   0.02120   0.03496   0.03787
 Alpha virt. eigenvalues --    0.03973   0.04352   0.05071   0.05291   0.05662
 Alpha virt. eigenvalues --    0.06249   0.06563   0.07446   0.07726   0.08140
 Alpha virt. eigenvalues --    0.08321   0.08752   0.09114   0.09775   0.10330
 Alpha virt. eigenvalues --    0.10449   0.11007   0.11637   0.11969   0.12070
 Alpha virt. eigenvalues --    0.12476   0.12782   0.13062   0.13477   0.13879
 Alpha virt. eigenvalues --    0.14080   0.14397   0.14858   0.14996   0.15230
 Alpha virt. eigenvalues --    0.15603   0.16306   0.16859   0.17150   0.17471
 Alpha virt. eigenvalues --    0.17577   0.17758   0.18034   0.18210   0.18551
 Alpha virt. eigenvalues --    0.18941   0.19137   0.19627   0.19963   0.20394
 Alpha virt. eigenvalues --    0.20789   0.21012   0.21240   0.21517   0.21633
 Alpha virt. eigenvalues --    0.21960   0.22254   0.22639   0.22976   0.23144
 Alpha virt. eigenvalues --    0.23411   0.23819   0.24444   0.24689   0.24847
 Alpha virt. eigenvalues --    0.25032   0.25398   0.25454   0.25551   0.26207
 Alpha virt. eigenvalues --    0.26434   0.26729   0.26981   0.27138   0.27581
 Alpha virt. eigenvalues --    0.27797   0.28079   0.28353   0.28560   0.28723
 Alpha virt. eigenvalues --    0.29556   0.29808   0.30047   0.30200   0.30874
 Alpha virt. eigenvalues --    0.31067   0.31453   0.31931   0.32219   0.32550
 Alpha virt. eigenvalues --    0.32730   0.33135   0.33390   0.33738   0.33979
 Alpha virt. eigenvalues --    0.34508   0.34760   0.34925   0.35396   0.35775
 Alpha virt. eigenvalues --    0.36011   0.36302   0.36792   0.37348   0.37677
 Alpha virt. eigenvalues --    0.37729   0.38476   0.38625   0.39533   0.39889
 Alpha virt. eigenvalues --    0.40236   0.41124   0.41582   0.41726   0.41763
 Alpha virt. eigenvalues --    0.42385   0.42874   0.43158   0.43439   0.44398
 Alpha virt. eigenvalues --    0.44899   0.45475   0.46229   0.47637   0.48334
 Alpha virt. eigenvalues --    0.48380   0.49548   0.50055   0.50444   0.51231
 Alpha virt. eigenvalues --    0.51485   0.52311   0.54976   0.63304   0.64679
 Alpha virt. eigenvalues --    0.65821   0.67982   0.68616   0.68779   0.69502
 Alpha virt. eigenvalues --    0.71115   0.72302   0.72990   0.73322   0.73945
 Alpha virt. eigenvalues --    0.74843   0.75843   0.77251   0.78343   0.78806
 Alpha virt. eigenvalues --    0.79726   0.80893   0.81210   0.82253   0.82549
 Alpha virt. eigenvalues --    0.85040   0.86631   0.87924   0.88984   0.90058
 Alpha virt. eigenvalues --    0.90901   0.92572   0.93119   0.94460   0.95155
 Alpha virt. eigenvalues --    0.96448   0.97327   0.98318   0.98943   1.00905
 Alpha virt. eigenvalues --    1.01189   1.02042   1.03028   1.03854   1.04518
 Alpha virt. eigenvalues --    1.05582   1.05978   1.06608   1.06884   1.07650
 Alpha virt. eigenvalues --    1.08131   1.09017   1.09285   1.09606   1.10240
 Alpha virt. eigenvalues --    1.10667   1.12427   1.13360   1.14242   1.15001
 Alpha virt. eigenvalues --    1.16861   1.18946   1.20378   1.21098   1.21840
 Alpha virt. eigenvalues --    1.22755   1.23283   1.24059   1.24385   1.25725
 Alpha virt. eigenvalues --    1.25822   1.26718   1.27438   1.27856   1.29046
 Alpha virt. eigenvalues --    1.29891   1.30313   1.30934   1.31281   1.31596
 Alpha virt. eigenvalues --    1.32047   1.32607   1.33100   1.33998   1.34491
 Alpha virt. eigenvalues --    1.35403   1.36480   1.36878   1.37911   1.38873
 Alpha virt. eigenvalues --    1.39963   1.41250   1.42320   1.42933   1.43404
 Alpha virt. eigenvalues --    1.43898   1.45243   1.46346   1.47291   1.47920
 Alpha virt. eigenvalues --    1.48033   1.49881   1.50294   1.52329   1.52716
 Alpha virt. eigenvalues --    1.53850   1.55409   1.57166   1.57520   1.57743
 Alpha virt. eigenvalues --    1.58886   1.59718   1.60797   1.61080   1.62034
 Alpha virt. eigenvalues --    1.62986   1.63187   1.63883   1.65054   1.65418
 Alpha virt. eigenvalues --    1.66629   1.67189   1.67931   1.68291   1.70010
 Alpha virt. eigenvalues --    1.70541   1.70821   1.71728   1.72989   1.73388
 Alpha virt. eigenvalues --    1.74042   1.74473   1.76462   1.76709   1.77447
 Alpha virt. eigenvalues --    1.78633   1.78789   1.79443   1.79998   1.80475
 Alpha virt. eigenvalues --    1.82295   1.83179   1.84085   1.86076   1.86716
 Alpha virt. eigenvalues --    1.86997   1.88199   1.88589   1.89032   1.90391
 Alpha virt. eigenvalues --    1.91115   1.91660   1.93263   1.94520   1.95169
 Alpha virt. eigenvalues --    1.95822   1.96354   1.96690   1.98816   1.99166
 Alpha virt. eigenvalues --    1.99697   2.00680   2.01049   2.02244   2.02607
 Alpha virt. eigenvalues --    2.03606   2.03938   2.05381   2.06866   2.07803
 Alpha virt. eigenvalues --    2.08994   2.09875   2.11637   2.12060   2.12659
 Alpha virt. eigenvalues --    2.13061   2.13796   2.15285   2.15700   2.16645
 Alpha virt. eigenvalues --    2.17621   2.18148   2.19494   2.20055   2.20901
 Alpha virt. eigenvalues --    2.22026   2.23673   2.25676   2.26107   2.27493
 Alpha virt. eigenvalues --    2.29846   2.30853   2.32535   2.34853   2.36592
 Alpha virt. eigenvalues --    2.36779   2.37397   2.38628   2.39278   2.39940
 Alpha virt. eigenvalues --    2.40219   2.40804   2.42154   2.42633   2.44589
 Alpha virt. eigenvalues --    2.45237   2.46330   2.47052   2.49050   2.49830
 Alpha virt. eigenvalues --    2.49971   2.51871   2.52991   2.54488   2.56287
 Alpha virt. eigenvalues --    2.56921   2.58339   2.59977   2.60418   2.61517
 Alpha virt. eigenvalues --    2.62003   2.62618   2.63817   2.64965   2.65560
 Alpha virt. eigenvalues --    2.66448   2.66869   2.68005   2.68776   2.70536
 Alpha virt. eigenvalues --    2.71707   2.72169   2.72958   2.74314   2.75586
 Alpha virt. eigenvalues --    2.76122   2.76669   2.78663   2.79559   2.81401
 Alpha virt. eigenvalues --    2.81882   2.82806   2.83916   2.85666   2.87034
 Alpha virt. eigenvalues --    2.87226   2.88449   2.89148   2.90029   2.91063
 Alpha virt. eigenvalues --    2.91556   2.91647   2.93292   2.94598   2.94850
 Alpha virt. eigenvalues --    2.95183   2.96913   2.98809   2.99418   3.00756
 Alpha virt. eigenvalues --    3.02861   3.03733   3.04676   3.05780   3.07377
 Alpha virt. eigenvalues --    3.07662   3.08276   3.10345   3.10713   3.14868
 Alpha virt. eigenvalues --    3.18032   3.19947   3.21561   3.26016   3.32468
 Alpha virt. eigenvalues --    3.34090   3.37556   3.38823   3.39733   3.41475
 Alpha virt. eigenvalues --    3.44780   3.45858   3.46335   3.46632   3.48560
 Alpha virt. eigenvalues --    3.49412   3.50332   3.52921   3.53636   3.54221
 Alpha virt. eigenvalues --    3.55793   3.57644   3.59241   3.61239   3.63315
 Alpha virt. eigenvalues --    3.64122   3.64984   3.70070   4.32020   4.33480
 Alpha virt. eigenvalues --    4.36068   4.40788   4.41833   4.43828   4.46900
 Alpha virt. eigenvalues --    4.47609   4.48817   4.52612   4.53962   4.56811
 Alpha virt. eigenvalues --    4.57385   4.58955   4.60606   4.64680   4.71932
 Alpha virt. eigenvalues --    4.77545   4.83091   4.85962   4.91821   4.92809
 Alpha virt. eigenvalues --    4.97831
          Condensed to atoms (all electrons):
              1          2          3          4          5          6
     1  O    8.259272   0.271386  -0.056292  -0.011226   0.025070   0.002219
     2  C    0.271386   8.847703  -0.847400   0.024491  -0.126257  -2.236219
     3  C   -0.056292  -0.847400   7.991671   0.074893   0.129715   0.320602
     4  O   -0.011226   0.024491   0.074893   8.268434   0.185067  -0.044142
     5  H    0.025070  -0.126257   0.129715   0.185067   0.435540  -0.021225
     6  C    0.002219  -2.236219   0.320602  -0.044142  -0.021225  13.157623
     7  O   -0.000738   0.026229  -0.177417   0.008543  -0.000793   0.398790
     8  H    0.000022  -0.009568   0.043348  -0.000710   0.000012   0.057893
     9  C   -0.002889   0.047535  -0.335035   0.009459  -0.005263   0.379704
    10  O   -0.008741  -0.000073   0.007895   0.000060  -0.000027  -0.008610
    11  H    0.000454  -0.002482  -0.001103   0.000000   0.000000   0.000372
    12  C   -0.225189  -1.276502  -0.758974   0.007606   0.013379   0.781032
    13  O    0.009122  -0.041444   0.005431   0.001687  -0.000206  -0.124796
    14  C    0.054065   0.954471  -0.466398   0.012068   0.017259  -4.720342
    15  O    0.000403  -0.037912   0.029023  -0.000984   0.000071   0.155717
    16  C    0.003728  -0.019804   0.079129  -0.002174   0.001288  -0.881958
    17  C    0.000178   0.001797   0.004243   0.000518   0.000060  -0.270556
    18  O   -0.000001   0.007487  -0.000454  -0.000003   0.000000   0.011054
    19  H   -0.000008  -0.004106   0.002681   0.000000   0.000000   0.010554
    20  C    0.000108  -0.001949   0.012976  -0.000135   0.000002   0.027186
    21  O    0.000000  -0.000059  -0.000130   0.000000   0.000000  -0.000095
    22  H    0.000000   0.000001   0.000001   0.000000   0.000000  -0.000123
    23  C    0.000000   0.010029   0.010930   0.000502  -0.000053  -0.251494
    24  O   -0.000001   0.006691  -0.021477  -0.000173  -0.000006  -0.018394
    25  H    0.000000  -0.000120   0.001053  -0.000008   0.000000  -0.001538
    26  C   -0.000145  -0.012438  -0.079480  -0.000392   0.000075  -0.298648
    27  O    0.000000  -0.000134   0.001034  -0.000001   0.000000   0.009651
    28  C    0.000007  -0.001278   0.002431   0.000027   0.000001   0.016110
    29  O    0.000000  -0.000003   0.000015   0.000000   0.000000  -0.000238
    30  H    0.232147   0.072784  -0.017162   0.000360  -0.001879   0.000724
    31  H    0.000000   0.000000   0.000000   0.000000   0.000000   0.000009
    32  H    0.000000  -0.000002   0.000007   0.000000   0.000000   0.000522
    33  H    0.000000   0.000066   0.000054   0.000000   0.000000   0.000382
    34  H    0.000000   0.000677  -0.000025   0.000000   0.000000   0.003987
    35  H   -0.000001  -0.000777   0.000802   0.000012   0.000000   0.008045
    36  H    0.000000   0.000120   0.000148   0.000000   0.000000   0.004084
    37  H    0.000000   0.000024  -0.000111   0.000000   0.000000  -0.001902
    38  H    0.000000  -0.000059   0.000785   0.000004   0.000000   0.000899
    39  H   -0.000577   0.072297  -0.176327   0.006332  -0.000035   0.246424
    40  H   -0.002697   0.089039   0.246980  -0.037045  -0.003973  -0.271090
    41  H   -0.042968   0.425149  -0.074080   0.002625  -0.000575  -0.031714
    42  H    0.000000   0.000414  -0.026095   0.000049   0.000000  -0.167346
    43  H    0.008215  -0.019364   0.004396   0.000151   0.000004  -0.072245
    44  H    0.000138  -0.004539  -0.008520   0.000030   0.000000  -0.003379
    45  H    0.003096  -0.035240   0.008479  -0.000036   0.000001   0.017873
              7          8          9         10         11         12
     1  O   -0.000738   0.000022  -0.002889  -0.008741   0.000454  -0.225189
     2  C    0.026229  -0.009568   0.047535  -0.000073  -0.002482  -1.276502
     3  C   -0.177417   0.043348  -0.335035   0.007895  -0.001103  -0.758974
     4  O    0.008543  -0.000710   0.009459   0.000060   0.000000   0.007606
     5  H   -0.000793   0.000012  -0.005263  -0.000027   0.000000   0.013379
     6  C    0.398790   0.057893   0.379704  -0.008610   0.000372   0.781032
     7  O    8.197596   0.214202   0.002341   0.000014   0.000000   0.029451
     8  H    0.214202   0.341594  -0.000006   0.000000   0.000000  -0.003640
     9  C    0.002341  -0.000006   7.768574   0.022327   0.000364  -2.059949
    10  O    0.000014   0.000000   0.022327   8.347056   0.195718   0.087770
    11  H    0.000000   0.000000   0.000364   0.195718   0.439195   0.027207
    12  C    0.029451  -0.003640  -2.059949   0.087770   0.027207  11.185435
    13  O    0.010211   0.000151  -0.017746  -0.002696  -0.000361  -0.177606
    14  C   -0.148261  -0.114138  -0.702670   0.024493  -0.006806  -1.283321
    15  O    0.002963   0.024168  -0.011343   0.000001   0.000004   0.038258
    16  C    0.015167   0.029759  -0.219753  -0.003418  -0.000145  -0.358521
    17  C    0.010273   0.003224   0.012459  -0.000195   0.000022  -0.067700
    18  O   -0.000118  -0.000017   0.000260  -0.000005   0.000015  -0.004873
    19  H   -0.000024  -0.000004   0.002650  -0.000025  -0.000002   0.000019
    20  C    0.005849   0.001750  -0.008756   0.000020  -0.000006  -0.045720
    21  O   -0.000005  -0.000001   0.000047   0.000000   0.000000  -0.000095
    22  H    0.000000   0.000000  -0.000007   0.000000   0.000000   0.000092
    23  C    0.003875   0.009358   0.000606  -0.000019   0.000000  -0.003889
    24  O   -0.030807  -0.014132   0.000396   0.000000   0.000000   0.002808
    25  H    0.000946  -0.001924  -0.000008   0.000000   0.000000  -0.000191
    26  C   -0.012287  -0.031351   0.009210  -0.000084   0.000008   0.095800
    27  O    0.000325   0.000214  -0.000064   0.000000   0.000000  -0.000380
    28  C    0.000761   0.000134  -0.006741  -0.000010   0.000000  -0.001394
    29  O   -0.000007  -0.000001   0.000015   0.000000   0.000000   0.000208
    30  H   -0.000008   0.000000  -0.009805   0.000823  -0.000004  -0.029879
    31  H    0.000000   0.000000   0.000000   0.000000   0.000000   0.000001
    32  H    0.000004   0.000000  -0.000005   0.000000   0.000000  -0.000027
    33  H    0.000017   0.000000  -0.000236   0.000000   0.000000   0.000329
    34  H    0.000069   0.000005  -0.000020   0.000000   0.000000  -0.000295
    35  H   -0.000271   0.000198  -0.000036   0.000002   0.000000   0.004855
    36  H    0.000164   0.000017   0.000084   0.000000   0.000000   0.000903
    37  H   -0.000738   0.000280  -0.000002   0.000000   0.000000   0.000017
    38  H    0.002304   0.000811  -0.000002   0.000000   0.000000   0.000279
    39  H   -0.039719  -0.006879   0.017219   0.000014   0.000000   0.001517
    40  H    0.010639  -0.000058   0.034578   0.000009   0.000000  -0.009957
    41  H    0.000334   0.000004   0.017868  -0.000411   0.000002  -0.129655
    42  H    0.005225  -0.000151   0.016439   0.000087   0.000000   0.008240
    43  H    0.000184   0.000007   0.023345   0.003954  -0.000139   0.149462
    44  H   -0.000008   0.000000   0.436608  -0.048641  -0.009351  -0.054299
    45  H   -0.000004   0.000000   0.612508  -0.068094  -0.003372  -0.259258
             13         14         15         16         17         18
     1  O    0.009122   0.054065   0.000403   0.003728   0.000178  -0.000001
     2  C   -0.041444   0.954471  -0.037912  -0.019804   0.001797   0.007487
     3  C    0.005431  -0.466398   0.029023   0.079129   0.004243  -0.000454
     4  O    0.001687   0.012068  -0.000984  -0.002174   0.000518  -0.000003
     5  H   -0.000206   0.017259   0.000071   0.001288   0.000060   0.000000
     6  C   -0.124796  -4.720342   0.155717  -0.881958  -0.270556   0.011054
     7  O    0.010211  -0.148261   0.002963   0.015167   0.010273  -0.000118
     8  H    0.000151  -0.114138   0.024168   0.029759   0.003224  -0.000017
     9  C   -0.017746  -0.702670  -0.011343  -0.219753   0.012459   0.000260
    10  O   -0.002696   0.024493   0.000001  -0.003418  -0.000195  -0.000005
    11  H   -0.000361  -0.006806   0.000004  -0.000145   0.000022   0.000015
    12  C   -0.177606  -1.283321   0.038258  -0.358521  -0.067700  -0.004873
    13  O    8.413161   0.273610   0.010442   0.174849  -0.059035   0.009796
    14  C    0.273610  13.109379   0.087871  -1.343704   0.383352  -0.023954
    15  O    0.010442   0.087871   8.299511  -0.034380  -0.003737   0.005631
    16  C    0.174849  -1.343704  -0.034380  16.198417  -3.396891  -0.163941
    17  C   -0.059035   0.383352  -0.003737  -3.396891  10.774594   0.455657
    18  O    0.009796  -0.023954   0.005631  -0.163941   0.455657   8.146834
    19  H    0.000098   0.006312   0.026226  -0.135472   0.056936   0.204665
    20  C   -0.012207  -0.539287   0.038767  -1.833476  -1.161839  -0.123079
    21  O   -0.000094   0.005988  -0.001246   0.044869  -0.242441   0.019952
    22  H    0.000004  -0.001142   0.000013  -0.009353   0.028764  -0.001284
    23  C    0.019069   0.031065  -0.016736   0.504589  -0.544411   0.005224
    24  O   -0.002313   0.087995  -0.028009  -0.022365  -0.007630   0.000085
    25  H    0.000019  -0.004360   0.002032  -0.003376  -0.000137  -0.000002
    26  C   -0.034229  -0.768635  -0.117097  -4.444445   0.834512   0.010940
    27  O    0.000251   0.002325   0.004151   0.083712  -0.137929   0.001599
    28  C    0.004809  -0.160449   0.005813   1.154519  -0.723547  -0.025636
    29  O    0.000023   0.003351   0.000283  -0.037161   0.049744  -0.000928
    30  H   -0.000977   0.002586  -0.000009   0.000497  -0.000071   0.000001
    31  H    0.000000   0.000505  -0.000003   0.002988   0.004728   0.000052
    32  H   -0.000007   0.007064   0.000237   0.143271  -0.011457  -0.000725
    33  H    0.000414  -0.014156  -0.001438   0.155067  -0.312676   0.002804
    34  H    0.002897  -0.017674  -0.006154  -0.019328   0.303249  -0.066911
    35  H   -0.000242  -0.022702  -0.052685   0.306177   0.003625  -0.000594
    36  H   -0.000207   0.057102   0.006376   0.040791   0.002137  -0.000859
    37  H   -0.000007   0.006765  -0.000356   0.008576  -0.008548   0.000048
    38  H    0.000131   0.003452   0.004415   0.013289   0.002334   0.000010
    39  H    0.011851   0.071290  -0.008038   0.026224   0.008069   0.000034
    40  H    0.009010   0.144385  -0.001136   0.006769   0.002444   0.000045
    41  H    0.009542   0.070564  -0.000347  -0.002954   0.001305   0.000050
    42  H   -0.062499   0.392379  -0.072671   0.021802   0.039509  -0.000846
    43  H   -0.039320   0.153020  -0.000434   0.018678   0.003787   0.000306
    44  H    0.001007   0.004841  -0.000080   0.011935  -0.001652  -0.000927
    45  H    0.006664   0.008466  -0.000129  -0.005548   0.000124   0.000166
             19         20         21         22         23         24
     1  O   -0.000008   0.000108   0.000000   0.000000   0.000000  -0.000001
     2  C   -0.004106  -0.001949  -0.000059   0.000001   0.010029   0.006691
     3  C    0.002681   0.012976  -0.000130   0.000001   0.010930  -0.021477
     4  O    0.000000  -0.000135   0.000000   0.000000   0.000502  -0.000173
     5  H    0.000000   0.000002   0.000000   0.000000  -0.000053  -0.000006
     6  C    0.010554   0.027186  -0.000095  -0.000123  -0.251494  -0.018394
     7  O   -0.000024   0.005849  -0.000005   0.000000   0.003875  -0.030807
     8  H   -0.000004   0.001750  -0.000001   0.000000   0.009358  -0.014132
     9  C    0.002650  -0.008756   0.000047  -0.000007   0.000606   0.000396
    10  O   -0.000025   0.000020   0.000000   0.000000  -0.000019   0.000000
    11  H   -0.000002  -0.000006   0.000000   0.000000   0.000000   0.000000
    12  C    0.000019  -0.045720  -0.000095   0.000092  -0.003889   0.002808
    13  O    0.000098  -0.012207  -0.000094   0.000004   0.019069  -0.002313
    14  C    0.006312  -0.539287   0.005988  -0.001142   0.031065   0.087995
    15  O    0.026226   0.038767  -0.001246   0.000013  -0.016736  -0.028009
    16  C   -0.135472  -1.833476   0.044869  -0.009353   0.504589  -0.022365
    17  C    0.056936  -1.161839  -0.242441   0.028764  -0.544411  -0.007630
    18  O    0.204665  -0.123079   0.019952  -0.001284   0.005224   0.000085
    19  H    0.395501   0.046256  -0.001103   0.000004  -0.005364   0.000077
    20  C    0.046256   9.503663   0.321160  -0.012046   0.135937  -0.004781
    21  O   -0.001103   0.321160   8.217823   0.190424   0.000293   0.000008
    22  H    0.000004  -0.012046   0.190424   0.436451  -0.000509   0.000000
    23  C   -0.005364   0.135937   0.000293  -0.000509   6.476022  -0.041486
    24  O    0.000077  -0.004781   0.000008   0.000000  -0.041486   8.522532
    25  H    0.000000   0.000505   0.000000   0.000000  -0.001574   0.209252
    26  C    0.017277   1.015092  -0.007534   0.005539  -1.082352   0.077261
    27  O   -0.000153  -0.182774   0.003818   0.001265  -0.079130  -0.000042
    28  C   -0.001507  -1.117018  -0.017703  -0.015285  -0.109805   0.008986
    29  O    0.000024  -0.158890  -0.015912   0.033649  -0.008359   0.000057
    30  H    0.000000   0.000003   0.000000   0.000000   0.000006   0.000000
    31  H    0.000000  -0.015916   0.001210  -0.004927   0.001469  -0.000001
    32  H    0.000013  -0.201682   0.008518  -0.000422  -0.010869   0.000040
    33  H   -0.000104   0.387069  -0.045711  -0.000784   0.013893  -0.000008
    34  H   -0.006038  -0.095587   0.004576  -0.000178   0.022743  -0.000169
    35  H    0.000222   0.011361  -0.000495  -0.000003  -0.011060   0.000030
    36  H    0.000155  -0.057954   0.000153   0.000004  -0.005744   0.005362
    37  H    0.000000   0.002582  -0.000007   0.000000   0.486537  -0.048465
    38  H    0.000001  -0.005795   0.000004   0.000000   0.536428  -0.075774
    39  H    0.000004   0.000611   0.000000   0.000000   0.004022   0.001249
    40  H   -0.000001  -0.000039   0.000000   0.000000   0.000623   0.000100
    41  H   -0.000002  -0.000030   0.000000   0.000000   0.000059   0.000008
    42  H    0.000412   0.010103   0.000014   0.000000   0.003506   0.000478
    43  H    0.000072   0.000914   0.000000   0.000000   0.000138   0.000004
    44  H    0.000236  -0.000312  -0.000005   0.000000   0.000033   0.000000
    45  H   -0.000015   0.000056   0.000000   0.000000  -0.000014   0.000000
             25         26         27         28         29         30
     1  O    0.000000  -0.000145   0.000000   0.000007   0.000000   0.232147
     2  C   -0.000120  -0.012438  -0.000134  -0.001278  -0.000003   0.072784
     3  C    0.001053  -0.079480   0.001034   0.002431   0.000015  -0.017162
     4  O   -0.000008  -0.000392  -0.000001   0.000027   0.000000   0.000360
     5  H    0.000000   0.000075   0.000000   0.000001   0.000000  -0.001879
     6  C   -0.001538  -0.298648   0.009651   0.016110  -0.000238   0.000724
     7  O    0.000946  -0.012287   0.000325   0.000761  -0.000007  -0.000008
     8  H   -0.001924  -0.031351   0.000214   0.000134  -0.000001   0.000000
     9  C   -0.000008   0.009210  -0.000064  -0.006741   0.000015  -0.009805
    10  O    0.000000  -0.000084   0.000000  -0.000010   0.000000   0.000823
    11  H    0.000000   0.000008   0.000000   0.000000   0.000000  -0.000004
    12  C   -0.000191   0.095800  -0.000380  -0.001394   0.000208  -0.029879
    13  O    0.000019  -0.034229   0.000251   0.004809   0.000023  -0.000977
    14  C   -0.004360  -0.768635   0.002325  -0.160449   0.003351   0.002586
    15  O    0.002032  -0.117097   0.004151   0.005813   0.000283  -0.000009
    16  C   -0.003376  -4.444445   0.083712   1.154519  -0.037161   0.000497
    17  C   -0.000137   0.834512  -0.137929  -0.723547   0.049744  -0.000071
    18  O   -0.000002   0.010940   0.001599  -0.025636  -0.000928   0.000001
    19  H    0.000000   0.017277  -0.000153  -0.001507   0.000024   0.000000
    20  C    0.000505   1.015092  -0.182774  -1.117018  -0.158890   0.000003
    21  O    0.000000  -0.007534   0.003818  -0.017703  -0.015912   0.000000
    22  H    0.000000   0.005539   0.001265  -0.015285   0.033649   0.000000
    23  C   -0.001574  -1.082352  -0.079130  -0.109805  -0.008359   0.000006
    24  O    0.209252   0.077261  -0.000042   0.008986   0.000057   0.000000
    25  H    0.404008   0.025490  -0.000241  -0.002127   0.000002   0.000000
    26  C    0.025490  11.743180   0.213427  -0.960674  -0.040315  -0.000012
    27  O   -0.000241   0.213427   8.285824   0.196931  -0.025477   0.000000
    28  C   -0.002127  -0.960674   0.196931   6.617466   0.320933   0.000000
    29  O    0.000002  -0.040315  -0.025477   0.320933   8.270490   0.000000
    30  H    0.000000  -0.000012   0.000000   0.000000   0.000000   0.397683
    31  H    0.000000   0.012954  -0.000069  -0.000656   0.237554   0.000000
    32  H    0.000000  -0.124427  -0.055855   0.506089  -0.047811   0.000000
    33  H    0.000000  -0.034056   0.007560   0.074870  -0.005366   0.000000
    34  H    0.000001   0.019440   0.010314   0.005033   0.000143   0.000000
    35  H   -0.000002  -0.013880   0.005626   0.004541  -0.000301   0.000000
    36  H   -0.000142   0.158111  -0.030802   0.052869   0.000199   0.000000
    37  H   -0.008480  -0.108225  -0.001923  -0.001660  -0.000094   0.000000
    38  H   -0.003464  -0.214473   0.008171   0.015598  -0.000063   0.000000
    39  H   -0.000013  -0.001015  -0.000002  -0.000149   0.000000   0.000019
    40  H    0.000000   0.000271   0.000000  -0.000040   0.000000  -0.000037
    41  H    0.000000  -0.000025   0.000000  -0.000010   0.000000  -0.011534
    42  H    0.000011   0.043039   0.000293  -0.002996  -0.000006   0.000004
    43  H    0.000000   0.001116   0.000000  -0.000139   0.000000  -0.000119
    44  H    0.000000   0.000101   0.000000   0.000132   0.000000  -0.000011
    45  H    0.000000  -0.000212   0.000000  -0.000026   0.000000  -0.000111
             31         32         33         34         35         36
     1  O    0.000000   0.000000   0.000000   0.000000  -0.000001   0.000000
     2  C    0.000000  -0.000002   0.000066   0.000677  -0.000777   0.000120
     3  C    0.000000   0.000007   0.000054  -0.000025   0.000802   0.000148
     4  O    0.000000   0.000000   0.000000   0.000000   0.000012   0.000000
     5  H    0.000000   0.000000   0.000000   0.000000   0.000000   0.000000
     6  C    0.000009   0.000522   0.000382   0.003987   0.008045   0.004084
     7  O    0.000000   0.000004   0.000017   0.000069  -0.000271   0.000164
     8  H    0.000000   0.000000   0.000000   0.000005   0.000198   0.000017
     9  C    0.000000  -0.000005  -0.000236  -0.000020  -0.000036   0.000084
    10  O    0.000000   0.000000   0.000000   0.000000   0.000002   0.000000
    11  H    0.000000   0.000000   0.000000   0.000000   0.000000   0.000000
    12  C    0.000001  -0.000027   0.000329  -0.000295   0.004855   0.000903
    13  O    0.000000  -0.000007   0.000414   0.002897  -0.000242  -0.000207
    14  C    0.000505   0.007064  -0.014156  -0.017674  -0.022702   0.057102
    15  O   -0.000003   0.000237  -0.001438  -0.006154  -0.052685   0.006376
    16  C    0.002988   0.143271   0.155067  -0.019328   0.306177   0.040791
    17  C    0.004728  -0.011457  -0.312676   0.303249   0.003625   0.002137
    18  O    0.000052  -0.000725   0.002804  -0.066911  -0.000594  -0.000859
    19  H    0.000000   0.000013  -0.000104  -0.006038   0.000222   0.000155
    20  C   -0.015916  -0.201682   0.387069  -0.095587   0.011361  -0.057954
    21  O    0.001210   0.008518  -0.045711   0.004576  -0.000495   0.000153
    22  H   -0.004927  -0.000422  -0.000784  -0.000178  -0.000003   0.000004
    23  C    0.001469  -0.010869   0.013893   0.022743  -0.011060  -0.005744
    24  O   -0.000001   0.000040  -0.000008  -0.000169   0.000030   0.005362
    25  H    0.000000   0.000000   0.000000   0.000001  -0.000002  -0.000142
    26  C    0.012954  -0.124427  -0.034056   0.019440  -0.013880   0.158111
    27  O   -0.000069  -0.055855   0.007560   0.010314   0.005626  -0.030802
    28  C   -0.000656   0.506089   0.074870   0.005033   0.004541   0.052869
    29  O    0.237554  -0.047811  -0.005366   0.000143  -0.000301   0.000199
    30  H    0.000000   0.000000   0.000000   0.000000   0.000000   0.000000
    31  H    0.400596  -0.009341   0.000141   0.000009   0.000001  -0.000005
    32  H   -0.009341   0.648307   0.005630   0.007333  -0.000060   0.009691
    33  H    0.000141   0.005630   0.609244   0.008779   0.003923   0.000026
    34  H    0.000009   0.007333   0.008779   0.710252   0.006995   0.005292
    35  H    0.000001  -0.000060   0.003923   0.006995   0.584453   0.004595
    36  H   -0.000005   0.009691   0.000026   0.005292   0.004595   0.607258
    37  H   -0.000002   0.000028   0.000003  -0.000001   0.000048  -0.007802
    38  H   -0.000001  -0.000012  -0.000022  -0.000021   0.002911   0.006171
    39  H    0.000000   0.000000   0.000000  -0.000004  -0.000017  -0.000005
    40  H    0.000000   0.000000   0.000000   0.000000  -0.000012   0.000000
    41  H    0.000000   0.000000   0.000000   0.000000   0.000000   0.000000
    42  H    0.000000   0.000000  -0.000020  -0.000024   0.011872  -0.000032
    43  H    0.000000   0.000000   0.000000   0.000000  -0.000016   0.000000
    44  H    0.000000   0.000000   0.000000   0.000000   0.000000   0.000000
    45  H    0.000000   0.000000   0.000000   0.000000   0.000000   0.000000
             37         38         39         40         41         42
     1  O    0.000000   0.000000  -0.000577  -0.002697  -0.042968   0.000000
     2  C    0.000024  -0.000059   0.072297   0.089039   0.425149   0.000414
     3  C   -0.000111   0.000785  -0.176327   0.246980  -0.074080  -0.026095
     4  O    0.000000   0.000004   0.006332  -0.037045   0.002625   0.000049
     5  H    0.000000   0.000000  -0.000035  -0.003973  -0.000575   0.000000
     6  C   -0.001902   0.000899   0.246424  -0.271090  -0.031714  -0.167346
     7  O   -0.000738   0.002304  -0.039719   0.010639   0.000334   0.005225
     8  H    0.000280   0.000811  -0.006879  -0.000058   0.000004  -0.000151
     9  C   -0.000002  -0.000002   0.017219   0.034578   0.017868   0.016439
    10  O    0.000000   0.000000   0.000014   0.000009  -0.000411   0.000087
    11  H    0.000000   0.000000   0.000000   0.000000   0.000002   0.000000
    12  C    0.000017   0.000279   0.001517  -0.009957  -0.129655   0.008240
    13  O   -0.000007   0.000131   0.011851   0.009010   0.009542  -0.062499
    14  C    0.006765   0.003452   0.071290   0.144385   0.070564   0.392379
    15  O   -0.000356   0.004415  -0.008038  -0.001136  -0.000347  -0.072671
    16  C    0.008576   0.013289   0.026224   0.006769  -0.002954   0.021802
    17  C   -0.008548   0.002334   0.008069   0.002444   0.001305   0.039509
    18  O    0.000048   0.000010   0.000034   0.000045   0.000050  -0.000846
    19  H    0.000000   0.000001   0.000004  -0.000001  -0.000002   0.000412
    20  C    0.002582  -0.005795   0.000611  -0.000039  -0.000030   0.010103
    21  O   -0.000007   0.000004   0.000000   0.000000   0.000000   0.000014
    22  H    0.000000   0.000000   0.000000   0.000000   0.000000   0.000000
    23  C    0.486537   0.536428   0.004022   0.000623   0.000059   0.003506
    24  O   -0.048465  -0.075774   0.001249   0.000100   0.000008   0.000478
    25  H   -0.008480  -0.003464  -0.000013   0.000000   0.000000   0.000011
    26  C   -0.108225  -0.214473  -0.001015   0.000271  -0.000025   0.043039
    27  O   -0.001923   0.008171  -0.000002   0.000000   0.000000   0.000293
    28  C   -0.001660   0.015598  -0.000149  -0.000040  -0.000010  -0.002996
    29  O   -0.000094  -0.000063   0.000000   0.000000   0.000000  -0.000006
    30  H    0.000000   0.000000   0.000019  -0.000037  -0.011534   0.000004
    31  H   -0.000002  -0.000001   0.000000   0.000000   0.000000   0.000000
    32  H    0.000028  -0.000012   0.000000   0.000000   0.000000   0.000000
    33  H    0.000003  -0.000022   0.000000   0.000000   0.000000  -0.000020
    34  H   -0.000001  -0.000021  -0.000004   0.000000   0.000000  -0.000024
    35  H    0.000048   0.002911  -0.000017  -0.000012   0.000000   0.011872
    36  H   -0.007802   0.006171  -0.000005   0.000000   0.000000  -0.000032
    37  H    0.591357  -0.046059   0.000001   0.000000   0.000000   0.000002
    38  H   -0.046059   0.595809  -0.000005   0.000000   0.000000  -0.000002
    39  H    0.000001  -0.000005   0.606088   0.006660   0.003752   0.005902
    40  H    0.000000   0.000000   0.006660   0.625552   0.006113   0.003355
    41  H    0.000000   0.000000   0.003752   0.006113   0.611633   0.000061
    42  H    0.000002  -0.000002   0.005902   0.003355   0.000061   0.654807
    43  H    0.000000   0.000000   0.000064   0.003921   0.006144   0.007693
    44  H    0.000000   0.000000   0.000002   0.000003  -0.000054   0.000000
    45  H    0.000000   0.000000  -0.000010  -0.000001   0.003432  -0.000018
             43         44         45
     1  O    0.008215   0.000138   0.003096
     2  C   -0.019364  -0.004539  -0.035240
     3  C    0.004396  -0.008520   0.008479
     4  O    0.000151   0.000030  -0.000036
     5  H    0.000004   0.000000   0.000001
     6  C   -0.072245  -0.003379   0.017873
     7  O    0.000184  -0.000008  -0.000004
     8  H    0.000007   0.000000   0.000000
     9  C    0.023345   0.436608   0.612508
    10  O    0.003954  -0.048641  -0.068094
    11  H   -0.000139  -0.009351  -0.003372
    12  C    0.149462  -0.054299  -0.259258
    13  O   -0.039320   0.001007   0.006664
    14  C    0.153020   0.004841   0.008466
    15  O   -0.000434  -0.000080  -0.000129
    16  C    0.018678   0.011935  -0.005548
    17  C    0.003787  -0.001652   0.000124
    18  O    0.000306  -0.000927   0.000166
    19  H    0.000072   0.000236  -0.000015
    20  C    0.000914  -0.000312   0.000056
    21  O    0.000000  -0.000005   0.000000
    22  H    0.000000   0.000000   0.000000
    23  C    0.000138   0.000033  -0.000014
    24  O    0.000004   0.000000   0.000000
    25  H    0.000000   0.000000   0.000000
    26  C    0.001116   0.000101  -0.000212
    27  O    0.000000   0.000000   0.000000
    28  C   -0.000139   0.000132  -0.000026
    29  O    0.000000   0.000000   0.000000
    30  H   -0.000119  -0.000011  -0.000111
    31  H    0.000000   0.000000   0.000000
    32  H    0.000000   0.000000   0.000000
    33  H    0.000000   0.000000   0.000000
    34  H    0.000000   0.000000   0.000000
    35  H   -0.000016   0.000000   0.000000
    36  H    0.000000   0.000000   0.000000
    37  H    0.000000   0.000000   0.000000
    38  H    0.000000   0.000000   0.000000
    39  H    0.000064   0.000002  -0.000010
    40  H    0.003921   0.000003  -0.000001
    41  H    0.006144  -0.000054   0.003432
    42  H    0.007693   0.000000  -0.000018
    43  H    0.618884  -0.009820   0.007382
    44  H   -0.009820   0.589701  -0.052007
    45  H    0.007382  -0.052007   0.626385
 Mulliken atomic charges:
              1
     1  O   -0.518159
     2  C   -0.180666
     3  C    0.067759
     4  O   -0.505888
     5  H    0.352750
     6  C   -0.185404
     7  O   -0.535273
     8  H    0.455430
     9  C   -0.034263
    10  O   -0.549193
    11  H    0.360409
    12  C    0.316645
    13  O   -0.398256
    14  C    0.361975
    15  O   -0.347452
    16  C   -0.107923
    17  C   -0.037189
    18  O   -0.467556
    19  H    0.383533
    20  C    0.057309
    21  O   -0.486219
    22  H    0.349853
    23  C   -0.104087
    24  O   -0.607390
    25  H    0.384386
    26  C    0.103588
    27  O   -0.321517
    28  C    0.160793
    29  O   -0.575758
    30  H    0.363983
    31  H    0.368703
    32  H    0.125947
    33  H    0.144306
    34  H    0.100634
    35  H    0.142862
    36  H    0.141741
    37  H    0.138114
    38  H    0.151946
    39  H    0.143152
    40  H    0.135591
    41  H    0.135713
    42  H    0.107011
    43  H    0.129756
    44  H    0.148840
    45  H    0.129467
 Sum of Mulliken atomic charges =   0.00000
 Mulliken charges with hydrogens summed into heavy atoms:
              1
     1  O   -0.154177
     2  C   -0.044953
     3  C    0.203349
     4  O   -0.153138
     6  C   -0.042252
     7  O   -0.079843
     9  C    0.244043
    10  O   -0.188784
    12  C    0.446401
    13  O   -0.398256
    14  C    0.468987
    15  O   -0.347452
    16  C    0.034939
    17  C    0.063445
    18  O   -0.084023
    20  C    0.201615
    21  O   -0.136366
    23  C    0.185973
    24  O   -0.223004
    26  C    0.245328
    27  O   -0.321517
    28  C    0.286740
    29  O   -0.207055
 Sum of Mulliken charges with hydrogens summed into heavy atoms =   0.00000
 APT atomic charges:
              1
     1  O   -0.636896
     2  C    0.399365
     3  C    0.420363
     4  O   -0.626181
     5  H    0.255016
     6  C    0.375806
     7  O   -0.754539
     8  H    0.486243
     9  C    0.488125
    10  O   -0.633663
    11  H    0.256957
    12  C    0.452611
    13  O   -0.856735
    14  C    0.926305
    15  O   -0.841207
    16  C    0.381586
    17  C    0.409786
    18  O   -0.672843
    19  H    0.330160
    20  C    0.372708
    21  O   -0.613138
    22  H    0.270684
    23  C    0.459371
    24  O   -0.682646
    25  H    0.263405
    26  C    0.452826
    27  O   -0.765426
    28  C    0.909647
    29  O   -0.689618
    30  H    0.262454
    31  H    0.268092
    32  H   -0.069393
    33  H   -0.043701
    34  H   -0.074347
    35  H   -0.017875
    36  H   -0.034792
    37  H   -0.053979
    38  H   -0.029918
    39  H   -0.038788
    40  H   -0.050534
    41  H   -0.043507
    42  H   -0.057574
    43  H   -0.050586
    44  H   -0.042952
    45  H   -0.060677
 Sum of APT charges=   0.00000
 APT Atomic charges with hydrogens summed into heavy atoms:
[...]
 ,0.07248631,-0.02134386,-0.00656645,-0.00835178,-0.00051913,-0.0005581
 3,0.00499681,0.00020400,0.00029723,-0.00029808,0.00045442,-0.00012445,
 -0.00020505,-0.00013764,-0.00032696,0.00043011,-0.00015286,0.00012133,
 0.00001870,0.00005526,-0.00000500,-0.00004208,-0.00000497,0.00001476,-
 0.00000907,-0.00022421,0.00005076,0.00017588,0.00014231,-0.00006148,0.
 00002923,-0.00000480,-0.00003422,-0.00005763,0.00085850,-0.00005582,0.
 00005617,0.00004578,-0.00008301,-0.00034820,0.00002241,-0.00005352,0.0
 0002600,0.00000429,0.00000829,-0.00002459,0.00000161,-0.00000297,-0.00
 001376,0.00000017,0.00000287,-0.00000156,0.00000445,0.00000972,0.00000
 575,0.00006000,0.00001267,-0.00004344,0.00013118,-0.00019252,0.0001964
 0,0.00189280,0.00042651,-0.00100607,0.00016116,0.00015217,0.00036834,0
 .00003682,0.00000474,-0.00000889,0.00006581,-0.00003664,-0.00003456,0.
 00050716,0.00024028,0.00032995,0.00064849,0.00025052,0.00023088,0.0000
 3457,-0.00006884,-0.00025384,0.35841368,-0.00006680,0.00034025,-0.0002
 9601,-0.00042448,-0.00058950,-0.00014469,-0.00105933,0.00002362,-0.001
 08222,0.00051491,-0.00002434,0.00020833,0.00015317,-0.00004235,0.00004
 688,-0.02470502,-0.00333625,0.00929004,0.00093092,0.00332178,-0.000488
 99,-0.00049278,-0.00025257,-0.00004621,0.00026522,0.00011269,0.0000454
 4,-0.00024351,-0.00026492,-0.00016619,-0.00000158,0.00003591,-0.000017
 40,0.00498481,0.00141296,0.00384497,0.03613157,-0.01260357,-0.01989081
 ,-0.04538899,-0.04737762,0.01481309,-0.00973515,0.00237118,-0.00348011
 ,-0.00043150,-0.00005960,0.00154861,0.00031359,-0.00009474,-0.00010873
 ,-0.00022776,0.00010654,0.00019757,0.00000727,0.00005349,-0.00066525,-
 0.00001352,0.00004099,0.00008993,-0.00000861,0.00005878,-0.00008836,0.
 00000226,0.00000773,0.00000429,-0.00011864,0.00005597,-0.00002214,0.00
 009092,-0.00003924,0.00007656,-0.00002639,-0.00002063,-0.00002763,0.00
 002538,0.00008950,0.00006427,0.00003253,-0.00002149,-0.00016389,0.0000
 0465,-0.00004003,0.00010158,0.00001453,0.00000967,-0.00006190,-0.00001
 464,0.00001216,0.00001533,0.00000179,0.00000167,0.00001128,-0.00000515
 ,-0.00000133,-0.00000142,-0.00001803,0.00000685,0.00000844,0.00002997,
 -0.00003638,0.00002943,0.00051494,0.00057575,-0.00016038,0.00003594,-0
 .00000488,0.00005048,0.00002682,-0.00002454,0.00000185,0.00003247,-0.0
 0002325,-0.00003361,0.00023042,-0.00343357,0.00273889,0.00052046,0.000
 24258,0.00032336,-0.00002076,-0.00019997,-0.00000163,0.03978724,0.0593
 7062,-0.00006059,-0.00006533,-0.00023847,-0.00025391,0.00026809,-0.000
 08221,0.00183897,0.00012014,0.00084909,-0.00061316,-0.00004002,0.00002
 399,-0.00003592,-0.00005741,-0.00001599,0.02414219,0.00529367,-0.00480
 183,-0.00200841,-0.00169668,0.00143004,-0.00016103,0.00009798,-0.00019
 166,-0.00001301,-0.00010370,0.00001541,-0.00010906,-0.00013709,-0.0001
 0610,0.00001170,0.00001669,-0.00001245,0.00345109,0.00004626,0.0024587
 6,0.01252616,-0.00843662,-0.00367251,0.08229637,0.01829100,-0.06375464
 ,-0.03400670,-0.00789734,-0.01165946,-0.00824484,-0.00201083,0.0013850
 5,0.00023769,0.00013706,-0.00048172,0.00004540,0.00010051,0.00025477,-
 0.00008591,-0.00017298,-0.00035158,-0.00004802,0.00010147,0.00002982,0
 .00002252,0.00003511,-0.00003607,0.00000410,0.00000342,-0.00000420,-0.
 00013657,0.00014604,0.00015244,0.00008435,-0.00013144,0.00006473,0.000
 02289,-0.00002561,-0.00006065,-0.00061912,-0.00004572,0.00007476,0.000
 21129,0.00013184,-0.00011529,0.00002085,-0.00012394,0.00007482,0.00001
 380,0.00003000,-0.00003692,-0.00001932,-0.00000014,0.00000324,0.000000
 87,0.00000170,0.00000667,-0.00000195,-0.00000228,0.00001593,0.00004009
 ,0.00001462,-0.00004543,0.00021390,-0.00006793,0.00007571,0.00047617,-
 0.00013872,-0.00143851,0.00019442,-0.00002428,-0.00009010,0.00001346,-
 0.00000967,-0.00000156,0.00003206,-0.00003878,-0.00000981,-0.00015755,
 0.00320981,-0.00255205,-0.00064408,0.00000481,-0.00051521,-0.00022708,
 -0.00001801,0.00019207,-0.07739345,-0.00670908,0.08326970,0.00112929,0
 .00000827,0.00137950,-0.00836226,-0.00071385,0.00252821,-0.00055794,0.
 00173748,-0.00022922,0.00075033,0.00032359,-0.00011138,-0.00013566,0.0
 0005455,0.00008453,0.00003825,-0.00003840,-0.00025176,0.00016167,-0.00
 026684,0.00000605,-0.00000650,0.00003379,0.00000506,-0.00938531,0.0017
 5882,0.00270825,0.00090287,0.00073253,0.00076872,-0.00000907,-0.000018
 58,0.00015551,-0.33813997,0.00336715,0.06931204,-0.02076522,-0.0044040
 9,-0.01212575,-0.00062460,0.00309218,0.00190093,0.00085093,-0.00001579
 ,-0.00024540,-0.00021191,-0.00005031,0.00005424,-0.00002714,0.00018913
 ,0.00011685,0.00018205,-0.00001701,-0.00036800,-0.00000917,-0.00023255
 ,0.00060327,-0.00007399,-0.00004378,0.00000774,0.00003188,0.00001832,-
 0.00002074,-0.00000684,-0.00000435,0.00000026,-0.00002580,0.00000478,0
 .00001252,0.00001498,-0.00001632,-0.00001393,-0.00000674,0.00000157,-0
 .00000527,0.00002465,-0.00000104,0.00001658,0.00002169,0.00000127,-0.0
 0005000,0.00000059,0.00000937,0.00003061,0.00001580,-0.00000187,-0.000
 04807,0.00017997,0.00003356,0.00001737,-0.00000012,-0.00000034,0.00000
 439,0.00000766,0.00000477,0.00000276,0.00002206,-0.00000282,-0.0000121
 9,0.00000766,-0.00001425,0.00000554,0.00004153,-0.00002084,-0.00004322
 ,0.00000978,0.00000194,0.00001339,0.00000128,-0.00000629,-0.00000342,0
 .00000838,-0.00000305,-0.00000156,0.00008037,0.00020371,0.00010957,0.0
 0130880,-0.00044283,-0.00056274,0.00047086,-0.00069990,0.00042668,0.00
 084857,-0.00138928,-0.00087026,0.37000277,0.00125618,0.00024229,-0.000
 41953,-0.02468372,-0.00198163,0.00798986,-0.00255733,-0.00033191,0.001
 37892,0.00066387,0.00021549,-0.00051327,-0.00009105,0.00011068,0.00001
 150,0.00000080,-0.00024499,-0.00015978,0.00016383,-0.00001755,0.000014
 35,-0.00002035,-0.00000662,-0.00005448,0.03608219,-0.00341137,-0.00667
 000,-0.00226595,0.00139668,0.00027157,0.00001365,0.00023369,0.00013054
 ,0.00632247,-0.04532923,0.00048727,-0.00987719,0.00013461,-0.00409342,
 -0.00353628,0.00085095,0.00002451,0.00036992,-0.00012390,0.00010924,0.
 00004431,0.00003221,-0.00005698,-0.00001248,0.00009080,0.00008240,-0.0
 0008441,-0.00001089,-0.00011744,0.00009367,-0.00010850,0.00008582,0.00
 001609,-0.00000641,-0.00000554,-0.00001441,-0.00001121,-0.00000373,0.0
 0000510,0.00000054,0.00000254,0.00000077,0.00000867,-0.00002216,0.0000
 1053,-0.00000124,0.00003803,-0.00000562,-0.00000310,-0.00000266,0.0000
 1739,-0.00000584,-0.00001150,-0.00000283,-0.00002424,0.00002627,-0.000
 00421,0.00003801,-0.00001051,-0.00000246,-0.00001122,0.00000035,0.0001
 1062,-0.00002317,-0.00018482,0.00000065,0.00000093,0.00000028,-0.00000
 087,-0.00000387,-0.00000117,-0.00000504,0.00000588,0.00000364,-0.00000
 449,-0.00002182,-0.00001301,0.00001382,0.00001592,-0.00002630,0.000001
 20,0.00000268,0.00000636,0.00000195,-0.00000177,0.00000465,0.00000077,
 -0.00000317,-0.00000421,0.00020316,0.00015740,0.00004151,0.00059762,-0
 .00055514,0.00015742,-0.00064910,-0.00288886,0.00276599,0.00045889,0.0
 0024957,-0.00017740,-0.00459993,0.05603022,-0.00171673,-0.00062263,0.0
 0151407,0.02690316,0.00311492,-0.00385606,0.00137790,-0.00144771,0.000
 12166,-0.00076893,0.00000967,0.00010396,0.00019196,-0.00007074,-0.0000
 1591,0.00038015,-0.00001180,-0.00050480,0.00005642,-0.00024195,0.00025
 529,-0.00001432,0.00007238,-0.00002095,0.00953020,0.00084527,0.0000197
 6,-0.00073737,0.00060444,0.00030207,-0.00007562,0.00007879,0.00001294,
 0.07423526,-0.00097627,-0.05939923,-0.04118747,-0.00556970,-0.00734885
 ,-0.00452344,0.00301665,0.00244356,0.00056846,-0.00008301,-0.00036580,
 -0.00008191,-0.00008883,0.00014174,0.00000012,0.00010060,0.00004854,0.
 00019259,0.00003813,-0.00018448,-0.00005598,-0.00035950,0.00059964,-0.
 00004125,-0.00004354,0.00001573,0.00000733,0.00002699,-0.00002253,-0.0
 0000019,-0.00000332,0.00000157,-0.00000270,0.00002099,-0.00000082,-0.0
 0000270,-0.00002660,0.00001169,0.00000492,0.00000298,-0.00000526,0.000
 01904,0.00001441,0.00002337,0.00000544,0.00000338,-0.00005109,0.000012
 68,-0.00000399,0.00003367,0.00000726,0.00000256,-0.00003971,-0.0000178
 0,-0.00020196,0.00053918,0.00000222,-0.00000120,0.00000465,0.00000093,
 0.00000405,0.00000176,0.00001009,-0.00000147,-0.00000871,0.00000245,-0
 .00000266,0.00000678,0.00002703,-0.00000757,-0.00006256,0.00000316,0.0
 0000166,0.00000688,-0.00000108,-0.00000767,-0.00000137,0.00000053,-0.0
 0000153,0.00000176,-0.00007349,0.00000497,-0.00017022,-0.00069889,0.00
 041578,0.00047128,0.00048458,0.00349033,-0.00318541,0.00111578,0.00014
 908,-0.00007175,-0.06439761,-0.00020996,0.06761046,0.00000733,-0.00027
 475,0.00006263,-0.00023701,0.00200800,0.00153636,0.00059430,0.00016491
 ,-0.00049473,-0.00013866,0.00036417,-0.00002106,0.00000521,-0.00000687
 ,0.00003668,-0.00002920,-0.00001335,-0.00000334,0.00000586,0.00000545,
 -0.00000422,0.00000194,0.00000684,0.00001533,-0.06744651,-0.04154514,0
 .06535386,0.00518828,0.00465994,-0.02166653,0.00127978,0.00107381,0.00
 076165,0.00323851,0.01207926,-0.01123996,0.00018463,-0.00170651,-0.000
 69652,-0.00016641,0.00008818,-0.00008451,-0.00006623,-0.00005931,-0.00
 015391,0.00002554,-0.00002921,0.00012305,0.00004860,-0.00021222,-0.000
 16843,-0.00020353,0.00035972,0.00030635,-0.00001423,-0.00045053,-0.000
 25129,0.00005571,0.00003896,0.00001247,-0.00002519,0.00000920,0.000010
 92,0.00000471,0.00000347,-0.00000259,0.00000190,-0.00000711,0.00002982
 ,-0.00000079,0.00000907,-0.00001972,0.00000233,-0.00000220,0.00000063,
 -0.00000605,0.00002582,-0.00001658,-0.00001162,0.00002536,-0.00002155,
 0.00000033,-0.00005718,-0.00000713,-0.00001005,0.00001736,0.00003518,-
 0.00014476,0.00007321,-0.00014845,-0.00000042,-0.00000207,-0.00000446,
 -0.00000556,-0.00000120,-0.00000154,-0.00001607,0.00000513,0.00000444,
 0.00000812,0.00003360,0.00003033,-0.00000839,0.00001425,-0.00000410,-0
 .00000735,-0.00000415,-0.00000520,-0.00000117,0.00000674,-0.00000174,-
 0.00000158,0.00000337,-0.00000063,0.00000900,0.00000495,0.00001008,-0.
 00003054,-0.00007397,-0.00002266,0.00016563,0.00042064,-0.00016173,-0.
 00004261,0.00003458,0.00000868,0.00074713,-0.00056552,-0.00093752,0.06
 436149,-0.00000056,0.00069387,0.00000426,0.00276643,-0.00457136,-0.004
 63620,-0.00091616,0.00009513,0.00181174,0.00035691,-0.00129501,0.00005
 364,-0.00011437,0.00012160,-0.00016526,-0.00000969,0.00022651,0.000530
 28,-0.00005549,0.00003470,-0.00037705,0.00005973,-0.00001949,0.0001490
 9,-0.03811058,-0.13778841,0.14303494,-0.00037130,0.00630517,-0.0274739
 8,0.00020148,0.00241160,-0.00111368,-0.00817277,-0.02225461,0.02694542
 ,0.00042008,0.00239444,0.00034727,0.00018322,-0.00027752,-0.00010490,0
 .00000877,0.00010864,-0.00023352,-0.00006147,-0.00004004,0.00012094,0.
 00011091,-0.00036093,-0.00031185,0.00007911,0.00039146,0.00052053,-0.0
 0032924,-0.00035523,-0.00028388,0.00001073,0.00007732,-0.00001542,0.00
 001038,-0.00000912,0.00004425,-0.00000425,0.00000635,-0.00001052,-0.00
 002158,-0.00005912,0.00009199,-0.00001243,0.00004081,-0.00013202,0.000
 00531,-0.00000457,0.00001369,-0.00000101,-0.00000120,-0.00004375,-0.00
 000558,0.00005892,-0.00002457,0.00000731,-0.00010484,-0.00003479,-0.00
 001454,0.00002861,0.00007007,0.00003637,-0.00013855,-0.00012848,-0.000
 00264,-0.00000280,-0.00001132,-0.00000240,0.00000541,0.00000250,0.0000
 0179,-0.00000769,-0.00000699,0.00002843,0.00008390,0.00007397,0.000009
 28,-0.00001345,-0.00001440,-0.00000629,-0.00000062,0.00000017,0.000001
 58,0.00001992,-0.00001174,0.00000315,0.00000563,-0.00000318,-0.0000007
 1,-0.00001225,-0.00003253,0.00012378,-0.00003978,-0.00008626,-0.000053
 67,0.00017706,-0.00009602,-0.00000376,-0.00002658,0.00001258,0.0001569
 3,0.00140643,0.00010776,0.04298862,0.15076283,0.00009942,0.00043490,0.
 00015419,-0.00054538,-0.00127421,-0.00033870,0.00003540,-0.00004442,0.
 00012807,0.00003201,-0.00012501,0.00006702,0.00000004,-0.00003358,-0.0
 0002381,0.00004529,-0.00004409,-0.00014171,0.00000424,-0.00006019,0.00
 004594,0.00000075,0.00001418,-0.00000417,0.06236181,0.14047845,-0.2428
 7626,-0.00298254,-0.00111052,-0.03991079,-0.00029838,0.00050203,0.0003
 5084,0.00049374,-0.00211028,0.00239973,0.00028916,-0.00162568,0.000971
 28,-0.00016238,-0.00007369,0.00044726,-0.00001743,0.00000694,0.0000152
 2,0.00001445,0.00001093,-0.00000148,0.00002219,0.00004172,0.00000292,-
 0.00000017,-0.00012170,-0.00006280,-0.00002536,0.00008764,0.00004362,-
 0.00000511,-0.00000381,-0.00001063,-0.00000402,-0.00001497,-0.00000553
 ,0.00000193,0.00000245,0.00000518,0.00000269,0.00001126,-0.00001117,-0
 .00000438,-0.00001305,0.00001051,0.00000158,0.00000364,-0.00000211,-0.
 00000228,0.00000461,0.00000735,-0.00000043,-0.00001756,0.00000151,-0.0
 0000163,0.00002356,0.00001350,0.00000382,-0.00001099,-0.00001941,-0.00
 004899,-0.00026490,0.00001016,0.00000048,0.00000339,0.00000509,-0.0000
 0008,-0.00000102,-0.00000131,-0.00000063,0.00000132,0.00000239,-0.0000
 0730,0.00000122,-0.00000409,-0.00000339,0.00000376,-0.00000071,-0.0000
 0038,0.00000015,-0.00000065,-0.00000106,-0.00000373,-0.00000039,-0.000
 00009,-0.00000028,0.00000145,-0.00001445,0.00000465,0.00000803,0.00000
 237,-0.00000984,-0.00000618,-0.00000231,-0.00006522,0.00005471,0.00000
 257,0.00001797,-0.00001273,-0.00033016,0.00008520,0.00065950,-0.060941
 09,-0.13804742,0.27911686,0.00024736,0.00006694,-0.00020599,0.00052208
 ,-0.00090909,0.00043490,0.00028022,0.00000843,-0.00012056,0.00008106,0
 .00019546,-0.00002672,-0.00003677,-0.00001716,0.00002861,-0.00007808,-
 0.00005007,-0.00007312,0.00005223,-0.00002570,0.00003924,-0.00002183,-
 0.00000525,-0.00001758,-0.34827594,0.00537676,0.04208753,-0.01168910,-
 0.01109779,-0.01377609,-0.00045611,0.00019210,-0.00047051,-0.01572634,
 0.00151814,0.00287249,0.00190076,-0.00070405,0.00006724,0.00048199,0.0
 0010614,0.00011080,0.00008252,0.00012911,0.00015497,-0.00002677,0.0000
 2196,-0.00004348,-0.00001390,0.00009180,0.00004678,0.00017932,-0.00014
 592,-0.00002960,-0.00022512,0.00019247,0.00014928,-0.00003508,-0.00002
 023,-0.00000728,0.00002987,-0.00000043,0.00000149,-0.00000924,-0.00000
 226,0.00000044,-0.00000986,-0.00000022,-0.00000684,0.00002048,0.000004
 79,0.00001455,-0.00000924,0.00000005,-0.00000218,-0.00002103,-0.000014
 41,0.00000625,0.00001953,-0.00000679,0.00001187,-0.00001375,0.00002216
 ,0.00000271,0.00001027,-0.00000520,-0.00001734,-0.00021429,0.00010748,
 -0.00020280,-0.00000265,0.00000030,0.00000188,0.00000698,0.00000217,0.
 00000223,0.00001430,-0.00000403,-0.00000527,0.00000514,0.00000464,0.00
 001215,0.00001318,-0.00001103,0.00000044,0.00000775,0.00000124,0.00000
 799,-0.00000003,-0.00000141,0.00000166,0.00000457,-0.00000182,-0.00000
 115,0.00004288,0.00004549,0.00001098,0.00014618,-0.00022230,-0.0000659
 5,0.00029376,0.00091909,-0.00050448,0.00010556,-0.00029443,-0.00019904
 ,0.00048646,0.00253377,0.00019533,-0.00732237,0.00070017,0.00198551,0.
 37915304,-0.00019851,0.00022418,0.00057026,0.00081466,0.00257144,-0.00
 075606,0.00023974,0.00001173,-0.00028791,-0.00023148,-0.00010009,0.000
 15192,0.00003380,-0.00004034,-0.00002477,0.00005394,0.00012265,0.00001
 007,-0.00004879,-0.00000770,0.00000940,0.00001265,0.00001350,0.0000167
 9,0.00438905,-0.04460401,0.00712611,-0.02279304,-0.00490565,-0.0125210
 5,-0.00137587,0.00019180,0.00005464,0.03786804,-0.00572311,-0.00607853
 ,-0.00082077,0.00205565,0.00182716,0.00044714,0.00004619,0.00009475,-0
 .00021410,-0.00003005,-0.00013657,-0.00001121,-0.00002378,0.00005906,0
 .00002842,-0.00001224,-0.00001021,0.00004541,0.00000539,0.00000036,-0.
 00003281,0.00004381,0.00001341,-0.00001206,-0.00001032,0.00000496,0.00
 000906,0.00001473,-0.00000690,-0.00000352,-0.00000160,0.00000010,0.000
 00144,0.00000483,0.00000134,-0.00001083,-0.00000892,-0.00000768,0.0000
 0487,0.00000298,-0.00000080,-0.00000180,0.00000821,0.00001847,0.000000
 63,0.00000569,-0.00002305,0.00000261,-0.00001189,0.00001911,0.00000417
 ,0.00000274,-0.00001552,0.00006621,-0.00023050,0.00016259,-0.00000031,
 0.00000039,0.00000269,0.00000026,0.00000149,-0.00000039,0.00000136,-0.
 00000348,-0.00000051,-0.00000260,0.00000933,0.00000383,-0.00000144,0.0
 0000096,0.00000975,-0.00000083,-0.00000068,-0.00000290,-0.00000153,-0.
 00000266,-0.00000190,-0.00000051,0.00000141,0.00000257,-0.00004376,-0.
 00005466,-0.00001384,-0.00032475,0.00004507,0.00013000,-0.00063669,-0.
 00032268,0.00029889,-0.00031245,0.00001710,0.00006817,0.00127061,-0.00
 609598,-0.00214216,-0.01951334,0.00192684,0.00333623,0.00129893,0.0548
 6223,0.00023171,-0.00003695,0.00010214,-0.00080023,-0.00023905,-0.0000
 3132,-0.00003508,0.00011455,0.00011086,0.00002512,-0.00014190,0.000006
 92,-0.00002281,0.00003284,-0.00002093,0.00001387,0.00006104,0.00011613
 ,-0.00002867,-0.00000178,-0.00008252,0.00002359,0.00000588,0.00003867,
 0.04323415,0.00662549,-0.04749658,-0.03953275,-0.01331105,-0.00977260,
 -0.00106552,0.00067599,0.00066550,0.00212253,0.00001015,0.00183257,0.0
 0021336,-0.00032517,0.00043387,0.00023287,0.00014922,-0.00009659,-0.00
 009551,0.00002470,-0.00010533,0.00002288,-0.00002126,0.00003139,-0.000
 00410,-0.00007395,-0.00002809,-0.00017706,0.00010392,0.00000917,0.0002
 1262,-0.00015817,-0.00020557,0.00002612,0.00001599,0.00001283,-0.00001
 937,0.00001059,-0.00000991,0.00000346,-0.00000147,0.00000191,0.0000012
 5,-0.00000718,0.00001525,-0.00001556,-0.00000065,-0.00003154,0.0000054
 8,0.00000161,0.00000367,0.00000506,0.00000668,0.00000710,-0.00000974,0
 .00001241,-0.00001795,0.00000464,-0.00002070,0.00001476,-0.00000218,0.
 00000520,0.00000022,-0.00011064,0.00004936,-0.00006740,0.00000125,-0.0
 0000060,0.00000097,-0.00000428,-0.00000168,-0.00000236,-0.00001119,0.0
 0000423,0.00000538,-0.00000333,-0.00001069,-0.00001598,-0.00001231,0.0
 0000894,0.00000367,-0.00000527,-0.00000193,-0.00000652,-0.00000051,0.0
 0000087,-0.00000370,-0.00000127,0.00000290,0.00000100,-0.00000503,-0.0
 0001665,0.00000195,-0.00000450,0.00003902,-0.00003188,0.00001355,-0.00
 011210,0.00015996,-0.00011807,-0.00002101,-0.00001810,-0.00057989,-0.0
 0096035,0.00036400,0.02874269,-0.00053539,-0.00108768,-0.03247131,0.00
 803814,0.05519268\\0.00724765,-0.01033536,-0.00597890,0.00859069,0.006
 46287,0.00934316,-0.01349380,-0.03206699,0.00822478,0.00390055,0.01464
 409,0.02818665,-0.00400745,-0.00403645,-0.02712169,0.00958046,-0.00422
 359,-0.02202871,-0.00314555,0.00818309,0.00832399,0.01053120,0.0023733
 1,0.01337005,-0.01499515,0.02549108,0.00217003,0.00938433,0.00669039,0
 .00999525,0.00427173,-0.03373153,-0.00470244,0.00238331,0.00953071,0.0
 1023457,-0.00361887,-0.00773715,-0.00010749,-0.02577281,-0.00265744,-0
 .00679974,0.02158728,0.02321507,0.01444111,-0.04040537,0.00267383,-0.0
 1795481,-0.01955613,0.04784449,0.03257406,0.00359406,-0.00657039,0.010
 88968,0.01648055,0.00589519,-0.02246099,-0.00288841,0.00827522,0.00097
 608,-0.00901121,-0.01056604,-0.01350198,0.00248873,-0.00456527,0.02987
 427,0.00653134,-0.02241613,-0.00447556,-0.01017595,-0.01563207,0.00229
 567,-0.00537072,0.03057833,0.00034950,0.03568903,-0.03927524,0.0193855
 6,-0.01831205,0.01363313,-0.01392544,0.03752955,0.01200837,-0.02383887
 ,-0.00078737,-0.01065820,0.01387411,-0.00221575,0.00363432,0.00133242,
 -0.00385163,-0.00606571,-0.00453759,-0.01882456,-0.00277125,-0.0048390
 7,0.02084261,-0.00083419,-0.00109691,-0.02161417,-0.00182521,-0.002467
 81,0.01555023,-0.00418068,0.00391471,-0.01674683,0.00053831,-0.0009168
 9,-0.00466890,-0.00732447,-0.01728421,0.01989733,0.00181813,-0.0024028
 7,-0.01953794,-0.00158151,0.00580695,0.02104738,0.00301651,-0.00120701
 ,-0.01904342,-0.00222070,0.00057024,0.01866527,0.00314250,-0.00443377,
 0.02192787,-0.00004233,-0.00292853,0.00274907,0.00406316,-0.01957973,-
 0.02242617,-0.00239420,-0.00154184\\\@


 IT IS THE BEHAVIOR AND DISTRIBUTION OF THE ELECTRONS 
 AROUND THE NUCLEUS THAT GIVES THE FUNDAMENTAL 
 CHARACTER OF AN ATOM:  IT MUST BE THE SAME FOR MOLECULES.

                               -- C. A. COULSON, 1951
 Job cpu time:  0 days 13 hours 10 minutes 13.4 seconds.
 File lengths (MBytes):  RWF=   1322 Int=      0 D2E=      0 Chk=     19 Scr=      1
 Normal termination of Gaussian 09 at Tue Mar  1 03:33:46 2016.
Gaussian '09 finished on node008 at Tue Mar  1 03:33:47 EST 2016.
