Gaussian '09 started on node024 at Mon Mar 21 22:47:38 EDT 2016.
 Entering Gaussian System, Link 0=/usr/local/gaussian/g09/g09
 Initial command:
 /usr/local/gaussian/g09/l1.exe /home/srmcgrat/thesis/gaussian/cellobiose/300K/7000ps/1/2dp/gaussian1122/Gau-1158.inp -scrdir=/home/srmcgrat/thesis/gaussian/cellobiose/300K/7000ps/1/2dp/gaussian1122/
 Entering Link 1 = /usr/local/gaussian/g09/l1.exe PID=      1160.
  
 Copyright (c) 1988,1990,1992,1993,1995,1998,2003,2009,2010,
            Gaussian, Inc.  All Rights Reserved.
  
 This is part of the Gaussian(R) 09 program.  It is based on
 the Gaussian(R) 03 system (copyright 2003, Gaussian, Inc.),
 the Gaussian(R) 98 system (copyright 1998, Gaussian, Inc.),
 the Gaussian(R) 94 system (copyright 1995, Gaussian, Inc.),
 the Gaussian 92(TM) system (copyright 1992, Gaussian, Inc.),
 the Gaussian 90(TM) system (copyright 1990, Gaussian, Inc.),
 the Gaussian 88(TM) system (copyright 1988, Gaussian, Inc.),
 the Gaussian 86(TM) system (copyright 1986, Carnegie Mellon
 University), and the Gaussian 82(TM) system (copyright 1983,
 Carnegie Mellon University). Gaussian is a federally registered
 trademark of Gaussian, Inc.
  
 This software contains proprietary and confidential information,
 including trade secrets, belonging to Gaussian, Inc.
  
 This software is provided under written license and may be
 used, copied, transmitted, or stored only in accord with that
 written license.
  
 The following legend is applicable only to US Government
 contracts under FAR:
  
                    RESTRICTED RIGHTS LEGEND
  
 Use, reproduction and disclosure by the US Government is
 subject to restrictions as set forth in subparagraphs (a)
 and (c) of the Commercial Computer Software - Restricted
 Rights clause in FAR 52.227-19.
  
 Gaussian, Inc.
 340 Quinnipiac St., Bldg. 40, Wallingford CT 06492
  
  
 ---------------------------------------------------------------
 Warning -- This program may not be used in any manner that
 competes with the business of Gaussian, Inc. or will provide
 assistance to any competitor of Gaussian, Inc.  The licensee
 of this program is prohibited from giving any competitor of
 Gaussian, Inc. access to this program.  By using this program,
 the user acknowledges that Gaussian, Inc. is engaged in the
 business of creating and licensing software in the field of
 computational chemistry and represents and warrants to the
 licensee that it is not a competitor of Gaussian, Inc. and that
 it will not use this program in any manner prohibited above.
 ---------------------------------------------------------------
  

 Cite this work as:
 Gaussian 09, Revision B.01,
 M. J. Frisch, G. W. Trucks, H. B. Schlegel, G. E. Scuseria, 
 M. A. Robb, J. R. Cheeseman, G. Scalmani, V. Barone, B. Mennucci, 
 G. A. Petersson, H. Nakatsuji, M. Caricato, X. Li, H. P. Hratchian, 
 A. F. Izmaylov, J. Bloino, G. Zheng, J. L. Sonnenberg, M. Hada, 
 M. Ehara, K. Toyota, R. Fukuda, J. Hasegawa, M. Ishida, T. Nakajima, 
 Y. Honda, O. Kitao, H. Nakai, T. Vreven, J. A. Montgomery, Jr., 
 J. E. Peralta, F. Ogliaro, M. Bearpark, J. J. Heyd, E. Brothers, 
 K. N. Kudin, V. N. Staroverov, T. Keith, R. Kobayashi, J. Normand, 
 K. Raghavachari, A. Rendell, J. C. Burant, S. S. Iyengar, J. Tomasi, 
 M. Cossi, N. Rega, J. M. Millam, M. Klene, J. E. Knox, J. B. Cross, 
 V. Bakken, C. Adamo, J. Jaramillo, R. Gomperts, R. E. Stratmann, 
 O. Yazyev, A. J. Austin, R. Cammi, C. Pomelli, J. W. Ochterski, 
 R. L. Martin, K. Morokuma, V. G. Zakrzewski, G. A. Voth, 
 P. Salvador, J. J. Dannenberg, S. Dapprich, A. D. Daniels, 
 O. Farkas, J. B. Foresman, J. V. Ortiz, J. Cioslowski, 
 and D. J. Fox, Gaussian, Inc., Wallingford CT, 2010.
 
 ******************************************
 Gaussian 09:  EM64L-G09RevB.01 12-Aug-2010
                21-Mar-2016 
 ******************************************
 -------------------------------------------------
 # freq=raman b3lyp/6-31+g(2d,p) geom=connectivity
 -------------------------------------------------
 1/10=4,30=1,38=1,57=2/1,3;
 2/12=2,17=6,18=5,40=1/2;
 3/5=1,6=6,7=112,11=2,16=1,25=1,30=1,71=2,74=-5/1,2,3;
 4//1;
 5/5=2,38=5,98=1/2;
 8/6=4,10=90,11=11/1;
 10/13=10,15=4/2;
 11/6=3,8=1,9=11,15=111,16=1/1,2,10;
 10/6=1/2;
 6/7=2,8=2,9=2,10=2,18=1,28=1/1;
 7/8=1,10=1,25=1/1,2,3,16;
 1/10=4,30=1/3;
 99//99;
 -----------------
 300 7000/7000.com
 -----------------
 Symbolic Z-matrix:
 Charge =  0 Multiplicity = 1
 O                     7.898     7.606     12.276 
 C                     8.477     8.095     13.495 
 C                     7.732     9.336     13.96 
 O                     8.005     10.389    13.023 
 H                     7.95      10.097    12.068 
 C                     8.23      9.819     15.312 
 O                     7.585     11.009    15.789 
 H                     7.965     11.154    16.703 
 C                     8.861     5.673     14.207 
 O                     8.374     4.849     13.138 
 H                     8.603     3.92      13.426 
 C                     8.195     7.004     14.515 
 O                     8.633     7.405     15.821 
 C                     7.964     8.616     16.201 
 O                     8.543     8.93      17.476 
 C                     8.069     8.557     18.778 
 C                     8.512     7.139     19.099 
 O                     8.148     6.125     18.152 
 H                     8.549     6.476     17.305 
 C                     8.173     6.78      20.537 
 O                     8.423     5.463     21.048 
 H                     8.209     5.472     22.025 
 C                     8.343     10.957    19.619 
 O                     8.713     11.559    18.37 
 H                     8.492     12.524    18.509 
 C                     8.593     9.478     19.868 
 O                     8.187     9.086     21.187 
 C                     8.698     7.793     21.542 
 O                     7.815     7.737     22.672 
 H                     8.33163   7.69695   23.48014 
 H                     8.85265   11.49573   20.39031 
 H                     7.2943    11.12447   19.74973 
 H                     9.65654   9.362     19.85006 
 H                     6.99963   8.59373   18.77952 
 H                     9.581     7.17115   19.06578 
 H                     7.10869   6.88026   20.58279 
 H                     9.74229   7.7533    21.77174 
 H                     8.59711   7.36106   11.66539 
 H                     8.81969   5.08609   15.10072 
 H                     9.89154   5.87638   14.00325 
 H                     7.13714   6.84725   14.55042 
 H                     9.52631   8.27664   13.39081 
 H                     6.68049   9.14228   14.00116 
 H                     9.28492   9.98952   15.25753 
 H                     6.91199   8.44794   16.30066 
 

 GradGradGradGradGradGradGradGradGradGradGradGradGradGradGradGradGradGrad
 Berny optimization.
 Initialization pass.
 Trust Radius=3.00D-01 FncErr=1.00D-07 GrdErr=1.00D-07
 Number of steps in this run=      2 maximum allowed number of steps=      2.
 GradGradGradGradGradGradGradGradGradGradGradGradGradGradGradGradGradGrad

                          Input orientation:                          
 ---------------------------------------------------------------------
 Center     Atomic      Atomic             Coordinates (Angstroms)
 Number     Number       Type             X           Y           Z
 ---------------------------------------------------------------------
      1          8           0        7.898000    7.606000   12.276000
      2          6           0        8.477000    8.095000   13.495000
      3          6           0        7.732000    9.336000   13.960000
      4          8           0        8.005000   10.389000   13.023000
      5          1           0        7.950000   10.097000   12.068000
      6          6           0        8.230000    9.819000   15.312000
      7          8           0        7.585000   11.009000   15.789000
      8          1           0        7.965000   11.154000   16.703000
      9          6           0        8.861000    5.673000   14.207000
     10          8           0        8.374000    4.849000   13.138000
     11          1           0        8.603000    3.920000   13.426000
     12          6           0        8.195000    7.004000   14.515000
     13          8           0        8.633000    7.405000   15.821000
     14          6           0        7.964000    8.616000   16.201000
     15          8           0        8.543000    8.930000   17.476000
     16          6           0        8.069000    8.557000   18.778000
     17          6           0        8.512000    7.139000   19.099000
     18          8           0        8.148000    6.125000   18.152000
     19          1           0        8.549000    6.476000   17.305000
     20          6           0        8.173000    6.780000   20.537000
     21          8           0        8.423000    5.463000   21.048000
     22          1           0        8.209000    5.472000   22.025000
     23          6           0        8.343000   10.957000   19.619000
     24          8           0        8.713000   11.559000   18.370000
     25          1           0        8.492000   12.524000   18.509000
     26          6           0        8.593000    9.478000   19.868000
     27          8           0        8.187000    9.086000   21.187000
     28          6           0        8.698000    7.793000   21.542000
     29          8           0        7.815000    7.737000   22.672000
     30          1           0        8.331630    7.696951   23.480139
     31          1           0        8.852655   11.495731   20.390311
     32          1           0        7.294304   11.124472   19.749729
     33          1           0        9.656542    9.361997   19.850058
     34          1           0        6.999632    8.593727   18.779517
     35          1           0        9.581001    7.171151   19.065783
     36          1           0        7.108692    6.880257   20.582793
     37          1           0        9.742291    7.753299   21.771737
     38          1           0        8.597114    7.361055   11.665392
     39          1           0        8.819686    5.086090   15.100717
     40          1           0        9.891544    5.876382   14.003247
     41          1           0        7.137136    6.847253   14.550420
     42          1           0        9.526309    8.276644   13.390808
     43          1           0        6.680488    9.142279   14.001162
     44          1           0        9.284920    9.989516   15.257527
     45          1           0        6.911991    8.447938   16.300658
 ---------------------------------------------------------------------
                    Distance matrix (angstroms):
                    1          2          3          4          5
     1  O    0.000000
     2  C    1.435383   0.000000
     3  C    2.419982   1.520306   0.000000
     4  O    2.883496   2.389143   1.435725   0.000000
     5  H    2.500210   2.514371   2.050929   1.000157   0.000000
     6  C    3.771590   2.516878   1.519604   2.369609   3.267908
     7  O    4.900974   3.814380   2.483099   2.865581   3.848482
     8  H    5.673722   4.462162   3.299009   3.758886   4.754019
     9  C    2.897002   2.553524   3.840992   4.937130   4.997701
    10  O    2.927570   3.267197   4.606628   5.553466   5.372726
    11  H    3.925063   4.177471   5.511520   6.509069   6.358137
    12  C    2.337463   1.519936   2.441438   3.704104   3.951517
    13  O    3.625969   2.431196   2.829113   4.138532   4.668872
    14  C    4.053404   2.803042   2.365228   3.639354   4.390358
    15  O    5.404535   4.068162   3.631090   4.716708   5.564171
    16  C    6.573404   5.318834   4.892191   6.039896   6.885482
    17  C    6.866470   5.685066   5.643096   6.909220   7.648566
    18  O    6.064919   5.067227   5.296833   6.671491   7.268497
    19  H    5.195338   4.140344   4.476172   5.826065   6.395046
    20  C    8.306746   7.170175   7.069975   8.337464   9.098142
    21  O    9.045223   7.998634   8.106624   9.425541  10.116229
    22  H    9.984672   8.928205   8.955571  10.259362  10.981783
    23  C    8.083741   6.761093   5.918213   6.629033   7.609970
    24  O    7.309396   5.985033   5.035096   5.519110   6.514201
    25  H    7.961774   6.690027   5.606634   5.906910   6.904388
    26  C    7.850215   6.522367   5.972098   6.930346   7.850899
    27  O    9.037690   7.760995   7.245623   8.269331   9.177933
    28  C    9.302351   8.055697   7.797482   8.932683   9.778783
    29  O   10.397157   9.207808   8.857914  10.008617  10.864283
    30  H   11.212896   9.994127   9.678796  10.803036  11.668025
    31  H    9.048946   7.697493   6.875261   7.498043   8.487173
    32  H    8.282555   7.049688   6.075456   6.804034   7.777827
    33  H    7.971346   6.586605   6.196557   7.098665   8.000809
    34  H    6.639157   5.509761   4.931032   6.113204   6.943161
    35  H    7.008761   5.753776   5.845887   7.025209   7.758204
    36  H    8.375710   7.320155   7.090879   8.382428   9.140948
    37  H    9.674303   8.379863   8.220064   9.300834  10.142375
    38  H    0.960000   1.974986   3.148659   3.370778   2.840113
    39  H    3.895956   3.427725   4.532773   5.753388   5.921397
    40  H    3.154232   2.679835   4.078536   4.988352   5.032732
    41  H    2.515472   2.113296   2.626085   3.953501   4.169414
    42  H    2.084215   1.070000   2.160037   2.629013   2.747411
    43  H    2.611259   2.140199   1.070000   2.065295   2.502052
    44  H    4.061305   2.710798   2.126551   2.605935   3.459284
    45  H    4.228351   3.231956   2.634341   3.963008   4.659642
                    6          7          8          9         10
     6  C    0.000000
     7  O    1.435149   0.000000
     8  H    1.946107   1.000410   0.000000
     9  C    4.336877   5.709973   6.088858   0.000000
    10  O    5.426593   6.752475   7.254621   1.434889   0.000000
    11  H    6.204380   7.541486   7.967216   1.936371   0.999213
    12  C    2.925860   4.246787   4.697100   1.519862   2.563629
    13  O    2.499777   3.753418   3.908855   2.378404   3.714661
    14  C    1.519304   2.457607   2.587170   3.666319   4.872408
    15  O    2.360336   2.843585   2.424415   4.625531   5.958302
    16  C    3.692116   3.896239   3.325786   5.462487   6.756618
    17  C    4.647934   5.176131   4.707467   5.118850   6.387227
    18  O    4.660253   5.454741   5.236786   4.034315   5.178750
    19  H    3.905056   4.876027   4.752593   3.215549   4.476789
    20  C    6.044782   6.385428   5.820197   6.462793   7.649468
    21  O    7.205115   7.688787   7.174697   6.858223   7.933946
    22  H    7.997576   8.362741   7.788989   7.847715   8.910338
    23  C    4.456239   3.904634   2.946990   7.581472   8.905728
    24  O    3.551373   2.869921   1.871475   7.210927   8.515447
    25  H    4.196007   3.242881   2.327287   8.098121   9.368414
    26  C    4.583141   4.471942   3.636012   6.826183   8.171200
    27  O    5.920706   5.761835   4.942890   7.798926   9.097996
    28  C    6.567846   6.684193   5.937132   7.636962   8.910630
    29  O    7.660062   7.624603   6.879488   8.775559   9.977484
    30  H    8.439901   8.407185   7.616773   9.506194  10.727183
    31  H    5.384085   4.797491   3.808015   8.493386   9.849069
    32  H    4.719451   3.973060   3.119817   7.930632   9.179447
    33  H    4.778896   4.847277   3.997069   6.788644   8.189248
    34  H    3.877986   3.888366   3.434947   5.736135   6.909311
    35  H    4.788235   5.426823   4.904823   5.135234   6.479803
    36  H    6.137980   6.344591   5.835317   6.721517   7.819971
    37  H    6.948550   7.144693   6.357329   7.894908   9.211330
    38  H    4.412937   5.597858   6.337467   3.062505   2.920407
    39  H    4.774181   6.089256   6.333824   1.070000   2.026600
    40  H    4.474125   5.903628   6.233257   1.070000   2.026600
    41  H    3.256629   4.365180   4.885389   2.113886   2.741857
    42  H    2.783928   4.121380   4.656981   2.808517   3.624979
    43  H    2.139448   2.738458   3.605124   4.102792   4.695240
    44  H    1.070000   2.052204   2.277632   4.462692   5.634454
    45  H    2.143456   2.696993   2.931463   3.985263   5.009215
                   11         12         13         14         15
    11  H    0.000000
    12  C    3.295973   0.000000
    13  O    4.228729   1.434671   0.000000
    14  C    5.491936   2.344035   1.434741   0.000000
    15  O    6.442531   3.549380   2.252277   1.435083   0.000000
    16  C    7.101467   4.538816   3.223205   2.579813   1.434925
    17  C    6.523279   4.596930   3.291000   3.298520   2.417182
    18  O    5.234895   3.742007   2.703181   3.169438   2.912220
    19  H    4.645718   2.861503   1.752813   2.478032   2.459958
    20  C    7.676641   6.026205   4.779423   4.713329   3.758872
    21  O    7.778697   6.716156   5.580053   5.800474   4.979325
    22  H    8.746813   7.664680   6.511980   6.622970   5.723873
    23  C    9.377645   6.457471   5.208225   4.160126   2.956548
    24  O    9.099976   5.989772   4.874373   3.731864   2.782045
    25  H    9.993899   6.819871   5.783544   4.569257   3.739856
    26  C    8.508280   5.910473   4.547212   3.819106   2.454479
    27  O    9.332402   6.989304   5.640801   5.013065   3.731299
    28  C    8.993254   7.089024   5.734510   5.453656   4.224825
    29  O   10.033890   8.198679   6.907644   6.532127   5.380674
    30  H   10.743590   8.992918   7.670624   7.346133   6.133089
    31  H   10.293477   7.424786   6.136851   5.160706   3.895134
    32  H    9.675052   6.722494   5.573283   4.397090   3.397762
    33  H    8.484916   6.013244   4.594647   4.091068   2.657583
    34  H    7.285235   4.705554   3.582427   2.753044   2.047980
    35  H    6.582827   4.760101   3.388511   3.592946   2.588128
    36  H    7.887697   6.165508   5.027279   4.790038   3.988840
    37  H    9.254377   7.457600   6.063259   5.910980   4.612622
    38  H    3.865312   2.899905   4.155995   4.748417   6.018944
    39  H    2.052169   2.100399   2.435365   3.795139   4.527048
    40  H    2.412673   2.100399   2.687904   4.006376   4.816966
    41  H    3.461486   1.070000   2.040358   2.556674   3.856592
    42  H    4.453548   2.157734   2.731959   3.233133   4.252360
    43  H    5.594557   2.670209   3.184691   2.600704   3.948230
    44  H    6.376404   3.263829   2.724376   2.126386   2.568003
    45  H    5.623646   2.630522   2.068735   1.070000   2.067366
                   16         17         18         19         20
    16  C    0.000000
    17  C    1.519873   0.000000
    18  O    2.512517   1.434399   0.000000
    19  H    2.594357   1.912949   1.000705   0.000000
    20  C    2.502524   1.520410   2.473434   3.267968   0.000000
    21  O    3.853706   2.572061   2.983402   3.879703   1.434611
    22  H    4.481053   3.381150   3.928137   4.837563   1.981490
    23  C    2.557803   3.856953   5.053547   5.047414   4.280065
    24  O    3.097290   4.484221   5.467642   5.195961   5.275067
    25  H    3.998547   5.417262   6.418176   6.166942   6.099843
    26  C    1.520170   2.463502   3.792794   3.947519   2.811257
    27  O    2.469220   2.873357   4.240314   4.691809   2.395899
    28  C    2.935819   2.535855   3.817961   4.439466   1.520467
    29  O    3.987499   3.689138   4.810388   5.561795   2.366905
    30  H    4.787356   4.420206   5.558221   6.298438   3.086751
    31  H    3.442354   4.556823   5.861001   5.899920   4.766714
    32  H    2.852424   4.217845   5.317542   5.399930   4.501815
    33  H    2.077888   2.610705   3.954396   4.004116   3.056059
    34  H    1.070000   2.122630   2.794126   3.009902   2.784806
    35  H    2.071122   1.070000   1.995726   2.156065   2.073631
    36  H    2.644037   2.058607   2.749423   3.603031   1.070000
    37  H    3.522542   3.005745   4.277338   4.796580   2.221387
    38  H    7.231762   7.437411   6.618582   5.708837   8.900726
    39  H    5.112059   4.505039   3.292540   2.619920   5.730681
    40  H    5.771104   5.428079   4.507095   3.614351   6.816146
    41  H    4.654464   4.760771   3.809839   3.117515   6.075909
    42  H    5.587861   5.908173   5.403541   4.417958   7.425594
    43  H    5.008862   5.775424   5.337324   4.638505   7.108104
    44  H    3.990525   4.845592   4.960347   4.132616   6.277754
    45  H    2.736382   3.479090   3.217332   2.752643   4.724273
                   21         22         23         24         25
    21  O    0.000000
    22  H    1.000203   0.000000
    23  C    5.677365   5.990995   0.000000
    24  O    6.664608   7.117908   1.435028   0.000000
    25  H    7.503933   7.884989   1.926082   0.999693   0.000000
    26  C    4.188260   4.565976   1.520507   2.566898   3.336944
    27  O    3.633338   3.709949   2.446140   3.785220   4.368587
    28  C    2.397616   2.420630   3.719523   4.923877   5.623512
    29  O    2.859741   2.388319   4.468556   5.824199   6.379990
    30  H    3.303662   2.661367   5.053360   6.416728   6.930970
    31  H    6.083667   6.274698   1.070000   2.026120   2.174107
    32  H    5.917071   6.161490   1.070000   2.026120   2.220937
    33  H    4.261322   4.685918   2.079138   2.812057   3.626687
    34  H    4.119884   4.662715   2.845071   3.449084   4.212765
    35  H    2.861456   3.677834   4.021362   4.526672   5.490804
    36  H    1.988075   2.296482   4.367178   5.418569   6.169764
    37  H    2.740400   2.760335   4.105606   5.207170   5.913398
    38  H    9.574250  10.537582   8.732427   7.911254   8.573332
    39  H    5.972403   6.961864   7.423590   7.252458   8.188179
    40  H    7.208054   8.206278   7.729641   7.262895   8.151770
    41  H    6.766694   7.675256   6.635859   6.266825   7.052054
    42  H    8.232039   9.173364   6.882943   6.018944   6.730952
    43  H    8.138266   8.954847   6.133292   5.390584   5.919309
    44  H    7.400123   8.207572   4.565708   3.532402   4.198144
    45  H    5.807776   6.580770   4.399383   4.147833   4.897702
                   26         27         28         29         30
    26  C    0.000000
    27  O    1.434664   0.000000
    28  C    2.377504   1.434920   0.000000
    29  O    3.390985   2.040444   1.435174   0.000000
    30  H    4.035840   2.684933   1.974800   0.960000   0.000000
    31  H    2.100350   2.623854   3.880789   4.517841   4.924351
    32  H    2.100350   2.649155   4.035010   4.503971   5.171065
    33  H    1.070000   2.005777   2.498644   3.741022   4.207762
    34  H    2.122630   2.729130   3.340199   4.068198   4.967321
    35  H    2.634626   3.179536   2.701488   4.055089   4.617785
    36  H    3.076096   2.528461   2.068593   2.365939   3.249182
    37  H    2.814193   2.130010   1.070000   2.127250   2.216253
    38  H    8.471378   9.685280   9.886564  11.040764  11.822503
    39  H    6.485926   7.310431   6.988011   8.084617   8.790308
    40  H    7.003798   8.050678   7.869610   9.106108   9.775443
    41  H    6.108766   7.082259   7.225851   8.198244   9.049237
    42  H    6.653445   7.951692   8.207432   9.453059  10.176341
    43  H    6.179822   7.342276   7.921815   8.856939   9.729659
    44  H    4.690081   6.097575   6.683095   7.887262   8.589294
    45  H    4.075874   5.090099   5.575880   6.474168   7.356922
                   31         32         33         34         35
    31  H    0.000000
    32  H    1.725293   0.000000
    33  H    2.343273   2.948992   0.000000
    34  H    3.801313   2.726318   2.965716   0.000000
    35  H    4.581142   4.617955   2.328219   2.961273   0.000000
    36  H    4.937717   4.329180   3.631456   2.489914   2.915176
    37  H    4.087247   4.630979   2.507611   4.145104   2.772562
    38  H    9.658419   9.012054   8.492050   7.394741   7.467924
    39  H    8.310499   7.771882   6.445149   5.399044   4.544097
    40  H    8.570354   8.204276   6.811015   6.209659   5.234704
    41  H    7.658699   6.734397   6.384160   4.577590   5.144500
    42  H    7.733652   7.316272   6.551096   5.960103   5.781907
    43  H    7.146907   6.111618   6.566183   4.820315   6.160253
    44  H    5.366657   5.042871   4.650078   4.424385   4.746963
    45  H    5.457149   4.382474   4.578897   2.484688   4.049656
                   36         37         38         39         40
    36  H    0.000000
    37  H    3.018549   0.000000
    38  H    9.053541  10.178581   0.000000
    39  H    6.016618   7.243460   4.126314   0.000000
    40  H    7.214045   7.993405   3.057020   1.725654   0.000000
    41  H    6.032530   7.730147   3.273976   2.497097   2.971321
    42  H    7.714882   8.400031   2.163046   3.688189   2.503944
    43  H    6.972659   8.466744   3.507426   4.715704   4.580062
    44  H    6.539259   6.902520   4.503922   4.927942   4.342704
    45  H    4.564317   6.198857   5.050411   4.047367   4.557273
                   41         42         43         44         45
    41  H    0.000000
    42  H    3.015959   0.000000
    43  H    2.403614   3.036537   0.000000
    44  H    3.871278   2.544963   3.013193   0.000000
    45  H    2.382481   3.915511   2.413170   3.015855   0.000000
 Stoichiometry    C12H22O11
 Framework group  C1[X(C12H22O11)]
 Deg. of freedom   129
 Full point group                 C1      NOp   1
 Largest Abelian subgroup         C1      NOp   1
 Largest concise Abelian subgroup C1      NOp   1
                         Standard orientation:                         
 ---------------------------------------------------------------------
 Center     Atomic      Atomic             Coordinates (Angstroms)
 Number     Number       Type             X           Y           Z
 ---------------------------------------------------------------------
      1          8           0        4.956704   -0.453872   -0.326901
      2          6           0        3.714957   -0.030464    0.255434
      3          6           0        3.222608    1.230529   -0.436534
      4          8           0        4.122586    2.296882   -0.098545
      5          1           0        5.086848    2.036836   -0.152301
      6          6           0        1.849292    1.647852    0.062505
      7          8           0        1.345085    2.852727   -0.532225
      8          1           0        0.421660    2.951526   -0.160276
      9          6           0        3.072692   -2.488587    0.511581
     10          8           0        4.173553   -3.255427    0.002693
     11          1           0        3.911132   -4.202686    0.182312
     12          6           0        2.733332   -1.136825   -0.094683
     13          8           0        1.409387   -0.797078    0.341234
     14          6           0        1.001821    0.432852   -0.274919
     15          8           0       -0.290485    0.679855    0.298142
     16          6           0       -1.573370    0.291105   -0.213803
     17          6           0       -1.856742   -1.155707    0.155587
     18          8           0       -0.873710   -2.121870   -0.241499
     19          1           0       -0.043828   -1.765283    0.189259
     20          6           0       -3.277926   -1.541114   -0.223019
     21          8           0       -3.751529   -2.883487   -0.044561
     22          1           0       -4.725155   -2.893629   -0.273372
     23          6           0       -2.492002    2.648566    0.161495
     24          8           0       -1.267665    3.269375    0.579704
     25          1           0       -1.433223    4.239303    0.403020
     26          6           0       -2.698750    1.152364    0.336351
     27          8           0       -3.999018    0.740842   -0.108861
     28          6           0       -4.321214   -0.585489    0.333892
     29          8           0       -5.436103   -0.632776   -0.568610
     30          1           0       -6.249979   -0.722142   -0.067391
     31          1           0       -3.286858    3.138489    0.684066
     32          1           0       -2.612720    2.862557   -0.879915
     33          1           0       -2.692558    0.985636    1.393264
     34          1           0       -1.560613    0.379463   -1.280073
     35          1           0       -1.839941   -1.174325    1.225293
     36          1           0       -3.311456   -1.390910   -1.281894
     37          1           0       -4.564637   -0.682582    1.371302
     38          1           0        5.564454   -0.713816    0.369280
     39          1           0        2.198228   -3.099512    0.428003
     40          1           0        3.255192   -2.329246    1.553792
     41          1           0        2.718018   -1.243206   -1.159271
     42          1           0        3.798356    0.103262    1.313764
     43          1           0        3.202608    1.086754   -1.496642
     44          1           0        1.883263    1.768696    1.125116
     45          1           0        0.922572    0.312953   -1.335222
 ---------------------------------------------------------------------
 Rotational constants (GHZ):      0.4046747      0.1470811      0.1104454
 Standard basis: 6-31+G(2d,p) (6D, 7F)
 There are   685 symmetry adapted basis functions of A   symmetry.
 Integral buffers will be    131072 words long.
 Raffenetti 2 integral format.
 Two-electron integral symmetry is turned on.
   685 basis functions,  1028 primitive gaussians,   685 cartesian basis functions
    91 alpha electrons       91 beta electrons
       nuclear repulsion energy      2289.5382327497 Hartrees.
 NAtoms=   45 NActive=   45 NUniq=   45 SFac= 1.00D+00 NAtFMM=   50 NAOKFM=F Big=F
 One-electron integrals computed using PRISM.
 NBasis=   685 RedAO= T  NBF=   685
 NBsUse=   685 1.00D-06 NBFU=   685
 Harris functional with IExCor=  402 diagonalized for initial guess.
 ExpMin= 4.38D-02 ExpMax= 5.48D+03 ExpMxC= 8.25D+02 IAcc=2 IRadAn=         0 AccDes= 0.00D+00
 HarFok:  IExCor=  402 AccDes= 0.00D+00 IRadAn=         0 IDoV= 1
 ScaDFX=  1.000000  1.000000  1.000000  1.000000
 FoFCou: FMM=F IPFlag=           0 FMFlag=      100000 FMFlg1=           0
         NFxFlg=           0 DoJE=T BraDBF=F KetDBF=T FulRan=T
         Omega=  0.000000  0.000000  1.000000  0.000000  0.000000 ICntrl=     500 IOpCl=  0
         NMat0=    1 NMatS0=    1 NMatT0=    0 NMatD0=    1 NMtDS0=    0 NMtDT0=    0
         I1Cent=           4 NGrid=           0.
 Petite list used in FoFCou.
 Initial guess orbital symmetries:
       Occupied  (A) (A) (A) (A) (A) (A) (A) (A) (A) (A) (A) (A)
                 (A) (A) (A) (A) (A) (A) (A) (A) (A) (A) (A) (A)
                 (A) (A) (A) (A) (A) (A) (A) (A) (A) (A) (A) (A)
                 (A) (A) (A) (A) (A) (A) (A) (A) (A) (A) (A) (A)
                 (A) (A) (A) (A) (A) (A) (A) (A) (A) (A) (A) (A)
                 (A) (A) (A) (A) (A) (A) (A) (A) (A) (A) (A) (A)
                 (A) (A) (A) (A) (A) (A) (A) (A) (A) (A) (A) (A)
                 (A) (A) (A) (A) (A) (A) (A)
       Virtual   (A) (A) (A) (A) (A) (A) (A) (A) (A) (A) (A) (A)
                 (A) (A) (A) (A) (A) (A) (A) (A) (A) (A) (A) (A)
                 (A) (A) (A) (A) (A) (A) (A) (A) (A) (A) (A) (A)
                 (A) (A) (A) (A) (A) (A) (A) (A) (A) (A) (A) (A)
                 (A) (A) (A) (A) (A) (A) (A) (A) (A) (A) (A) (A)
                 (A) (A) (A) (A) (A) (A) (A) (A) (A) (A) (A) (A)
                 (A) (A) (A) (A) (A) (A) (A) (A) (A) (A) (A) (A)
                 (A) (A) (A) (A) (A) (A) (A) (A) (A) (A) (A) (A)
                 (A) (A) (A) (A) (A) (A) (A) (A) (A) (A) (A) (A)
                 (A) (A) (A) (A) (A) (A) (A) (A) (A) (A) (A) (A)
                 (A) (A) (A) (A) (A) (A) (A) (A) (A) (A) (A) (A)
                 (A) (A) (A) (A) (A) (A) (A) (A) (A) (A) (A) (A)
                 (A) (A) (A) (A) (A) (A) (A) (A) (A) (A) (A) (A)
                 (A) (A) (A) (A) (A) (A) (A) (A) (A) (A) (A) (A)
                 (A) (A) (A) (A) (A) (A) (A) (A) (A) (A) (A) (A)
                 (A) (A) (A) (A) (A) (A) (A) (A) (A) (A) (A) (A)
                 (A) (A) (A) (A) (A) (A) (A) (A) (A) (A) (A) (A)
                 (A) (A) (A) (A) (A) (A) (A) (A) (A) (A) (A) (A)
                 (A) (A) (A) (A) (A) (A) (A) (A) (A) (A) (A) (A)
                 (A) (A) (A) (A) (A) (A) (A) (A) (A) (A) (A) (A)
                 (A) (A) (A) (A) (A) (A) (A) (A) (A) (A) (A) (A)
                 (A) (A) (A) (A) (A) (A) (A) (A) (A) (A) (A) (A)
                 (A) (A) (A) (A) (A) (A) (A) (A) (A) (A) (A) (A)
                 (A) (A) (A) (A) (A) (A) (A) (A) (A) (A) (A) (A)
                 (A) (A) (A) (A) (A) (A) (A) (A) (A) (A) (A) (A)
                 (A) (A) (A) (A) (A) (A) (A) (A) (A) (A) (A) (A)
                 (A) (A) (A) (A) (A) (A) (A) (A) (A) (A) (A) (A)
                 (A) (A) (A) (A) (A) (A) (A) (A) (A) (A) (A) (A)
                 (A) (A) (A) (A) (A) (A) (A) (A) (A) (A) (A) (A)
                 (A) (A) (A) (A) (A) (A) (A) (A) (A) (A) (A) (A)
                 (A) (A) (A) (A) (A) (A) (A) (A) (A) (A) (A) (A)
                 (A) (A) (A) (A) (A) (A) (A) (A) (A) (A) (A) (A)
                 (A) (A) (A) (A) (A) (A) (A) (A) (A) (A) (A) (A)
                 (A) (A) (A) (A) (A) (A) (A) (A) (A) (A) (A) (A)
                 (A) (A) (A) (A) (A) (A) (A) (A) (A) (A) (A) (A)
                 (A) (A) (A) (A) (A) (A) (A) (A) (A) (A) (A) (A)
                 (A) (A) (A) (A) (A) (A) (A) (A) (A) (A) (A) (A)
                 (A) (A) (A) (A) (A) (A) (A) (A) (A) (A) (A) (A)
                 (A) (A) (A) (A) (A) (A) (A) (A) (A) (A) (A) (A)
                 (A) (A) (A) (A) (A) (A) (A) (A) (A) (A) (A) (A)
                 (A) (A) (A) (A) (A) (A) (A) (A) (A) (A) (A) (A)
                 (A) (A) (A) (A) (A) (A) (A) (A) (A) (A) (A) (A)
                 (A) (A) (A) (A) (A) (A) (A) (A) (A) (A) (A) (A)
                 (A) (A) (A) (A) (A) (A) (A) (A) (A) (A) (A) (A)
                 (A) (A) (A) (A) (A) (A) (A) (A) (A) (A) (A) (A)
                 (A) (A) (A) (A) (A) (A) (A) (A) (A) (A) (A) (A)
                 (A) (A) (A) (A) (A) (A) (A) (A) (A) (A) (A) (A)
                 (A) (A) (A) (A) (A) (A) (A) (A) (A) (A) (A) (A)
                 (A) (A) (A) (A) (A) (A) (A) (A) (A) (A) (A) (A)
                 (A) (A) (A) (A) (A) (A)
 The electronic state of the initial guess is 1-A.
 Requested convergence on RMS density matrix=1.00D-08 within 128 cycles.
 Requested convergence on MAX density matrix=1.00D-06.
 Requested convergence on             energy=1.00D-06.
 No special actions if energy rises.
 SCF Done:  E(RB3LYP) =  -1297.96321387     A.U. after   13 cycles
             Convg  =    0.4548D-08             -V/T =  2.0063
 Range of M.O.s used for correlation:     1   685
 NBasis=   685 NAE=    91 NBE=    91 NFC=     0 NFV=     0
 NROrb=    685 NOA=    91 NOB=    91 NVA=   594 NVB=   594

 **** Warning!!: The largest alpha MO coefficient is  0.80074678D+02

          Differentiating once with respect to electric field.
                with respect to dipole field.
          Electric field/nuclear overlap derivatives assumed to be zero.
          There are     3 degrees of freedom in the 1st order CPHF.  IDoFFX=0.
      3 vectors produced by pass  0 Test12= 1.80D-12 3.33D-08 XBig12= 1.25D+02 9.53D-01.
 AX will form     3 AO Fock derivatives at one time.
      3 vectors produced by pass  1 Test12= 1.80D-12 3.33D-08 XBig12= 2.37D+01 4.15D-01.
      3 vectors produced by pass  2 Test12= 1.80D-12 3.33D-08 XBig12= 1.05D+01 2.42D-01.
      3 vectors produced by pass  3 Test12= 1.80D-12 3.33D-08 XBig12= 1.19D+00 1.00D-01.
      3 vectors produced by pass  4 Test12= 1.80D-12 3.33D-08 XBig12= 3.23D-01 4.65D-02.
      3 vectors produced by pass  5 Test12= 1.80D-12 3.33D-08 XBig12= 6.29D-02 2.21D-02.
      3 vectors produced by pass  6 Test12= 1.80D-12 3.33D-08 XBig12= 2.32D-02 1.98D-02.
      3 vectors produced by pass  7 Test12= 1.80D-12 3.33D-08 XBig12= 3.30D-03 7.82D-03.
      3 vectors produced by pass  8 Test12= 1.80D-12 3.33D-08 XBig12= 7.07D-04 2.72D-03.
      3 vectors produced by pass  9 Test12= 1.80D-12 3.33D-08 XBig12= 1.46D-04 1.46D-03.
      3 vectors produced by pass 10 Test12= 1.80D-12 3.33D-08 XBig12= 4.42D-05 5.20D-04.
      3 vectors produced by pass 11 Test12= 1.80D-12 3.33D-08 XBig12= 7.82D-06 3.22D-04.
      3 vectors produced by pass 12 Test12= 1.80D-12 3.33D-08 XBig12= 1.29D-06 1.06D-04.
      3 vectors produced by pass 13 Test12= 1.80D-12 3.33D-08 XBig12= 4.60D-07 6.42D-05.
      3 vectors produced by pass 14 Test12= 1.80D-12 3.33D-08 XBig12= 3.89D-08 1.85D-05.
      3 vectors produced by pass 15 Test12= 1.80D-12 3.33D-08 XBig12= 5.92D-09 6.15D-06.
      3 vectors produced by pass 16 Test12= 1.80D-12 3.33D-08 XBig12= 1.53D-09 3.52D-06.
      3 vectors produced by pass 17 Test12= 1.80D-12 3.33D-08 XBig12= 1.04D-10 7.97D-07.
      3 vectors produced by pass 18 Test12= 1.80D-12 3.33D-08 XBig12= 1.14D-11 2.40D-07.
      3 vectors produced by pass 19 Test12= 1.80D-12 3.33D-08 XBig12= 6.71D-12 1.87D-07.
      3 vectors produced by pass 20 Test12= 1.80D-12 3.33D-08 XBig12= 3.55D-12 1.25D-07.
      2 vectors produced by pass 21 Test12= 1.80D-12 3.33D-08 XBig12= 2.71D-12 1.99D-07.
 Inverted reduced A of dimension    65 with in-core refinement.
 End of Minotr Frequency-dependent properties file   721 does not exist.
 End of Minotr Frequency-dependent properties file   722 does not exist.
 Symmetrizing basis deriv contribution to polar:
 IMax=3 JMax=2 DiffMx= 0.00D+00
 G2DrvN: will do    16 centers at a time, making    3 passes doing MaxLOS=2.
 Calling FoFCou, ICntrl=  3107 FMM=F I1Cent=   0 AccDes= 0.00D+00.
 Calling FoFCou, ICntrl=  3107 FMM=F I1Cent=   0 AccDes= 0.00D+00.
 Calling FoFCou, ICntrl=  3107 FMM=F I1Cent=   0 AccDes= 0.00D+00.
 FoFDir/FoFCou used for L=0 through L=2.
 End of G2Drv Frequency-dependent properties file   721 does not exist.
 End of G2Drv Frequency-dependent properties file   722 does not exist.
          IDoAtm=111111111111111111111111111111111111111111111
          Differentiating once with respect to electric field.
                with respect to dipole field.
          Differentiating once with respect to nuclear coordinates.
          There are   138 degrees of freedom in the 1st order CPHF.  IDoFFX=5.
 Will reuse    3 saved solutions.
    135 vectors produced by pass  0 Test12= 5.41D-14 1.00D-09 XBig12= 1.42D-01 9.22D-02.
 AX will form    45 AO Fock derivatives at one time.
    135 vectors produced by pass  1 Test12= 5.41D-14 1.00D-09 XBig12= 1.73D-02 1.11D-02.
    132 vectors produced by pass  2 Test12= 5.41D-14 1.00D-09 XBig12= 1.49D-04 1.52D-03.
    132 vectors produced by pass  3 Test12= 5.41D-14 1.00D-09 XBig12= 7.08D-07 6.55D-05.
    132 vectors produced by pass  4 Test12= 5.41D-14 1.00D-09 XBig12= 1.66D-09 2.31D-06.
    132 vectors produced by pass  5 Test12= 5.41D-14 1.00D-09 XBig12= 3.50D-12 1.21D-07.
     80 vectors produced by pass  6 Test12= 5.41D-14 1.00D-09 XBig12= 1.64D-13 2.23D-08.
 Inverted reduced A of dimension   878 with in-core refinement.
 Isotropic polarizability for W=    0.000000      192.78 Bohr**3.
 End of Minotr Frequency-dependent properties file   721 does not exist.
 End of Minotr Frequency-dependent properties file   722 does not exist.

 **********************************************************************

            Population analysis using the SCF density.

 **********************************************************************

 Orbital symmetries:
       Occupied  (A) (A) (A) (A) (A) (A) (A) (A) (A) (A) (A) (A)
                 (A) (A) (A) (A) (A) (A) (A) (A) (A) (A) (A) (A)
                 (A) (A) (A) (A) (A) (A) (A) (A) (A) (A) (A) (A)
                 (A) (A) (A) (A) (A) (A) (A) (A) (A) (A) (A) (A)
                 (A) (A) (A) (A) (A) (A) (A) (A) (A) (A) (A) (A)
                 (A) (A) (A) (A) (A) (A) (A) (A) (A) (A) (A) (A)
                 (A) (A) (A) (A) (A) (A) (A) (A) (A) (A) (A) (A)
                 (A) (A) (A) (A) (A) (A) (A)
       Virtual   (A) (A) (A) (A) (A) (A) (A) (A) (A) (A) (A) (A)
                 (A) (A) (A) (A) (A) (A) (A) (A) (A) (A) (A) (A)
                 (A) (A) (A) (A) (A) (A) (A) (A) (A) (A) (A) (A)
                 (A) (A) (A) (A) (A) (A) (A) (A) (A) (A) (A) (A)
                 (A) (A) (A) (A) (A) (A) (A) (A) (A) (A) (A) (A)
                 (A) (A) (A) (A) (A) (A) (A) (A) (A) (A) (A) (A)
                 (A) (A) (A) (A) (A) (A) (A) (A) (A) (A) (A) (A)
                 (A) (A) (A) (A) (A) (A) (A) (A) (A) (A) (A) (A)
                 (A) (A) (A) (A) (A) (A) (A) (A) (A) (A) (A) (A)
                 (A) (A) (A) (A) (A) (A) (A) (A) (A) (A) (A) (A)
                 (A) (A) (A) (A) (A) (A) (A) (A) (A) (A) (A) (A)
                 (A) (A) (A) (A) (A) (A) (A) (A) (A) (A) (A) (A)
                 (A) (A) (A) (A) (A) (A) (A) (A) (A) (A) (A) (A)
                 (A) (A) (A) (A) (A) (A) (A) (A) (A) (A) (A) (A)
                 (A) (A) (A) (A) (A) (A) (A) (A) (A) (A) (A) (A)
                 (A) (A) (A) (A) (A) (A) (A) (A) (A) (A) (A) (A)
                 (A) (A) (A) (A) (A) (A) (A) (A) (A) (A) (A) (A)
                 (A) (A) (A) (A) (A) (A) (A) (A) (A) (A) (A) (A)
                 (A) (A) (A) (A) (A) (A) (A) (A) (A) (A) (A) (A)
                 (A) (A) (A) (A) (A) (A) (A) (A) (A) (A) (A) (A)
                 (A) (A) (A) (A) (A) (A) (A) (A) (A) (A) (A) (A)
                 (A) (A) (A) (A) (A) (A) (A) (A) (A) (A) (A) (A)
                 (A) (A) (A) (A) (A) (A) (A) (A) (A) (A) (A) (A)
                 (A) (A) (A) (A) (A) (A) (A) (A) (A) (A) (A) (A)
                 (A) (A) (A) (A) (A) (A) (A) (A) (A) (A) (A) (A)
                 (A) (A) (A) (A) (A) (A) (A) (A) (A) (A) (A) (A)
                 (A) (A) (A) (A) (A) (A) (A) (A) (A) (A) (A) (A)
                 (A) (A) (A) (A) (A) (A) (A) (A) (A) (A) (A) (A)
                 (A) (A) (A) (A) (A) (A) (A) (A) (A) (A) (A) (A)
                 (A) (A) (A) (A) (A) (A) (A) (A) (A) (A) (A) (A)
                 (A) (A) (A) (A) (A) (A) (A) (A) (A) (A) (A) (A)
                 (A) (A) (A) (A) (A) (A) (A) (A) (A) (A) (A) (A)
                 (A) (A) (A) (A) (A) (A) (A) (A) (A) (A) (A) (A)
                 (A) (A) (A) (A) (A) (A) (A) (A) (A) (A) (A) (A)
                 (A) (A) (A) (A) (A) (A) (A) (A) (A) (A) (A) (A)
                 (A) (A) (A) (A) (A) (A) (A) (A) (A) (A) (A) (A)
                 (A) (A) (A) (A) (A) (A) (A) (A) (A) (A) (A) (A)
                 (A) (A) (A) (A) (A) (A) (A) (A) (A) (A) (A) (A)
                 (A) (A) (A) (A) (A) (A) (A) (A) (A) (A) (A) (A)
                 (A) (A) (A) (A) (A) (A) (A) (A) (A) (A) (A) (A)
                 (A) (A) (A) (A) (A) (A) (A) (A) (A) (A) (A) (A)
                 (A) (A) (A) (A) (A) (A) (A) (A) (A) (A) (A) (A)
                 (A) (A) (A) (A) (A) (A) (A) (A) (A) (A) (A) (A)
                 (A) (A) (A) (A) (A) (A) (A) (A) (A) (A) (A) (A)
                 (A) (A) (A) (A) (A) (A) (A) (A) (A) (A) (A) (A)
                 (A) (A) (A) (A) (A) (A) (A) (A) (A) (A) (A) (A)
                 (A) (A) (A) (A) (A) (A) (A) (A) (A) (A) (A) (A)
                 (A) (A) (A) (A) (A) (A) (A) (A) (A) (A) (A) (A)
                 (A) (A) (A) (A) (A) (A) (A) (A) (A) (A) (A) (A)
                 (A) (A) (A) (A) (A) (A)
 The electronic state is 1-A.
 Alpha  occ. eigenvalues --  -19.18951 -19.18577 -19.17745 -19.17699 -19.17030
 Alpha  occ. eigenvalues --  -19.16796 -19.16545 -19.15733 -19.14625 -19.14331
 Alpha  occ. eigenvalues --  -19.13941 -10.30895 -10.30525 -10.25707 -10.25495
 Alpha  occ. eigenvalues --  -10.25301 -10.25273 -10.25098 -10.24446 -10.24381
 Alpha  occ. eigenvalues --  -10.24327 -10.24227 -10.24122  -1.10319  -1.09876
 Alpha  occ. eigenvalues --   -1.05452  -1.05195  -1.03696  -1.03000  -1.02882
 Alpha  occ. eigenvalues --   -1.02169  -1.01707  -1.00682  -1.00132  -0.82389
 Alpha  occ. eigenvalues --   -0.80751  -0.79052  -0.78407  -0.71830  -0.70014
 Alpha  occ. eigenvalues --   -0.67599  -0.64312  -0.62817  -0.62329  -0.61378
 Alpha  occ. eigenvalues --   -0.60807  -0.56650  -0.55692  -0.54779  -0.54462
 Alpha  occ. eigenvalues --   -0.53771  -0.53486  -0.52584  -0.51457  -0.51078
 Alpha  occ. eigenvalues --   -0.50741  -0.49922  -0.49417  -0.48543  -0.46666
 Alpha  occ. eigenvalues --   -0.45691  -0.45323  -0.44415  -0.43567  -0.43031
 Alpha  occ. eigenvalues --   -0.42555  -0.41678  -0.40960  -0.40574  -0.39849
 Alpha  occ. eigenvalues --   -0.39151  -0.38754  -0.37551  -0.36713  -0.36322
 Alpha  occ. eigenvalues --   -0.35120  -0.34507  -0.33936  -0.33730  -0.32831
 Alpha  occ. eigenvalues --   -0.31887  -0.31142  -0.30833  -0.30118  -0.29680
 Alpha  occ. eigenvalues --   -0.29206  -0.28986  -0.28017  -0.27707  -0.26630
 Alpha  occ. eigenvalues --   -0.26505
 Alpha virt. eigenvalues --   -0.01936  -0.01864  -0.01802  -0.00162   0.00175
 Alpha virt. eigenvalues --    0.00996   0.01928   0.02078   0.03083   0.03296
 Alpha virt. eigenvalues --    0.03568   0.04234   0.04923   0.05347   0.05700
 Alpha virt. eigenvalues --    0.06037   0.06761   0.07373   0.07441   0.08021
 Alpha virt. eigenvalues --    0.08345   0.08680   0.08843   0.09413   0.10197
 Alpha virt. eigenvalues --    0.10545   0.11037   0.11426   0.11811   0.12169
 Alpha virt. eigenvalues --    0.12374   0.12800   0.13119   0.13438   0.13920
 Alpha virt. eigenvalues --    0.13982   0.14121   0.14553   0.15096   0.15211
 Alpha virt. eigenvalues --    0.15378   0.16268   0.16815   0.16854   0.17131
 Alpha virt. eigenvalues --    0.17391   0.17709   0.17859   0.18180   0.18647
 Alpha virt. eigenvalues --    0.18758   0.19161   0.19300   0.19826   0.20091
 Alpha virt. eigenvalues --    0.20533   0.20620   0.20792   0.21304   0.21710
 Alpha virt. eigenvalues --    0.22120   0.22372   0.22455   0.22744   0.23198
 Alpha virt. eigenvalues --    0.23292   0.23790   0.24031   0.24431   0.24617
 Alpha virt. eigenvalues --    0.24817   0.25330   0.25406   0.25667   0.25950
 Alpha virt. eigenvalues --    0.25999   0.26634   0.26921   0.27236   0.27389
 Alpha virt. eigenvalues --    0.27558   0.27854   0.28143   0.28726   0.29053
 Alpha virt. eigenvalues --    0.29249   0.29532   0.29849   0.30118   0.30564
 Alpha virt. eigenvalues --    0.30780   0.31225   0.31817   0.32033   0.32179
 Alpha virt. eigenvalues --    0.32711   0.32994   0.33275   0.33417   0.33914
 Alpha virt. eigenvalues --    0.34186   0.34691   0.34902   0.35210   0.35614
 Alpha virt. eigenvalues --    0.35816   0.36365   0.36889   0.37023   0.37576
 Alpha virt. eigenvalues --    0.37944   0.38172   0.38716   0.39312   0.39420
 Alpha virt. eigenvalues --    0.40107   0.40433   0.40693   0.41297   0.41809
 Alpha virt. eigenvalues --    0.42089   0.42690   0.43006   0.43604   0.44078
 Alpha virt. eigenvalues --    0.44496   0.44955   0.45457   0.46505   0.46626
 Alpha virt. eigenvalues --    0.47607   0.47961   0.48748   0.49081   0.49477
 Alpha virt. eigenvalues --    0.50617   0.51648   0.54605   0.57399   0.57658
 Alpha virt. eigenvalues --    0.59682   0.60581   0.61285   0.61760   0.62418
 Alpha virt. eigenvalues --    0.63100   0.64219   0.65165   0.65765   0.66829
 Alpha virt. eigenvalues --    0.67265   0.67566   0.69659   0.70579   0.70941
 Alpha virt. eigenvalues --    0.71236   0.72189   0.72512   0.73566   0.74502
 Alpha virt. eigenvalues --    0.74948   0.75233   0.75797   0.76523   0.76805
 Alpha virt. eigenvalues --    0.78245   0.79011   0.80003   0.81173   0.81868
 Alpha virt. eigenvalues --    0.82043   0.82617   0.84068   0.84506   0.85531
 Alpha virt. eigenvalues --    0.86893   0.87253   0.88334   0.89346   0.89725
 Alpha virt. eigenvalues --    0.90294   0.90865   0.91721   0.92377   0.92590
 Alpha virt. eigenvalues --    0.92803   0.93371   0.93588   0.93834   0.94218
 Alpha virt. eigenvalues --    0.94637   0.94842   0.95944   0.96469   0.97303
 Alpha virt. eigenvalues --    0.97420   0.97841   0.98722   0.99144   0.99734
 Alpha virt. eigenvalues --    1.00054   1.00216   1.01042   1.01476   1.02535
 Alpha virt. eigenvalues --    1.02852   1.03558   1.04519   1.05387   1.05431
 Alpha virt. eigenvalues --    1.06120   1.07254   1.07468   1.08286   1.08901
 Alpha virt. eigenvalues --    1.09096   1.09653   1.10143   1.10782   1.11329
 Alpha virt. eigenvalues --    1.11832   1.12485   1.13618   1.14263   1.14683
 Alpha virt. eigenvalues --    1.15660   1.16515   1.16717   1.16873   1.17564
 Alpha virt. eigenvalues --    1.17744   1.17869   1.18277   1.19308   1.20186
 Alpha virt. eigenvalues --    1.20793   1.21169   1.22369   1.22650   1.22767
 Alpha virt. eigenvalues --    1.24126   1.24751   1.24995   1.25450   1.25850
 Alpha virt. eigenvalues --    1.26068   1.26751   1.27351   1.28320   1.28727
 Alpha virt. eigenvalues --    1.29422   1.29850   1.30350   1.30717   1.31614
 Alpha virt. eigenvalues --    1.32391   1.32997   1.33708   1.34718   1.34749
 Alpha virt. eigenvalues --    1.34947   1.35814   1.36207   1.36989   1.37146
 Alpha virt. eigenvalues --    1.38104   1.39105   1.39663   1.39956   1.40870
 Alpha virt. eigenvalues --    1.41456   1.41947   1.42633   1.43350   1.43547
 Alpha virt. eigenvalues --    1.45317   1.45888   1.46356   1.47315   1.47464
 Alpha virt. eigenvalues --    1.48027   1.49801   1.50642   1.51890   1.52702
 Alpha virt. eigenvalues --    1.53211   1.54049   1.54618   1.55469   1.56524
 Alpha virt. eigenvalues --    1.57154   1.57907   1.59329   1.59666   1.61007
 Alpha virt. eigenvalues --    1.62608   1.63282   1.63856   1.64672   1.64813
 Alpha virt. eigenvalues --    1.66201   1.66414   1.67579   1.68812   1.69483
 Alpha virt. eigenvalues --    1.70024   1.71415   1.72599   1.73047   1.73808
 Alpha virt. eigenvalues --    1.74241   1.75730   1.77738   1.77843   1.79085
 Alpha virt. eigenvalues --    1.80094   1.80497   1.81176   1.82439   1.83102
 Alpha virt. eigenvalues --    1.85365   1.86192   1.87089   1.88317   1.88796
 Alpha virt. eigenvalues --    1.89687   1.90361   1.91173   1.94057   1.94694
 Alpha virt. eigenvalues --    1.94931   1.95642   1.97118   1.97619   1.99711
 Alpha virt. eigenvalues --    2.01596   2.02397   2.03056   2.03972   2.05074
 Alpha virt. eigenvalues --    2.05894   2.07442   2.08462   2.09002   2.10762
 Alpha virt. eigenvalues --    2.13477   2.14797   2.16678   2.16942   2.18585
 Alpha virt. eigenvalues --    2.19880   2.20920   2.23219   2.24285   2.25556
 Alpha virt. eigenvalues --    2.26905   2.27180   2.27860   2.29136   2.31001
 Alpha virt. eigenvalues --    2.34140   2.35382   2.36149   2.38621   2.39827
 Alpha virt. eigenvalues --    2.40411   2.42010   2.46180   2.46752   2.50508
 Alpha virt. eigenvalues --    2.51630   2.54483   2.54633   2.57334   2.60383
 Alpha virt. eigenvalues --    2.60844   2.63254   2.64556   2.66400   2.66923
 Alpha virt. eigenvalues --    2.68132   2.69326   2.70011   2.71767   2.72307
 Alpha virt. eigenvalues --    2.73782   2.75639   2.77133   2.78333   2.79291
 Alpha virt. eigenvalues --    2.81005   2.81138   2.82394   2.84887   2.87813
 Alpha virt. eigenvalues --    2.89098   2.89497   2.90793   2.91593   2.92278
 Alpha virt. eigenvalues --    2.92518   2.94353   2.95048   2.95609   2.96775
 Alpha virt. eigenvalues --    2.97395   2.98325   2.99213   3.00020   3.00417
 Alpha virt. eigenvalues --    3.01112   3.01758   3.02610   3.03498   3.04597
 Alpha virt. eigenvalues --    3.05333   3.06203   3.07236   3.07706   3.09016
 Alpha virt. eigenvalues --    3.09351   3.09701   3.10562   3.11605   3.14588
 Alpha virt. eigenvalues --    3.15548   3.16756   3.19778   3.20427   3.23794
 Alpha virt. eigenvalues --    3.26264   3.28214   3.29622   3.74424   3.82027
 Alpha virt. eigenvalues --    4.00122   4.02794   4.05000   4.10119   4.12158
 Alpha virt. eigenvalues --    4.13404   4.14866   4.15528   4.16170   4.17515
 Alpha virt. eigenvalues --    4.17766   4.19165   4.19987   4.21653   4.23586
 Alpha virt. eigenvalues --    4.24254   4.24994   4.26321   4.26635   4.27240
 Alpha virt. eigenvalues --    4.28126   4.28855   4.29548   4.30377   4.30636
 Alpha virt. eigenvalues --    4.31191   4.31996   4.32114   4.32904   4.33688
 Alpha virt. eigenvalues --    4.34084   4.34655   4.35186   4.35331   4.36164
 Alpha virt. eigenvalues --    4.36948   4.37252   4.37462   4.37752   4.39067
 Alpha virt. eigenvalues --    4.39634   4.40269   4.41247   4.42430   4.43178
 Alpha virt. eigenvalues --    4.44836   4.45455   4.46708   4.49285   4.49516
 Alpha virt. eigenvalues --    4.51685   4.52381   4.52766   4.54203   4.54709
 Alpha virt. eigenvalues --    4.56213   4.56800   4.58094   4.58605   4.60055
 Alpha virt. eigenvalues --    4.61256   4.61960   4.63002   4.63690   4.64292
 Alpha virt. eigenvalues --    4.64829   4.65444   4.65758   4.67140   4.67460
 Alpha virt. eigenvalues --    4.68293   4.69341   4.70404   4.70916   4.71574
 Alpha virt. eigenvalues --    4.71962   4.72817   4.73608   4.73991   4.74738
 Alpha virt. eigenvalues --    4.75124   4.76045   4.77101   4.77392   4.78153
 Alpha virt. eigenvalues --    4.78549   4.78984   4.80365   4.80566   4.81336
 Alpha virt. eigenvalues --    4.81813   4.82309   4.83584   4.85424   4.86645
 Alpha virt. eigenvalues --    4.87263   4.87905   4.89217   4.90367   4.91664
 Alpha virt. eigenvalues --    4.92464   4.93594   4.95262   4.96129   4.99267
 Alpha virt. eigenvalues --    5.00325   5.00524   5.02757   5.03604   5.05487
 Alpha virt. eigenvalues --    5.07757   5.11647   5.11945   5.14952   5.15371
 Alpha virt. eigenvalues --    5.22239   5.26492   5.30061   5.32907   5.42244
 Alpha virt. eigenvalues --    5.54399   5.87047   6.03801   6.45322   6.54268
 Alpha virt. eigenvalues --    6.72778   6.75207   6.79151   6.82276   6.83978
 Alpha virt. eigenvalues --    6.91329   6.93405   6.97128   7.05186   7.07981
 Alpha virt. eigenvalues --    7.08631  11.89600  11.91936  12.08888  12.15757
 Alpha virt. eigenvalues --   12.23654  12.35515  12.70433  12.79337  12.88556
 Alpha virt. eigenvalues --   12.98417  13.12227  13.19678  13.21274  13.29001
 Alpha virt. eigenvalues --   13.32419  13.35582  13.38783  13.41526  13.49945
 Alpha virt. eigenvalues --   13.60335  13.69440  13.81426  13.88023
          Condensed to atoms (all electrons):
              1          2          3          4          5          6
     1  O    8.209564   0.127642   0.003248  -0.017838   0.015253   0.016166
     2  C    0.127642   7.070207  -0.369558   0.061948  -0.064016  -1.232495
     3  C    0.003248  -0.369558   6.233853   0.122705   0.047739   0.483808
     4  O   -0.017838   0.061948   0.122705   8.245242   0.223478  -0.071061
     5  H    0.015253  -0.064016   0.047739   0.223478   0.436792  -0.012938
     6  C    0.016166  -1.232495   0.483808  -0.071061  -0.012938   7.870201
     7  O   -0.000296   0.008369  -0.089785   0.005178  -0.000405   0.262752
     8  H    0.000000  -0.001906   0.013503  -0.000245   0.000015   0.015032
     9  C    0.017783   0.228351  -0.280148   0.014471  -0.003660   0.056376
    10  O   -0.011760   0.032640   0.006492  -0.000048  -0.000024  -0.003588
    11  H    0.001965  -0.014273  -0.000459   0.000002   0.000000   0.000632
    12  C   -0.085475  -0.844411   0.153746   0.023135   0.011441   0.119971
    13  O    0.001782  -0.042074  -0.059736  -0.001079   0.000033   0.026749
    14  C   -0.010107   0.494229  -0.282578  -0.035425   0.012920  -1.516611
    15  O   -0.000213  -0.009014  -0.024118   0.000688  -0.000028  -0.010637
    16  C   -0.000012   0.078212  -0.062952  -0.003680   0.000214   0.044148
    17  C   -0.000341  -0.035574   0.005868   0.000672   0.000046  -0.155622
    18  O    0.000063   0.008969  -0.000017   0.000001   0.000000  -0.002763
    19  H   -0.000051   0.001222   0.003096   0.000007   0.000000  -0.003144
    20  C    0.000064   0.006504  -0.017103  -0.000053   0.000002   0.034109
    21  O    0.000000   0.000017  -0.000040   0.000000   0.000000  -0.000185
    22  H    0.000000  -0.000001   0.000002   0.000000   0.000000  -0.000033
    23  C   -0.000019   0.010014  -0.006137   0.000031  -0.000013  -0.059644
    24  O    0.000005  -0.000977  -0.005808  -0.000010  -0.000002   0.010579
    25  H    0.000000   0.000052   0.001463   0.000004   0.000000  -0.000479
    26  C    0.000059  -0.015333  -0.001549  -0.000051   0.000026   0.028888
    27  O    0.000000   0.000043   0.000168   0.000000   0.000000   0.000734
    28  C    0.000000   0.000011   0.000511  -0.000001   0.000000   0.005245
    29  O    0.000000   0.000003   0.000021   0.000000   0.000000  -0.000214
    30  H    0.000000   0.000000   0.000000   0.000000   0.000000   0.000004
    31  H    0.000000  -0.000021  -0.000078   0.000000   0.000000   0.000347
    32  H    0.000000   0.000056   0.000417   0.000000   0.000000  -0.004473
    33  H    0.000000  -0.000111   0.001244   0.000000   0.000000  -0.005581
    34  H    0.000000  -0.002044   0.006380   0.000003   0.000000  -0.003313
    35  H    0.000000  -0.000331   0.001263   0.000000   0.000000   0.008331
    36  H    0.000000   0.000107   0.000009   0.000000   0.000000   0.001358
    37  H    0.000000   0.000005   0.000005   0.000000   0.000000   0.000006
    38  H    0.260389   0.069378  -0.023850  -0.000339  -0.001443   0.000530
    39  H   -0.000462  -0.016783   0.001117   0.000013   0.000000  -0.000379
    40  H    0.002902   0.016376  -0.002899  -0.000068   0.000000   0.006233
    41  H    0.005002   0.058876  -0.069997   0.000463   0.000013  -0.012383
    42  H   -0.010262   0.340595  -0.074983   0.004129  -0.000465   0.015461
    43  H   -0.000085   0.030755   0.275294  -0.012721  -0.002041  -0.192413
    44  H   -0.000110   0.032304  -0.125521   0.005942  -0.000149   0.357519
    45  H   -0.000060  -0.006531  -0.041774   0.000636   0.000002  -0.030893
              7          8          9         10         11         12
     1  O   -0.000296   0.000000   0.017783  -0.011760   0.001965  -0.085475
     2  C    0.008369  -0.001906   0.228351   0.032640  -0.014273  -0.844411
     3  C   -0.089785   0.013503  -0.280148   0.006492  -0.000459   0.153746
     4  O    0.005178  -0.000245   0.014471  -0.000048   0.000002   0.023135
     5  H   -0.000405   0.000015  -0.003660  -0.000024   0.000000   0.011441
     6  C    0.262752   0.015032   0.056376  -0.003588   0.000632   0.119971
     7  O    8.216668   0.246698   0.001991   0.000002   0.000000   0.020708
     8  H    0.246698   0.343390  -0.000319   0.000000   0.000000  -0.003277
     9  C    0.001991  -0.000319   7.241669   0.093613  -0.002542  -1.500951
    10  O    0.000002   0.000000   0.093613   8.244831   0.229394   0.001974
    11  H    0.000000   0.000000  -0.002542   0.229394   0.444750   0.023136
    12  C    0.020708  -0.003277  -1.500951   0.001974   0.023136   8.958503
    13  O    0.003172  -0.000189  -0.038670  -0.002890  -0.000529   0.048164
    14  C   -0.044756  -0.048340  -0.560328   0.005723  -0.003765  -0.759399
    15  O   -0.003013   0.009366   0.002625   0.000025   0.000002  -0.000304
    16  C   -0.014248   0.011078  -0.069089  -0.000610  -0.000075  -0.042419
    17  C    0.000374   0.000552   0.000492  -0.000292  -0.000048  -0.062896
    18  O    0.000111  -0.000037  -0.005206  -0.000140  -0.000010  -0.001671
    19  H   -0.000081  -0.000003  -0.004248  -0.000002  -0.000003  -0.002131
    20  C    0.001429   0.000747  -0.001502  -0.000029   0.000005  -0.024402
    21  O   -0.000001   0.000000   0.000142   0.000000   0.000000   0.000048
    22  H    0.000000   0.000000  -0.000001   0.000000   0.000000   0.000010
    23  C    0.002214  -0.000955  -0.001978  -0.000005   0.000000   0.000665
    24  O   -0.034349   0.017671   0.000019   0.000000   0.000000   0.000689
    25  H    0.002787  -0.003538  -0.000013   0.000000   0.000000  -0.000201
    26  C    0.008931  -0.005026  -0.002092  -0.000031  -0.000006  -0.024536
    27  O   -0.000103  -0.000050   0.000055   0.000000   0.000000   0.000328
    28  C   -0.000685   0.000092   0.002532   0.000012   0.000001   0.005954
    29  O   -0.000002  -0.000001  -0.000004   0.000000   0.000000   0.000053
    30  H    0.000000   0.000000   0.000000   0.000000   0.000000  -0.000002
    31  H   -0.000420   0.000208   0.000000   0.000000   0.000000   0.000082
    32  H    0.000350  -0.000092   0.000001   0.000000   0.000000   0.000067
    33  H   -0.000122  -0.000025   0.000123   0.000000   0.000000   0.000803
    34  H   -0.000654  -0.000140  -0.000097   0.000000   0.000000  -0.003863
    35  H    0.000014  -0.000001  -0.000859   0.000000   0.000000  -0.004182
    36  H    0.000002   0.000000  -0.000057   0.000000   0.000000   0.000220
    37  H    0.000000   0.000000   0.000004   0.000000   0.000000   0.000080
    38  H   -0.000006   0.000000   0.005568   0.000261  -0.000053  -0.051321
    39  H   -0.000010   0.000000   0.425129  -0.018482  -0.014715  -0.043492
    40  H    0.000003   0.000000   0.608941  -0.059433   0.000745  -0.269013
    41  H    0.000053   0.000001   0.078417   0.000675  -0.000297   0.073022
    42  H    0.000587  -0.000003  -0.023941  -0.000919  -0.000005  -0.065609
    43  H    0.007868  -0.000193   0.016515  -0.000139   0.000000   0.036311
    44  H   -0.031302  -0.003768   0.018676   0.000021   0.000000   0.065033
    45  H    0.000155   0.000056   0.020965   0.000106   0.000000   0.070633
             13         14         15         16         17         18
     1  O    0.001782  -0.010107  -0.000213  -0.000012  -0.000341   0.000063
     2  C   -0.042074   0.494229  -0.009014   0.078212  -0.035574   0.008969
     3  C   -0.059736  -0.282578  -0.024118  -0.062952   0.005868  -0.000017
     4  O   -0.001079  -0.035425   0.000688  -0.003680   0.000672   0.000001
     5  H    0.000033   0.012920  -0.000028   0.000214   0.000046   0.000000
     6  C    0.026749  -1.516611  -0.010637   0.044148  -0.155622  -0.002763
     7  O    0.003172  -0.044756  -0.003013  -0.014248   0.000374   0.000111
     8  H   -0.000189  -0.048340   0.009366   0.011078   0.000552  -0.000037
     9  C   -0.038670  -0.560328   0.002625  -0.069089   0.000492  -0.005206
    10  O   -0.002890   0.005723   0.000025  -0.000610  -0.000292  -0.000140
    11  H   -0.000529  -0.003765   0.000002  -0.000075  -0.000048  -0.000010
    12  C    0.048164  -0.759399  -0.000304  -0.042419  -0.062896  -0.001671
    13  O    8.166900   0.236883  -0.019092  -0.017354   0.026098  -0.023170
    14  C    0.236883   8.024450   0.139386  -0.328071   0.319192   0.001478
    15  O   -0.019092   0.139386   8.217731   0.136023  -0.008419  -0.007642
    16  C   -0.017354  -0.328071   0.136023   9.408961  -1.483604  -0.060888
    17  C    0.026098   0.319192  -0.008419  -1.483604   7.670341   0.266976
    18  O   -0.023170   0.001478  -0.007642  -0.060888   0.266976   8.199335
    19  H    0.025061  -0.000723   0.010087  -0.044047   0.029518   0.233926
    20  C   -0.007396  -0.278559   0.005397  -0.819209  -0.631746  -0.069252
    21  O   -0.000054   0.001899   0.000448   0.045067  -0.143412   0.008823
    22  H    0.000002  -0.000186  -0.000023  -0.006664   0.034508  -0.000329
    23  C    0.007623   0.079562  -0.025346   0.151414  -0.273747   0.009102
    24  O   -0.002092   0.036833  -0.047450   0.061607  -0.006882  -0.000054
    25  H    0.000008  -0.005706   0.003224  -0.022244  -0.000681  -0.000001
    26  C   -0.025702  -0.464835  -0.021365  -2.333511   0.401438   0.024738
    27  O   -0.000067   0.011244   0.000134   0.090541  -0.017486  -0.001134
    28  C   -0.000324   0.075963   0.008999   1.030822  -0.197527  -0.005683
    29  O    0.000020   0.000844  -0.000252  -0.028292  -0.025695   0.000182
    30  H    0.000000  -0.000004   0.000003   0.001131   0.012924  -0.000007
    31  H    0.000011   0.005808   0.000180   0.026653   0.000541   0.000010
    32  H    0.000090   0.006386   0.003089   0.034456  -0.007911   0.000056
    33  H   -0.000554   0.038034   0.000942  -0.046104  -0.006885   0.000489
    34  H   -0.003719   0.007787  -0.020800   0.097227   0.061825  -0.002960
    35  H    0.000071  -0.011939  -0.003232  -0.152189   0.294338  -0.031577
    36  H    0.000035  -0.005300   0.001015   0.093134  -0.248997   0.005022
    37  H    0.000005   0.000975   0.000231   0.044147  -0.011523   0.000095
    38  H   -0.000711   0.000535   0.000004   0.000149  -0.000071  -0.000001
    39  H   -0.004176  -0.002730  -0.000183   0.000327   0.001980   0.000259
    40  H   -0.004898   0.001099  -0.000503  -0.002973   0.001415  -0.000093
    41  H   -0.024401   0.140298  -0.000967  -0.000327   0.006042  -0.000451
    42  H    0.008639   0.075852  -0.000036  -0.001639   0.001488   0.000029
    43  H    0.005718   0.082379   0.000970  -0.004904   0.003224   0.000068
    44  H    0.008106  -0.048486  -0.006557  -0.021570   0.005157   0.000068
    45  H   -0.047375   0.286767  -0.010193  -0.001380   0.005828  -0.002848
             19         20         21         22         23         24
     1  O   -0.000051   0.000064   0.000000   0.000000  -0.000019   0.000005
     2  C    0.001222   0.006504   0.000017  -0.000001   0.010014  -0.000977
     3  C    0.003096  -0.017103  -0.000040   0.000002  -0.006137  -0.005808
     4  O    0.000007  -0.000053   0.000000   0.000000   0.000031  -0.000010
     5  H    0.000000   0.000002   0.000000   0.000000  -0.000013  -0.000002
     6  C   -0.003144   0.034109  -0.000185  -0.000033  -0.059644   0.010579
     7  O   -0.000081   0.001429  -0.000001   0.000000   0.002214  -0.034349
     8  H   -0.000003   0.000747   0.000000   0.000000  -0.000955   0.017671
     9  C   -0.004248  -0.001502   0.000142  -0.000001  -0.001978   0.000019
    10  O   -0.000002  -0.000029   0.000000   0.000000  -0.000005   0.000000
    11  H   -0.000003   0.000005   0.000000   0.000000   0.000000   0.000000
    12  C   -0.002131  -0.024402   0.000048   0.000010   0.000665   0.000689
    13  O    0.025061  -0.007396  -0.000054   0.000002   0.007623  -0.002092
    14  C   -0.000723  -0.278559   0.001899  -0.000186   0.079562   0.036833
    15  O    0.010087   0.005397   0.000448  -0.000023  -0.025346  -0.047450
    16  C   -0.044047  -0.819209   0.045067  -0.006664   0.151414   0.061607
    17  C    0.029518  -0.631746  -0.143412   0.034508  -0.273747  -0.006882
    18  O    0.233926  -0.069252   0.008823  -0.000329   0.009102  -0.000054
    19  H    0.369156   0.006341   0.000040   0.000007  -0.003243   0.000032
    20  C    0.006341   7.431603   0.212118  -0.047467   0.079786  -0.005297
    21  O    0.000040   0.212118   8.240198   0.238681   0.000136   0.000001
    22  H    0.000007  -0.047467   0.238681   0.426694  -0.000249   0.000000
    23  C   -0.003243   0.079786   0.000136  -0.000249   6.358475  -0.016445
    24  O    0.000032  -0.005297   0.000001   0.000000  -0.016445   8.306415
    25  H    0.000000   0.000935   0.000000   0.000000  -0.033362   0.247209
    26  C   -0.002560   0.912751  -0.025365   0.003678  -0.852249   0.054250
    27  O    0.000111  -0.175754  -0.000418  -0.000194  -0.108099   0.001813
    28  C    0.002381  -0.934767   0.036356  -0.001013  -0.133358   0.006807
    29  O   -0.000008   0.105476  -0.017613   0.017065   0.021141   0.000005
    30  H    0.000000  -0.043793   0.000081  -0.002068  -0.001226  -0.000003
    31  H    0.000000  -0.002896  -0.000001   0.000000   0.414106  -0.035035
    32  H    0.000000  -0.003852   0.000005   0.000000   0.601309  -0.055451
    33  H    0.000031  -0.064116   0.000122   0.000004   0.088479   0.000829
    34  H    0.000234   0.017881  -0.000415   0.000006  -0.030140   0.000854
    35  H   -0.007146   0.029854  -0.001683  -0.000207   0.016576   0.000014
    36  H   -0.000125   0.373521  -0.032783  -0.004148   0.007974   0.000017
    37  H    0.000004  -0.110555   0.004190   0.000655   0.002277   0.000024
    38  H    0.000000   0.000001   0.000000   0.000000   0.000002   0.000000
    39  H    0.001411  -0.000318   0.000003   0.000000   0.000006   0.000000
    40  H    0.000042   0.000040   0.000000   0.000000  -0.000025   0.000000
    41  H   -0.000044   0.000605   0.000000   0.000000  -0.000010   0.000000
    42  H   -0.000012   0.000029   0.000000   0.000000   0.000024   0.000010
    43  H    0.000002   0.000033   0.000000   0.000000   0.000062   0.000038
    44  H   -0.000006   0.000756   0.000000   0.000000   0.001385   0.000200
    45  H    0.000159   0.009322   0.000006   0.000000  -0.001546  -0.000127
             25         26         27         28         29         30
     1  O    0.000000   0.000059   0.000000   0.000000   0.000000   0.000000
     2  C    0.000052  -0.015333   0.000043   0.000011   0.000003   0.000000
     3  C    0.001463  -0.001549   0.000168   0.000511   0.000021   0.000000
     4  O    0.000004  -0.000051   0.000000  -0.000001   0.000000   0.000000
     5  H    0.000000   0.000026   0.000000   0.000000   0.000000   0.000000
     6  C   -0.000479   0.028888   0.000734   0.005245  -0.000214   0.000004
     7  O    0.002787   0.008931  -0.000103  -0.000685  -0.000002   0.000000
     8  H   -0.003538  -0.005026  -0.000050   0.000092  -0.000001   0.000000
     9  C   -0.000013  -0.002092   0.000055   0.002532  -0.000004   0.000000
    10  O    0.000000  -0.000031   0.000000   0.000012   0.000000   0.000000
    11  H    0.000000  -0.000006   0.000000   0.000001   0.000000   0.000000
    12  C   -0.000201  -0.024536   0.000328   0.005954   0.000053  -0.000002
    13  O    0.000008  -0.025702  -0.000067  -0.000324   0.000020   0.000000
    14  C   -0.005706  -0.464835   0.011244   0.075963   0.000844  -0.000004
    15  O    0.003224  -0.021365   0.000134   0.008999  -0.000252   0.000003
    16  C   -0.022244  -2.333511   0.090541   1.030822  -0.028292   0.001131
    17  C   -0.000681   0.401438  -0.017486  -0.197527  -0.025695   0.012924
    18  O   -0.000001   0.024738  -0.001134  -0.005683   0.000182  -0.000007
    19  H    0.000000  -0.002560   0.000111   0.002381  -0.000008   0.000000
    20  C    0.000935   0.912751  -0.175754  -0.934767   0.105476  -0.043793
    21  O    0.000000  -0.025365  -0.000418   0.036356  -0.017613   0.000081
    22  H    0.000000   0.003678  -0.000194  -0.001013   0.017065  -0.002068
    23  C   -0.033362  -0.852249  -0.108099  -0.133358   0.021141  -0.001226
    24  O    0.247209   0.054250   0.001813   0.006807   0.000005  -0.000003
    25  H    0.422004   0.050116  -0.000509  -0.001521  -0.000003   0.000000
    26  C    0.050116   9.311644   0.110284  -1.182320   0.004864  -0.013024
    27  O   -0.000509   0.110284   8.285504   0.248153  -0.157068   0.005024
    28  C   -0.001521  -1.182320   0.248153   6.195321   0.152117   0.039686
    29  O   -0.000003   0.004864  -0.157068   0.152117   8.216272   0.253401
    30  H    0.000000  -0.013024   0.005024   0.039686   0.253401   0.431612
    31  H   -0.007688  -0.076032  -0.000478   0.004865  -0.000132  -0.000001
    32  H   -0.005143  -0.267652  -0.000588   0.004695  -0.000306   0.000001
    33  H   -0.000191   0.199798  -0.038352   0.067494  -0.002171   0.000055
    34  H   -0.000003   0.114001   0.001135   0.004396  -0.000708   0.000005
    35  H    0.000001   0.121622  -0.000412  -0.038813   0.000417   0.000009
    36  H    0.000000  -0.004235   0.000019   0.055369  -0.008605   0.000284
    37  H    0.000000   0.000422  -0.039377   0.410442  -0.018427  -0.008327
    38  H    0.000000  -0.000007   0.000000   0.000000   0.000000   0.000000
    39  H    0.000000   0.000152   0.000000  -0.000024   0.000000   0.000000
    40  H    0.000000  -0.000064   0.000000   0.000010   0.000000   0.000000
    41  H    0.000000   0.000670   0.000000  -0.000014   0.000000   0.000000
    42  H    0.000000  -0.000078   0.000000  -0.000002   0.000000   0.000000
    43  H    0.000000  -0.000388   0.000000  -0.000003   0.000000   0.000000
    44  H   -0.000008  -0.002962  -0.000001   0.000015   0.000000   0.000000
    45  H    0.000005   0.015540   0.000063  -0.000306  -0.000003   0.000000
             31         32         33         34         35         36
     1  O    0.000000   0.000000   0.000000   0.000000   0.000000   0.000000
     2  C   -0.000021   0.000056  -0.000111  -0.002044  -0.000331   0.000107
     3  C   -0.000078   0.000417   0.001244   0.006380   0.001263   0.000009
     4  O    0.000000   0.000000   0.000000   0.000003   0.000000   0.000000
     5  H    0.000000   0.000000   0.000000   0.000000   0.000000   0.000000
     6  C    0.000347  -0.004473  -0.005581  -0.003313   0.008331   0.001358
     7  O   -0.000420   0.000350  -0.000122  -0.000654   0.000014   0.000002
     8  H    0.000208  -0.000092  -0.000025  -0.000140  -0.000001   0.000000
     9  C    0.000000   0.000001   0.000123  -0.000097  -0.000859  -0.000057
    10  O    0.000000   0.000000   0.000000   0.000000   0.000000   0.000000
    11  H    0.000000   0.000000   0.000000   0.000000   0.000000   0.000000
    12  C    0.000082   0.000067   0.000803  -0.003863  -0.004182   0.000220
    13  O    0.000011   0.000090  -0.000554  -0.003719   0.000071   0.000035
    14  C    0.005808   0.006386   0.038034   0.007787  -0.011939  -0.005300
    15  O    0.000180   0.003089   0.000942  -0.020800  -0.003232   0.001015
    16  C    0.026653   0.034456  -0.046104   0.097227  -0.152189   0.093134
    17  C    0.000541  -0.007911  -0.006885   0.061825   0.294338  -0.248997
    18  O    0.000010   0.000056   0.000489  -0.002960  -0.031577   0.005022
    19  H    0.000000   0.000000   0.000031   0.000234  -0.007146  -0.000125
    20  C   -0.002896  -0.003852  -0.064116   0.017881   0.029854   0.373521
    21  O   -0.000001   0.000005   0.000122  -0.000415  -0.001683  -0.032783
    22  H    0.000000   0.000000   0.000004   0.000006  -0.000207  -0.004148
    23  C    0.414106   0.601309   0.088479  -0.030140   0.016576   0.007974
    24  O   -0.035035  -0.055451   0.000829   0.000854   0.000014   0.000017
    25  H   -0.007688  -0.005143  -0.000191  -0.000003   0.000001   0.000000
    26  C   -0.076032  -0.267652   0.199798   0.114001   0.121622  -0.004235
    27  O   -0.000478  -0.000588  -0.038352   0.001135  -0.000412   0.000019
    28  C    0.004865   0.004695   0.067494   0.004396  -0.038813   0.055369
    29  O   -0.000132  -0.000306  -0.002171  -0.000708   0.000417  -0.008605
    30  H   -0.000001   0.000001   0.000055   0.000005   0.000009   0.000284
    31  H    0.579719  -0.047191  -0.007619  -0.000057   0.000007   0.000001
    32  H   -0.047191   0.581651   0.006792   0.002068  -0.000009  -0.000016
    33  H   -0.007619   0.006792   0.642089   0.006902   0.003307   0.000060
    34  H   -0.000057   0.002068   0.006902   0.619027   0.006747   0.002900
    35  H    0.000007  -0.000009   0.003307   0.006747   0.654770   0.008101
    36  H    0.000001  -0.000016   0.000060   0.002900   0.008101   0.620635
    37  H   -0.000008  -0.000007   0.003138  -0.000030   0.002110   0.005019
    38  H    0.000000   0.000000   0.000000   0.000000   0.000000   0.000000
    39  H    0.000000   0.000000   0.000000   0.000000  -0.000003   0.000000
    40  H    0.000000   0.000000   0.000000   0.000000   0.000000   0.000000
    41  H    0.000000   0.000000   0.000000  -0.000001  -0.000001   0.000000
    42  H    0.000000   0.000000   0.000000   0.000000   0.000000   0.000000
    43  H    0.000000   0.000000   0.000000  -0.000001   0.000000   0.000000
    44  H    0.000000   0.000000   0.000000  -0.000006  -0.000006   0.000000
    45  H    0.000000   0.000009  -0.000001   0.003806  -0.000029  -0.000002
             37         38         39         40         41         42
     1  O    0.000000   0.260389  -0.000462   0.002902   0.005002  -0.010262
     2  C    0.000005   0.069378  -0.016783   0.016376   0.058876   0.340595
     3  C    0.000005  -0.023850   0.001117  -0.002899  -0.069997  -0.074983
     4  O    0.000000  -0.000339   0.000013  -0.000068   0.000463   0.004129
     5  H    0.000000  -0.001443   0.000000   0.000000   0.000013  -0.000465
     6  C    0.000006   0.000530  -0.000379   0.006233  -0.012383   0.015461
     7  O    0.000000  -0.000006  -0.000010   0.000003   0.000053   0.000587
     8  H    0.000000   0.000000   0.000000   0.000000   0.000001  -0.000003
     9  C    0.000004   0.005568   0.425129   0.608941   0.078417  -0.023941
    10  O    0.000000   0.000261  -0.018482  -0.059433   0.000675  -0.000919
    11  H    0.000000  -0.000053  -0.014715   0.000745  -0.000297  -0.000005
    12  C    0.000080  -0.051321  -0.043492  -0.269013   0.073022  -0.065609
    13  O    0.000005  -0.000711  -0.004176  -0.004898  -0.024401   0.008639
    14  C    0.000975   0.000535  -0.002730   0.001099   0.140298   0.075852
    15  O    0.000231   0.000004  -0.000183  -0.000503  -0.000967  -0.000036
    16  C    0.044147   0.000149   0.000327  -0.002973  -0.000327  -0.001639
    17  C   -0.011523  -0.000071   0.001980   0.001415   0.006042   0.001488
    18  O    0.000095  -0.000001   0.000259  -0.000093  -0.000451   0.000029
    19  H    0.000004   0.000000   0.001411   0.000042  -0.000044  -0.000012
    20  C   -0.110555   0.000001  -0.000318   0.000040   0.000605   0.000029
    21  O    0.004190   0.000000   0.000003   0.000000   0.000000   0.000000
    22  H    0.000655   0.000000   0.000000   0.000000   0.000000   0.000000
    23  C    0.002277   0.000002   0.000006  -0.000025  -0.000010   0.000024
    24  O    0.000024   0.000000   0.000000   0.000000   0.000000   0.000010
    25  H    0.000000   0.000000   0.000000   0.000000   0.000000   0.000000
    26  C    0.000422  -0.000007   0.000152  -0.000064   0.000670  -0.000078
    27  O   -0.039377   0.000000   0.000000   0.000000   0.000000   0.000000
    28  C    0.410442   0.000000  -0.000024   0.000010  -0.000014  -0.000002
    29  O   -0.018427   0.000000   0.000000   0.000000   0.000000   0.000000
    30  H   -0.008327   0.000000   0.000000   0.000000   0.000000   0.000000
    31  H   -0.000008   0.000000   0.000000   0.000000   0.000000   0.000000
    32  H   -0.000007   0.000000   0.000000   0.000000   0.000000   0.000000
    33  H    0.003138   0.000000   0.000000   0.000000   0.000000   0.000000
    34  H   -0.000030   0.000000   0.000000   0.000000  -0.000001   0.000000
    35  H    0.002110   0.000000  -0.000003   0.000000  -0.000001   0.000000
    36  H    0.005019   0.000000   0.000000   0.000000   0.000000   0.000000
    37  H    0.571040   0.000000   0.000000   0.000000   0.000000   0.000000
    38  H    0.000000   0.414551   0.000033  -0.000429  -0.000151  -0.012121
    39  H    0.000000   0.000033   0.576884  -0.046083  -0.003129   0.000045
    40  H    0.000000  -0.000429  -0.046083   0.601090   0.006351   0.003295
    41  H    0.000000  -0.000151  -0.003129   0.006351   0.606927   0.005749
    42  H    0.000000  -0.012121   0.000045   0.003295   0.005749   0.597898
    43  H    0.000000  -0.000138   0.000006  -0.000005   0.001809   0.005298
    44  H    0.000000   0.000011   0.000001  -0.000025  -0.000102   0.001791
    45  H    0.000000   0.000004  -0.000030  -0.000015   0.002161  -0.000076
             43         44         45
     1  O   -0.000085  -0.000110  -0.000060
     2  C    0.030755   0.032304  -0.006531
     3  C    0.275294  -0.125521  -0.041774
     4  O   -0.012721   0.005942   0.000636
     5  H   -0.002041  -0.000149   0.000002
     6  C   -0.192413   0.357519  -0.030893
     7  O    0.007868  -0.031302   0.000155
     8  H   -0.000193  -0.003768   0.000056
     9  C    0.016515   0.018676   0.020965
    10  O   -0.000139   0.000021   0.000106
    11  H    0.000000   0.000000   0.000000
    12  C    0.036311   0.065033   0.070633
    13  O    0.005718   0.008106  -0.047375
    14  C    0.082379  -0.048486   0.286767
    15  O    0.000970  -0.006557  -0.010193
    16  C   -0.004904  -0.021570  -0.001380
    17  C    0.003224   0.005157   0.005828
    18  O    0.000068   0.000068  -0.002848
    19  H    0.000002  -0.000006   0.000159
    20  C    0.000033   0.000756   0.009322
    21  O    0.000000   0.000000   0.000006
    22  H    0.000000   0.000000   0.000000
    23  C    0.000062   0.001385  -0.001546
    24  O    0.000038   0.000200  -0.000127
    25  H    0.000000  -0.000008   0.000005
    26  C   -0.000388  -0.002962   0.015540
[...]
 0000224,-0.00000617,0.00001609,-0.00001365,0.00001405,-0.00001344,0.00
 001808,0.00000359,-0.00000337,-0.00000298,0.00000303,0.00000727,0.0000
 0278,0.00000106,-0.00000284,-0.00000126,-0.00000116,-0.00000867,-0.000
 00585,0.00001411,0.00002445,0.00000890,0.00000167,-0.00000943,-0.00000
 227,0.00000107,-0.00001617,-0.00000925,0.00000005,0.00000852,0.0000074
 5,-0.00000147,-0.00000744,-0.00000376,0.00000242,0.00000543,0.00000175
 ,-0.00000419,-0.00000140,-0.00000027,0.00000072,-0.00000004,0.00000106
 ,0.00000007,0.00000445,0.,-0.00000417,0.00000755,-0.00000092,0.0000044
 7,0.00000835,-0.00000164,-0.00000694,0.00001064,0.00000095,0.00000659,
 0.00000359,-0.00000016,-0.00000308,0.00000181,0.00000060,0.00000114,0.
 00117455,0.00019119,-0.00053697,0.00025730,0.00004934,-0.00000241,0.00
 059029,-0.00075205,-0.00007370,0.00061163,-0.00025741,0.00028574,0.370
 71670,-0.01093699,-0.00297053,-0.00494690,-0.04898628,-0.05250055,0.00
 700654,0.02893180,0.00388913,-0.00444163,-0.00185950,0.00301710,-0.000
 58466,0.00036131,-0.00022299,0.00037410,0.00093667,0.00121212,0.001060
 70,-0.00041617,-0.00031178,-0.00013269,-0.00003418,-0.00003354,0.00007
 145,-0.00229286,0.00164784,-0.00056120,0.00047896,0.00004879,0.0001609
 1,-0.00000745,-0.00006171,0.00000290,-0.02591355,-0.00504631,0.0040368
 8,0.00149876,0.00142291,-0.00093800,0.00029571,-0.00060751,0.00005476,
 0.00000133,0.00012495,-0.00006486,-0.00003401,0.00001422,0.00000325,0.
 00000138,-0.00001423,-0.00002847,0.00002203,0.00000429,0.00000231,-0.0
 0002936,0.00001294,-0.00000384,-0.00000340,0.00000162,0.00000431,0.000
 00420,0.00000411,-0.00000421,-0.00000135,-0.00000049,0.00000015,-0.000
 00308,-0.00000696,0.00000722,-0.00002444,-0.00000097,-0.00003984,0.000
 00934,0.00000540,0.00000139,0.00000391,0.00000395,0.00000363,-0.000002
 42,0.00000332,-0.00000702,-0.00000011,-0.00000636,0.00000629,0.0000032
 7,0.00000142,-0.00000552,-0.00000046,0.00000020,0.00000101,-0.00000020
 ,0.00000133,-0.00000524,0.00000013,0.00000041,0.00000250,-0.00000041,0
 .00000091,-0.00000010,0.00000301,-0.00000426,0.00000585,0.00000653,0.0
 0000679,0.00000597,0.00000117,-0.00000093,-0.00000180,0.00000023,0.000
 00119,0.00000031,-0.00111925,0.00129130,0.00006653,0.00038131,0.000298
 11,-0.00011354,0.00108384,-0.00022514,-0.00022868,-0.00086393,-0.00292
 593,0.00300815,0.05689502,0.05647065,-0.03704984,-0.01170443,-0.010116
 94,0.04210856,0.00626351,-0.04880755,0.00999289,0.00352728,-0.00082343
 ,-0.00133085,0.00034738,0.00062531,-0.00038981,-0.00030030,-0.00003460
 ,0.00101531,0.00034302,0.00039219,-0.00030698,-0.00008863,-0.00007907,
 0.00003962,0.00001306,0.00001722,0.00040250,-0.00157504,0.00033960,-0.
 00015381,-0.00001548,0.00012887,0.00002676,-0.00003590,0.00008573,0.02
 367348,0.00426675,-0.00184099,-0.00114043,-0.00059289,0.00229789,0.000
 38067,-0.00003213,-0.00002937,-0.00007605,0.00000689,-0.00021105,-0.00
 001296,-0.00004842,0.00002997,0.00003040,0.00001986,0.00002900,-0.0000
 5015,-0.00002106,-0.00002062,0.00005681,0.00001445,0.00000097,-0.00000
 222,-0.00000747,0.00000848,-0.00000696,0.00000997,-0.00001261,0.000001
 94,-0.00000069,0.00000218,0.00000292,0.00000530,-0.00000378,-0.0000223
 1,-0.00001069,-0.00001662,0.00000693,0.00000292,0.00000254,0.00002456,
 0.00001665,0.00001140,-0.00001317,-0.00000107,-0.00001739,0.00000985,-
 0.00000305,0.00001526,0.00000170,-0.00000012,-0.00001271,0.00000059,-0
 .00000004,0.00000141,-0.00000081,-0.00000367,-0.00000277,-0.00000198,0
 .00000095,0.00000352,-0.00000796,0.,-0.00000539,-0.00000518,0.00000381
 ,0.00000589,-0.00001688,-0.00000661,-0.00001252,-0.00000387,0.00000068
 ,0.00000389,-0.00000209,-0.00000021,-0.00000281,-0.00211099,0.00092393
 ,0.00328263,-0.00012208,-0.00018305,0.00000739,-0.00074589,0.00021810,
 0.00029242,0.00047664,0.00311266,-0.00309571,-0.03501462,-0.00207448,0
 .05799350,0.00184457,-0.00021758,-0.00034807,-0.01775508,-0.00242707,-
 0.00119589,-0.34880966,-0.04663392,0.00357436,0.00062779,-0.00695083,0
 .00715193,-0.00004115,-0.00061686,-0.00014309,-0.01209639,-0.00054522,
 -0.00026734,0.00164623,-0.00023027,0.00001975,0.00010996,0.00003853,0.
 00010779,0.00044189,0.00042405,-0.00015777,0.00002671,-0.00000937,-0.0
 0000896,-0.00000165,0.00000954,0.00000433,-0.00106591,-0.00144477,0.00
 061333,0.00060513,0.00042426,-0.00009035,-0.00173206,-0.00126675,0.000
 88097,0.00080248,0.00017243,0.00010998,-0.00003657,0.00010530,-0.00020
 034,-0.00002160,-0.00002700,-0.00005860,0.00005488,0.00000183,0.000060
 25,-0.00004425,0.00001606,-0.00000630,-0.00000797,0.00001601,-0.000012
 29,0.00001247,-0.00000846,0.00001676,-0.00000427,-0.00000002,-0.000004
 12,-0.00002439,-0.00004458,0.00005175,0.00002445,0.00004691,-0.0000474
 1,-0.00001092,-0.00000520,0.00001488,-0.00001487,-0.00003371,-0.000020
 48,0.00001168,0.00002033,0.00001674,-0.00000855,-0.00001385,-0.0000192
 8,-0.00000068,0.00000633,0.00001479,-0.00000072,-0.00000116,-0.0000017
 8,0.00000438,0.00000949,-0.00000600,0.00000903,0.00000104,-0.00001379,
 0.00001002,-0.00000010,0.00000725,0.00000132,-0.00001160,-0.00002303,0
 .00001550,0.00000361,0.00000820,0.00000552,-0.00000113,-0.00000331,0.0
 0000249,0.00000112,0.00000371,0.00039671,-0.00036930,-0.00016620,-0.00
 000976,0.00011375,0.00000282,0.00022674,-0.00028127,-0.00002142,0.0011
 2787,0.00052873,-0.00044215,-0.00042919,0.00209685,0.00066245,0.372829
 31,-0.00181437,0.00184611,0.00130052,0.02995092,0.00236505,-0.00045023
 ,-0.04840658,-0.04813352,-0.00412825,-0.02714253,-0.01441158,0.0136146
 6,-0.00071461,-0.00026408,-0.00081158,-0.01248236,-0.00022854,-0.00164
 795,0.00046020,0.00091769,0.00136605,0.00008415,0.00009252,-0.00000587
 ,0.00023048,0.00000859,-0.00003795,-0.00008867,-0.00005435,-0.00006256
 ,0.00000084,0.00001759,-0.00000482,0.00130065,0.00170939,-0.00080911,-
 0.00023561,-0.00012556,0.00026387,0.00043811,-0.00058536,0.00109526,0.
 00023031,-0.00002842,-0.00018055,0.00000454,0.00005656,-0.00005080,0.0
 0000548,-0.00001717,-0.00003331,-0.00001255,0.00000137,0.00004341,0.00
 001775,0.00001385,-0.00004483,-0.00000595,0.00000970,0.00000246,0.0000
 0262,-0.00000127,-0.00000155,-0.00000161,0.00000196,-0.00000090,-0.000
 00783,0.00000907,0.00000626,0.00006338,0.00000460,0.00006515,-0.000023
 07,-0.00000919,-0.00000573,-0.00000352,0.00001348,0.00000448,0.0000039
 0,-0.00000570,-0.00000404,-0.00000247,-0.00000061,-0.00000270,0.000000
 14,0.00000059,0.00000232,-0.00000025,-0.00000004,-0.00000044,0.0000013
 5,-0.00000264,0.00000590,0.00000544,-0.00000035,-0.00000835,0.00000392
 ,-0.00000448,0.00000243,0.00000490,0.00000506,-0.00001909,0.00000186,-
 0.00000170,0.00000026,0.00000092,0.00000020,0.00000050,0.00000075,-0.0
 0000040,0.00000046,-0.00006977,0.00028953,0.00034951,-0.00010074,-0.00
 003767,0.00001518,-0.00026359,-0.00008095,0.00006905,-0.00016809,-0.00
 072275,0.00031536,0.00225681,-0.00428564,-0.00188096,0.05681272,0.0613
 7875,-0.00028923,0.00106095,0.00115163,0.01142905,-0.00110384,0.000878
 84,0.00408807,-0.00434004,-0.04224973,0.02428323,0.01635499,-0.0081994
 4,0.00175931,0.00030661,0.00044184,-0.03236702,-0.00443901,-0.00072208
 ,0.00198884,0.00101338,0.00217033,-0.00003027,0.00034848,0.00010726,-0
 .00006340,-0.00016823,0.00009895,-0.00001706,-0.00000620,-0.00002030,-
 0.00000388,0.00000922,-0.00000976,-0.00034590,0.00068537,-0.00039431,0
 .00025119,0.00023942,-0.00019707,-0.00223657,-0.00120823,0.00064458,0.
 00044946,0.00010880,0.00001458,0.00010125,0.00007417,0.00004821,0.0000
 0129,-0.00002675,-0.00003628,0.00002407,0.00001704,0.00001466,-0.00002
 487,-0.00001342,0.00000475,-0.00000739,0.00000327,0.00001003,0.0000026
 5,0.00001111,-0.00001205,-0.00000137,0.00000022,-0.00000008,-0.0000096
 6,-0.00000299,0.00003718,0.00005908,-0.00000214,0.00005023,-0.00000665
 ,0.00000108,-0.00001802,-0.00000773,0.00000303,0.00003001,0.00000144,0
 .00001139,-0.00001825,0.00000136,-0.00001606,0.00001441,0.00000703,0.0
 0000410,-0.00001286,-0.00000082,0.00000025,0.00000167,-0.00000049,-0.0
 0000252,-0.00000136,0.00000997,0.00000139,-0.00001059,0.00000730,-0.00
 000421,0.00000738,0.00003003,0.00001290,-0.00006153,0.00000641,-0.0000
 0328,0.00000752,0.00000028,0.00000115,-0.00000183,0.00000017,0.0000014
 5,-0.00000021,-0.00011871,0.00028532,0.00005322,-0.00001822,-0.0000775
 0,0.00000062,-0.00008317,0.00006550,-0.00000811,-0.00044136,0.00017176
 ,0.00026849,0.00092246,-0.00137824,-0.00037814,-0.00812751,-0.00687200
 ,0.05232307,0.00060144,0.00022585,-0.00003305,-0.00089216,0.00077558,0
 .00046303,-0.01182490,-0.00508050,0.00027778,0.00154372,0.00051965,0.0
 0086826,0.00021991,0.00010791,0.00006336,-0.34434199,-0.06081639,0.011
 90241,-0.01576392,0.01179807,0.00755791,-0.00028914,0.00040368,-0.0014
 4396,-0.00005537,-0.00005617,-0.00000116,0.00004277,0.00004903,0.00002
 247,-0.00000973,-0.00000737,0.00000048,-0.00003993,-0.00015419,0.00013
 049,0.00170540,-0.00085054,-0.00046297,-0.00747065,-0.00134147,-0.0007
 8281,0.00101308,0.00038177,-0.00059696,0.00028053,0.00011974,0.0001911
 9,-0.00000851,0.00003228,-0.00001324,0.00003814,-0.00000182,-0.0000726
 2,-0.00002342,-0.00004673,0.00004573,-0.00001467,0.00001697,0.00001551
 ,0.00000970,-0.00000906,-0.00001724,-0.00000457,0.00000484,0.00000072,
 0.00002592,0.00012657,-0.00008090,0.00033952,-0.00012513,0.00052727,-0
 .00008181,-0.00005006,-0.00012075,-0.00006482,0.00005887,0.00004282,0.
 00003248,-0.00006004,-0.00000338,-0.00002061,0.00004235,0.00000174,0.0
 0000705,-0.00001372,-0.00000717,-0.00000190,0.00000196,0.00000182,-0.0
 0000131,-0.00002897,0.00005147,0.00001058,-0.00000471,-0.00003403,0.00
 002555,-0.00001513,0.00001258,0.00003051,0.00005121,-0.00022069,0.0000
 1620,-0.00001527,0.00001600,0.00000636,0.00000155,-0.00000385,0.000003
 85,-0.00000289,0.00000186,-0.00000682,-0.00015169,-0.00011089,0.000006
 39,0.00000351,-0.00001348,0.00004759,-0.00002553,-0.00001243,0.0000320
 1,0.00016175,-0.00000606,0.00090612,-0.00038707,-0.00012084,0.00028006
 ,-0.00067649,-0.00148364,0.37327153,0.00023446,0.00000615,0.00006476,-
 0.00113265,0.00007463,0.00002291,-0.00860844,-0.00183560,0.00046487,0.
 00094509,0.00037993,0.00027415,0.00006703,-0.00002871,0.00000017,-0.06
 020489,-0.04956603,0.00438968,0.03916345,-0.00964919,-0.00947405,0.000
 92944,0.00107032,0.00163003,-0.00009696,0.00000677,0.00000992,0.000039
 11,-0.00000600,0.00001759,-0.00000497,-0.00000195,-0.00000406,-0.00014
 907,-0.00031389,-0.00018894,0.00103492,0.00234296,-0.00028975,-0.02848
 901,-0.00637666,0.00154202,0.00105482,0.00106993,-0.00192398,0.0000724
 7,0.00025967,0.00003890,-0.00003140,-0.00004855,-0.00020944,0.00016434
 ,-0.00004809,0.00008345,-0.00012679,0.00003290,0.00007254,-0.00000840,
 0.00002576,0.00001070,0.00000936,0.00001331,-0.00000756,-0.00000346,-0
 .00000011,-0.00000161,-0.00003912,-0.00007867,0.00010025,-0.00033150,-
 0.00006086,-0.00037042,0.00011497,0.00004731,0.00002559,0.00002280,-0.
 00007368,0.00001769,-0.00001157,0.00004995,-0.00000351,0.00000643,-0.0
 0004409,0.00001035,0.00000457,0.00001362,-0.00000641,-0.00000024,-0.00
 000095,0.00000111,-0.00000099,0.00002122,-0.00003831,-0.00000912,-0.00
 000395,0.00003681,0.00000677,0.00001908,0.00001228,0.00010919,-0.00001
 235,-0.00012201,0.00003063,0.00000220,0.00002425,0.00000412,-0.0000007
 1,-0.00000638,-0.00000047,0.00000458,0.00000165,0.00001281,-0.00000761
 ,-0.00001719,0.00000819,-0.00001210,0.00000224,0.00005515,-0.00003645,
 -0.00002760,0.00013783,0.00015333,0.00004243,0.00018108,-0.00012834,-0
 .00050892,-0.00025688,-0.00008871,-0.00156671,0.05534404,0.06618009,0.
 00045221,0.00019610,-0.00014233,-0.00120792,0.00075899,0.00102615,-0.0
 3304961,-0.00872231,-0.00097081,0.00130346,-0.00024343,0.00286492,0.00
 019339,-0.00010411,0.00037682,0.01090883,0.00473789,-0.04399549,0.0144
 7226,-0.00630145,0.00000473,0.00126826,0.00007932,0.00079297,-0.000042
 13,-0.00002048,0.00007014,0.00000598,0.00000301,0.00000234,0.00000475,
 -0.00000031,0.00000234,-0.00019705,-0.00024389,-0.00044326,-0.00142595
 ,-0.00109951,0.00068897,0.02505428,0.00817629,-0.00232643,-0.00027611,
 -0.00062890,0.00250221,0.00016057,-0.00023628,-0.00012840,0.00001836,0
 .00006995,0.00023513,-0.00012593,0.00002166,-0.00012443,0.00008944,-0.
 00004100,0.00004777,0.00001263,-0.00003493,-0.00002613,-0.00001236,-0.
 00002597,0.00002494,0.00000498,-0.00000075,0.00000161,0.00004990,0.000
 05966,-0.00010174,-0.00022871,-0.00005834,-0.00006169,0.00003550,0.000
 00283,0.00007385,-0.00000181,0.00001272,-0.00003436,-0.00000930,-0.000
 04071,0.00006221,-0.00000062,0.00006446,-0.00003253,-0.00001712,-0.000
 01825,0.00002548,0.00000230,-0.00000040,-0.00000393,-0.00000563,-0.000
 00483,0.00001537,-0.00003480,-0.00000914,0.00005125,-0.00004089,0.0000
 0460,-0.00004346,-0.00021288,-0.00002718,0.00009726,-0.00004406,0.0000
 1466,-0.00002158,-0.00000470,-0.00000237,0.00000776,-0.00000101,-0.000
 00490,-0.00000199,0.00008968,-0.00009506,-0.00003224,0.00001460,-0.000
 02370,0.00000795,0.00000715,-0.00001606,0.00000184,0.00013004,0.000036
 36,-0.00015665,0.00047328,-0.00031662,-0.00015947,-0.00157080,-0.00166
 696,-0.00529246,-0.01684761,0.00285888,0.04756230,0.00011455,-0.000093
 47,0.00028013,0.00002734,0.00046503,0.00001983,-0.00074811,-0.00020406
 ,-0.00073489,0.00055278,0.00017569,-0.00029204,0.00000623,0.00003870,0
 .00010583,-0.00698605,-0.00022998,0.00084339,0.00188985,-0.00065993,-0
 .00088804,-0.00026381,-0.00006198,-0.00007272,0.00058067,0.00007759,0.
 00014581,-0.00001941,0.00023563,0.00012217,-0.00000747,-0.00000452,0.0
 0002881,-0.00057031,-0.00111870,-0.00196567,-0.01562073,0.01024525,0.0
 0552614,-0.34120282,-0.05829100,0.03338063,-0.01274729,-0.00523150,-0.
 00825762,0.00095697,-0.00015763,0.00193347,-0.00005315,-0.00013231,-0.
 00048266,0.00081733,-0.00019127,-0.00007953,-0.00079472,-0.00017357,0.
 00092798,-0.00002631,0.00007028,0.00005189,0.00002968,0.00004736,-0.00
 005636,-0.00001341,0.00000499,-0.00000412,-0.00012477,0.00009097,0.000
 09192,0.00010021,-0.00010162,0.00005623,-0.00001310,-0.00002849,-0.000
 05513,0.00029223,0.00008613,0.00000400,-0.00003364,-0.00002508,-0.0001
 6999,0.00000395,-0.00009713,0.00006800,0.00003180,0.00002881,-0.000054
 92,-0.00000259,0.00000114,0.00000711,0.00001910,-0.00001519,-0.0000048
 2,0.00003901,-0.00002554,-0.00003025,0.00007183,0.00006119,0.00019583,
 0.00044280,0.00029541,-0.00155231,0.00007306,-0.00008596,0.00014550,0.
 00001441,0.00000334,-0.00002868,0.00000311,0.00001138,0.00000005,0.000
 01010,0.00000425,-0.00000402,-0.00000082,-0.00007601,0.00001071,0.0001
 4548,-0.00023340,-0.00012529,0.00066335,0.00049105,0.00108612,0.000085
 10,-0.00010029,-0.00020586,0.00099844,0.00033854,0.00026099,0.00041984
 ,-0.00024715,0.00060518,0.37083925,-0.00005969,0.00032214,-0.00033905,
 -0.00032355,-0.00067470,-0.00008125,-0.00119813,-0.00009928,-0.0013298
 8,0.00051020,0.00003086,0.00021705,0.00014666,-0.00001790,0.00007199,-
 0.02626936,-0.00307365,0.00498586,0.00159807,0.00296376,-0.00093478,-0
 .00044620,-0.00015325,-0.00014060,-0.00004292,0.00015753,0.00006660,-0
 .00012526,-0.00027924,-0.00017073,-0.00000141,0.00003494,-0.00002645,0
 .00349997,0.00186793,0.00460882,0.03794332,-0.00969782,-0.01082112,-0.
 06071433,-0.05321730,0.00931499,-0.00967026,0.00197638,-0.00426508,0.0
 0035007,-0.00049274,0.00133566,0.00017686,-0.00009241,-0.00001019,-0.0
 0044714,0.00007888,0.00032512,0.00071841,0.00014981,-0.00103740,0.0000
 2258,0.00001999,0.00007769,-0.00001128,0.00007335,-0.00007671,-0.00000
 215,0.00000015,0.00000549,-0.00007961,0.00007702,-0.00000576,0.0000810
 1,-0.00006110,0.00006641,-0.00002538,-0.00002287,-0.00003906,0.0000653
 8,0.00011083,0.00010118,-0.00002332,0.00000579,-0.00015227,0.00001832,
 -0.00007556,0.00009991,0.00002774,0.00001911,-0.00006985,-0.00000225,0
 .00000036,0.00000950,0.00001359,-0.00002847,-0.00000287,0.00002539,-0.
 00001534,-0.00002960,0.00002672,-0.00000028,0.00004624,0.00056040,0.00
 011874,-0.00048513,-0.00001290,-0.00008619,0.00000171,-0.00001512,0.00
 000791,0.00000081,-0.00000397,0.00000417,-0.00000953,-0.00001212,0.000
 01310,0.00001997,0.00004464,0.00004231,-0.00000901,-0.00018337,0.00001
 890,0.00002962,-0.00125896,0.00024925,-0.00001972,0.00004444,-0.000130
 82,-0.00000186,0.00054801,0.00034900,0.00043901,-0.00030620,-0.0033504
 4,0.00289045,0.05481307,0.06287715,-0.00008047,-0.00006413,-0.00023673
 ,-0.00010851,0.00008710,-0.00012069,0.00189761,0.00074169,0.00061776,-
 0.00053530,-0.00014347,-0.00003975,-0.00002010,-0.00006143,0.00000801,
 0.02189110,0.00471906,0.00018279,-0.00187043,-0.00048871,0.00096037,-0
 .00022876,0.00004458,-0.00031202,0.00000741,0.00000440,0.00005401,-0.0
 0008185,-0.00010668,-0.00007816,0.00000840,0.00001595,-0.00000436,0.00
 228615,0.00054135,0.00261857,0.01071999,-0.00496568,0.00001928,0.03708
 874,0.01179828,-0.04865919,-0.03793508,-0.00981549,-0.01407894,-0.0036
 2100,-0.00111599,0.00605121,-0.00012434,-0.00001142,-0.00072490,0.0001
 4747,0.00005867,0.00040262,-0.00011190,0.00010913,-0.00037327,0.000016
 36,0.00011096,0.00007600,0.00002096,0.00006950,-0.00007287,-0.00000452
 ,0.00000754,-0.00000345,-0.00009252,0.00017446,0.00016962,0.00006625,-
 0.00022084,0.00011425,0.00001359,-0.00005191,-0.00009572,0.00017983,-0
 .00007934,-0.00013932,0.00006771,0.00001240,-0.00021522,0.00002011,-0.
 00014535,0.00009221,0.00002876,0.00004503,-0.00006487,-0.00000300,0.00
 000368,0.00000669,0.00000583,-0.00001647,-0.00000557,0.00002444,-0.000
 03334,-0.00001307,0.00024712,0.00010599,0.00014722,0.00162341,0.000224
 69,0.00004279,0.00024053,-0.00010158,0.00001860,0.00001539,0.00001027,
 -0.00005428,-0.00000288,0.00001138,0.00000142,-0.00002848,0.00000064,0
 .00000480,0.00000345,0.00003128,-0.00000753,-0.00012126,0.00001706,-0.
 00001523,-0.00059155,-0.00007657,0.00008918,-0.00015493,-0.00000958,0.
 00010627,-0.00036575,0.00020742,-0.00073499,0.00029486,0.00301163,-0.0
 0244695,-0.03083284,-0.00465616,0.05671342\\-0.00118291,-0.01622155,0.
 00245004,0.02948425,0.02132956,-0.01127030,-0.02606637,-0.03628100,0.0
 3631953,0.00259046,-0.00295640,0.02508051,0.00364610,0.00009732,-0.033
 74093,0.01363740,0.00541701,0.00178597,-0.00919126,0.02084690,-0.00976
 829,0.00758316,0.00215729,0.01704003,-0.00856245,0.00869195,-0.0005258
 4,0.00189836,0.01874761,-0.01107167,0.00975512,-0.02890847,0.01343204,
 -0.00608270,0.01421910,0.00718464,0.00256690,-0.01280220,0.01831470,-0
 .02760918,-0.00168695,-0.06008108,-0.01056118,-0.01290697,-0.00102451,
 0.01954240,0.02084957,0.01494342,-0.02796096,0.03305876,-0.00152149,-0
 .00101021,-0.02381079,0.00278366,0.01394356,0.01448806,-0.01426574,0.0
 2006801,0.01149623,-0.01612682,-0.01351571,0.00144048,-0.00793603,-0.0
 0229402,-0.00395695,0.03155573,0.01566545,-0.00589108,-0.01231961,0.00
 141409,-0.02004006,-0.00243798,-0.00933133,0.02895358,0.00813792,-0.02
 660147,-0.00767231,0.02311611,-0.01951299,-0.02591182,0.04872683,0.078
 75224,-0.03214892,-0.00773542,-0.02252867,0.04108336,-0.02017040,-0.00
 124281,-0.00048075,-0.00577399,-0.00799797,-0.00664335,-0.01598779,0.0
 2084433,-0.00287687,-0.00522585,-0.02402593,0.00165601,0.00408780,0.02
 206547,-0.00146604,0.00075944,-0.02553472,-0.00361589,0.00326190,0.021
 28698,-0.00723493,-0.00474240,-0.01669355,-0.00142826,-0.00399889,-0.0
 0083366,0.00305212,0.00101998,0.00015113,0.00571434,-0.01813688,-0.021
 62141,-0.00418565,0.00113363,0.02063045,0.00227454,0.00140774,-0.01594
 624,-0.00507810,0.00129761,0.01923899,0.00398920,0.00073096,-0.0184495
 0,-0.00131837,0.00095711,0.01959234,0.00596071,-0.00166540\\\@


 O WAD SOME POWER THE GIFTIE GIE US       
 TO SEE OURSELS AS OTHERS SEE US.....     
 IT WOULD FRAE MONIE A BLUNDER FREE US,   
                     AND FOOLISH NOTION...
 WHAT AIRS IN DRESS AND GAIT WAD LEA'E US,
                     AND EV'N DEVOTION....
                                          
              (ROBERT BURNS 'TO A LOUSE') 
 Job cpu time:  1 days  6 hours 29 minutes 19.0 seconds.
 File lengths (MBytes):  RWF=   1769 Int=      0 D2E=      0 Chk=     28 Scr=      1
 Normal termination of Gaussian 09 at Wed Mar 23 05:17:48 2016.
Gaussian '09 finished on node024 at Wed Mar 23 05:17:49 EDT 2016.
