Gaussian '09 started on node007 at Thu Jan 21 05:06:20 EST 2016.
 Entering Gaussian System, Link 0=/usr/local/gaussian/g09/g09
 Initial command:
 /usr/local/gaussian/g09/l1.exe /home/srmcgrat/thesis/gaussian/cellobiose/500/6000/gaussian8831/Gau-8867.inp -scrdir=/home/srmcgrat/thesis/gaussian/cellobiose/500/6000/gaussian8831/
 Entering Link 1 = /usr/local/gaussian/g09/l1.exe PID=      8869.
  
 Copyright (c) 1988,1990,1992,1993,1995,1998,2003,2009,2010,
            Gaussian, Inc.  All Rights Reserved.
  
 This is part of the Gaussian(R) 09 program.  It is based on
 the Gaussian(R) 03 system (copyright 2003, Gaussian, Inc.),
 the Gaussian(R) 98 system (copyright 1998, Gaussian, Inc.),
 the Gaussian(R) 94 system (copyright 1995, Gaussian, Inc.),
 the Gaussian 92(TM) system (copyright 1992, Gaussian, Inc.),
 the Gaussian 90(TM) system (copyright 1990, Gaussian, Inc.),
 the Gaussian 88(TM) system (copyright 1988, Gaussian, Inc.),
 the Gaussian 86(TM) system (copyright 1986, Carnegie Mellon
 University), and the Gaussian 82(TM) system (copyright 1983,
 Carnegie Mellon University). Gaussian is a federally registered
 trademark of Gaussian, Inc.
  
 This software contains proprietary and confidential information,
 including trade secrets, belonging to Gaussian, Inc.
  
 This software is provided under written license and may be
 used, copied, transmitted, or stored only in accord with that
 written license.
  
 The following legend is applicable only to US Government
 contracts under FAR:
  
                    RESTRICTED RIGHTS LEGEND
  
 Use, reproduction and disclosure by the US Government is
 subject to restrictions as set forth in subparagraphs (a)
 and (c) of the Commercial Computer Software - Restricted
 Rights clause in FAR 52.227-19.
  
 Gaussian, Inc.
 340 Quinnipiac St., Bldg. 40, Wallingford CT 06492
  
  
 ---------------------------------------------------------------
 Warning -- This program may not be used in any manner that
 competes with the business of Gaussian, Inc. or will provide
 assistance to any competitor of Gaussian, Inc.  The licensee
 of this program is prohibited from giving any competitor of
 Gaussian, Inc. access to this program.  By using this program,
 the user acknowledges that Gaussian, Inc. is engaged in the
 business of creating and licensing software in the field of
 computational chemistry and represents and warrants to the
 licensee that it is not a competitor of Gaussian, Inc. and that
 it will not use this program in any manner prohibited above.
 ---------------------------------------------------------------
  

 Cite this work as:
 Gaussian 09, Revision B.01,
 M. J. Frisch, G. W. Trucks, H. B. Schlegel, G. E. Scuseria, 
 M. A. Robb, J. R. Cheeseman, G. Scalmani, V. Barone, B. Mennucci, 
 G. A. Petersson, H. Nakatsuji, M. Caricato, X. Li, H. P. Hratchian, 
 A. F. Izmaylov, J. Bloino, G. Zheng, J. L. Sonnenberg, M. Hada, 
 M. Ehara, K. Toyota, R. Fukuda, J. Hasegawa, M. Ishida, T. Nakajima, 
 Y. Honda, O. Kitao, H. Nakai, T. Vreven, J. A. Montgomery, Jr., 
 J. E. Peralta, F. Ogliaro, M. Bearpark, J. J. Heyd, E. Brothers, 
 K. N. Kudin, V. N. Staroverov, T. Keith, R. Kobayashi, J. Normand, 
 K. Raghavachari, A. Rendell, J. C. Burant, S. S. Iyengar, J. Tomasi, 
 M. Cossi, N. Rega, J. M. Millam, M. Klene, J. E. Knox, J. B. Cross, 
 V. Bakken, C. Adamo, J. Jaramillo, R. Gomperts, R. E. Stratmann, 
 O. Yazyev, A. J. Austin, R. Cammi, C. Pomelli, J. W. Ochterski, 
 R. L. Martin, K. Morokuma, V. G. Zakrzewski, G. A. Voth, 
 P. Salvador, J. J. Dannenberg, S. Dapprich, A. D. Daniels, 
 O. Farkas, J. B. Foresman, J. V. Ortiz, J. Cioslowski, 
 and D. J. Fox, Gaussian, Inc., Wallingford CT, 2010.
 
 ******************************************
 Gaussian 09:  EM64L-G09RevB.01 12-Aug-2010
                21-Jan-2016 
 ******************************************
 ------------------------------------------------
 # freq=raman b3lyp/6-31+g(d,p) geom=connectivity
 ------------------------------------------------
 1/10=4,30=1,38=1,57=2/1,3;
 2/12=2,17=6,18=5,40=1/2;
 3/5=1,6=6,7=111,11=2,16=1,25=1,30=1,71=2,74=-5/1,2,3;
 4//1;
 5/5=2,38=5,98=1/2;
 8/6=4,10=90,11=11/1;
 10/13=10,15=4/2;
 11/6=3,8=1,9=11,15=111,16=1/1,2,10;
 10/6=1/2;
 6/7=2,8=2,9=2,10=2,18=1,28=1/1;
 7/8=1,10=1,25=1/1,2,3,16;
 1/10=4,30=1/3;
 99//99;
 ------------
 500 6000.com
 ------------
 Symbolic Z-matrix:
 Charge =  0 Multiplicity = 1
 O                     8.841     7.217     12.092 
 C                     9.449     7.356     13.385 
 C                     9.392     8.801     13.851 
 O                     10.353    9.542     13.086 
 H                     10.44     9.171     12.161 
 C                     9.719     9.05      15.315 
 O                     9.24      10.354    15.674 
 H                     10.008    10.996    15.668 
 C                     8.95      4.968     14.158 
 O                     8.498     4.001     15.118 
 H                     8.569     3.162     14.577 
 C                     8.749     6.456     14.391 
 O                     9.111     6.766     15.745 
 C                     9.044     8.094     16.285 
 O                     9.731     7.93      17.534 
 C                     9.18      7.568     18.808 
 C                     8.909     6.122     19.189 
 O                     8.072     5.554     18.171 
 H                     8.468     5.73      17.269 
 C                     8.219     5.973     20.535 
 O                     7.611     4.692     20.754 
 H                     7.066     4.74      19.917 
 C                     10.392    9.556     19.575 
 O                     9.461     10.452    20.199 
 H                     9.726     11.385    19.956 
 C                     10.03     8.125     19.938 
 O                     9.563     7.845     21.266 
 C                     9.212     6.486     21.566 
 O                     8.7       6.659     22.895 
 H                     9.52538   7.14504   11.42264 
 H                     10.0006   4.81167   14.02878 
 H                     8.47497   4.73081   13.22903 
 H                     7.70015   6.64591   14.29747 
 H                     10.47454   7.0589    13.31497 
 H                     8.41594   9.18892   13.64672 
 H                     10.77905   9.00923   15.45479 
 H                     8.02628   8.38003   16.45034 
 H                     11.38184   9.77255   19.91883 
 H                     10.34794   9.67744   18.51283 
 H                     10.95433   7.59031   19.87009 
 H                     9.4313    6.73928   23.51173 
 H                     10.08754   5.8711    21.58097 
 H                     7.41203   6.67563   20.53227 
 H                     9.8368    5.58956   19.21363 
 H                     8.23555   8.06747   18.86667 
 

 GradGradGradGradGradGradGradGradGradGradGradGradGradGradGradGradGradGrad
 Berny optimization.
 Initialization pass.
 Trust Radius=3.00D-01 FncErr=1.00D-07 GrdErr=1.00D-07
 Number of steps in this run=      2 maximum allowed number of steps=      2.
 GradGradGradGradGradGradGradGradGradGradGradGradGradGradGradGradGradGrad

                          Input orientation:                          
 ---------------------------------------------------------------------
 Center     Atomic      Atomic             Coordinates (Angstroms)
 Number     Number       Type             X           Y           Z
 ---------------------------------------------------------------------
      1          8           0        8.841000    7.217000   12.092000
      2          6           0        9.449000    7.356000   13.385000
      3          6           0        9.392000    8.801000   13.851000
      4          8           0       10.353000    9.542000   13.086000
      5          1           0       10.440000    9.171000   12.161000
      6          6           0        9.719000    9.050000   15.315000
      7          8           0        9.240000   10.354000   15.674000
      8          1           0       10.008000   10.996000   15.668000
      9          6           0        8.950000    4.968000   14.158000
     10          8           0        8.498000    4.001000   15.118000
     11          1           0        8.569000    3.162000   14.577000
     12          6           0        8.749000    6.456000   14.391000
     13          8           0        9.111000    6.766000   15.745000
     14          6           0        9.044000    8.094000   16.285000
     15          8           0        9.731000    7.930000   17.534000
     16          6           0        9.180000    7.568000   18.808000
     17          6           0        8.909000    6.122000   19.189000
     18          8           0        8.072000    5.554000   18.171000
     19          1           0        8.468000    5.730000   17.269000
     20          6           0        8.219000    5.973000   20.535000
     21          8           0        7.611000    4.692000   20.754000
     22          1           0        7.066000    4.740000   19.917000
     23          6           0       10.392000    9.556000   19.575000
     24          8           0        9.461000   10.452000   20.199000
     25          1           0        9.726000   11.385000   19.956000
     26          6           0       10.030000    8.125000   19.938000
     27          8           0        9.563000    7.845000   21.266000
     28          6           0        9.212000    6.486000   21.566000
     29          8           0        8.700000    6.659000   22.895000
     30          1           0        9.525383    7.145043   11.422640
     31          1           0       10.000601    4.811667   14.028783
     32          1           0        8.474974    4.730815   13.229026
     33          1           0        7.700150    6.645911   14.297473
     34          1           0       10.474539    7.058904   13.314969
     35          1           0        8.415944    9.188924   13.646719
     36          1           0       10.779046    9.009235   15.454786
     37          1           0        8.026282    8.380025   16.450344
     38          1           0       11.381842    9.772555   19.918826
     39          1           0       10.347940    9.677443   18.512828
     40          1           0       10.954334    7.590309   19.870092
     41          1           0        9.431299    6.739282   23.511730
     42          1           0       10.087544    5.871103   21.580972
     43          1           0        7.412030    6.675632   20.532266
     44          1           0        9.836796    5.589564   19.213626
     45          1           0        8.235549    8.067470   18.866671
 ---------------------------------------------------------------------
                    Distance matrix (angstroms):
                    1          2          3          4          5
     1  O    0.000000
     2  C    1.435561   0.000000
     3  C    2.430378   1.519352   0.000000
     4  O    2.946151   2.384368   1.434513   0.000000
     5  H    2.525802   2.403015   2.022697   1.000417   0.000000
     6  C    3.810315   2.582138   1.520601   2.369063   3.237622
     7  O    4.778148   3.777725   2.399634   2.931869   3.896236
     8  H    5.332026   4.332917   2.915299   2.983264   3.976971
     9  C    3.055853   2.559116   3.870595   4.902965   4.886033
    10  O    4.429106   3.894062   5.044257   6.186496   6.264512
    11  H    4.763637   4.448022   5.744800   6.790445   6.741348
    12  C    2.423424   1.520538   2.490798   3.714732   3.899180
    13  O    3.690625   2.456002   2.794176   4.039681   4.516118
    14  C    4.288541   3.019713   2.558380   3.747504   4.485100
    15  O    5.560201   4.198000   3.799744   4.771806   5.559846
    16  C    6.733705   5.433805   5.112444   6.165540   6.952684
    17  C    7.181299   5.958252   5.992043   7.143399   7.812371
    18  O    6.349108   5.296143   5.563075   6.853053   7.403392
    19  H    5.399225   4.323389   4.686954   5.965070   6.466910
    20  C    8.556791   7.385668   7.351828   8.531080   9.234929
    21  O    9.105974   8.048435   8.228442   9.478359  10.094768
    22  H    8.397427   7.428941   7.661485   8.973635   9.548464
    23  C    7.991984   6.636667   5.859539   6.489132   7.424145
    24  O    8.750604   7.484381   6.559548   7.226239   8.198100
    25  H    8.944157   7.712821   6.637743   7.140496   8.134717
    26  C    7.987359   6.623498   6.157564   7.004436   7.857732
    27  O    9.223771   7.896979   7.478329   8.391443   9.242750
    28  C    9.509399   8.230543   8.056851   9.085781   9.857547
    29  O   10.818320   9.564879   9.319923  10.356668  11.160488
    30  H    0.960000   1.975144   2.942264   3.032675   2.342265
    31  H    3.298702   2.681856   4.039404   4.836226   4.762927
    32  H    2.758246   2.804399   4.218317   5.166715   4.971645
    33  H    2.547899   2.096499   2.775987   4.110062   4.295040
    34  H    2.046728   1.070000   2.119933   2.496591   2.407029
    35  H    2.546823   2.120214   1.070000   2.047255   2.510873
    36  H    4.275098   2.964156   2.130584   2.465056   3.315139
    37  H    4.583837   3.531160   2.966310   4.252366   4.984993
    38  H    8.616609   7.229557   6.459250   6.913695   7.837908
    39  H    7.039295   5.700158   4.838864   5.428520   6.372650
    40  H    8.068721   6.661633   6.335308   7.084815   7.886268
    41  H   11.444951  10.145508   9.878357  10.835157  11.652030
    42  H    9.664673   8.353839   8.295815   9.257997   9.987463
    43  H    8.577478   7.462946   7.285382   8.503661   9.245191
    44  H    7.372768   6.102750   6.266492   7.309994   7.932848
    45  H    6.854637   5.659273   5.199270   6.330403   7.144467
                    6          7          8          9         10
     6  C    0.000000
     7  O    1.434830   0.000000
     8  H    1.998761   1.001011   0.000000
     9  C    4.311929   5.602799   6.303669   0.000000
    10  O    5.198274   6.420304   7.177230   1.435616   0.000000
    11  H    6.044476   7.306060   8.039438   1.892712   1.000821
    12  C    2.919505   4.132986   4.881333   1.519485   2.572655
    13  O    2.402336   3.591020   4.324747   2.403600   2.900711
    14  C    1.520020   2.349327   3.119549   3.782174   4.290997
    15  O    2.485660   3.094585   3.599867   4.558594   4.774347
    16  C    3.832479   4.193728   4.721903   5.332485   5.177327
    17  C    4.923125   5.511317   6.112374   5.161817   4.608753
    18  O    4.805347   5.535272   6.295115   4.149512   3.451680
    19  H    4.050372   4.951907   5.715379   3.239026   2.759917
    20  C    6.242302   6.623060   7.219331   6.496962   5.771526
    21  O    7.281384   7.779350   8.447095   6.736194   5.747064
    22  H    6.840535   7.365210   8.114610   6.063623   5.062326
    23  C    4.342415   4.145083   4.181591   7.243825   7.369539
    24  O    5.087792   4.531453   4.596206   8.174904   8.267970
    25  H    5.195301   4.431104   4.314834   8.683137   8.912782
    26  C    4.724878   4.875883   5.145486   6.673938   6.525856
    27  O    6.073777   6.137579   6.439288   7.692630   7.328606
    28  C    6.775407   7.048253   7.467270   7.566468   6.947066
    29  O    8.013217   8.129420   8.529359   8.902648   8.221162
    30  H    4.337835   5.334127   5.752032   3.542989   4.959456
    31  H    4.438144   5.831184   6.397895   1.070000   2.025187
    32  H    4.955225   6.179270   6.895746   1.070000   2.025187
    33  H    3.300115   4.244513   5.111535   2.096894   2.881906
    34  H    2.921545   4.236363   4.610329   2.721543   4.063053
    35  H    2.121418   2.479181   3.144160   4.285186   5.393139
    36  H    1.070000   2.055508   2.141777   4.621541   5.513530
    37  H    2.145500   2.443849   3.373810   4.213077   4.601469
    38  H    4.947964   4.790002   4.631823   7.885729   8.042097
    39  H    3.318938   3.121570   3.153918   6.564877   6.867979
    40  H    4.940204   5.308872   5.491071   6.597110   6.441979
    41  H    8.521067   8.633238   8.942949   9.532123   8.878285
    42  H    7.035881   7.463713   7.825224   7.563737   6.913317
    43  H    6.178964   6.361966   7.004693   6.775886   6.135737
    44  H    5.214190   5.965314   6.467637   5.170309   4.592391
    45  H    3.972450   4.053430   4.685015   5.682318   5.536930
                   11         12         13         14         15
    11  H    0.000000
    12  C    3.304154   0.000000
    13  O    3.827114   1.435430   0.000000
    14  C    5.240946   2.521370   1.435156   0.000000
    15  O    5.729565   3.607693   2.222570   1.434875   0.000000
    16  C    6.139016   4.575171   3.167007   2.580833   1.434476
    17  C    5.490696   4.812272   3.509512   3.512866   2.585261
    18  O    4.345746   3.944659   2.904125   3.309589   2.967057
    19  H    3.721786   2.981429   1.951748   2.624601   2.550567
    20  C    6.597119   6.185703   4.936458   4.820971   3.888701
    21  O    6.435370   6.700336   5.625083   5.796469   5.034625
    22  H    5.767555   6.026095   5.068756   5.324775   4.791348
    23  C    8.317846   6.259657   4.908560   3.844301   2.691928
    24  O    9.249143   7.085748   5.791996   4.588404   3.679077
    25  H    9.893938   7.497919   6.280598   4.977152   4.219376
    26  C    7.450249   5.932599   4.502521   3.783856   2.430358
    27  O    8.225646   7.060987   5.643579   5.014152   3.736746
    28  C    7.765858   7.189986   5.828605   5.522938   4.314107
    29  O    9.024151   8.506564   7.162602   6.772714   5.605241
    30  H    5.170037   3.144632   4.358690   4.977428   6.164994
    31  H    2.251982   2.097985   2.748856   4.096256   4.699280
    32  H    2.070520   2.097985   3.297974   4.579715   5.508647
    33  H    3.601482   1.070000   2.024908   2.802349   4.030924
    34  H    4.517705   2.121042   2.801799   3.455278   4.371713
    35  H    6.100218   2.851973   3.279702   2.924695   4.292460
    36  H    6.312287   3.430996   2.810463   2.130093   2.566374
    37  H    5.570615   2.909483   2.068623   1.070000   2.069516
    38  H    8.952464   6.963351   5.622892   4.635487   3.436231
    39  H    7.817056   5.470262   4.203259   3.028327   2.095775
    40  H    7.301819   6.014200   4.592793   4.093405   2.658809
    41  H    9.662811   9.150601   7.773378   7.362805   6.102532
    42  H    7.661648   7.336859   5.984401   5.837600   4.554576
    43  H    7.010662   6.288949   5.080609   4.765959   3.992576
    44  H    5.385041   5.019136   3.733918   3.934155   2.882703
    45  H    6.525037   4.784569   3.493576   2.705425   2.007806
                   16         17         18         19         20
    16  C    0.000000
    17  C    1.519710   0.000000
    18  O    2.385294   1.435102   0.000000
    19  H    2.500742   2.008618   1.000698   0.000000
    20  C    2.539700   1.519874   2.405341   3.284480   0.000000
    21  O    3.810519   2.485745   2.761785   3.735923   1.434777
    22  H    3.700873   2.415897   2.173280   3.155568   1.797671
    23  C    2.451403   3.760404   4.834213   4.863917   4.299002
    24  O    3.214234   4.480369   5.480192   5.645196   4.660140
    25  H    4.023122   5.380980   6.318426   6.386044   5.647657
    26  C    1.519753   2.414467   3.683218   3.911449   2.875280
    27  O    2.503035   2.776756   4.129260   4.652769   2.417660
    28  C    2.962822   2.423723   3.700574   4.425978   1.520585
    29  O    4.214291   3.750531   4.891992   5.706903   2.504308
    30  H    7.405520   7.857664   7.084073   6.107399   9.279839
    31  H    5.577784   5.434740   4.629095   3.700163   6.844973
    32  H    6.298542   6.135558   5.026244   4.161708   7.415242
    33  H    4.835810   5.065850   4.041628   3.202883   6.295138
    34  H    5.666427   6.150849   5.622985   4.628881   7.641694
    35  H    5.463515   6.353425   5.813784   5.008771   7.604562
    36  H    3.984739   5.077159   5.161837   4.402918   6.448343
    37  H    2.747543   3.657609   3.308952   2.808549   4.745031
    38  H    3.307885   4.469244   5.639695   5.643962   4.981953
    39  H    2.429189   3.894731   4.722238   4.545722   4.726993
    40  H    2.068042   2.608296   3.916799   4.050714   3.246513
    41  H    4.782782   4.397708   5.637019   6.396740   3.304207
    42  H    3.375273   2.678329   3.973774   4.608247   2.143805
    43  H    2.625859   2.086095   2.696145   3.557836   1.070000
    44  H    2.123705   1.070000   2.050082   2.382204   2.123751
    45  H    1.070000   2.083815   2.613090   2.840837   2.677760
                   21         22         23         24         25
    21  O    0.000000
    22  H    0.999949   0.000000
    23  C    5.725600   5.862857   0.000000
    24  O    6.075206   6.200201   1.434905   0.000000
    25  H    7.064438   7.157733   1.983421   0.999881   0.000000
    26  C    4.278190   4.499329   1.520057   2.409733   3.274193
    27  O    3.743509   4.206642   2.544453   2.818748   3.778130
    28  C    2.537909   3.220719   3.844656   4.202362   5.182325
    29  O    3.104656   3.901410   4.719944   4.715335   5.659105
    30  H    9.836491   9.164439   8.545450   9.378945   9.530777
    31  H    7.138141   6.579370   7.309064   8.377118   8.855282
    32  H    7.574510   6.834785   8.199317   9.071094   9.544393
    33  H    6.746292   5.967724   6.600528   7.239816   7.653885
    34  H    8.315123   7.783461   6.740199   7.741462   7.961074
    35  H    8.448888   7.805876   6.259717   6.754250   6.807792
    36  H    7.533704   7.205861   4.174316   5.130924   5.197508
    37  H    5.682908   5.117580   4.091823   4.517069   4.920217
    38  H    6.381912   6.629714   1.070000   2.056643   2.311531
    39  H    6.112964   6.092715   1.070000   2.056643   2.320626
    40  H    4.512136   4.821369   2.065730   3.244612   3.989469
    41  H    3.887149   4.744877   4.935048   4.975876   5.857710
    42  H    2.864863   3.630141   4.206553   4.825663   5.759714
    43  H    2.005879   2.060330   4.253599   4.309327   5.278701
    44  H    2.851761   2.982248   4.021375   4.975487   5.843841
    45  H    3.917380   3.680094   2.714356   2.993796   3.796589
                   26         27         28         29         30
    26  C    0.000000
    27  O    1.435295   0.000000
    28  C    2.450679   1.435299   0.000000
    29  O    3.558357   2.192032   1.434683   0.000000
    30  H    8.586402   9.868287  10.169577  11.512277   0.000000
    31  H    6.774798   7.859384   7.761116   9.149536   3.530221
    32  H    7.677821   8.687630   8.551551   9.858985   3.192943
    33  H    6.279447   7.312209   7.425816   8.655481   3.441696
    34  H    6.722999   8.041625   8.366704   9.751200   2.118779
    35  H    6.581590   7.821465   8.405624   9.592284   3.217892
    36  H    4.630566   6.050158   6.794798   8.074826   4.615743
    37  H    4.030343   5.083138   5.582400   6.704432   5.389832
    38  H    2.131263   2.972967   4.268822   5.073866   9.084901
    39  H    2.131263   3.399108   4.560431   5.570470   7.573665
    40  H    1.070000   1.987269   2.670455   3.885798   8.579021
    41  H    3.879460   2.506644   1.974363   0.960000  12.096264
    42  H    2.789753   2.066549   1.070000   2.067058  10.253324
    43  H    3.050834   2.555868   2.084337   2.691032   9.363327
    44  H    2.643952   3.061731   2.593768   3.998564   7.950846
    45  H    2.090720   2.751072   3.277328   4.292660   7.611054
                   31         32         33         34         35
    31  H    0.000000
    32  H    1.724439   0.000000
    33  H    2.954441   2.325839   0.000000
    34  H    2.405041   3.070121   2.972055   0.000000
    35  H    4.670920   4.478023   2.720800   2.980747   0.000000
    36  H    4.501004   5.344870   4.050219   2.911242   2.980880
    37  H    4.742898   4.888247   2.783589   4.191647   2.943887
    38  H    7.823736   8.866930   7.411503   7.197085   6.962507
    39  H    6.625940   7.476342   5.828395   5.821555   5.258353
    40  H    6.538451   7.643801   6.521939   6.594106   6.908644
    41  H    9.693611  10.520576   9.375934  10.254972  10.215192
    42  H    7.626632   8.582287   7.703853   8.359871   8.760968
    43  H    7.243643   7.632135   6.241518   7.849537   7.398327
    44  H    5.245431   6.197374   5.463487   6.112268   6.779724
    45  H    6.092686   6.555429   4.815087   6.070558   5.342107
                   36         37         38         39         40
    36  H    0.000000
    37  H    2.994120   0.000000
    38  H    4.568771   5.022877   0.000000
    39  H    3.159742   3.365595   1.747808   0.000000
    40  H    4.641013   4.570757   2.224261   2.562423   0.000000
    41  H    8.478411   7.384395   5.090611   5.870439   4.037996
    42  H    6.917817   6.071807   4.433877   4.895870   2.575676
    43  H    6.524056   4.465909   5.072144   4.659246   3.717933
    44  H    5.168255   4.324391   4.514630   4.178892   2.383867
    45  H    4.358584   2.445429   3.730081   2.679443   2.937061
                   41         42         43         44         45
    41  H    0.000000
    42  H    2.216353   0.000000
    43  H    3.599820   2.984196   0.000000
    44  H    4.467660   2.397179   2.966117   0.000000
    45  H    4.976995   3.952384   2.321552   2.970587   0.000000
 Stoichiometry    C12H22O11
 Framework group  C1[X(C12H22O11)]
 Deg. of freedom   129
 Full point group                 C1      NOp   1
 Largest Abelian subgroup         C1      NOp   1
 Largest concise Abelian subgroup C1      NOp   1
                         Standard orientation:                         
 ---------------------------------------------------------------------
 Center     Atomic      Atomic             Coordinates (Angstroms)
 Number     Number       Type             X           Y           Z
 ---------------------------------------------------------------------
      1          8           0       -5.206120    0.642067   -0.367149
      2          6           0       -3.952692    0.233059    0.200712
      3          6           0       -3.582948   -1.164094   -0.267990
      4          8           0       -4.436609   -2.091683    0.416603
      5          1           0       -5.337433   -1.692109    0.588915
      6          6           0       -2.154405   -1.609325    0.002676
      7          8           0       -1.863720   -2.740922   -0.830228
      8          1           0       -1.945857   -3.576276   -0.284828
      9          6           0       -3.000081    2.596050    0.441293
     10          8           0       -1.958684    3.575946    0.313656
     11          1           0       -2.444561    4.396924    0.616250
     12          6           0       -2.859305    1.217739   -0.182626
     13          8           0       -1.546018    0.712608    0.101236
     14          6           0       -1.094209   -0.575756   -0.341099
     15          8           0        0.132354   -0.715450    0.390268
     16          6           0        1.450295   -0.307787   -0.002877
     17          6           0        1.938995    1.120693    0.170722
     18          8           0        0.998381    1.984316   -0.484197
     19          1           0        0.070420    1.770544   -0.176649
     20          6           0        3.320343    1.360181   -0.416255
     21          8           0        3.650924    2.741903   -0.616621
     22          1           0        2.836756    2.919183   -1.169434
     23          6           0        2.029080   -2.615375    0.588243
     24          8           0        2.630769   -3.246681   -0.551220
     25          1           0        2.314400   -4.194841   -0.577019
     26          6           0        2.502734   -1.173318    0.670085
     27          8           0        3.865381   -0.872459    0.334302
     28          6           0        4.270920    0.502582    0.404177
     29          8           0        5.606018    0.384497   -0.107568
     30          1           0       -5.897879    0.562882    0.293759
     31          1           0       -3.163462    2.449157    1.488493
     32          1           0       -3.889746    3.031974    0.037106
     33          1           0       -2.920292    1.349232   -1.242763
     34          1           0       -4.046530    0.223140    1.266543
     35          1           0       -3.770782   -1.234100   -1.319046
     36          1           0       -2.057821   -1.889857    1.030719
     37          1           0       -0.904952   -0.564886   -1.394172
     38          1           0        2.314754   -3.136529    1.478012
     39          1           0        0.964016   -2.636672    0.487819
     40          1           0        2.431341   -0.927368    1.708984
     41          1           0        6.183991    0.047584    0.580935
     42          1           0        4.289633    0.832847    1.421759
     43          1           0        3.304983    0.925346   -1.393794
     44          1           0        1.959540    1.356369    1.214242
     45          1           0        1.515714   -0.513583   -1.050860
 ---------------------------------------------------------------------
 Rotational constants (GHZ):      0.3995104      0.1454772      0.1104341
 Standard basis: 6-31+G(d,p) (6D, 7F)
 There are   547 symmetry adapted basis functions of A   symmetry.
 Integral buffers will be    131072 words long.
 Raffenetti 2 integral format.
 Two-electron integral symmetry is turned on.
   547 basis functions,   890 primitive gaussians,   547 cartesian basis functions
    91 alpha electrons       91 beta electrons
       nuclear repulsion energy      2269.9247809787 Hartrees.
 NAtoms=   45 NActive=   45 NUniq=   45 SFac= 1.00D+00 NAtFMM=   50 NAOKFM=F Big=F
 One-electron integrals computed using PRISM.
 NBasis=   547 RedAO= T  NBF=   547
 NBsUse=   547 1.00D-06 NBFU=   547
 Harris functional with IExCor=  402 diagonalized for initial guess.
 ExpMin= 4.38D-02 ExpMax= 5.48D+03 ExpMxC= 8.25D+02 IAcc=2 IRadAn=         0 AccDes= 0.00D+00
 HarFok:  IExCor=  402 AccDes= 0.00D+00 IRadAn=         0 IDoV= 1
 ScaDFX=  1.000000  1.000000  1.000000  1.000000
 FoFCou: FMM=F IPFlag=           0 FMFlag=      100000 FMFlg1=           0
         NFxFlg=           0 DoJE=T BraDBF=F KetDBF=T FulRan=T
         Omega=  0.000000  0.000000  1.000000  0.000000  0.000000 ICntrl=     500 IOpCl=  0
         NMat0=    1 NMatS0=    1 NMatT0=    0 NMatD0=    1 NMtDS0=    0 NMtDT0=    0
         I1Cent=           4 NGrid=           0.
 Petite list used in FoFCou.
 Initial guess orbital symmetries:
       Occupied  (A) (A) (A) (A) (A) (A) (A) (A) (A) (A) (A) (A)
                 (A) (A) (A) (A) (A) (A) (A) (A) (A) (A) (A) (A)
                 (A) (A) (A) (A) (A) (A) (A) (A) (A) (A) (A) (A)
                 (A) (A) (A) (A) (A) (A) (A) (A) (A) (A) (A) (A)
                 (A) (A) (A) (A) (A) (A) (A) (A) (A) (A) (A) (A)
                 (A) (A) (A) (A) (A) (A) (A) (A) (A) (A) (A) (A)
                 (A) (A) (A) (A) (A) (A) (A) (A) (A) (A) (A) (A)
                 (A) (A) (A) (A) (A) (A) (A)
       Virtual   (A) (A) (A) (A) (A) (A) (A) (A) (A) (A) (A) (A)
                 (A) (A) (A) (A) (A) (A) (A) (A) (A) (A) (A) (A)
                 (A) (A) (A) (A) (A) (A) (A) (A) (A) (A) (A) (A)
                 (A) (A) (A) (A) (A) (A) (A) (A) (A) (A) (A) (A)
                 (A) (A) (A) (A) (A) (A) (A) (A) (A) (A) (A) (A)
                 (A) (A) (A) (A) (A) (A) (A) (A) (A) (A) (A) (A)
                 (A) (A) (A) (A) (A) (A) (A) (A) (A) (A) (A) (A)
                 (A) (A) (A) (A) (A) (A) (A) (A) (A) (A) (A) (A)
                 (A) (A) (A) (A) (A) (A) (A) (A) (A) (A) (A) (A)
                 (A) (A) (A) (A) (A) (A) (A) (A) (A) (A) (A) (A)
                 (A) (A) (A) (A) (A) (A) (A) (A) (A) (A) (A) (A)
                 (A) (A) (A) (A) (A) (A) (A) (A) (A) (A) (A) (A)
                 (A) (A) (A) (A) (A) (A) (A) (A) (A) (A) (A) (A)
                 (A) (A) (A) (A) (A) (A) (A) (A) (A) (A) (A) (A)
                 (A) (A) (A) (A) (A) (A) (A) (A) (A) (A) (A) (A)
                 (A) (A) (A) (A) (A) (A) (A) (A) (A) (A) (A) (A)
                 (A) (A) (A) (A) (A) (A) (A) (A) (A) (A) (A) (A)
                 (A) (A) (A) (A) (A) (A) (A) (A) (A) (A) (A) (A)
                 (A) (A) (A) (A) (A) (A) (A) (A) (A) (A) (A) (A)
                 (A) (A) (A) (A) (A) (A) (A) (A) (A) (A) (A) (A)
                 (A) (A) (A) (A) (A) (A) (A) (A) (A) (A) (A) (A)
                 (A) (A) (A) (A) (A) (A) (A) (A) (A) (A) (A) (A)
                 (A) (A) (A) (A) (A) (A) (A) (A) (A) (A) (A) (A)
                 (A) (A) (A) (A) (A) (A) (A) (A) (A) (A) (A) (A)
                 (A) (A) (A) (A) (A) (A) (A) (A) (A) (A) (A) (A)
                 (A) (A) (A) (A) (A) (A) (A) (A) (A) (A) (A) (A)
                 (A) (A) (A) (A) (A) (A) (A) (A) (A) (A) (A) (A)
                 (A) (A) (A) (A) (A) (A) (A) (A) (A) (A) (A) (A)
                 (A) (A) (A) (A) (A) (A) (A) (A) (A) (A) (A) (A)
                 (A) (A) (A) (A) (A) (A) (A) (A) (A) (A) (A) (A)
                 (A) (A) (A) (A) (A) (A) (A) (A) (A) (A) (A) (A)
                 (A) (A) (A) (A) (A) (A) (A) (A) (A) (A) (A) (A)
                 (A) (A) (A) (A) (A) (A) (A) (A) (A) (A) (A) (A)
                 (A) (A) (A) (A) (A) (A) (A) (A) (A) (A) (A) (A)
                 (A) (A) (A) (A) (A) (A) (A) (A) (A) (A) (A) (A)
                 (A) (A) (A) (A) (A) (A) (A) (A) (A) (A) (A) (A)
                 (A) (A) (A) (A) (A) (A) (A) (A) (A) (A) (A) (A)
                 (A) (A) (A) (A) (A) (A) (A) (A) (A) (A) (A) (A)
 The electronic state of the initial guess is 1-A.
 Requested convergence on RMS density matrix=1.00D-08 within 128 cycles.
 Requested convergence on MAX density matrix=1.00D-06.
 Requested convergence on             energy=1.00D-06.
 No special actions if energy rises.
 SCF Done:  E(RB3LYP) =  -1297.91154167     A.U. after   14 cycles
             Convg  =    0.2681D-08             -V/T =  2.0087
 Range of M.O.s used for correlation:     1   547
 NBasis=   547 NAE=    91 NBE=    91 NFC=     0 NFV=     0
 NROrb=    547 NOA=    91 NOB=    91 NVA=   456 NVB=   456

 **** Warning!!: The largest alpha MO coefficient is  0.86631069D+02

          Differentiating once with respect to electric field.
                with respect to dipole field.
          Electric field/nuclear overlap derivatives assumed to be zero.
          There are     3 degrees of freedom in the 1st order CPHF.  IDoFFX=0.
      3 vectors produced by pass  0 Test12= 1.38D-12 3.33D-08 XBig12= 1.21D+02 1.41D+00.
 AX will form     3 AO Fock derivatives at one time.
      3 vectors produced by pass  1 Test12= 1.38D-12 3.33D-08 XBig12= 1.93D+01 3.69D-01.
      3 vectors produced by pass  2 Test12= 1.38D-12 3.33D-08 XBig12= 8.05D+00 1.86D-01.
      3 vectors produced by pass  3 Test12= 1.38D-12 3.33D-08 XBig12= 8.09D-01 8.70D-02.
      3 vectors produced by pass  4 Test12= 1.38D-12 3.33D-08 XBig12= 2.20D-01 3.06D-02.
      3 vectors produced by pass  5 Test12= 1.38D-12 3.33D-08 XBig12= 6.44D-02 1.72D-02.
      3 vectors produced by pass  6 Test12= 1.38D-12 3.33D-08 XBig12= 1.51D-02 1.14D-02.
      3 vectors produced by pass  7 Test12= 1.38D-12 3.33D-08 XBig12= 2.18D-03 4.42D-03.
      3 vectors produced by pass  8 Test12= 1.38D-12 3.33D-08 XBig12= 6.87D-04 1.58D-03.
      3 vectors produced by pass  9 Test12= 1.38D-12 3.33D-08 XBig12= 1.43D-04 9.03D-04.
      3 vectors produced by pass 10 Test12= 1.38D-12 3.33D-08 XBig12= 3.72D-05 3.81D-04.
      3 vectors produced by pass 11 Test12= 1.38D-12 3.33D-08 XBig12= 4.75D-06 2.62D-04.
      3 vectors produced by pass 12 Test12= 1.38D-12 3.33D-08 XBig12= 8.30D-07 8.19D-05.
      3 vectors produced by pass 13 Test12= 1.38D-12 3.33D-08 XBig12= 1.22D-07 2.83D-05.
      3 vectors produced by pass 14 Test12= 1.38D-12 3.33D-08 XBig12= 2.69D-08 1.48D-05.
      3 vectors produced by pass 15 Test12= 1.38D-12 3.33D-08 XBig12= 6.36D-09 9.54D-06.
      3 vectors produced by pass 16 Test12= 1.38D-12 3.33D-08 XBig12= 9.64D-10 2.96D-06.
      3 vectors produced by pass 17 Test12= 1.38D-12 3.33D-08 XBig12= 8.99D-11 6.88D-07.
      3 vectors produced by pass 18 Test12= 1.38D-12 3.33D-08 XBig12= 3.97D-11 4.25D-07.
      3 vectors produced by pass 19 Test12= 1.38D-12 3.33D-08 XBig12= 1.68D-11 5.14D-07.
      3 vectors produced by pass 20 Test12= 1.38D-12 3.33D-08 XBig12= 1.23D-11 3.76D-07.
      2 vectors produced by pass 21 Test12= 1.38D-12 3.33D-08 XBig12= 3.45D-12 1.70D-07.
 Inverted reduced A of dimension    65 with in-core refinement.
 End of Minotr Frequency-dependent properties file   721 does not exist.
 End of Minotr Frequency-dependent properties file   722 does not exist.
 Symmetrizing basis deriv contribution to polar:
 IMax=3 JMax=2 DiffMx= 0.00D+00
 G2DrvN: will do    23 centers at a time, making    2 passes doing MaxLOS=2.
 Calling FoFCou, ICntrl=  3107 FMM=F I1Cent=   0 AccDes= 0.00D+00.
 Calling FoFCou, ICntrl=  3107 FMM=F I1Cent=   0 AccDes= 0.00D+00.
 FoFDir/FoFCou used for L=0 through L=2.
 End of G2Drv Frequency-dependent properties file   721 does not exist.
 End of G2Drv Frequency-dependent properties file   722 does not exist.
          IDoAtm=111111111111111111111111111111111111111111111
          Differentiating once with respect to electric field.
                with respect to dipole field.
          Differentiating once with respect to nuclear coordinates.
          There are   138 degrees of freedom in the 1st order CPHF.  IDoFFX=5.
 Will reuse    3 saved solutions.
    135 vectors produced by pass  0 Test12= 4.15D-14 1.00D-09 XBig12= 2.83D-01 1.28D-01.
 AX will form    68 AO Fock derivatives at one time.
    135 vectors produced by pass  1 Test12= 4.15D-14 1.00D-09 XBig12= 2.72D-02 2.06D-02.
    132 vectors produced by pass  2 Test12= 4.15D-14 1.00D-09 XBig12= 1.81D-04 1.31D-03.
    132 vectors produced by pass  3 Test12= 4.15D-14 1.00D-09 XBig12= 6.27D-07 7.41D-05.
    132 vectors produced by pass  4 Test12= 4.15D-14 1.00D-09 XBig12= 9.88D-10 2.40D-06.
    131 vectors produced by pass  5 Test12= 4.15D-14 1.00D-09 XBig12= 3.85D-12 1.50D-07.
     80 vectors produced by pass  6 Test12= 4.15D-14 1.00D-09 XBig12= 9.31D-14 2.01D-08.
      1 vectors produced by pass  7 Test12= 4.15D-14 1.00D-09 XBig12= 2.75D-16 1.22D-09.
 Inverted reduced A of dimension   878 with in-core refinement.
 Isotropic polarizability for W=    0.000000      188.28 Bohr**3.
 End of Minotr Frequency-dependent properties file   721 does not exist.
 End of Minotr Frequency-dependent properties file   722 does not exist.

 **********************************************************************

            Population analysis using the SCF density.

 **********************************************************************

 Orbital symmetries:
       Occupied  (A) (A) (A) (A) (A) (A) (A) (A) (A) (A) (A) (A)
                 (A) (A) (A) (A) (A) (A) (A) (A) (A) (A) (A) (A)
                 (A) (A) (A) (A) (A) (A) (A) (A) (A) (A) (A) (A)
                 (A) (A) (A) (A) (A) (A) (A) (A) (A) (A) (A) (A)
                 (A) (A) (A) (A) (A) (A) (A) (A) (A) (A) (A) (A)
                 (A) (A) (A) (A) (A) (A) (A) (A) (A) (A) (A) (A)
                 (A) (A) (A) (A) (A) (A) (A) (A) (A) (A) (A) (A)
                 (A) (A) (A) (A) (A) (A) (A)
       Virtual   (A) (A) (A) (A) (A) (A) (A) (A) (A) (A) (A) (A)
                 (A) (A) (A) (A) (A) (A) (A) (A) (A) (A) (A) (A)
                 (A) (A) (A) (A) (A) (A) (A) (A) (A) (A) (A) (A)
                 (A) (A) (A) (A) (A) (A) (A) (A) (A) (A) (A) (A)
                 (A) (A) (A) (A) (A) (A) (A) (A) (A) (A) (A) (A)
                 (A) (A) (A) (A) (A) (A) (A) (A) (A) (A) (A) (A)
                 (A) (A) (A) (A) (A) (A) (A) (A) (A) (A) (A) (A)
                 (A) (A) (A) (A) (A) (A) (A) (A) (A) (A) (A) (A)
                 (A) (A) (A) (A) (A) (A) (A) (A) (A) (A) (A) (A)
                 (A) (A) (A) (A) (A) (A) (A) (A) (A) (A) (A) (A)
                 (A) (A) (A) (A) (A) (A) (A) (A) (A) (A) (A) (A)
                 (A) (A) (A) (A) (A) (A) (A) (A) (A) (A) (A) (A)
                 (A) (A) (A) (A) (A) (A) (A) (A) (A) (A) (A) (A)
                 (A) (A) (A) (A) (A) (A) (A) (A) (A) (A) (A) (A)
                 (A) (A) (A) (A) (A) (A) (A) (A) (A) (A) (A) (A)
                 (A) (A) (A) (A) (A) (A) (A) (A) (A) (A) (A) (A)
                 (A) (A) (A) (A) (A) (A) (A) (A) (A) (A) (A) (A)
                 (A) (A) (A) (A) (A) (A) (A) (A) (A) (A) (A) (A)
                 (A) (A) (A) (A) (A) (A) (A) (A) (A) (A) (A) (A)
                 (A) (A) (A) (A) (A) (A) (A) (A) (A) (A) (A) (A)
                 (A) (A) (A) (A) (A) (A) (A) (A) (A) (A) (A) (A)
                 (A) (A) (A) (A) (A) (A) (A) (A) (A) (A) (A) (A)
                 (A) (A) (A) (A) (A) (A) (A) (A) (A) (A) (A) (A)
                 (A) (A) (A) (A) (A) (A) (A) (A) (A) (A) (A) (A)
                 (A) (A) (A) (A) (A) (A) (A) (A) (A) (A) (A) (A)
                 (A) (A) (A) (A) (A) (A) (A) (A) (A) (A) (A) (A)
                 (A) (A) (A) (A) (A) (A) (A) (A) (A) (A) (A) (A)
                 (A) (A) (A) (A) (A) (A) (A) (A) (A) (A) (A) (A)
                 (A) (A) (A) (A) (A) (A) (A) (A) (A) (A) (A) (A)
                 (A) (A) (A) (A) (A) (A) (A) (A) (A) (A) (A) (A)
                 (A) (A) (A) (A) (A) (A) (A) (A) (A) (A) (A) (A)
                 (A) (A) (A) (A) (A) (A) (A) (A) (A) (A) (A) (A)
                 (A) (A) (A) (A) (A) (A) (A) (A) (A) (A) (A) (A)
                 (A) (A) (A) (A) (A) (A) (A) (A) (A) (A) (A) (A)
                 (A) (A) (A) (A) (A) (A) (A) (A) (A) (A) (A) (A)
                 (A) (A) (A) (A) (A) (A) (A) (A) (A) (A) (A) (A)
                 (A) (A) (A) (A) (A) (A) (A) (A) (A) (A) (A) (A)
                 (A) (A) (A) (A) (A) (A) (A) (A) (A) (A) (A) (A)
 The electronic state is 1-A.
 Alpha  occ. eigenvalues --  -19.20548 -19.19086 -19.18900 -19.18707 -19.18584
 Alpha  occ. eigenvalues --  -19.18011 -19.16631 -19.15848 -19.15663 -19.15370
 Alpha  occ. eigenvalues --  -19.14742 -10.32384 -10.29584 -10.27973 -10.27271
 Alpha  occ. eigenvalues --  -10.27174 -10.26842 -10.25508 -10.24983 -10.24365
 Alpha  occ. eigenvalues --  -10.24131 -10.24023 -10.22798  -1.09857  -1.07871
 Alpha  occ. eigenvalues --   -1.07085  -1.05479  -1.04288  -1.03673  -1.03286
 Alpha  occ. eigenvalues --   -1.02747  -1.01309  -1.00230  -0.99654  -0.82990
 Alpha  occ. eigenvalues --   -0.81722  -0.79158  -0.77918  -0.72517  -0.69970
 Alpha  occ. eigenvalues --   -0.68573  -0.64712  -0.63810  -0.61721  -0.61003
 Alpha  occ. eigenvalues --   -0.59739  -0.57534  -0.56600  -0.55116  -0.54688
 Alpha  occ. eigenvalues --   -0.53398  -0.53134  -0.52821  -0.52566  -0.50952
 Alpha  occ. eigenvalues --   -0.50454  -0.50261  -0.48746  -0.47532  -0.47276
 Alpha  occ. eigenvalues --   -0.46333  -0.45394  -0.44629  -0.44225  -0.44088
 Alpha  occ. eigenvalues --   -0.43319  -0.42268  -0.40365  -0.40267  -0.38745
 Alpha  occ. eigenvalues --   -0.38580  -0.37690  -0.37336  -0.36652  -0.36547
 Alpha  occ. eigenvalues --   -0.35499  -0.35164  -0.34431  -0.33372  -0.33270
 Alpha  occ. eigenvalues --   -0.31756  -0.31271  -0.30875  -0.30659  -0.29688
 Alpha  occ. eigenvalues --   -0.29525  -0.28754  -0.27914  -0.27165  -0.26856
 Alpha  occ. eigenvalues --   -0.25782
 Alpha virt. eigenvalues --   -0.04385  -0.02239  -0.01874   0.00184   0.00450
 Alpha virt. eigenvalues --    0.00933   0.01419   0.01704   0.02123   0.02839
 Alpha virt. eigenvalues --    0.03582   0.04085   0.04755   0.05121   0.05424
 Alpha virt. eigenvalues --    0.06139   0.06326   0.06969   0.07627   0.08033
 Alpha virt. eigenvalues --    0.08496   0.08708   0.09376   0.09503   0.09986
 Alpha virt. eigenvalues --    0.10562   0.11106   0.11305   0.11612   0.11860
 Alpha virt. eigenvalues --    0.12244   0.12435   0.12686   0.13127   0.13569
 Alpha virt. eigenvalues --    0.13985   0.14199   0.14740   0.14920   0.15034
 Alpha virt. eigenvalues --    0.15682   0.15843   0.16075   0.16256   0.16767
 Alpha virt. eigenvalues --    0.16913   0.17580   0.17743   0.18199   0.18555
 Alpha virt. eigenvalues --    0.19040   0.19232   0.19450   0.19647   0.19882
 Alpha virt. eigenvalues --    0.20255   0.20385   0.20993   0.21465   0.21892
 Alpha virt. eigenvalues --    0.22071   0.22093   0.22603   0.22900   0.23141
 Alpha virt. eigenvalues --    0.23361   0.23572   0.23904   0.24012   0.24262
 Alpha virt. eigenvalues --    0.24683   0.24864   0.25462   0.25597   0.25854
 Alpha virt. eigenvalues --    0.26231   0.26319   0.26937   0.27268   0.27333
 Alpha virt. eigenvalues --    0.27589   0.27690   0.28248   0.28839   0.29040
 Alpha virt. eigenvalues --    0.29248   0.29808   0.30231   0.30501   0.31061
 Alpha virt. eigenvalues --    0.31400   0.31582   0.31692   0.32129   0.32463
 Alpha virt. eigenvalues --    0.32810   0.33015   0.33318   0.33650   0.33968
 Alpha virt. eigenvalues --    0.34215   0.34514   0.34779   0.35390   0.35999
 Alpha virt. eigenvalues --    0.36352   0.36542   0.36670   0.37102   0.37570
 Alpha virt. eigenvalues --    0.38112   0.38424   0.38803   0.39352   0.39495
 Alpha virt. eigenvalues --    0.39901   0.40148   0.40614   0.40966   0.41396
 Alpha virt. eigenvalues --    0.41699   0.42280   0.43065   0.44202   0.44386
 Alpha virt. eigenvalues --    0.45064   0.45504   0.46079   0.46307   0.46734
 Alpha virt. eigenvalues --    0.46870   0.48199   0.48836   0.49039   0.50537
 Alpha virt. eigenvalues --    0.51382   0.53091   0.56226   0.62016   0.62126
 Alpha virt. eigenvalues --    0.64309   0.65631   0.66590   0.68563   0.68858
 Alpha virt. eigenvalues --    0.71186   0.71791   0.72621   0.73166   0.74466
 Alpha virt. eigenvalues --    0.75239   0.75996   0.76380   0.76590   0.78379
 Alpha virt. eigenvalues --    0.78583   0.80283   0.80873   0.82334   0.83663
 Alpha virt. eigenvalues --    0.85631   0.87287   0.88019   0.88376   0.89451
 Alpha virt. eigenvalues --    0.89968   0.92153   0.92751   0.93567   0.95021
 Alpha virt. eigenvalues --    0.95534   0.96154   0.98903   0.99129   0.99920
 Alpha virt. eigenvalues --    1.00545   1.01484   1.02034   1.02420   1.03402
 Alpha virt. eigenvalues --    1.04318   1.04788   1.05353   1.05951   1.06415
 Alpha virt. eigenvalues --    1.06897   1.08250   1.09082   1.09442   1.09788
 Alpha virt. eigenvalues --    1.10577   1.10908   1.11619   1.13129   1.14465
 Alpha virt. eigenvalues --    1.15014   1.16658   1.18225   1.18746   1.19750
 Alpha virt. eigenvalues --    1.20948   1.22549   1.23151   1.24464   1.25199
 Alpha virt. eigenvalues --    1.25463   1.25949   1.26801   1.27122   1.27887
 Alpha virt. eigenvalues --    1.28070   1.28758   1.29535   1.30461   1.31062
 Alpha virt. eigenvalues --    1.31219   1.32587   1.33329   1.33737   1.34110
 Alpha virt. eigenvalues --    1.35172   1.35972   1.36825   1.37869   1.39014
 Alpha virt. eigenvalues --    1.40107   1.40933   1.41417   1.42211   1.42479
 Alpha virt. eigenvalues --    1.44081   1.44870   1.45424   1.47100   1.47434
 Alpha virt. eigenvalues --    1.48133   1.49284   1.50409   1.52064   1.53251
 Alpha virt. eigenvalues --    1.54313   1.55389   1.56233   1.56801   1.57262
 Alpha virt. eigenvalues --    1.58411   1.59229   1.59663   1.60615   1.61038
 Alpha virt. eigenvalues --    1.61846   1.62382   1.62849   1.63302   1.64374
 Alpha virt. eigenvalues --    1.65377   1.66719   1.67619   1.67918   1.68286
 Alpha virt. eigenvalues --    1.69102   1.70007   1.70748   1.71563   1.71876
 Alpha virt. eigenvalues --    1.73930   1.74610   1.75960   1.76983   1.77662
 Alpha virt. eigenvalues --    1.78356   1.80055   1.81030   1.81680   1.82947
 Alpha virt. eigenvalues --    1.83578   1.84442   1.84965   1.86431   1.87168
 Alpha virt. eigenvalues --    1.87446   1.89171   1.89286   1.89879   1.90653
 Alpha virt. eigenvalues --    1.91653   1.91782   1.92965   1.93915   1.94708
 Alpha virt. eigenvalues --    1.95359   1.95796   1.96844   1.97530   1.98806
 Alpha virt. eigenvalues --    1.98936   1.99826   2.00307   2.01283   2.01687
 Alpha virt. eigenvalues --    2.03130   2.03944   2.04866   2.05929   2.06577
 Alpha virt. eigenvalues --    2.07412   2.08373   2.08877   2.09276   2.10129
 Alpha virt. eigenvalues --    2.11283   2.12415   2.13932   2.14223   2.15513
 Alpha virt. eigenvalues --    2.16281   2.17188   2.18191   2.18362   2.18904
 Alpha virt. eigenvalues --    2.21373   2.23006   2.23504   2.25349   2.28181
 Alpha virt. eigenvalues --    2.29094   2.29707   2.31549   2.32054   2.34136
 Alpha virt. eigenvalues --    2.35899   2.36874   2.37688   2.38442   2.39242
 Alpha virt. eigenvalues --    2.39439   2.40395   2.41156   2.43565   2.44501
 Alpha virt. eigenvalues --    2.44636   2.45536   2.46517   2.48313   2.49147
 Alpha virt. eigenvalues --    2.50747   2.51222   2.52150   2.52911   2.53205
 Alpha virt. eigenvalues --    2.55117   2.55522   2.58301   2.59182   2.59995
 Alpha virt. eigenvalues --    2.60370   2.60441   2.60946   2.62723   2.63764
 Alpha virt. eigenvalues --    2.65020   2.65729   2.66662   2.67405   2.68274
 Alpha virt. eigenvalues --    2.69471   2.70159   2.71940   2.72845   2.73842
 Alpha virt. eigenvalues --    2.74843   2.75739   2.76681   2.77372   2.79524
 Alpha virt. eigenvalues --    2.80932   2.81322   2.82744   2.83542   2.84439
 Alpha virt. eigenvalues --    2.85121   2.86427   2.87500   2.88816   2.89661
 Alpha virt. eigenvalues --    2.90545   2.90881   2.92472   2.92738   2.93897
 Alpha virt. eigenvalues --    2.94832   2.96347   2.96404   2.97580   2.98533
 Alpha virt. eigenvalues --    3.00527   3.00669   3.03098   3.04312   3.05346
 Alpha virt. eigenvalues --    3.07596   3.08223   3.08519   3.12386   3.12811
 Alpha virt. eigenvalues --    3.16461   3.19286   3.20976   3.22659   3.24716
 Alpha virt. eigenvalues --    3.31481   3.35364   3.38736   3.40707   3.41242
 Alpha virt. eigenvalues --    3.42611   3.43431   3.44369   3.47674   3.48231
 Alpha virt. eigenvalues --    3.49856   3.50347   3.51375   3.51706   3.53095
 Alpha virt. eigenvalues --    3.55033   3.55403   3.57865   3.58546   3.61859
 Alpha virt. eigenvalues --    3.63288   3.67420   3.70418   4.25116   4.31682
 Alpha virt. eigenvalues --    4.32151   4.32491   4.35756   4.40301   4.41385
 Alpha virt. eigenvalues --    4.46083   4.47869   4.49456   4.50391   4.55966
 Alpha virt. eigenvalues --    4.57232   4.60857   4.64451   4.66038   4.71984
 Alpha virt. eigenvalues --    4.77535   4.78789   4.80872   4.86976   4.88476
 Alpha virt. eigenvalues --    4.93241
          Condensed to atoms (all electrons):
              1          2          3          4          5          6
     1  O    8.272844   0.236284  -0.048898  -0.014118   0.019921   0.092456
     2  C    0.236284  11.716908  -1.802811   0.023977   0.030729  -4.350796
     3  C   -0.048898  -1.802811   9.462955   0.127274  -0.021212  -1.197456
     4  O   -0.014118   0.023977   0.127274   8.283688   0.198799  -0.115731
     5  H    0.019921   0.030729  -0.021212   0.198799   0.442679  -0.028807
     6  C    0.092456  -4.350796  -1.197456  -0.115731  -0.028807  16.479921
     7  O   -0.002139   0.024690  -0.133310   0.015248  -0.000704   0.296324
     8  H   -0.000030   0.009926  -0.029229   0.000418  -0.000017   0.075426
     9  C    0.013117   0.555145  -0.314220   0.011327  -0.003322   0.231549
    10  O   -0.000083   0.022995   0.002034   0.000037  -0.000004  -0.012401
    11  H   -0.000029  -0.010914   0.003106   0.000000   0.000000   0.001094
    12  C   -0.210274  -3.766295   0.345290  -0.028463   0.027607   1.504346
    13  O    0.009167   0.045391   0.013278  -0.002319  -0.000011  -0.034051
    14  C   -0.028228   2.450627  -0.560880   0.090076  -0.002037  -6.518788
    15  O    0.000074  -0.023976  -0.051666  -0.000611   0.000143   0.128944
    16  C    0.000124   0.203248  -0.098325  -0.002713   0.000918  -0.071119
    17  C   -0.000387  -0.001368  -0.034239   0.001179   0.000079  -0.062848
    18  O    0.000047   0.000522  -0.001367   0.000000   0.000000   0.012497
    19  H   -0.000014   0.005222  -0.000697  -0.000004   0.000000   0.011883
    20  C    0.000047   0.009765  -0.003828  -0.000046   0.000002   0.098219
    21  O    0.000000   0.000126   0.000005   0.000000   0.000000  -0.000205
    22  H    0.000000  -0.000052   0.000020   0.000000   0.000000   0.000336
    23  C    0.000096   0.011164  -0.104734  -0.000193  -0.000036   0.033303
    24  O    0.000000  -0.000586  -0.003635  -0.000012   0.000000  -0.006161
    25  H    0.000000  -0.000024   0.000396   0.000000   0.000000  -0.006309
    26  C   -0.000136   0.058535   0.112395   0.001333   0.000033  -0.377337
    27  O    0.000000   0.000498  -0.000445   0.000001   0.000000  -0.001982
    28  C   -0.000002  -0.002146   0.003535  -0.000004   0.000000  -0.012637
    29  O    0.000000  -0.000004   0.000000   0.000000   0.000000  -0.000095
    30  H    0.229492   0.070583  -0.060576  -0.000079  -0.001037   0.000890
    31  H   -0.001394   0.031087  -0.004282  -0.000047   0.000001   0.017051
    32  H    0.005740   0.064368  -0.019045  -0.000023  -0.000003  -0.003865
    33  H    0.005162   0.059982  -0.083886  -0.000039  -0.000027   0.017433
    34  H   -0.048486   0.462313  -0.112747  -0.001097  -0.002710  -0.014499
    35  H   -0.013909   0.167671   0.432311  -0.047686  -0.001040  -0.381589
    36  H   -0.000744   0.049628  -0.065772   0.001469   0.000205   0.226267
    37  H    0.000063   0.031707  -0.045978  -0.000271   0.000007  -0.087929
    38  H    0.000000  -0.000001  -0.001253  -0.000001   0.000000   0.005040
    39  H    0.000000   0.001431   0.006419   0.000015   0.000000   0.016956
    40  H    0.000000  -0.000309   0.000375   0.000000   0.000000  -0.001560
    41  H    0.000000   0.000000   0.000000   0.000000   0.000000   0.000010
    42  H    0.000000  -0.000014   0.000009   0.000000   0.000000  -0.000053
    43  H    0.000000   0.000029   0.000001   0.000000   0.000000   0.000355
    44  H    0.000000  -0.000276   0.000346   0.000000   0.000000   0.003814
    45  H   -0.000001  -0.000452   0.002682   0.000001   0.000000  -0.010057
              7          8          9         10         11         12
     1  O   -0.002139  -0.000030   0.013117  -0.000083  -0.000029  -0.210274
     2  C    0.024690   0.009926   0.555145   0.022995  -0.010914  -3.766295
     3  C   -0.133310  -0.029229  -0.314220   0.002034   0.003106   0.345290
     4  O    0.015248   0.000418   0.011327   0.000037   0.000000  -0.028463
     5  H   -0.000704  -0.000017  -0.003322  -0.000004   0.000000   0.027607
     6  C    0.296324   0.075426   0.231549  -0.012401   0.001094   1.504346
     7  O    8.243953   0.221638  -0.003090   0.000016   0.000000  -0.008334
     8  H    0.221638   0.404988   0.000891   0.000000   0.000000  -0.001615
     9  C   -0.003090   0.000891   7.293950   0.218925  -0.022185  -2.719151
    10  O    0.000016   0.000000   0.218925   8.310089   0.185975  -0.140791
    11  H    0.000000   0.000000  -0.022185   0.185975   0.450159   0.054419
    12  C   -0.008334  -0.001615  -2.719151  -0.140791   0.054419  12.765620
    13  O    0.013663  -0.001556   0.048224   0.017672  -0.001329  -0.251960
    14  C   -0.169517  -0.015223  -0.023385  -0.013002   0.000853  -1.403139
    15  O   -0.003044  -0.002176   0.009085  -0.001701   0.000028   0.003243
    16  C    0.064662  -0.012511  -0.167097   0.026178  -0.001362   0.229494
    17  C   -0.000558   0.000183  -0.024863  -0.013711   0.000420  -0.175911
    18  O    0.000318  -0.000007   0.005767   0.002090   0.000229  -0.020571
    19  H   -0.000051   0.000001  -0.006676   0.004375  -0.000075   0.001191
    20  C    0.003017  -0.000086   0.004452   0.000312  -0.000261  -0.040548
    21  O   -0.000003   0.000000  -0.000259   0.000034   0.000000   0.000583
    22  H    0.000000   0.000000   0.000061  -0.000027   0.000000  -0.000177
    23  C   -0.014669  -0.001930   0.000916   0.000012  -0.000001  -0.016565
    24  O   -0.000996   0.000058   0.000214  -0.000001   0.000000   0.001682
    25  H   -0.000024  -0.000011   0.000002   0.000000   0.000000   0.000128
    26  C    0.000543   0.001829   0.001169   0.000510  -0.000105  -0.056609
    27  O    0.000082  -0.000001  -0.000312   0.000006   0.000000  -0.000009
    28  C   -0.000330   0.000034  -0.000888   0.000249   0.000001   0.010036
    29  O   -0.000002   0.000000   0.000007   0.000000   0.000000  -0.000018
    30  H   -0.000036   0.000000  -0.002655   0.000031  -0.000002   0.013277
    31  H   -0.000010   0.000000   0.618090  -0.060673  -0.003619  -0.322119
    32  H   -0.000003   0.000000   0.443567  -0.048054  -0.011097  -0.124400
    33  H   -0.000262   0.000002   0.077342   0.003334  -0.000097   0.149098
    34  H   -0.000379   0.000005   0.036555   0.000171  -0.000008  -0.157905
    35  H   -0.000542   0.000180   0.011671   0.000001   0.000000  -0.081597
    36  H   -0.038419  -0.012014   0.002665  -0.000008   0.000000  -0.003273
    37  H    0.001156   0.000115   0.009056  -0.000111  -0.000001  -0.016640
    38  H    0.000080  -0.000003   0.000007   0.000000   0.000000  -0.000034
    39  H    0.003694   0.000101  -0.000190   0.000001   0.000000  -0.003246
    40  H   -0.000067   0.000001   0.000392   0.000001   0.000000  -0.000246
    41  H    0.000000   0.000000   0.000001   0.000000   0.000000  -0.000001
    42  H    0.000000   0.000000   0.000032   0.000001   0.000000   0.000027
    43  H    0.000003   0.000000   0.000065   0.000010   0.000000   0.000476
    44  H    0.000017   0.000000   0.002014   0.000159   0.000000  -0.000179
    45  H   -0.000227   0.000009   0.000825   0.000020   0.000000   0.000024
             13         14         15         16         17         18
     1  O    0.009167  -0.028228   0.000074   0.000124  -0.000387   0.000047
     2  C    0.045391   2.450627  -0.023976   0.203248  -0.001368   0.000522
     3  C    0.013278  -0.560880  -0.051666  -0.098325  -0.034239  -0.001367
     4  O   -0.002319   0.090076  -0.000611  -0.002713   0.001179   0.000000
     5  H   -0.000011  -0.002037   0.000143   0.000918   0.000079   0.000000
     6  C   -0.034051  -6.518788   0.128944  -0.071119  -0.062848   0.012497
     7  O    0.013663  -0.169517  -0.003044   0.064662  -0.000558   0.000318
     8  H   -0.001556  -0.015223  -0.002176  -0.012511   0.000183  -0.000007
     9  C    0.048224  -0.023385   0.009085  -0.167097  -0.024863   0.005767
    10  O    0.017672  -0.013002  -0.001701   0.026178  -0.013711   0.002090
    11  H   -0.001329   0.000853   0.000028  -0.001362   0.000420   0.000229
    12  C   -0.251960  -1.403139   0.003243   0.229494  -0.175911  -0.020571
    13  O    8.598376   0.017503  -0.085499   0.097439  -0.013155   0.012010
    14  C    0.017503  12.753389   0.146724  -0.713190  -0.421458  -0.004918
    15  O   -0.085499   0.146724   8.468948  -0.200397   0.030643  -0.020669
    16  C    0.097439  -0.713190  -0.200397  19.379492  -6.015439  -0.174218
    17  C   -0.013155  -0.421458   0.030643  -6.015439  10.505285   0.325142
    18  O    0.012010  -0.004918  -0.020669  -0.174218   0.325142   8.285498
    19  H    0.026444  -0.010691   0.012481  -0.071301   0.050110   0.207963
    20  C   -0.014924  -0.300052   0.043861  -2.925889   0.963884  -0.099002
    21  O    0.000302  -0.001105  -0.000256  -0.036538  -0.185919   0.001008
    22  H   -0.000009   0.004896  -0.000149   0.032642  -0.070766   0.023372
    23  C   -0.010622  -0.164972  -0.202425   1.189240  -0.280184   0.007321
    24  O   -0.000228   0.040554  -0.000068   0.142979  -0.014815  -0.000157
    25  H    0.000005   0.013832   0.001839  -0.057797  -0.003316  -0.000016
    26  C   -0.030187  -0.316527   0.244984  -7.467621   2.322672   0.059291
    27  O    0.000408  -0.029028  -0.000256  -0.162739  -0.044921   0.002441
    28  C    0.002500   0.141331   0.009869   1.863305  -0.908302  -0.007952
    29  O   -0.000015   0.001257   0.000012   0.009626   0.014998  -0.000086
    30  H   -0.001071  -0.002210  -0.000005   0.000134  -0.000025  -0.000001
    31  H    0.000862   0.001682  -0.000159  -0.004702   0.003499   0.000080
    32  H    0.010418  -0.000161   0.000023   0.001566  -0.000854  -0.000130
    33  H   -0.047666   0.052803  -0.002303  -0.002721   0.006168   0.000258
    34  H    0.009627   0.063291  -0.000813  -0.000015   0.001064   0.000027
    35  H    0.004225   0.153316  -0.000766   0.005821   0.000734   0.000015
    36  H    0.009556   0.053744  -0.008672   0.036505   0.001870   0.000071
    37  H   -0.057124   0.399694  -0.069507   0.038398   0.022008  -0.000383
    38  H   -0.000048  -0.009980  -0.002993   0.106233  -0.003213   0.000049
    39  H   -0.000246  -0.059745  -0.026596   0.051456   0.022426   0.000196
    40  H   -0.001147   0.035787   0.000759   0.041951  -0.058285  -0.000704
    41  H    0.000000   0.000258   0.000001   0.003560   0.001904  -0.000002
    42  H    0.000023   0.003174   0.000107   0.103466  -0.033799  -0.000199
    43  H    0.000334   0.001459  -0.001495   0.218287  -0.229424   0.008918
    44  H    0.002170   0.014607  -0.010810   0.099597   0.257126  -0.038698
    45  H   -0.002383   0.009830  -0.061773   0.470279  -0.119387  -0.001730
             19         20         21         22         23         24
     1  O   -0.000014   0.000047   0.000000   0.000000   0.000096   0.000000
     2  C    0.005222   0.009765   0.000126  -0.000052   0.011164  -0.000586
     3  C   -0.000697  -0.003828   0.000005   0.000020  -0.104734  -0.003635
     4  O   -0.000004  -0.000046   0.000000   0.000000  -0.000193  -0.000012
     5  H    0.000000   0.000002   0.000000   0.000000  -0.000036   0.000000
     6  C    0.011883   0.098219  -0.000205   0.000336   0.033303  -0.006161
     7  O   -0.000051   0.003017  -0.000003   0.000000  -0.014669  -0.000996
     8  H    0.000001  -0.000086   0.000000   0.000000  -0.001930   0.000058
     9  C   -0.006676   0.004452  -0.000259   0.000061   0.000916   0.000214
    10  O    0.004375   0.000312   0.000034  -0.000027   0.000012  -0.000001
    11  H   -0.000075  -0.000261   0.000000   0.000000  -0.000001   0.000000
    12  C    0.001191  -0.040548   0.000583  -0.000177  -0.016565   0.001682
    13  O    0.026444  -0.014924   0.000302  -0.000009  -0.010622  -0.000228
    14  C   -0.010691  -0.300052  -0.001105   0.004896  -0.164972   0.040554
    15  O    0.012481   0.043861  -0.000256  -0.000149  -0.202425  -0.000068
    16  C   -0.071301  -2.925889  -0.036538   0.032642   1.189240   0.142979
    17  C    0.050110   0.963884  -0.185919  -0.070766  -0.280184  -0.014815
    18  O    0.207963  -0.099002   0.001008   0.023372   0.007321  -0.000157
    19  H    0.331968   0.011677   0.000971  -0.000566  -0.002652  -0.000011
    20  C    0.011677   8.004840   0.526680  -0.012733  -0.050039   0.000785
    21  O    0.000971   0.526680   8.138113   0.219128  -0.000068  -0.000086
    22  H   -0.000566  -0.012733   0.219128   0.402781   0.000164   0.000000
    23  C   -0.002652  -0.050039  -0.000068   0.000164   7.142497   0.320982
    24  O   -0.000011   0.000785  -0.000086   0.000000   0.320982   8.323083
    25  H    0.000000  -0.001372   0.000001   0.000000  -0.071472   0.187061
    26  C    0.008997   1.277073   0.039123  -0.020666  -2.588607  -0.371007
    27  O   -0.000052  -0.060366   0.003787  -0.000524   0.047364   0.001270
    28  C   -0.001008  -1.019801  -0.229722   0.060350  -0.144638  -0.014317
    29  O    0.000024  -0.146340   0.006685  -0.000059  -0.002932  -0.000173
    30  H    0.000000   0.000000   0.000000   0.000000   0.000002   0.000000
    31  H    0.000033   0.000169   0.000000   0.000000   0.000038   0.000000
    32  H    0.000044   0.000013   0.000000   0.000000  -0.000004   0.000000
    33  H    0.000309   0.000414   0.000001   0.000000   0.000165   0.000000
    34  H   -0.000004   0.000010   0.000000   0.000000   0.000143   0.000000
    35  H   -0.000001  -0.000008   0.000000   0.000000   0.000027   0.000000
    36  H   -0.000015   0.000234   0.000000   0.000000   0.006379  -0.000070
    37  H   -0.000053   0.005210   0.000007   0.000000   0.002425  -0.000185
    38  H    0.000000   0.002991  -0.000006   0.000000   0.475422  -0.053558
    39  H   -0.000001   0.002315  -0.000001   0.000000   0.603173  -0.059536
    40  H    0.000030  -0.036312  -0.000184  -0.000003  -0.048030   0.010258
    41  H    0.000000   0.030589  -0.000922   0.000014  -0.001503  -0.000011
    42  H    0.000003  -0.168524   0.006305  -0.000215   0.005123   0.000014
    43  H   -0.000109   0.303129  -0.049902  -0.008766   0.022441   0.000184
    44  H   -0.005406  -0.122512   0.001325   0.000114   0.012449   0.000057
    45  H   -0.000695  -0.007214  -0.000545   0.000056   0.004973   0.006955
             25         26         27         28         29         30
     1  O    0.000000  -0.000136   0.000000  -0.000002   0.000000   0.229492
     2  C   -0.000024   0.058535   0.000498  -0.002146  -0.000004   0.070583
     3  C    0.000396   0.112395  -0.000445   0.003535   0.000000  -0.060576
     4  O    0.000000   0.001333   0.000001  -0.000004   0.000000  -0.000079
     5  H    0.000000   0.000033   0.000000   0.000000   0.000000  -0.001037
     6  C   -0.006309  -0.377337  -0.001982  -0.012637  -0.000095   0.000890
     7  O   -0.000024   0.000543   0.000082  -0.000330  -0.000002  -0.000036
     8  H   -0.000011   0.001829  -0.000001   0.000034   0.000000   0.000000
     9  C    0.000002   0.001169  -0.000312  -0.000888   0.000007  -0.002655
    10  O    0.000000   0.000510   0.000006   0.000249   0.000000   0.000031
    11  H    0.000000  -0.000105   0.000000   0.000001   0.000000  -0.000002
    12  C    0.000128  -0.056609  -0.000009   0.010036  -0.000018   0.013277
    13  O    0.000005  -0.030187   0.000408   0.002500  -0.000015  -0.001071
    14  C    0.013832  -0.316527  -0.029028   0.141331   0.001257  -0.002210
    15  O    0.001839   0.244984  -0.000256   0.009869   0.000012  -0.000005
    16  C   -0.057797  -7.467621  -0.162739   1.863305   0.009626   0.000134
    17  C   -0.003316   2.322672  -0.044921  -0.908302   0.014998  -0.000025
    18  O   -0.000016   0.059291   0.002441  -0.007952  -0.000086  -0.000001
    19  H    0.000000   0.008997  -0.000052  -0.001008   0.000024   0.000000
    20  C   -0.001372   1.277073  -0.060366  -1.019801  -0.146340   0.000000
    21  O    0.000001   0.039123   0.003787  -0.229722   0.006685   0.000000
    22  H    0.000000  -0.020666  -0.000524   0.060350  -0.000059   0.000000
    23  C   -0.071472  -2.588607   0.047364  -0.144638  -0.002932   0.000002
    24  O    0.187061  -0.371007   0.001270  -0.014317  -0.000173   0.000000
    25  H    0.456893   0.146858  -0.000386   0.003696   0.000011   0.000000
    26  C    0.146858  14.348205   0.370963  -1.310832  -0.037375  -0.000005
    27  O   -0.000386   0.370963   8.424360  -0.027285  -0.076125   0.000000
    28  C    0.003696  -1.310832  -0.027285   6.217095   0.383551   0.000000
    29  O    0.000011  -0.037375  -0.076125   0.383551   8.152864   0.000000
    30  H    0.000000  -0.000005   0.000000   0.000000   0.000000   0.409209
    31  H    0.000000   0.000049   0.000000  -0.000024   0.000000   0.000157
    32  H    0.000000   0.000027   0.000000   0.000002   0.000000  -0.000515
    33  H    0.000000   0.000287   0.000000  -0.000061   0.000000   0.000022
    34  H    0.000000  -0.000124   0.000000  -0.000005   0.000000  -0.011964
    35  H    0.000000   0.000313   0.000000  -0.000002   0.000000   0.000310
    36  H    0.000000  -0.004823   0.000012  -0.000065   0.000000   0.000009
    37  H    0.000000   0.008802   0.000131  -0.000106  -0.000003   0.000001
    38  H   -0.006769  -0.205822   0.002256  -0.003896  -0.000034   0.000000
    39  H   -0.006337  -0.258970   0.005872  -0.004660   0.000052   0.000000
    40  H   -0.000313   0.293233  -0.065295   0.046021  -0.001718   0.000000
    41  H    0.000000  -0.014788  -0.005952   0.000147   0.233286   0.000000
    42  H    0.000000  -0.036155  -0.064967   0.459069  -0.048345   0.000000
    43  H    0.000001  -0.037813   0.004164  -0.012614  -0.003704   0.000000
    44  H    0.000000  -0.022459   0.004881   0.011633  -0.000147   0.000000
    45  H   -0.000174  -0.088143   0.005224   0.023648  -0.001069   0.000000
             31         32         33         34         35         36
     1  O   -0.001394   0.005740   0.005162  -0.048486  -0.013909  -0.000744
     2  C    0.031087   0.064368   0.059982   0.462313   0.167671   0.049628
     3  C   -0.004282  -0.019045  -0.083886  -0.112747   0.432311  -0.065772
     4  O   -0.000047  -0.000023  -0.000039  -0.001097  -0.047686   0.001469
     5  H    0.000001  -0.000003  -0.000027  -0.002710  -0.001040   0.000205
     6  C    0.017051  -0.003865   0.017433  -0.014499  -0.381589   0.226267
     7  O   -0.000010  -0.000003  -0.000262  -0.000379  -0.000542  -0.038419
     8  H    0.000000   0.000000   0.000002   0.000005   0.000180  -0.012014
     9  C    0.618090   0.443567   0.077342   0.036555   0.011671   0.002665
    10  O   -0.060673  -0.048054   0.003334   0.000171   0.000001  -0.000008
    11  H   -0.003619  -0.011097  -0.000097  -0.000008   0.000000   0.000000
    12  C   -0.322119  -0.124400   0.149098  -0.157905  -0.081597  -0.003273
    13  O    0.000862   0.010418  -0.047666   0.009627   0.004225   0.009556
    14  C    0.001682  -0.000161   0.052803   0.063291   0.153316   0.053744
    15  O   -0.000159   0.000023  -0.002303  -0.000813  -0.000766  -0.008672
    16  C   -0.004702   0.001566  -0.002721  -0.000015   0.005821   0.036505
    17  C    0.003499  -0.000854   0.006168   0.001064   0.000734   0.001870
    18  O    0.000080  -0.000130   0.000258   0.000027   0.000015   0.000071
    19  H    0.000033   0.000044   0.000309  -0.000004  -0.000001  -0.000015
    20  C    0.000169   0.000013   0.000414   0.000010  -0.000008   0.000234
    21  O    0.000000   0.000000   0.000001   0.000000   0.000000   0.000000
    22  H    0.000000   0.000000   0.000000   0.000000   0.000000   0.000000
    23  C    0.000038  -0.000004   0.000165   0.000143   0.000027   0.006379
    24  O    0.000000   0.000000   0.000000   0.000000   0.000000  -0.000070
    25  H    0.000000   0.000000   0.000000   0.000000   0.000000   0.000000
    26  C    0.000049   0.000027   0.000287  -0.000124   0.000313  -0.004823
    27  O    0.000000   0.000000   0.000000   0.000000   0.000000   0.000012
    28  C   -0.000024   0.000002  -0.000061  -0.000005  -0.000002  -0.000065
    29  O    0.000000   0.000000   0.000000   0.000000   0.000000   0.000000
    30  H    0.000157  -0.000515   0.000022  -0.011964   0.000310   0.000009
    31  H    0.640282  -0.056240   0.007769   0.007342   0.000003  -0.000010
    32  H   -0.056240   0.601611  -0.008849  -0.000396  -0.000007   0.000000
    33  H    0.007769  -0.008849   0.615599   0.006867   0.002491   0.000014
    34  H    0.007342  -0.000396   0.006867   0.615844   0.005546   0.001423
    35  H    0.000003  -0.000007   0.002491   0.005546   0.573396   0.005680
    36  H   -0.000010   0.000000   0.000014   0.001423   0.005680   0.574947
    37  H    0.000006   0.000008   0.003943   0.000013   0.001397   0.005152
    38  H    0.000000   0.000000   0.000000   0.000000   0.000000  -0.000008
    39  H    0.000000   0.000000   0.000000   0.000000   0.000001   0.000373
    40  H    0.000000   0.000000   0.000000   0.000000   0.000000   0.000000
    41  H    0.000000   0.000000   0.000000   0.000000   0.000000   0.000000
    42  H    0.000000   0.000000   0.000000   0.000000   0.000000   0.000000
    43  H    0.000000   0.000000   0.000000   0.000000   0.000000   0.000000
    44  H    0.000000   0.000000   0.000000   0.000000   0.000000  -0.000001
    45  H    0.000000   0.000000  -0.000003   0.000000   0.000000   0.000020
             37         38         39         40         41         42
     1  O    0.000063   0.000000   0.000000   0.000000   0.000000   0.000000
     2  C    0.031707  -0.000001   0.001431  -0.000309   0.000000  -0.000014
     3  C   -0.045978  -0.001253   0.006419   0.000375   0.000000   0.000009
     4  O   -0.000271  -0.000001   0.000015   0.000000   0.000000   0.000000
     5  H    0.000007   0.000000   0.000000   0.000000   0.000000   0.000000
     6  C   -0.087929   0.005040   0.016956  -0.001560   0.000010  -0.000053
     7  O    0.001156   0.000080   0.003694  -0.000067   0.000000   0.000000
     8  H    0.000115  -0.000003   0.000101   0.000001   0.000000   0.000000
     9  C    0.009056   0.000007  -0.000190   0.000392   0.000001   0.000032
    10  O   -0.000111   0.000000   0.000001   0.000001   0.000000   0.000001
    11  H   -0.000001   0.000000   0.000000   0.000000   0.000000   0.000000
    12  C   -0.016640  -0.000034  -0.003246  -0.000246  -0.000001   0.000027
    13  O   -0.057124  -0.000048  -0.000246  -0.001147   0.000000   0.000023
    14  C    0.399694  -0.009980  -0.059745   0.035787   0.000258   0.003174
    15  O   -0.069507  -0.002993  -0.026596   0.000759   0.000001   0.000107
    16  C    0.038398   0.106233   0.051456   0.041951   0.003560   0.103466
    17  C    0.022008  -0.003213   0.022426  -0.058285   0.001904  -0.033799
    18  O   -0.000383   0.000049   0.000196  -0.000704  -0.000002  -0.000199
    19  H   -0.000053   0.000000  -0.000001   0.000030   0.000000   0.000003
    20  C    0.005210   0.002991   0.002315  -0.036312   0.030589  -0.168524
    21  O    0.000007  -0.000006  -0.000001  -0.000184  -0.000922   0.006305
    22  H    0.000000   0.000000   0.000000  -0.000003   0.000014  -0.000215
    23  C    0.002425   0.475422   0.603173  -0.048030  -0.001503   0.005123
    24  O   -0.000185  -0.053558  -0.059536   0.010258  -0.000011   0.000014
    25  H    0.000000  -0.006769  -0.006337  -0.000313   0.000000   0.000000
    26  C    0.008802  -0.205822  -0.258970   0.293233  -0.014788  -0.036155
    27  O    0.000131   0.002256   0.005872  -0.065295  -0.005952  -0.064967
    28  C   -0.000106  -0.003896  -0.004660   0.046021   0.000147   0.459069
    29  O   -0.000003  -0.000034   0.000052  -0.001718   0.233286  -0.048345
    30  H    0.000001   0.000000   0.000000   0.000000   0.000000   0.000000
    31  H    0.000006   0.000000   0.000000   0.000000   0.000000   0.000000
    32  H    0.000008   0.000000   0.000000   0.000000   0.000000   0.000000
    33  H    0.003943   0.000000   0.000000   0.000000   0.000000   0.000000
    34  H    0.000013   0.000000   0.000000   0.000000   0.000000   0.000000
    35  H    0.001397   0.000000   0.000001   0.000000   0.000000   0.000000
    36  H    0.005152  -0.000008   0.000373   0.000000   0.000000   0.000000
    37  H    0.604101  -0.000002   0.000382   0.000001   0.000000   0.000000
    38  H   -0.000002   0.646170  -0.058881  -0.009383   0.000001  -0.000011
    39  H    0.000382  -0.058881   0.614456   0.003689   0.000000   0.000000
    40  H    0.000001  -0.009383   0.003689   0.654664  -0.000003   0.006152
    41  H    0.000000   0.000001   0.000000  -0.000003   0.413078  -0.009199
    42  H    0.000000  -0.000011   0.000000   0.006152  -0.009199   0.652902
    43  H   -0.000013   0.000000  -0.000001   0.000092  -0.000030   0.006310
    44  H   -0.000004   0.000003  -0.000005   0.004485   0.000003   0.004883
    45  H    0.006880   0.000025   0.000377   0.007833   0.000003   0.000017
             43         44         45
     1  O    0.000000   0.000000  -0.000001
     2  C    0.000029  -0.000276  -0.000452
     3  C    0.000001   0.000346   0.002682
     4  O    0.000000   0.000000   0.000001
     5  H    0.000000   0.000000   0.000000
     6  C    0.000355   0.003814  -0.010057
     7  O    0.000003   0.000017  -0.000227
     8  H    0.000000   0.000000   0.000009
     9  C    0.000065   0.002014   0.000825
    10  O    0.000010   0.000159   0.000020
    11  H    0.000000   0.000000   0.000000
    12  C    0.000476  -0.000179   0.000024
    13  O    0.000334   0.002170  -0.002383
    14  C    0.001459   0.014607   0.009830
    15  O   -0.001495  -0.010810  -0.061773
    16  C    0.218287   0.099597   0.470279
    17  C   -0.229424   0.257126  -0.119387
    18  O    0.008918  -0.038698  -0.001730
    19  H   -0.000109  -0.005406  -0.000695
    20  C    0.303129  -0.122512  -0.007214
    21  O   -0.049902   0.001325  -0.000545
    22  H   -0.008766   0.000114   0.000056
    23  C    0.022441   0.012449   0.004973
    24  O    0.000184   0.000057   0.006955
    25  H    0.000001   0.000000  -0.000174
    26  C   -0.037813  -0.022459  -0.088143
    27  O    0.004164   0.004881   0.005224
    28  C   -0.012614   0.011633   0.023648
    29  O   -0.003704  -0.000147  -0.001069
    30  H    0.000000   0.000000   0.000000
    31  H    0.000000   0.000000   0.000000
    32  H    0.000000   0.000000   0.000000
    33  H    0.000000   0.000000  -0.000003
    34  H    0.000000   0.000000   0.000000
    35  H    0.000000   0.000000   0.000000
    36  H    0.000000  -0.000001   0.000020
    37  H   -0.000013  -0.000004   0.006880
    38  H    0.000000   0.000003   0.000025
    39  H   -0.000001  -0.000005   0.000377
    40  H    0.000092   0.004485   0.007833
    41  H   -0.000030   0.000003   0.000003
    42  H    0.006310   0.004883   0.000017
    43  H    0.615935   0.007345   0.003912
    44  H    0.007345   0.637852   0.006499
    45  H    0.003912   0.006499   0.601119
 Mulliken atomic charges:
              1
     1  O   -0.515761
     2  C   -0.384523
     3  C    0.288055
     4  O   -0.541382
     5  H    0.339847
     6  C    0.042159
     7  O   -0.512389
     8  H    0.360607
     9  C   -0.308791
    10  O   -0.504674
    11  H    0.354801
    12  C    0.443532
    13  O   -0.384049
    14  C    0.317545
    15  O   -0.322984
    16  C   -0.230907
    17  C    0.185752
    18  O   -0.584317
    19  H    0.426355
    20  C   -0.279832
    21  O   -0.438461
    22  H    0.370778
    23  C   -0.179541
    24  O   -0.510524
    25  H    0.343596
    26  C   -0.051112
    27  O   -0.333076
    28  C    0.465221
    29  O   -0.484134
    30  H    0.356062
    31  H    0.125081
    32  H    0.146258
    33  H    0.136452
    34  H    0.140910
    35  H    0.162037
    36  H    0.157671
    37  H    0.137646
    38  H    0.117619
    39  H    0.145029
    40  H    0.117835
    41  H    0.349559
    42  H    0.113866
    43  H    0.150421
    44  H    0.129121
    45  H    0.142641
 Sum of Mulliken atomic charges =   0.00000
 Mulliken charges with hydrogens summed into heavy atoms:
              1
     1  O   -0.159699
     2  C   -0.243613
     3  C    0.450092
     4  O   -0.201535
     6  C    0.199830
     7  O   -0.151782
     9  C   -0.037453
    10  O   -0.149873
    12  C    0.579984
    13  O   -0.384049
    14  C    0.455191
    15  O   -0.322984
    16  C   -0.088265
    17  C    0.314873
    18  O   -0.157962
    20  C   -0.129411
    21  O   -0.067683
    23  C    0.083108
    24  O   -0.166928
    26  C    0.066724
    27  O   -0.333076
    28  C    0.579087
    29  O   -0.134575
 Sum of Mulliken charges with hydrogens summed into heavy atoms =   0.00000
 APT atomic charges:
              1
     1  O   -0.633213
     2  C    0.421210
     3  C    0.376416
     4  O   -0.629080
     5  H    0.246259
     6  C    0.365465
     7  O   -0.605391
     8  H    0.259923
     9  C    0.441929
    10  O   -0.568475
    11  H    0.241264
    12  C    0.469152
    13  O   -0.878800
    14  C    1.006871
    15  O   -0.951804
    16  C    0.487111
    17  C    0.312974
    18  O   -0.722322
    19  H    0.396559
    20  C    0.386680
    21  O   -0.593136
    22  H    0.290551
    23  C    0.447407
    24  O   -0.577410
    25  H    0.234980
    26  C    0.425446
    27  O   -0.736344
    28  C    0.942792
    29  O   -0.674627
    30  H    0.253516
    31  H   -0.066718
    32  H   -0.036267
    33  H   -0.062873
    34  H   -0.047930
    35  H   -0.029910
    36  H   -0.008505
    37  H   -0.060862
    38  H   -0.087107
    39  H    0.003140
    40  H   -0.069482
    41  H    0.268895
    42  H   -0.093571
    43  H   -0.042529
    44  H   -0.062811
    45  H   -0.039375
 Sum of APT charges=   0.00000
 APT Atomic charges with hydrogens summed into heavy atoms:
              1
[...]
 ,-0.00001213,-0.00000339,0.00001573,0.00002736,0.00003287,-0.00002366,
 -0.00005303,-0.00002363,0.00005887,0.00006504,0.00013439,0.00008042,-0
 .00013671,-0.00005495,-0.00004031,0.00019331,-0.00134896,0.00051536,0.
 00185076,0.00083126,-0.00038635,-0.00008080,0.00001111,-0.00004045,-0.
 00003875,-0.01905157,0.01641739,-0.00255588,0.00126629,-0.00167220,0.0
 0063006,0.00027906,0.00008096,0.00031025,-0.00004074,-0.00000518,-0.00
 015969,0.00002511,-0.00009559,0.00002354,-0.00001761,-0.00002748,0.000
 02770,0.00177213,-0.00014118,-0.00202897,0.01313682,-0.00839225,0.0022
 5899,-0.26516781,0.14310813,-0.01241576,-0.00851940,0.00757335,0.00884
 633,-0.00000222,0.00000411,0.00000010,0.00000643,-0.00000100,-0.000004
 17,0.00000070,-0.00000416,0.00000245,0.00000349,-0.00000279,-0.0000004
 4,0.00000422,-0.00000012,-0.00000294,0.00000213,-0.00000141,0.00000047
 ,0.00000304,0.00000168,-0.00000154,0.00000879,-0.00000758,-0.00000024,
 0.00001503,-0.00000398,0.00002924,-0.00000492,0.00000831,-0.00000145,-
 0.00030141,0.00098459,-0.00082992,0.00103180,-0.00078751,0.00032224,0.
 27659853,0.00000482,0.00001936,0.00002504,-0.00000034,-0.00001860,-0.0
 0001096,-0.00000144,-0.00000397,-0.00002670,-0.00000999,0.00000773,0.0
 0002799,0.00000212,-0.00000347,0.00000043,0.00002496,-0.00002825,-0.00
 000464,0.00001067,0.00003569,0.00007223,-0.00000004,0.00000935,-0.0000
 4053,-0.00000039,-0.00003861,0.00003055,0.00000253,0.00002923,-0.00002
 502,0.00000284,-0.00000461,0.00000112,-0.00001115,-0.00000003,-0.00002
 641,0.00003273,0.00015503,0.00007604,-0.00012579,-0.00011225,-0.000195
 76,0.00026235,0.00015552,0.00048466,-0.00094865,-0.00052527,0.00009240
 ,-0.00017453,0.00014302,0.00066215,-0.00012572,0.00000416,-0.00045705,
 0.00003728,-0.00015871,0.00010519,-0.00935190,0.00960812,-0.00249127,0
 .00188781,0.00073855,0.00113830,0.00037853,0.00034741,-0.00003072,-0.0
 0013328,0.00004490,0.00042713,-0.00004487,0.00000447,0.00007368,-0.000
 10982,0.00003274,0.00012037,0.00359493,0.00022841,-0.00496359,0.018226
 38,-0.03893318,0.00870643,0.14282749,-0.13363841,0.00272327,0.00201988
 ,0.00425993,-0.00247638,0.00000145,-0.00000586,-0.00000327,0.00000022,
 0.00000316,-0.00000161,-0.00000004,0.00000931,-0.00000313,0.00000266,-
 0.00000136,0.00000719,-0.00000157,0.00000099,0.00000156,-0.00000015,0.
 00000078,0.00000223,0.00000250,0.00000151,-0.00001079,0.00000891,-0.00
 000060,0.00001862,-0.00006353,-0.00001528,0.00000146,-0.00008219,-0.00
 021698,0.00004057,-0.00134401,0.00063592,0.00109687,0.00032482,-0.0005
 4283,-0.00038357,-0.15510988,0.15817020,-0.00000145,-0.00000137,-0.000
 02243,-0.00000487,0.00000089,0.00001528,-0.00000211,-0.00000048,0.0000
 1679,0.00001131,0.00000887,-0.00001943,-0.00000175,-0.00000160,0.00000
 128,-0.00000991,-0.00002294,-0.00000626,0.00000024,0.00001773,-0.00000
 938,-0.00000073,-0.00000553,0.00000201,-0.00000951,0.00000422,0.000000
 80,0.00000793,-0.00000918,-0.00000354,-0.00000191,0.00000301,-0.000003
 92,0.00000773,0.00001385,0.00003809,0.00001496,-0.00002054,-0.00007405
 ,0.00004404,0.00002705,0.00010622,0.00008674,0.00006252,-0.00027872,-0
 .00007841,-0.00009559,-0.00013352,-0.00218121,0.00074057,0.00116455,0.
 00047470,-0.00024975,-0.00018322,0.00000599,0.00000355,0.00005685,-0.0
 2038145,0.01168674,0.00042862,0.00051880,-0.00126926,0.00023010,0.0001
 9446,0.00008071,0.00018808,0.00013721,0.00003084,0.00004808,0.00000578
 ,0.00002326,0.00001125,0.00004448,-0.00001109,-0.00005230,-0.00144148,
 -0.00021955,0.00259655,-0.00481271,0.00960658,0.00215659,-0.01514938,0
 .00520596,-0.04515971,0.03436421,-0.02119286,-0.01765715,-0.00000045,0
 .00000149,0.00000285,0.00000440,0.00000058,-0.00000226,-0.00000026,-0.
 00000348,-0.00000237,-0.00000105,-0.00000118,-0.00000287,0.00000144,-0
 .00000026,-0.00000189,0.00000095,-0.00000095,-0.00000097,0.00000007,0.
 00000211,0.00000066,-0.00000279,-0.00000802,0.00000160,0.00000898,0.00
 001352,-0.00000917,-0.00001445,-0.00000787,0.00000857,0.00055196,-0.00
 052961,-0.00004765,0.00175349,0.00048255,0.00238976,0.00776151,-0.0028
 6876,0.05766589,0.00000082,-0.00001380,-0.00001279,-0.00000276,0.00001
 220,0.00000474,-0.00000760,0.00000351,0.00002137,0.00001295,-0.0000060
 0,-0.00001888,-0.00000296,0.00000360,-0.00000096,-0.00000576,0.0000013
 2,0.00000748,0.00000953,-0.00001515,-0.00002814,-0.00000237,-0.0000040
 7,0.00000904,-0.00000703,0.00003332,-0.00002577,0.00001702,-0.00002354
 ,0.00002768,-0.00000886,0.00000263,-0.00000244,-0.00000249,0.00000721,
 0.00001822,0.00001899,-0.00011263,-0.00005514,-0.00003486,0.00013108,0
 .00021861,0.00067180,-0.00027571,-0.00034064,-0.00065830,0.00204186,-0
 .00017178,-0.01673376,0.00961240,0.00260840,0.00193533,-0.00045518,-0.
 00011377,0.00010129,0.00000965,-0.00007424,-0.22996071,0.15535603,-0.0
 0214246,0.01376298,-0.02013275,0.00143323,0.00189341,-0.00027381,0.000
 58706,-0.00013564,0.00008907,0.00001738,0.00011737,-0.00003338,-0.0000
 0630,0.00003017,-0.00000084,-0.00002311,-0.00079741,-0.00041744,0.0002
 2601,0.00272757,-0.00011327,0.00076838,-0.02190387,0.01530142,-0.00144
 625,0.00189481,-0.00068964,0.00044398,-0.00000187,0.00000449,0.0000013
 4,0.00000391,-0.00000357,-0.00000315,0.00000146,-0.00000666,0.00000431
 ,0.00000366,0.00000010,0.00000018,0.00000393,-0.00000093,-0.00000290,0
 .00000176,-0.00000132,0.00000012,0.00000287,0.00000287,-0.00000096,0.0
 0000605,-0.00001979,0.00001339,0.00002757,-0.00001400,-0.00000174,-0.0
 0000052,-0.00002000,0.00000053,0.00034776,0.00014004,-0.00000813,0.000
 24969,-0.00000929,0.00034411,-0.00201252,-0.00186776,-0.00244225,0.248
 46848,-0.00000002,0.00001288,0.00001026,-0.00000084,-0.00000421,-0.000
 00133,0.00000813,-0.00000220,-0.00001260,-0.00000691,0.00000524,0.0000
 0907,0.00000196,-0.00000244,0.00000018,-0.00001303,0.00000093,-0.00001
 907,-0.00000301,0.00000850,0.00001019,0.00000011,0.00000181,-0.0000024
 0,-0.00000930,-0.00004554,0.00002618,0.00000001,0.00005762,-0.00003531
 ,0.00000175,-0.00001180,0.00001640,0.00000805,-0.00001492,-0.00002559,
 -0.00000875,0.00005764,0.00002322,0.00010662,-0.00003020,-0.00007996,-
 0.00027937,0.00001740,-0.00017304,-0.00118901,-0.00027419,0.00134818,0
 .00177230,0.00229853,0.00010843,-0.00028203,0.00034491,-0.00001787,-0.
 00010362,0.00001769,0.00000302,0.15584534,-0.16011981,-0.00388049,0.00
 922745,-0.04775602,0.00374427,0.00100828,-0.00159885,0.00187334,0.0000
 2478,0.00001869,0.00001404,-0.00001368,0.00000514,0.00001149,0.0000040
 7,-0.00000493,-0.00000546,-0.00017541,0.00008657,0.00016611,-0.0008582
 1,0.00156187,-0.00069561,-0.00710780,0.00515924,-0.00100822,0.00059231
 ,0.00013784,0.00059588,0.00000060,-0.00000495,-0.00000104,0.00000236,0
 .00000568,-0.00000317,0.00000185,0.00000691,-0.00000707,-0.00000345,0.
 00000109,-0.00000154,-0.00000278,-0.00000066,0.00000165,-0.00000145,0.
 00000122,-0.00000036,-0.00000311,-0.00000275,0.00000023,-0.00000353,0.
 00001402,-0.00000071,-0.00000183,0.00000508,-0.00001093,-0.00000235,-0
 .00000879,0.00000143,0.00010021,-0.00012911,-0.00000585,-0.00016299,0.
 00002400,0.00024944,-0.00138981,-0.00055358,-0.00119227,-0.15655142,0.
 19972484,-0.00000315,0.00000266,0.00000702,0.00000605,-0.00000103,-0.0
 0000530,0.00000833,0.00000044,-0.00000912,-0.00000793,-0.00000282,0.00
 000785,0.00000148,-0.00000037,-0.00000008,-0.00000843,0.00000856,0.000
 00177,-0.00000576,-0.00000502,0.00000213,-0.00000080,0.00000410,0.0000
 0187,0.00001729,-0.00000672,-0.00000069,-0.00002957,0.00001018,-0.0000
 0462,0.00000730,0.00000027,0.00000386,0.00000531,-0.00000670,-0.000009
 77,-0.00005424,-0.00002156,0.00006746,0.00000972,0.00000222,-0.0000477
 3,-0.00069129,0.00017175,0.00019670,0.00132734,-0.00229539,0.00072200,
 0.03146759,-0.01818132,-0.00490228,-0.00130552,0.00089862,0.00288348,-
 0.00004050,0.00027397,0.00013721,-0.00234979,-0.00385263,-0.04595086,-
 0.00264958,0.00908224,0.00435386,0.00044003,-0.00140320,0.00024903,0.0
 0005414,0.00001020,0.00011154,-0.00000512,-0.00000015,-0.00002557,-0.0
 0000371,0.00000574,0.00000287,0.00026249,0.00002732,-0.00024742,0.0026
 1455,0.00084536,0.00089479,-0.02672467,0.01648506,-0.00105920,0.001904
 26,0.00003086,0.00168090,0.00000068,-0.00000148,-0.00000016,-0.0000079
 5,0.00000063,0.00000751,-0.00000186,0.00000163,-0.00000092,-0.00000610
 ,0.00000245,-0.00000802,-0.00000371,-0.00000028,0.00000366,-0.00000154
 ,0.00000071,0.00000107,-0.00000062,-0.00000498,0.00000270,-0.00001604,
 0.00002145,-0.00003256,0.00000920,0.00001805,-0.00000009,0.00001327,-0
 .00001738,-0.00000433,-0.00020516,0.00009267,-0.00019140,0.00028473,0.
 00006485,0.00045872,-0.00346433,-0.00196116,-0.00306603,-0.00276887,-0
 .00181530,0.04911811,0.00001675,0.00000930,-0.00007172,-0.00004382,-0.
 00002776,0.00003840,-0.00002332,-0.00002145,0.00003830,0.00005180,0.00
 003769,-0.00004541,-0.00001193,-0.00000606,0.00000372,-0.00002117,-0.0
 0007550,-0.00000785,0.00002897,0.00008141,0.00002279,-0.00001023,-0.00
 000135,-0.00001990,-0.00010177,0.00000537,0.00005821,0.00012398,-0.000
 10576,-0.00002510,-0.00002149,0.00002102,-0.00006915,0.00002182,0.0001
 0456,0.00018647,0.00035194,0.00030810,-0.00038845,-0.00011346,-0.00017
 153,-0.00000314,0.00067572,0.00087613,-0.00093286,0.00437188,-0.003693
 04,0.00062321,-0.26778143,0.13860116,0.00512952,-0.02332738,0.00128590
 ,-0.01594285,-0.00071305,-0.00052094,0.00130945,-0.01394290,0.01209878
 ,0.00290629,0.00166866,-0.00136705,-0.00049604,-0.00002049,0.00048215,
 -0.00050520,0.00042755,0.00031539,0.00013308,0.00003449,-0.00022533,0.
 00004677,-0.00001267,-0.00003235,-0.00005520,0.00024196,-0.00057807,0.
 00031643,0.00041559,0.00029171,0.00031282,-0.00181316,-0.00006218,-0.0
 0215897,0.00068252,-0.00056353,-0.00013863,-0.00000668,0.00000727,0.00
 000406,0.00004386,0.00000630,-0.00003224,0.00000666,-0.00000808,-0.000
 00945,0.00001336,-0.00002281,0.00002834,0.00001628,0.00000120,-0.00001
 512,0.00000700,-0.00000430,0.00000256,0.00000983,0.00002031,-0.0000155
 1,-0.00001414,-0.00008154,0.00006841,0.00003684,0.00003650,-0.00003685
 ,-0.00005623,-0.00005775,-0.00003360,0.00063095,-0.00019077,0.00017765
 ,0.00004061,0.00011439,0.00016233,0.00144399,-0.00017556,0.00032679,-0
 .00082200,-0.00038042,0.00255719,0.29722321,0.00000117,0.00002133,-0.0
 0000239,0.00000319,-0.00003613,-0.00000342,-0.00000582,-0.00002079,-0.
 00002707,-0.00001753,0.00001362,0.00002858,0.00000374,-0.00000740,0.00
 000614,-0.00001749,0.00001531,0.00002377,-0.00001801,0.00003582,0.0000
 5042,0.00000520,0.00000912,-0.00000456,0.00002328,0.00000105,0.0000293
 1,0.00001385,-0.00003120,0.00001350,0.00000298,0.00000720,-0.00001352,
 0.00002126,0.00006735,0.00004028,0.00006455,0.00028253,0.00003456,-0.0
 0019677,-0.00028847,-0.00034669,-0.00143442,0.00230253,0.00048207,0.03
 016939,-0.02184963,-0.00195412,0.13785839,-0.12691679,0.00239761,-0.01
 938290,0.00970845,-0.00495993,0.00003183,0.00048833,0.00077809,-0.0026
 5554,0.00208476,0.00064492,0.00092817,0.00134579,-0.00074194,-0.000139
 63,0.00007454,-0.00031969,-0.00023129,-0.00004376,0.00026514,-0.000239
 81,0.00026851,-0.00010688,-0.00007416,0.00006475,0.00002245,0.00310802
 ,0.00076965,0.00157091,-0.00057109,0.00016408,-0.00009535,0.00119238,0
 .00001866,-0.00031108,-0.00034220,0.00014405,0.00010939,0.00000123,-0.
 00000289,-0.00000053,-0.00000397,0.00000343,0.00000580,-0.00000799,0.0
 0000041,0.00000292,-0.00000499,-0.00000773,0.00000313,-0.00000392,0.00
 000401,0.00000401,-0.00000251,0.00000160,0.00000078,-0.00001092,-0.000
 00966,0.00000982,-0.00007687,0.00001069,-0.00017570,-0.00007799,-0.000
 12610,-0.00002869,0.00007486,0.00008467,-0.00001617,-0.00145182,0.0001
 7440,-0.00054637,0.00003029,-0.00008186,-0.00007906,-0.00041928,0.0001
 4359,-0.00017164,-0.00056841,0.00027366,0.00061262,-0.14457276,0.13667
 878,0.00001427,0.00000252,-0.00001759,-0.00002415,-0.00001523,0.000006
 02,-0.00001772,-0.00001980,0.00001055,0.00001885,0.00000923,-0.0000067
 7,-0.00000520,-0.00000081,0.00000068,0.00001567,-0.00000394,0.00003566
 ,0.00001830,0.00001393,-0.00000100,-0.00000229,0.00000320,-0.00000435,
 -0.00007130,0.00001520,0.00002551,0.00012849,-0.00003604,0.00002765,-0
 .00001564,0.00000171,-0.00002236,-0.00004603,0.00006313,0.00002107,0.0
 0032973,0.00013292,-0.00025621,-0.00033345,-0.00013505,-0.00037773,-0.
 00018715,-0.00146069,0.00108177,-0.00745040,0.00751777,0.00212539,0.00
 496040,0.00427197,-0.04161684,-0.03266248,0.00480770,-0.01032271,-0.00
 138942,0.00047099,0.00128094,0.02759648,-0.01870766,-0.00236035,-0.002
 24143,0.00131117,0.00144560,0.00013149,-0.00019979,-0.00050598,0.00017
 861,0.00003983,-0.00007038,0.00002115,-0.00006653,0.00002284,-0.000000
 49,-0.00001708,-0.00001232,0.00001347,-0.00102746,-0.00011352,-0.00045
 591,0.00025209,-0.00014986,0.00306953,-0.00093045,0.00066426,-0.000485
 74,0.00029383,0.00016205,-0.00000295,0.00000348,-0.00000265,0.00003153
 ,-0.00000167,-0.00003247,0.00000776,-0.00000316,0.00000221,0.00002133,
 -0.00001956,0.00002760,0.00001303,0.00000182,-0.00001268,0.00000517,-0
 .00000279,0.00000528,0.00001653,0.00002181,-0.00001712,0.00010681,-0.0
 0006430,0.00004513,0.00002152,0.00005216,0.00001612,-0.00002208,-0.000
 00753,0.00001124,0.00028124,-0.00038241,0.00004296,-0.00008451,0.00000
 081,-0.00002281,-0.00074303,0.00020978,-0.00044064,0.00275676,0.000424
 60,-0.00529354,0.00637931,0.00164416,0.05462791,0.00001606,-0.00000152
 ,0.00009952,0.00000916,0.00000902,-0.00008154,0.00002422,-0.00006027,-
 0.00008148,-0.00001698,-0.00003866,0.00008087,-0.00000673,0.00000454,-
 0.00000704,0.00030629,0.00022630,0.00005651,0.00009861,-0.00026346,-0.
 00010688,-0.00000923,0.00002664,0.00001956,-0.00001190,-0.00006800,0.0
 0008175,0.00003944,0.00005265,-0.00003050,-0.00001059,-0.00001410,-0.0
 0000054,-0.00006649,0.00000457,-0.00016466,0.00011163,0.00026696,0.000
 40098,0.00044092,-0.00030085,-0.00312810,-0.01630810,0.00192726,0.0160
 5359,-0.28097879,0.13148705,0.00760595,0.00276259,-0.00352573,-0.00196
 167,0.00164860,-0.00044946,0.00101912,-0.00021428,0.00000115,0.0000709
 8,0.00037712,-0.00032593,0.00072349,0.00010655,-0.00025304,-0.00008662
 ,-0.00009352,0.00007207,0.00008079,-0.00023141,0.00133521,0.00017279,0
 .00097302,-0.00043137,0.00001850,0.00017973,-0.00009895,-0.00002925,-0
 .02226243,0.00978650,-0.00242447,0.00273070,-0.00001928,0.00027655,-0.
 00013052,-0.00058045,-0.00001773,0.00009597,0.00002372,-0.00010345,0.0
 0000114,-0.00000453,-0.00001013,0.00000794,0.00000129,-0.00001371,0.00
 000450,0.00003702,0.00000466,0.00003277,0.00000209,0.00005521,0.000006
 57,-0.00000296,-0.00000464,0.00000664,0.00000554,0.00003434,0.00005266
 ,0.00010431,-0.00017846,0.00067717,0.00002470,0.00173818,0.00027216,0.
 00007955,0.00011788,-0.00016460,-0.00007987,0.00026987,-0.00175869,-0.
 00160431,-0.00249698,-0.00000085,0.00003656,0.00000667,-0.00004850,0.0
 0002671,0.00020997,0.00079011,-0.00015205,-0.00063468,0.00027108,-0.00
 100570,0.00010397,0.31027025,-0.00000426,-0.00000558,0.00002813,0.0000
 0905,0.00001721,-0.00002584,0.00001936,0.00000985,-0.00002759,-0.00001
 856,-0.00002405,0.00002148,0.00000473,0.00000371,-0.00000251,-0.000184
 74,0.00014682,0.00000383,0.00003581,-0.00008460,-0.00012975,-0.0000069
 8,0.00000046,0.00004013,0.00001662,-0.00002870,0.00000706,-0.00003529,
 0.00003762,-0.00001423,0.00001001,-0.00000714,0.00001482,0.00003892,-0
 .00004448,-0.00009983,0.00019025,0.00000224,0.00021032,-0.00085579,0.0
 0086524,-0.00037174,-0.00954588,0.00600881,0.00479875,0.13233633,-0.11
 473302,-0.00672608,0.03182864,-0.02407105,0.00412633,-0.00072133,0.004
 70924,0.00029579,0.00032483,-0.00036965,-0.00031002,0.00237959,-0.0000
 1164,-0.00186355,-0.00079405,0.00068941,-0.00008517,0.00009580,-0.0002
 5349,0.00003882,-0.00030252,0.00085905,0.00040067,0.00017091,-0.000120
 69,-0.00020339,0.00006914,0.00003325,0.00001635,-0.01518900,0.00774340
 ,-0.00048150,0.00121616,0.00017598,0.00144348,0.00020058,-0.00020349,-
 0.00012585,-0.00005358,0.00007296,0.00005787,0.00000197,-0.00000254,-0
 .00000266,-0.00001191,0.00000430,0.00000633,-0.00000055,0.00000712,-0.
 00000088,-0.00000805,0.00001333,0.00001096,-0.00000587,-0.00000350,0.0
 0000485,-0.00000324,0.00000294,0.00000582,0.00002962,-0.00003802,0.000
 03648,0.00017459,-0.00006538,-0.00062811,0.00028223,0.00020083,0.00016
 322,0.00013709,-0.00003405,0.00018877,-0.00239553,-0.00048431,-0.00244
 677,-0.00000835,0.00000890,-0.00000819,-0.00028465,0.00001278,-0.00013
 283,-0.00112244,0.00071596,0.00090289,-0.00175871,-0.00584025,0.001536
 12,-0.13626093,0.12408422,-0.00000915,-0.00000956,-0.00007522,-0.00000
 717,-0.00000506,0.00005919,-0.00007628,0.00001102,0.00003152,0.0000048
 2,0.00002594,-0.00002222,-0.00000195,-0.00000716,0.00000809,-0.0000672
 4,0.00018730,-0.00005659,-0.00010785,0.00016628,-0.00004355,-0.0000132
 9,-0.00003227,0.00002222,-0.00000275,0.00008176,-0.00009011,-0.0000207
 9,-0.00005706,0.00004771,-0.00000034,0.00001000,-0.00000247,-0.0000738
 1,-0.00005079,0.00001479,-0.00086729,-0.00040146,-0.00075567,0.0053248
 0,-0.00216020,0.00537926,0.04124240,-0.00616874,-0.02591837,0.00368116
 ,-0.00570863,-0.03907737,-0.00479069,0.00218234,0.00145113,0.00087917,
 -0.00026603,0.00045197,0.00019789,0.00011770,-0.00022627,-0.00098085,0
 .00154719,0.00013811,0.00012946,-0.00024659,-0.00017599,-0.00003444,0.
 00002209,0.00007283,0.00075336,0.00095803,0.00078926,0.00027435,-0.000
 38368,-0.00008734,0.00017975,-0.00001148,-0.00001086,-0.02539999,0.011
 55113,0.00010674,0.00210543,-0.00028764,0.00217013,-0.00043700,0.00023
 111,-0.00030270,0.00005199,-0.00002533,-0.00019375,-0.00000144,0.00000
 730,0.00000478,-0.00000273,-0.00000195,0.00000949,0.00000018,-0.000037
 66,0.00000274,-0.00002312,-0.00002340,-0.00009345,-0.00000421,0.000007
 07,0.00000538,-0.00001028,-0.00000141,-0.00005106,-0.00023922,-0.00012
 397,0.00013180,-0.00164273,0.00026143,0.00020242,0.00026461,0.00019595
 ,0.00002738,0.00010836,-0.00048600,0.00012386,-0.00319874,-0.00175137,
 -0.00391019,0.00001319,0.00003856,0.00000036,0.00019215,-0.00016396,0.
 00004702,0.00017836,0.00035755,-0.00005645,0.00017109,0.00112445,-0.00
 002852,-0.01773918,-0.00067280,0.05987995\\0.00456308,-0.00211902,-0.0
 0567495,0.00564554,0.00849929,-0.00752543,-0.01716498,0.00643664,0.015
 19276,-0.00842677,0.00110715,0.02245740,0.00864853,-0.01276368,-0.0290
 2893,0.00740213,-0.01627818,-0.01637104,-0.02776804,-0.02392747,-0.001
 73432,0.02583648,0.01988571,0.00212903,-0.01135074,0.00480868,0.002441
 72,0.00244824,0.00952996,0.01676601,0.00586622,-0.02065287,-0.02560774
 ,0.02233015,0.00382307,-0.02204060,-0.00931122,0.01386869,0.00320620,-
 0.01039112,0.04001242,-0.01439925,-0.02306860,0.00020300,0.01630600,0.
 03522506,-0.01000498,-0.02026204,0.00590984,0.01213396,0.05202508,-0.0
 0088314,0.00283099,0.00925392,0.00778155,0.00644647,-0.02081923,0.0076
 2373,-0.01511489,-0.01388419,-0.00395376,-0.01797074,0.03256851,-0.006
 41136,0.02313754,-0.02122169,0.01595128,-0.01586407,-0.03760174,-0.005
 53312,-0.03060621,0.00740122,0.00945224,0.02848366,-0.00750441,-0.0222
 4810,0.00149436,0.01702279,0.00525279,-0.01665966,0.02700187,0.0111925
 0,-0.02510238,-0.03639332,0.01225298,0.02351600,0.02378706,-0.00196701
 ,0.00289136,0.00344539,-0.02275101,0.00193592,0.00319982,0.00695504,-0
 .00283976,0.01896620,0.02290198,-0.00544585,0.00292311,-0.02004899,0.0
 0431389,-0.00080722,0.01882805,-0.00594442,0.00219565,-0.01747256,0.00
 528061,-0.00145886,0.01924737,-0.00576420,-0.00391078,-0.01841215,-0.0
 0470579,-0.00695182,-0.00281311,0.00238128,0.01305950,-0.02298925,0.01
 007405,0.00611915,-0.00623122,-0.00102178,-0.00008919,-0.01827058,0.01
 200183,-0.00075167,0.01460305,-0.01704413,-0.00319924,-0.01931337,0.01
 341710,0.00061084,0.02086237,-0.00868356,-0.00084161\\\@


 The lyf so short, the craft so long to lerne.
                             -- Chaucer
 Job cpu time:  0 days 12 hours 44 minutes 14.9 seconds.
 File lengths (MBytes):  RWF=   1327 Int=      0 D2E=      0 Chk=     19 Scr=      1
 Normal termination of Gaussian 09 at Thu Jan 21 17:50:47 2016.
Gaussian '09 finished on node007 at Thu Jan 21 17:50:47 EST 2016.
