Gaussian '09 started on node001 at Mon Feb 29 13:54:56 EST 2016.
 Entering Gaussian System, Link 0=/usr/local/gaussian/g09/g09
 Initial command:
 /usr/local/gaussian/g09/l1.exe /home/srmcgrat/thesis/gaussian/cellobiose/320/9000/2/gdp/gaussian17327/Gau-17363.inp -scrdir=/home/srmcgrat/thesis/gaussian/cellobiose/320/9000/2/gdp/gaussian17327/
 Entering Link 1 = /usr/local/gaussian/g09/l1.exe PID=     17365.
  
 Copyright (c) 1988,1990,1992,1993,1995,1998,2003,2009,2010,
            Gaussian, Inc.  All Rights Reserved.
  
 This is part of the Gaussian(R) 09 program.  It is based on
 the Gaussian(R) 03 system (copyright 2003, Gaussian, Inc.),
 the Gaussian(R) 98 system (copyright 1998, Gaussian, Inc.),
 the Gaussian(R) 94 system (copyright 1995, Gaussian, Inc.),
 the Gaussian 92(TM) system (copyright 1992, Gaussian, Inc.),
 the Gaussian 90(TM) system (copyright 1990, Gaussian, Inc.),
 the Gaussian 88(TM) system (copyright 1988, Gaussian, Inc.),
 the Gaussian 86(TM) system (copyright 1986, Carnegie Mellon
 University), and the Gaussian 82(TM) system (copyright 1983,
 Carnegie Mellon University). Gaussian is a federally registered
 trademark of Gaussian, Inc.
  
 This software contains proprietary and confidential information,
 including trade secrets, belonging to Gaussian, Inc.
  
 This software is provided under written license and may be
 used, copied, transmitted, or stored only in accord with that
 written license.
  
 The following legend is applicable only to US Government
 contracts under FAR:
  
                    RESTRICTED RIGHTS LEGEND
  
 Use, reproduction and disclosure by the US Government is
 subject to restrictions as set forth in subparagraphs (a)
 and (c) of the Commercial Computer Software - Restricted
 Rights clause in FAR 52.227-19.
  
 Gaussian, Inc.
 340 Quinnipiac St., Bldg. 40, Wallingford CT 06492
  
  
 ---------------------------------------------------------------
 Warning -- This program may not be used in any manner that
 competes with the business of Gaussian, Inc. or will provide
 assistance to any competitor of Gaussian, Inc.  The licensee
 of this program is prohibited from giving any competitor of
 Gaussian, Inc. access to this program.  By using this program,
 the user acknowledges that Gaussian, Inc. is engaged in the
 business of creating and licensing software in the field of
 computational chemistry and represents and warrants to the
 licensee that it is not a competitor of Gaussian, Inc. and that
 it will not use this program in any manner prohibited above.
 ---------------------------------------------------------------
  

 Cite this work as:
 Gaussian 09, Revision B.01,
 M. J. Frisch, G. W. Trucks, H. B. Schlegel, G. E. Scuseria, 
 M. A. Robb, J. R. Cheeseman, G. Scalmani, V. Barone, B. Mennucci, 
 G. A. Petersson, H. Nakatsuji, M. Caricato, X. Li, H. P. Hratchian, 
 A. F. Izmaylov, J. Bloino, G. Zheng, J. L. Sonnenberg, M. Hada, 
 M. Ehara, K. Toyota, R. Fukuda, J. Hasegawa, M. Ishida, T. Nakajima, 
 Y. Honda, O. Kitao, H. Nakai, T. Vreven, J. A. Montgomery, Jr., 
 J. E. Peralta, F. Ogliaro, M. Bearpark, J. J. Heyd, E. Brothers, 
 K. N. Kudin, V. N. Staroverov, T. Keith, R. Kobayashi, J. Normand, 
 K. Raghavachari, A. Rendell, J. C. Burant, S. S. Iyengar, J. Tomasi, 
 M. Cossi, N. Rega, J. M. Millam, M. Klene, J. E. Knox, J. B. Cross, 
 V. Bakken, C. Adamo, J. Jaramillo, R. Gomperts, R. E. Stratmann, 
 O. Yazyev, A. J. Austin, R. Cammi, C. Pomelli, J. W. Ochterski, 
 R. L. Martin, K. Morokuma, V. G. Zakrzewski, G. A. Voth, 
 P. Salvador, J. J. Dannenberg, S. Dapprich, A. D. Daniels, 
 O. Farkas, J. B. Foresman, J. V. Ortiz, J. Cioslowski, 
 and D. J. Fox, Gaussian, Inc., Wallingford CT, 2010.
 
 ******************************************
 Gaussian 09:  EM64L-G09RevB.01 12-Aug-2010
                29-Feb-2016 
 ******************************************
 ------------------------------------------------
 # freq=raman b3lyp/6-31+g(d,p) geom=connectivity
 ------------------------------------------------
 1/10=4,30=1,38=1,57=2/1,3;
 2/12=2,17=6,18=5,40=1/2;
 3/5=1,6=6,7=111,11=2,16=1,25=1,30=1,71=2,74=-5/1,2,3;
 4//1;
 5/5=2,38=5,98=1/2;
 8/6=4,10=90,11=11/1;
 10/13=10,15=4/2;
 11/6=3,8=1,9=11,15=111,16=1/1,2,10;
 10/6=1/2;
 6/7=2,8=2,9=2,10=2,18=1,28=1/1;
 7/8=1,10=1,25=1/1,2,3,16;
 1/10=4,30=1/3;
 99//99;
 ------------
 320 9000.com
 ------------
 Symbolic Z-matrix:
 Charge =  0 Multiplicity = 1
 O                     7.817     7.637     22.878 
 C                     8.27      7.868     24.22 
 C                     7.858     9.234     24.745 
 O                     8.329     10.253    23.852 
 H                     8.034     9.825     22.998 
 C                     8.297     9.499     26.176 
 O                     7.665     10.645    26.765 
 H                     7.856     10.748    27.742 
 C                     8.45      5.386     24.912 
 O                     7.998     4.752     23.706 
 H                     7.765     3.783     23.786 
 C                     7.924     6.778     25.221 
 O                     8.424     7.101     26.527 
 C                     7.943     8.333     27.084 
 O                     8.749     8.585     28.244 
 C                     8.068     8.172     29.438 
 C                     8.778     6.902     29.878 
 O                     8.528     5.851     28.933 
 H                     8.777     6.296     28.072 
 C                     8.266     6.379     31.21 
 O                     8.97      5.242     31.731 
 H                     8.521     4.775     32.493 
 C                     7.511     10.467    30.34 
 O                     7.984     11.371    29.331 
 H                     7.831     12.316    29.62 
 C                     8.208     9.142     30.6 
 O                     7.565     8.632     31.777 
 C                     8.22      7.458     32.28 
 O                     7.546     7.309     33.538 
 H                     8.57481   7.53703   22.2972 
 H                     8.18806   4.75      25.73163 
 H                     9.51754   5.44397   24.86852 
 H                     6.85739   6.7187    25.28209 
 H                     9.33851   7.8848    24.16613 
 H                     6.78866   9.26907   24.73126 
 H                     9.35734   9.64155   26.19181 
 H                     6.89901   8.29853   27.31595 
 H                     8.19473   7.22577   34.24072 
 H                     7.51127   11.0053   31.26473 
 H                     6.49238   10.24128   30.10258 
 H                     9.24447   9.31429   30.80233 
 H                     7.03648   7.97349   29.2344 
 H                     9.83052   7.08303   29.94373 
 H                     7.25637   6.06509   31.04568 
 H                     9.23378   7.7229    32.49673 
 

 GradGradGradGradGradGradGradGradGradGradGradGradGradGradGradGradGradGrad
 Berny optimization.
 Initialization pass.
 Trust Radius=3.00D-01 FncErr=1.00D-07 GrdErr=1.00D-07
 Number of steps in this run=      2 maximum allowed number of steps=      2.
 GradGradGradGradGradGradGradGradGradGradGradGradGradGradGradGradGradGrad

                          Input orientation:                          
 ---------------------------------------------------------------------
 Center     Atomic      Atomic             Coordinates (Angstroms)
 Number     Number       Type             X           Y           Z
 ---------------------------------------------------------------------
      1          8           0        7.817000    7.637000   22.878000
      2          6           0        8.270000    7.868000   24.220000
      3          6           0        7.858000    9.234000   24.745000
      4          8           0        8.329000   10.253000   23.852000
      5          1           0        8.034000    9.825000   22.998000
      6          6           0        8.297000    9.499000   26.176000
      7          8           0        7.665000   10.645000   26.765000
      8          1           0        7.856000   10.748000   27.742000
      9          6           0        8.450000    5.386000   24.912000
     10          8           0        7.998000    4.752000   23.706000
     11          1           0        7.765000    3.783000   23.786000
     12          6           0        7.924000    6.778000   25.221000
     13          8           0        8.424000    7.101000   26.527000
     14          6           0        7.943000    8.333000   27.084000
     15          8           0        8.749000    8.585000   28.244000
     16          6           0        8.068000    8.172000   29.438000
     17          6           0        8.778000    6.902000   29.878000
     18          8           0        8.528000    5.851000   28.933000
     19          1           0        8.777000    6.296000   28.072000
     20          6           0        8.266000    6.379000   31.210000
     21          8           0        8.970000    5.242000   31.731000
     22          1           0        8.521000    4.775000   32.493000
     23          6           0        7.511000   10.467000   30.340000
     24          8           0        7.984000   11.371000   29.331000
     25          1           0        7.831000   12.316000   29.620000
     26          6           0        8.208000    9.142000   30.600000
     27          8           0        7.565000    8.632000   31.777000
     28          6           0        8.220000    7.458000   32.280000
     29          8           0        7.546000    7.309000   33.538000
     30          1           0        8.574813    7.537027   22.297203
     31          1           0        8.188056    4.750001   25.731628
     32          1           0        9.517543    5.443973   24.868521
     33          1           0        6.857393    6.718698   25.282089
     34          1           0        9.338511    7.884801   24.166126
     35          1           0        6.788663    9.269066   24.731265
     36          1           0        9.357344    9.641552   26.191807
     37          1           0        6.899011    8.298530   27.315946
     38          1           0        8.194733    7.225768   34.240722
     39          1           0        7.511274   11.005299   31.264735
     40          1           0        6.492382   10.241278   30.102583
     41          1           0        9.244475    9.314290   30.802327
     42          1           0        7.036476    7.973485   29.234405
     43          1           0        9.830524    7.083034   29.943733
     44          1           0        7.256366    6.065092   31.045677
     45          1           0        9.233782    7.722904   32.496731
 ---------------------------------------------------------------------
                    Distance matrix (angstroms):
                    1          2          3          4          5
     1  O    0.000000
     2  C    1.435108   0.000000
     3  C    2.457189   1.520304   0.000000
     4  O    2.838006   2.413945   1.434451   0.000000
     5  H    2.202007   2.319230   1.852638   0.999762   0.000000
     6  C    3.817623   2.546925   1.520101   2.443464   3.205484
     7  O    4.917310   3.815073   2.471552   3.013325   3.872835
     8  H    5.773936   4.568400   3.357709   3.949792   4.836233
     9  C    3.099169   2.582942   3.896852   4.982563   4.851925
    10  O    3.006920   3.169801   4.602982   5.512883   5.122293
    11  H    3.959859   4.138914   5.535497   6.494871   6.099104
    12  C    2.497795   1.519808   2.502572   3.756835   3.773332
    13  O    3.737773   2.436032   2.836471   4.135185   4.475055
    14  C    4.265059   2.919872   2.507977   3.779050   4.350832
    15  O    5.528226   4.115350   3.668526   4.716809   5.437770
    16  C    6.586564   5.230750   4.816243   5.966748   6.648847
    17  C    7.103784   5.762307   5.712470   6.909666   7.512115
    18  O    6.352822   5.132955   5.425213   6.725605   7.159674
    19  H    5.449543   4.191198   4.532696   5.802323   6.225060
    20  C    8.438388   7.146834   7.079104   8.315769   8.908742
    21  O    9.243432   7.987553   8.122611   9.359468   9.906830
    22  H   10.056584   8.835846   8.964026  10.232899  10.765440
    23  C    7.986487   6.692181   5.739749   6.542864   7.388549
    24  O    7.457336   6.202832   5.061032   5.602534   6.519164
    25  H    8.206571   7.009809   5.767589   6.146039   7.077936
    26  C    7.877004   6.506252   5.866173   6.839917   7.634603
    27  O    8.957998   7.628170   7.063800   8.125082   8.872094
    28  C    9.412335   8.070576   7.749932   8.880039   9.580856
    29  O   10.668487   9.362787   9.006654  10.153759  10.847119
    30  H    0.960000   1.974741   3.063535   3.139161   2.453246
    31  H    4.076229   3.466072   4.603110   5.816861   5.766461
    32  H    3.415170   2.802294   4.139281   5.056945   4.989303
    33  H    2.746592   2.108171   2.759787   4.086817   4.031200
    34  H    2.008897   1.070000   2.085029   2.593483   2.613549
    35  H    2.675016   2.102080   1.070000   2.028268   2.205478
    36  H    4.167998   2.866327   2.123059   2.627938   3.461979
    37  H    4.579922   3.413187   2.899056   4.226552   4.718365
    38  H   11.376434  10.041563   9.711597  10.821631  11.540391
    39  H    9.043021   7.748974   6.764958   7.495550   8.366914
    40  H    7.793040   6.587652   5.619895   6.514836   7.281825
    41  H    8.224715   6.809433   6.214497   7.072928   7.914139
    42  H    6.412981   5.164975   4.734824   5.986409   6.581482
    43  H    7.367886   5.984357   5.961907   7.029400   7.680435
    44  H    8.336435   7.132166   7.078310   8.392741   8.916654
    45  H    9.722893   8.333919   8.016578   9.052701   9.802254
                    6          7          8          9         10
     6  C    0.000000
     7  O    1.435152   0.000000
     8  H    2.051058   1.000809   0.000000
     9  C    4.305563   5.630889   6.092026   0.000000
    10  O    5.359507   6.647994   7.229210   1.435512   0.000000
    11  H    6.218342   7.481409   8.010583   2.075261   0.999825
    12  C    2.907747   4.171895   4.703293   1.519810   2.530885
    13  O    2.426877   3.632170   3.885802   2.355871   3.695581
    14  C    1.519650   2.350402   2.504547   3.695868   4.923157
    15  O    2.305716   2.757915   2.393329   4.628739   5.987431
    16  C    3.529025   3.663750   3.091462   5.328452   6.675112
    17  C    4.547590   4.993955   4.494919   5.202595   6.582134
    18  O    4.578462   5.331738   5.084356   4.048549   5.367516
    19  H    3.752922   4.675318   4.558228   3.304637   4.696034
    20  C    5.922543   6.190152   5.593146   6.378457   7.683031
    21  O    7.030861   7.453629   6.889786   6.840314   8.098488
    22  H    7.891188   8.246188   7.661002   7.605914   8.802581
    23  C    4.346690   3.582740   2.635828   7.494095   8.769741
    24  O    3.681899   2.685739   1.711559   7.454190   8.686310
    25  H    4.473676   3.312223   2.446658   8.400793   9.602988
    26  C    4.439273   4.154646   3.297166   6.820516   8.175784
    27  O    5.714780   5.402066   4.565453   7.645127   8.965653
    28  C    6.436647   6.393764   5.616942   7.657252   8.993620
    29  O    7.717457   7.550933   6.746587   8.883863  10.169109
    30  H    4.355638   5.518013   6.361828   3.388164   3.173924
    31  H    4.770989   6.007700   6.334655   1.070000   2.034526
    32  H    4.431982   5.837742   6.257021   1.070000   2.034526
    33  H    3.256013   4.274003   4.825314   2.109372   2.766396
    34  H    2.780283   4.144090   4.814833   2.754957   3.438478
    35  H    2.101240   2.607151   3.520082   4.227400   4.787228
    36  H    1.070000   2.049264   2.425151   4.535516   5.651086
    37  H    2.166790   2.529071   2.664067   4.082567   5.178548
    38  H    8.379605   8.237608   7.399611   9.511833  10.823059
    39  H    5.364841   4.516753   3.548901   8.533169   9.822175
    40  H    4.384710   3.560546   2.772828   7.372120   8.562438
    41  H    4.725963   4.534924   3.653626   7.124507   8.527957
    42  H    3.642795   3.691882   3.255276   5.232238   6.470375
    43  H    4.731215   5.242274   4.709389   5.486721   6.906604
    44  H    6.048834   6.282255   5.762245   6.285533   7.493003
    45  H    6.632022   6.622119   5.801462   7.975186   9.361110
                   11         12         13         14         15
    11  H    0.000000
    12  C    3.324835   0.000000
    13  O    4.353905   1.435258   0.000000
    14  C    5.622365   2.426758   1.435073   0.000000
    15  O    6.625800   3.617237   2.292590   1.434831   0.000000
    16  C    7.162418   4.443767   3.122130   2.362808   1.435258
    17  C    6.918583   4.736279   3.375517   3.248295   2.345908
    18  O    5.599143   3.873382   2.713329   3.149817   2.828130
    19  H    5.070415   3.014653   1.777543   2.412689   2.295624
    20  C    7.880736   6.012012   4.740964   4.576715   3.727852
    21  O    8.167235   6.770045   5.552982   5.674823   4.835665
    22  H    8.795877   7.566400   6.404127   6.500056   5.711575
    23  C    9.364576   6.323247   5.167446   3.916901   3.076976
    24  O    9.400677   6.163712   5.127272   3.778906   3.086841
    25  H   10.336924   7.073139   6.092169   4.723148   4.081233
    26  C    8.680192   5.882414   4.560884   3.617591   2.480658
    27  O    9.349272   6.822561   5.535733   4.717683   3.726413
    28  C    9.266104   7.097852   5.767675   5.276435   4.223656
    29  O   10.372181   8.342502   7.068824   6.546778   5.576901
    30  H    4.118863   3.090027   4.254885   4.893484   6.040942
    31  H    2.213489   2.107902   2.493087   3.837558   4.618863
    32  H    2.646147   2.107902   2.586914   3.966612   4.674459
    33  H    3.417654   1.070000   2.037208   2.651678   3.979218
    34  H    4.409672   2.082933   2.650359   3.265321   4.179337
    35  H    5.651875   2.781051   3.255688   2.782818   4.080463
    36  H    6.530398   3.346173   2.727250   2.123367   2.387023
    37  H    5.796591   2.784136   2.093348   1.070000   2.089452
    38  H   11.015377   9.034887   7.718137   7.246240   6.173767
    39  H   10.399877   7.386957   6.206670   4.980573   4.063822
    40  H    9.122946   6.154160   5.135883   3.854564   3.360047
    41  H    9.056095   6.271175   4.883672   4.059892   2.705993
    42  H    6.912021   4.280690   3.164885   2.361203   2.070649
    43  H    7.285210   5.102165   3.694956   3.647360   2.512904
    44  H    7.626897   5.906000   4.780681   4.616249   4.053058
    45  H    9.672487   7.452828   6.056418   5.597856   4.366228
                   16         17         18         19         20
    16  C    0.000000
    17  C    1.520066   0.000000
    18  O    2.419435   1.435314   0.000000
    19  H    2.426523   1.904960   1.000673   0.000000
    20  C    2.528643   1.519835   2.352054   3.180417   0.000000
    21  O    3.828362   2.495210   2.897421   3.812669   1.435209
    22  H    4.591061   3.380592   3.719062   4.682330   2.069766
    23  C    2.528019   3.811556   4.931673   4.913636   4.247195
    24  O    3.201891   4.571827   5.561002   5.288625   5.341370
    25  H    4.154760   5.502251   6.538655   6.287418   6.161598
    26  C    1.520113   2.421525   3.702968   3.848930   2.830130
    27  O    2.436294   2.840857   4.092636   4.544542   2.426705
    28  C    2.934257   2.527866   3.725550   4.400881   1.520282
    29  O    4.222233   3.883178   4.929109   5.693741   2.608234
    30  H    7.186865   7.610061   6.846801   5.910102   8.993016
    31  H    5.045957   4.708666   3.402432   2.866062   5.715967
    32  H    5.515745   5.269501   4.202958   3.396562   6.531079
    33  H    4.566098   4.984449   4.107674   3.412795   6.102434
    34  H    5.430409   5.822850   5.245604   4.253873   7.282436
    35  H    4.999361   6.004111   5.688853   4.894192   7.246311
    36  H    3.789427   4.629126   4.750814   3.881320   6.084204
    37  H    2.426038   3.470593   3.355424   2.847558   4.551584
    38  H    4.896688   4.413430   5.492992   6.265511   3.147598
    39  H    3.416795   4.512725   5.747827   5.828646   4.687777
    40  H    2.684428   4.052810   4.978575   4.990788   4.391957
    41  H    2.133145   2.625095   4.000262   4.096742   3.120823
    42  H    1.070000   2.143642   2.611596   2.682269   2.820831
    43  H    2.132628   1.070000   2.058168   2.287514   2.132330
    44  H    2.771720   2.092666   2.475135   3.347895   1.070000
    45  H    3.304024   2.781973   4.086849   4.671504   2.097226
                   21         22         23         24         25
    21  O    0.000000
    22  H    1.000167   0.000000
    23  C    5.600374   6.168823   0.000000
    24  O    6.655587   7.334428   1.434931   0.000000
    25  H    7.469613   8.099192   2.009876   0.999977   0.000000
    26  C    4.131562   4.769917   1.519551   2.574680   3.343173
    27  O    3.669910   4.037702   2.331332   3.696025   4.277296
    28  C    2.403031   2.708221   3.649707   4.905493   5.552214
    29  O    3.092817   2.909262   4.494596   5.864345   6.364118
    30  H    9.716988  10.563426   8.625719   8.032603   8.775830
    31  H    6.070088   6.769611   7.374251   7.538883   8.514181
    32  H    6.887250   7.718374   7.693770   7.575957   8.523246
    33  H    6.944941   7.651326   6.329252   6.269516   7.148089
    34  H    8.021691   8.926143   6.937166   6.376849   7.186992
    35  H    8.364914   9.134668   5.780547   5.196587   5.854058
    36  H    7.084402   8.005488   4.614960   3.838176   4.608134
    37  H    5.755352   6.469003   3.771167   3.831151   4.724123
    38  H    3.291668   3.027746   5.117490   6.429053   6.884318
    39  H    5.963296   6.429993   1.070000   2.023990   2.127278
    40  H    5.812325   6.301554   1.070000   2.023990   2.515801
    41  H    4.185847   4.897647   2.132468   2.825536   3.522225
    42  H    4.175226   4.801308   2.768597   3.528489   4.431409
    43  H    2.706331   3.679760   4.121704   4.708688   5.611313
    44  H    2.020814   2.314818   4.465379   5.623364   6.437127
    45  H    2.609753   3.032855   3.892239   4.989229   5.598206
                   26         27         28         29         30
    26  C    0.000000
    27  O    1.434879   0.000000
    28  C    2.378739   1.435378   0.000000
    29  O    3.525617   2.202683   1.434936   0.000000
    30  H    8.464451   9.596106   9.989413  11.290083   0.000000
    31  H    6.556760   7.211424   7.086287   8.240155   4.439862
    32  H    6.945513   7.855127   7.789091   9.084336   3.446925
    33  H    5.998059   6.807738   7.167568   8.305583   3.539596
    34  H    6.652318   7.850417   8.201718   9.559114   2.048672
    35  H    6.039264   7.116947   7.893801   9.053950   3.480654
    36  H    4.582871   5.951981   6.567157   7.917595   4.495478
    37  H    3.634543   4.522803   5.205126   6.333382   5.345650
    38  H    4.114241   2.905852   1.974589   0.960000  11.953618
    39  H    2.097423   2.428549   3.757178   4.339536   9.673503
    40  H    2.097423   2.558116   3.933503   4.637937   8.519005
    41  H    1.070000   2.058189   2.584353   3.793404   8.714600
    42  H    2.145401   2.679136   3.307885   4.384300   7.119111
    43  H    2.702334   3.300418   2.862259   4.264840   7.762238
    44  H    3.251399   2.686839   2.095790   2.800512   8.968873
    45  H    2.581405   2.032068   1.070000   2.025874  10.222484
                   31         32         33         34         35
    31  H    0.000000
    32  H    1.730343   0.000000
    33  H    2.418372   2.978651   0.000000
    34  H    3.687997   2.546184   2.959918   0.000000
    35  H    4.835389   4.700741   2.610078   2.955892   0.000000
    36  H    5.050374   4.404137   3.952268   2.681401   2.978263
    37  H    4.094357   4.582040   2.575689   4.005458   2.763095
    38  H    8.861949   9.631343   9.072084  10.160710   9.827608
    39  H    8.378667   8.710052   7.388813   7.966589   6.798742
    40  H    7.220436   7.717586   5.981552   6.992493   5.466629
    41  H    6.903676   7.089709   6.550442   6.789068   6.549111
    42  H    4.897595   5.622728   4.150586   5.567287   4.692357
    43  H    5.087492   5.342495   5.541045   5.853687   6.418838
    44  H    5.553074   6.607266   5.814235   7.414505   7.096196
    45  H    7.463131   7.966407   7.662031   8.332837   8.286838
                   36         37         38         39         40
    36  H    0.000000
    37  H    3.018410   0.000000
    38  H    8.483673   7.126166   0.000000
    39  H    5.567977   4.826427   4.858855   0.000000
    40  H    4.884859   3.421252   5.395878   1.724084   0.000000
    41  H    4.623498   4.322941   4.157697   2.465221   2.987133
    42  H    4.174479   1.950650   5.192672   3.679615   2.488505
    43  H    4.565837   4.120250   4.600032   4.744273   4.598144
    44  H    6.384765   4.361977   3.526473   4.951627   4.348980
    45  H    6.591551   5.711658   2.090040   3.906272   4.425994
                   41         42         43         44         45
    41  H    0.000000
    42  H    3.021820   0.000000
    43  H    2.461532   3.017076   0.000000
    44  H    3.816946   2.640269   2.979391   0.000000
    45  H    2.324571   3.941283   2.698766   2.960417   0.000000
 Stoichiometry    C12H22O11
 Framework group  C1[X(C12H22O11)]
 Deg. of freedom   129
 Full point group                 C1      NOp   1
 Largest Abelian subgroup         C1      NOp   1
 Largest concise Abelian subgroup C1      NOp   1
                         Standard orientation:                         
 ---------------------------------------------------------------------
 Center     Atomic      Atomic             Coordinates (Angstroms)
 Number     Number       Type             X           Y           Z
 ---------------------------------------------------------------------
      1          8           0        5.087248   -0.242621   -0.354242
      2          6           0        3.743695   -0.066740    0.118477
      3          6           0        3.209240    1.329620   -0.156956
      4          8           0        4.095179    2.303254    0.412956
      5          1           0        4.952112    1.912374    0.077691
      6          6           0        1.776453    1.540104    0.305131
      7          8           0        1.179516    2.738829   -0.210994
      8          1           0        0.201832    2.815728   -0.011396
      9          6           0        3.068896   -2.559092    0.052038
     10          8           0        4.279243   -3.137030   -0.459573
     11          1           0        4.205945   -4.078811   -0.787178
     12          6           0        2.750253   -1.124114   -0.334128
     13          8           0        1.442063   -0.861078    0.194470
     14          6           0        0.876535    0.408534   -0.162880
     15          8           0       -0.285158    0.571705    0.663307
     16          6           0       -1.476291    0.219759   -0.055931
     17          6           0       -1.907469   -1.117151    0.524893
     18          8           0       -0.955224   -2.131788    0.172944
     19          1           0       -0.097317   -1.707631    0.465236
     20          6           0       -3.235831   -1.596198   -0.037124
     21          8           0       -3.748928   -2.800727    0.550810
     22          1           0       -4.507691   -3.226343    0.057389
     23          6           0       -2.394171    2.552277   -0.384160
     24          8           0       -1.391439    3.412078    0.176462
     25          1           0       -1.686977    4.365554    0.117342
     26          6           0       -2.644973    1.163161    0.178414
     27          8           0       -3.818433    0.711056   -0.512577
     28          6           0       -4.313276   -0.525329    0.022955
     29          8           0       -5.570234   -0.615704   -0.663288
     30          1           0        5.668745   -0.412939    0.390374
     31          1           0        2.253683   -3.171747   -0.271969
     32          1           0        3.112004   -2.606530    1.120116
     33          1           0        2.689546   -1.078212   -1.401418
     34          1           0        3.797482   -0.155171    1.183459
     35          1           0        3.222701    1.470212   -1.217594
     36          1           0        1.759690    1.577132    1.374359
     37          1           0        0.644803    0.475734   -1.205321
     38          1           0       -6.272344   -0.767435   -0.026406
     39          1           0       -3.322609    3.081532   -0.331334
     40          1           0       -2.155226    2.429894   -1.419934
     41          1           0       -2.848457    1.230853    1.226704
     42          1           0       -1.271356    0.125491   -1.101883
     43          1           0       -1.974423   -1.041402    1.590106
     44          1           0       -3.069369   -1.807724   -1.072714
     45          1           0       -4.531806   -0.363336    1.057799
 ---------------------------------------------------------------------
 Rotational constants (GHZ):      0.4085015      0.1461866      0.1106122
 Standard basis: 6-31+G(d,p) (6D, 7F)
 There are   547 symmetry adapted basis functions of A   symmetry.
 Integral buffers will be    131072 words long.
 Raffenetti 2 integral format.
 Two-electron integral symmetry is turned on.
   547 basis functions,   890 primitive gaussians,   547 cartesian basis functions
    91 alpha electrons       91 beta electrons
       nuclear repulsion energy      2289.9400117392 Hartrees.
 NAtoms=   45 NActive=   45 NUniq=   45 SFac= 1.00D+00 NAtFMM=   50 NAOKFM=F Big=F
 One-electron integrals computed using PRISM.
 NBasis=   547 RedAO= T  NBF=   547
 NBsUse=   547 1.00D-06 NBFU=   547
 Harris functional with IExCor=  402 diagonalized for initial guess.
 ExpMin= 4.38D-02 ExpMax= 5.48D+03 ExpMxC= 8.25D+02 IAcc=2 IRadAn=         0 AccDes= 0.00D+00
 HarFok:  IExCor=  402 AccDes= 0.00D+00 IRadAn=         0 IDoV= 1
 ScaDFX=  1.000000  1.000000  1.000000  1.000000
 FoFCou: FMM=F IPFlag=           0 FMFlag=      100000 FMFlg1=           0
         NFxFlg=           0 DoJE=T BraDBF=F KetDBF=T FulRan=T
         Omega=  0.000000  0.000000  1.000000  0.000000  0.000000 ICntrl=     500 IOpCl=  0
         NMat0=    1 NMatS0=    1 NMatT0=    0 NMatD0=    1 NMtDS0=    0 NMtDT0=    0
         I1Cent=           4 NGrid=           0.
 Petite list used in FoFCou.
 Initial guess orbital symmetries:
       Occupied  (A) (A) (A) (A) (A) (A) (A) (A) (A) (A) (A) (A)
                 (A) (A) (A) (A) (A) (A) (A) (A) (A) (A) (A) (A)
                 (A) (A) (A) (A) (A) (A) (A) (A) (A) (A) (A) (A)
                 (A) (A) (A) (A) (A) (A) (A) (A) (A) (A) (A) (A)
                 (A) (A) (A) (A) (A) (A) (A) (A) (A) (A) (A) (A)
                 (A) (A) (A) (A) (A) (A) (A) (A) (A) (A) (A) (A)
                 (A) (A) (A) (A) (A) (A) (A) (A) (A) (A) (A) (A)
                 (A) (A) (A) (A) (A) (A) (A)
       Virtual   (A) (A) (A) (A) (A) (A) (A) (A) (A) (A) (A) (A)
                 (A) (A) (A) (A) (A) (A) (A) (A) (A) (A) (A) (A)
                 (A) (A) (A) (A) (A) (A) (A) (A) (A) (A) (A) (A)
                 (A) (A) (A) (A) (A) (A) (A) (A) (A) (A) (A) (A)
                 (A) (A) (A) (A) (A) (A) (A) (A) (A) (A) (A) (A)
                 (A) (A) (A) (A) (A) (A) (A) (A) (A) (A) (A) (A)
                 (A) (A) (A) (A) (A) (A) (A) (A) (A) (A) (A) (A)
                 (A) (A) (A) (A) (A) (A) (A) (A) (A) (A) (A) (A)
                 (A) (A) (A) (A) (A) (A) (A) (A) (A) (A) (A) (A)
                 (A) (A) (A) (A) (A) (A) (A) (A) (A) (A) (A) (A)
                 (A) (A) (A) (A) (A) (A) (A) (A) (A) (A) (A) (A)
                 (A) (A) (A) (A) (A) (A) (A) (A) (A) (A) (A) (A)
                 (A) (A) (A) (A) (A) (A) (A) (A) (A) (A) (A) (A)
                 (A) (A) (A) (A) (A) (A) (A) (A) (A) (A) (A) (A)
                 (A) (A) (A) (A) (A) (A) (A) (A) (A) (A) (A) (A)
                 (A) (A) (A) (A) (A) (A) (A) (A) (A) (A) (A) (A)
                 (A) (A) (A) (A) (A) (A) (A) (A) (A) (A) (A) (A)
                 (A) (A) (A) (A) (A) (A) (A) (A) (A) (A) (A) (A)
                 (A) (A) (A) (A) (A) (A) (A) (A) (A) (A) (A) (A)
                 (A) (A) (A) (A) (A) (A) (A) (A) (A) (A) (A) (A)
                 (A) (A) (A) (A) (A) (A) (A) (A) (A) (A) (A) (A)
                 (A) (A) (A) (A) (A) (A) (A) (A) (A) (A) (A) (A)
                 (A) (A) (A) (A) (A) (A) (A) (A) (A) (A) (A) (A)
                 (A) (A) (A) (A) (A) (A) (A) (A) (A) (A) (A) (A)
                 (A) (A) (A) (A) (A) (A) (A) (A) (A) (A) (A) (A)
                 (A) (A) (A) (A) (A) (A) (A) (A) (A) (A) (A) (A)
                 (A) (A) (A) (A) (A) (A) (A) (A) (A) (A) (A) (A)
                 (A) (A) (A) (A) (A) (A) (A) (A) (A) (A) (A) (A)
                 (A) (A) (A) (A) (A) (A) (A) (A) (A) (A) (A) (A)
                 (A) (A) (A) (A) (A) (A) (A) (A) (A) (A) (A) (A)
                 (A) (A) (A) (A) (A) (A) (A) (A) (A) (A) (A) (A)
                 (A) (A) (A) (A) (A) (A) (A) (A) (A) (A) (A) (A)
                 (A) (A) (A) (A) (A) (A) (A) (A) (A) (A) (A) (A)
                 (A) (A) (A) (A) (A) (A) (A) (A) (A) (A) (A) (A)
                 (A) (A) (A) (A) (A) (A) (A) (A) (A) (A) (A) (A)
                 (A) (A) (A) (A) (A) (A) (A) (A) (A) (A) (A) (A)
                 (A) (A) (A) (A) (A) (A) (A) (A) (A) (A) (A) (A)
                 (A) (A) (A) (A) (A) (A) (A) (A) (A) (A) (A) (A)
 The electronic state of the initial guess is 1-A.
 Requested convergence on RMS density matrix=1.00D-08 within 128 cycles.
 Requested convergence on MAX density matrix=1.00D-06.
 Requested convergence on             energy=1.00D-06.
 No special actions if energy rises.
 SCF Done:  E(RB3LYP) =  -1297.93706859     A.U. after   14 cycles
             Convg  =    0.3126D-08             -V/T =  2.0087
 Range of M.O.s used for correlation:     1   547
 NBasis=   547 NAE=    91 NBE=    91 NFC=     0 NFV=     0
 NROrb=    547 NOA=    91 NOB=    91 NVA=   456 NVB=   456

 **** Warning!!: The largest alpha MO coefficient is  0.77342962D+02

          Differentiating once with respect to electric field.
                with respect to dipole field.
          Electric field/nuclear overlap derivatives assumed to be zero.
          There are     3 degrees of freedom in the 1st order CPHF.  IDoFFX=0.
      3 vectors produced by pass  0 Test12= 1.38D-12 3.33D-08 XBig12= 1.19D+02 1.01D+00.
 AX will form     3 AO Fock derivatives at one time.
      3 vectors produced by pass  1 Test12= 1.38D-12 3.33D-08 XBig12= 2.27D+01 3.55D-01.
      3 vectors produced by pass  2 Test12= 1.38D-12 3.33D-08 XBig12= 9.90D+00 2.25D-01.
      3 vectors produced by pass  3 Test12= 1.38D-12 3.33D-08 XBig12= 9.37D-01 8.87D-02.
      3 vectors produced by pass  4 Test12= 1.38D-12 3.33D-08 XBig12= 2.96D-01 3.83D-02.
      3 vectors produced by pass  5 Test12= 1.38D-12 3.33D-08 XBig12= 5.03D-02 1.98D-02.
      3 vectors produced by pass  6 Test12= 1.38D-12 3.33D-08 XBig12= 1.73D-02 1.36D-02.
      3 vectors produced by pass  7 Test12= 1.38D-12 3.33D-08 XBig12= 2.04D-03 7.76D-03.
      3 vectors produced by pass  8 Test12= 1.38D-12 3.33D-08 XBig12= 4.07D-04 2.20D-03.
      3 vectors produced by pass  9 Test12= 1.38D-12 3.33D-08 XBig12= 9.20D-05 1.21D-03.
      3 vectors produced by pass 10 Test12= 1.38D-12 3.33D-08 XBig12= 2.86D-05 6.22D-04.
      3 vectors produced by pass 11 Test12= 1.38D-12 3.33D-08 XBig12= 4.97D-06 3.39D-04.
      3 vectors produced by pass 12 Test12= 1.38D-12 3.33D-08 XBig12= 8.70D-07 8.34D-05.
      3 vectors produced by pass 13 Test12= 1.38D-12 3.33D-08 XBig12= 1.77D-07 2.82D-05.
      3 vectors produced by pass 14 Test12= 1.38D-12 3.33D-08 XBig12= 2.87D-08 1.11D-05.
      3 vectors produced by pass 15 Test12= 1.38D-12 3.33D-08 XBig12= 7.83D-09 6.32D-06.
      3 vectors produced by pass 16 Test12= 1.38D-12 3.33D-08 XBig12= 6.38D-10 2.79D-06.
      3 vectors produced by pass 17 Test12= 1.38D-12 3.33D-08 XBig12= 1.04D-10 7.94D-07.
      3 vectors produced by pass 18 Test12= 1.38D-12 3.33D-08 XBig12= 4.42D-11 3.91D-07.
      3 vectors produced by pass 19 Test12= 1.38D-12 3.33D-08 XBig12= 2.40D-11 5.61D-07.
      2 vectors produced by pass 20 Test12= 1.38D-12 3.33D-08 XBig12= 5.84D-12 1.74D-07.
      2 vectors produced by pass 21 Test12= 1.38D-12 3.33D-08 XBig12= 1.81D-12 1.42D-07.
 Inverted reduced A of dimension    64 with in-core refinement.
 End of Minotr Frequency-dependent properties file   721 does not exist.
 End of Minotr Frequency-dependent properties file   722 does not exist.
 Symmetrizing basis deriv contribution to polar:
 IMax=3 JMax=2 DiffMx= 0.00D+00
 G2DrvN: will do    23 centers at a time, making    2 passes doing MaxLOS=2.
 Calling FoFCou, ICntrl=  3107 FMM=F I1Cent=   0 AccDes= 0.00D+00.
 Calling FoFCou, ICntrl=  3107 FMM=F I1Cent=   0 AccDes= 0.00D+00.
 FoFDir/FoFCou used for L=0 through L=2.
 End of G2Drv Frequency-dependent properties file   721 does not exist.
 End of G2Drv Frequency-dependent properties file   722 does not exist.
          IDoAtm=111111111111111111111111111111111111111111111
          Differentiating once with respect to electric field.
                with respect to dipole field.
          Differentiating once with respect to nuclear coordinates.
          There are   138 degrees of freedom in the 1st order CPHF.  IDoFFX=5.
 Will reuse    3 saved solutions.
    135 vectors produced by pass  0 Test12= 4.15D-14 1.00D-09 XBig12= 2.21D-01 1.05D-01.
 AX will form    68 AO Fock derivatives at one time.
    135 vectors produced by pass  1 Test12= 4.15D-14 1.00D-09 XBig12= 3.44D-02 1.48D-02.
    132 vectors produced by pass  2 Test12= 4.15D-14 1.00D-09 XBig12= 2.89D-04 2.12D-03.
    132 vectors produced by pass  3 Test12= 4.15D-14 1.00D-09 XBig12= 8.68D-07 9.33D-05.
    132 vectors produced by pass  4 Test12= 4.15D-14 1.00D-09 XBig12= 1.52D-09 2.92D-06.
    132 vectors produced by pass  5 Test12= 4.15D-14 1.00D-09 XBig12= 3.26D-12 1.11D-07.
     81 vectors produced by pass  6 Test12= 4.15D-14 1.00D-09 XBig12= 1.41D-13 2.38D-08.
 Inverted reduced A of dimension   879 with in-core refinement.
 Isotropic polarizability for W=    0.000000      187.30 Bohr**3.
 End of Minotr Frequency-dependent properties file   721 does not exist.
 End of Minotr Frequency-dependent properties file   722 does not exist.

 **********************************************************************

            Population analysis using the SCF density.

 **********************************************************************

 Orbital symmetries:
       Occupied  (A) (A) (A) (A) (A) (A) (A) (A) (A) (A) (A) (A)
                 (A) (A) (A) (A) (A) (A) (A) (A) (A) (A) (A) (A)
                 (A) (A) (A) (A) (A) (A) (A) (A) (A) (A) (A) (A)
                 (A) (A) (A) (A) (A) (A) (A) (A) (A) (A) (A) (A)
                 (A) (A) (A) (A) (A) (A) (A) (A) (A) (A) (A) (A)
                 (A) (A) (A) (A) (A) (A) (A) (A) (A) (A) (A) (A)
                 (A) (A) (A) (A) (A) (A) (A) (A) (A) (A) (A) (A)
                 (A) (A) (A) (A) (A) (A) (A)
       Virtual   (A) (A) (A) (A) (A) (A) (A) (A) (A) (A) (A) (A)
                 (A) (A) (A) (A) (A) (A) (A) (A) (A) (A) (A) (A)
                 (A) (A) (A) (A) (A) (A) (A) (A) (A) (A) (A) (A)
                 (A) (A) (A) (A) (A) (A) (A) (A) (A) (A) (A) (A)
                 (A) (A) (A) (A) (A) (A) (A) (A) (A) (A) (A) (A)
                 (A) (A) (A) (A) (A) (A) (A) (A) (A) (A) (A) (A)
                 (A) (A) (A) (A) (A) (A) (A) (A) (A) (A) (A) (A)
                 (A) (A) (A) (A) (A) (A) (A) (A) (A) (A) (A) (A)
                 (A) (A) (A) (A) (A) (A) (A) (A) (A) (A) (A) (A)
                 (A) (A) (A) (A) (A) (A) (A) (A) (A) (A) (A) (A)
                 (A) (A) (A) (A) (A) (A) (A) (A) (A) (A) (A) (A)
                 (A) (A) (A) (A) (A) (A) (A) (A) (A) (A) (A) (A)
                 (A) (A) (A) (A) (A) (A) (A) (A) (A) (A) (A) (A)
                 (A) (A) (A) (A) (A) (A) (A) (A) (A) (A) (A) (A)
                 (A) (A) (A) (A) (A) (A) (A) (A) (A) (A) (A) (A)
                 (A) (A) (A) (A) (A) (A) (A) (A) (A) (A) (A) (A)
                 (A) (A) (A) (A) (A) (A) (A) (A) (A) (A) (A) (A)
                 (A) (A) (A) (A) (A) (A) (A) (A) (A) (A) (A) (A)
                 (A) (A) (A) (A) (A) (A) (A) (A) (A) (A) (A) (A)
                 (A) (A) (A) (A) (A) (A) (A) (A) (A) (A) (A) (A)
                 (A) (A) (A) (A) (A) (A) (A) (A) (A) (A) (A) (A)
                 (A) (A) (A) (A) (A) (A) (A) (A) (A) (A) (A) (A)
                 (A) (A) (A) (A) (A) (A) (A) (A) (A) (A) (A) (A)
                 (A) (A) (A) (A) (A) (A) (A) (A) (A) (A) (A) (A)
                 (A) (A) (A) (A) (A) (A) (A) (A) (A) (A) (A) (A)
                 (A) (A) (A) (A) (A) (A) (A) (A) (A) (A) (A) (A)
                 (A) (A) (A) (A) (A) (A) (A) (A) (A) (A) (A) (A)
                 (A) (A) (A) (A) (A) (A) (A) (A) (A) (A) (A) (A)
                 (A) (A) (A) (A) (A) (A) (A) (A) (A) (A) (A) (A)
                 (A) (A) (A) (A) (A) (A) (A) (A) (A) (A) (A) (A)
                 (A) (A) (A) (A) (A) (A) (A) (A) (A) (A) (A) (A)
                 (A) (A) (A) (A) (A) (A) (A) (A) (A) (A) (A) (A)
                 (A) (A) (A) (A) (A) (A) (A) (A) (A) (A) (A) (A)
                 (A) (A) (A) (A) (A) (A) (A) (A) (A) (A) (A) (A)
                 (A) (A) (A) (A) (A) (A) (A) (A) (A) (A) (A) (A)
                 (A) (A) (A) (A) (A) (A) (A) (A) (A) (A) (A) (A)
                 (A) (A) (A) (A) (A) (A) (A) (A) (A) (A) (A) (A)
                 (A) (A) (A) (A) (A) (A) (A) (A) (A) (A) (A) (A)
 The electronic state is 1-A.
 Alpha  occ. eigenvalues --  -19.20014 -19.19782 -19.19759 -19.18796 -19.18702
 Alpha  occ. eigenvalues --  -19.18371 -19.17046 -19.16976 -19.15891 -19.14806
 Alpha  occ. eigenvalues --  -19.13609 -10.31225 -10.30850 -10.26629 -10.26378
 Alpha  occ. eigenvalues --  -10.26154 -10.25689 -10.25574 -10.25514 -10.24980
 Alpha  occ. eigenvalues --  -10.24831 -10.24360 -10.24334  -1.10860  -1.09269
 Alpha  occ. eigenvalues --   -1.06009  -1.05506  -1.04869  -1.03235  -1.02920
 Alpha  occ. eigenvalues --   -1.02422  -1.02107  -1.01105  -0.99708  -0.82529
 Alpha  occ. eigenvalues --   -0.80452  -0.79571  -0.78422  -0.72203  -0.70180
 Alpha  occ. eigenvalues --   -0.67308  -0.65523  -0.63657  -0.63226  -0.61728
 Alpha  occ. eigenvalues --   -0.60060  -0.56778  -0.56250  -0.55587  -0.55024
 Alpha  occ. eigenvalues --   -0.54700  -0.53532  -0.53008  -0.52434  -0.51365
 Alpha  occ. eigenvalues --   -0.50687  -0.50070  -0.49609  -0.48857  -0.46531
 Alpha  occ. eigenvalues --   -0.46355  -0.45187  -0.44318  -0.43918  -0.43692
 Alpha  occ. eigenvalues --   -0.42926  -0.42113  -0.41192  -0.40416  -0.39540
 Alpha  occ. eigenvalues --   -0.38874  -0.37969  -0.37443  -0.37201  -0.35938
 Alpha  occ. eigenvalues --   -0.35276  -0.34910  -0.34649  -0.34121  -0.33098
 Alpha  occ. eigenvalues --   -0.32874  -0.31652  -0.31161  -0.30603  -0.30305
 Alpha  occ. eigenvalues --   -0.29656  -0.29016  -0.28366  -0.27537  -0.26657
 Alpha  occ. eigenvalues --   -0.26402
 Alpha virt. eigenvalues --   -0.02111  -0.01887  -0.01788  -0.00385   0.00154
 Alpha virt. eigenvalues --    0.00764   0.01828   0.02403   0.02762   0.03660
 Alpha virt. eigenvalues --    0.04022   0.04591   0.04772   0.05258   0.05280
 Alpha virt. eigenvalues --    0.06308   0.06479   0.07348   0.07735   0.08206
 Alpha virt. eigenvalues --    0.08380   0.08730   0.09113   0.09623   0.10117
 Alpha virt. eigenvalues --    0.10312   0.10947   0.11110   0.11726   0.11886
 Alpha virt. eigenvalues --    0.12678   0.13001   0.13038   0.13424   0.13773
 Alpha virt. eigenvalues --    0.14212   0.14251   0.14603   0.14803   0.15066
 Alpha virt. eigenvalues --    0.15657   0.16275   0.16800   0.16995   0.17181
 Alpha virt. eigenvalues --    0.17362   0.17905   0.17920   0.18208   0.18730
 Alpha virt. eigenvalues --    0.18832   0.18859   0.19259   0.19625   0.20071
 Alpha virt. eigenvalues --    0.20710   0.21112   0.21371   0.21402   0.21596
 Alpha virt. eigenvalues --    0.21865   0.22283   0.22629   0.22858   0.23238
 Alpha virt. eigenvalues --    0.23496   0.23750   0.24083   0.24318   0.24547
 Alpha virt. eigenvalues --    0.24882   0.25165   0.25593   0.25674   0.26193
 Alpha virt. eigenvalues --    0.26373   0.26669   0.26888   0.27207   0.27522
 Alpha virt. eigenvalues --    0.27635   0.27977   0.28086   0.28234   0.28587
 Alpha virt. eigenvalues --    0.29275   0.29579   0.30032   0.30411   0.30675
 Alpha virt. eigenvalues --    0.31020   0.31355   0.32088   0.32231   0.32527
 Alpha virt. eigenvalues --    0.32650   0.32946   0.33069   0.33761   0.33936
 Alpha virt. eigenvalues --    0.33963   0.34493   0.34922   0.35562   0.36045
 Alpha virt. eigenvalues --    0.36175   0.36855   0.36948   0.37249   0.37605
 Alpha virt. eigenvalues --    0.37806   0.38200   0.38787   0.39180   0.39467
 Alpha virt. eigenvalues --    0.40084   0.40421   0.40705   0.41230   0.41733
 Alpha virt. eigenvalues --    0.41903   0.42575   0.42755   0.43239   0.44217
 Alpha virt. eigenvalues --    0.44983   0.45381   0.45580   0.46650   0.47112
 Alpha virt. eigenvalues --    0.47707   0.48465   0.48781   0.49159   0.51062
 Alpha virt. eigenvalues --    0.51468   0.52003   0.55287   0.62526   0.63756
 Alpha virt. eigenvalues --    0.64600   0.66471   0.67296   0.68566   0.69426
 Alpha virt. eigenvalues --    0.70449   0.71990   0.72788   0.73765   0.74557
 Alpha virt. eigenvalues --    0.75356   0.75609   0.76537   0.77724   0.78749
 Alpha virt. eigenvalues --    0.79276   0.80775   0.82063   0.82624   0.83177
 Alpha virt. eigenvalues --    0.85138   0.86616   0.88027   0.88527   0.89537
 Alpha virt. eigenvalues --    0.90107   0.90797   0.93200   0.93405   0.94935
 Alpha virt. eigenvalues --    0.95637   0.96719   0.97786   0.99606   1.00467
 Alpha virt. eigenvalues --    1.01144   1.01890   1.02473   1.03014   1.04375
 Alpha virt. eigenvalues --    1.04788   1.05507   1.06749   1.07436   1.07824
 Alpha virt. eigenvalues --    1.08233   1.08501   1.08980   1.09845   1.11041
 Alpha virt. eigenvalues --    1.11201   1.12312   1.12777   1.13750   1.15845
 Alpha virt. eigenvalues --    1.17420   1.18485   1.18659   1.19829   1.20984
 Alpha virt. eigenvalues --    1.22062   1.22641   1.22990   1.23777   1.24739
 Alpha virt. eigenvalues --    1.25469   1.26716   1.27544   1.27777   1.28431
 Alpha virt. eigenvalues --    1.28887   1.29499   1.30105   1.30634   1.31954
 Alpha virt. eigenvalues --    1.32460   1.32626   1.33544   1.33976   1.35150
 Alpha virt. eigenvalues --    1.35750   1.36764   1.37073   1.37717   1.38582
 Alpha virt. eigenvalues --    1.39154   1.40277   1.41912   1.42229   1.43833
 Alpha virt. eigenvalues --    1.44914   1.45912   1.46309   1.46693   1.47642
 Alpha virt. eigenvalues --    1.48465   1.49207   1.50957   1.51572   1.51833
 Alpha virt. eigenvalues --    1.52522   1.55630   1.56970   1.57188   1.57657
 Alpha virt. eigenvalues --    1.57781   1.59143   1.60320   1.60595   1.61163
 Alpha virt. eigenvalues --    1.63002   1.63401   1.63809   1.64916   1.65741
 Alpha virt. eigenvalues --    1.66545   1.67114   1.68693   1.69674   1.69928
 Alpha virt. eigenvalues --    1.71190   1.71432   1.72645   1.73599   1.74088
 Alpha virt. eigenvalues --    1.74189   1.75817   1.76213   1.76744   1.77598
 Alpha virt. eigenvalues --    1.79061   1.79578   1.80061   1.81107   1.82041
 Alpha virt. eigenvalues --    1.83420   1.84272   1.85720   1.86132   1.86429
 Alpha virt. eigenvalues --    1.87663   1.88502   1.89147   1.90403   1.90561
 Alpha virt. eigenvalues --    1.91305   1.92734   1.92806   1.93403   1.94142
 Alpha virt. eigenvalues --    1.94233   1.96293   1.96675   1.97171   1.98091
 Alpha virt. eigenvalues --    1.99773   2.01128   2.01429   2.01803   2.02214
 Alpha virt. eigenvalues --    2.02971   2.03863   2.04939   2.05826   2.06969
 Alpha virt. eigenvalues --    2.07545   2.08387   2.08897   2.09141   2.10860
 Alpha virt. eigenvalues --    2.12589   2.12900   2.13770   2.14973   2.16247
 Alpha virt. eigenvalues --    2.16856   2.17397   2.18634   2.19922   2.20872
 Alpha virt. eigenvalues --    2.21166   2.22181   2.24515   2.25252   2.27878
 Alpha virt. eigenvalues --    2.29941   2.30896   2.32489   2.32852   2.35488
 Alpha virt. eigenvalues --    2.36668   2.38443   2.38883   2.39552   2.39833
 Alpha virt. eigenvalues --    2.42154   2.43123   2.44004   2.44695   2.45594
 Alpha virt. eigenvalues --    2.45950   2.47107   2.48106   2.48343   2.49508
 Alpha virt. eigenvalues --    2.50975   2.51474   2.52888   2.53455   2.54602
 Alpha virt. eigenvalues --    2.55538   2.56840   2.58293   2.59097   2.59760
 Alpha virt. eigenvalues --    2.60642   2.61625   2.62461   2.63016   2.63528
 Alpha virt. eigenvalues --    2.64747   2.66330   2.66504   2.68865   2.69023
 Alpha virt. eigenvalues --    2.71160   2.71866   2.72792   2.72954   2.74855
 Alpha virt. eigenvalues --    2.77404   2.77436   2.78593   2.79617   2.80504
 Alpha virt. eigenvalues --    2.81235   2.82745   2.83140   2.84367   2.85030
 Alpha virt. eigenvalues --    2.86982   2.87423   2.87562   2.88860   2.90267
 Alpha virt. eigenvalues --    2.90821   2.92233   2.93092   2.93466   2.95150
 Alpha virt. eigenvalues --    2.95779   2.97139   2.97866   2.99571   3.00155
 Alpha virt. eigenvalues --    3.01517   3.02957   3.04288   3.05057   3.05952
 Alpha virt. eigenvalues --    3.08752   3.08850   3.10257   3.11233   3.13422
 Alpha virt. eigenvalues --    3.16791   3.18468   3.23191   3.26143   3.29539
 Alpha virt. eigenvalues --    3.31967   3.36539   3.37258   3.38832   3.40436
 Alpha virt. eigenvalues --    3.41638   3.44000   3.45536   3.46525   3.47010
 Alpha virt. eigenvalues --    3.50074   3.50788   3.52273   3.52694   3.55184
 Alpha virt. eigenvalues --    3.56498   3.57274   3.61260   3.61705   3.63510
 Alpha virt. eigenvalues --    3.66817   3.71236   3.72928   4.30186   4.34144
 Alpha virt. eigenvalues --    4.34613   4.35447   4.39429   4.43398   4.46823
 Alpha virt. eigenvalues --    4.47451   4.49958   4.51911   4.54057   4.56205
 Alpha virt. eigenvalues --    4.57589   4.60641   4.63215   4.65061   4.71315
 Alpha virt. eigenvalues --    4.79050   4.80097   4.84529   4.86333   4.88771
 Alpha virt. eigenvalues --    4.93339
          Condensed to atoms (all electrons):
              1          2          3          4          5          6
     1  O    8.225119   0.506779  -0.222909  -0.017172   0.038437   0.029419
     2  C    0.506779   9.241702  -2.431856  -0.022583  -0.071281  -2.015181
     3  C   -0.222909  -2.431856  10.446625   0.237675  -0.010647   0.178385
     4  O   -0.017172  -0.022583   0.237675   8.216026   0.191495  -0.143188
     5  H    0.038437  -0.071281  -0.010647   0.191495   0.437403   0.054366
     6  C    0.029419  -2.015181   0.178385  -0.143188   0.054366  10.938378
     7  O   -0.000588   0.042316  -0.198200   0.007774  -0.000694   0.326507
     8  H    0.000019  -0.009413   0.030761  -0.000433   0.000010   0.017256
     9  C   -0.025358   0.099858  -0.322401   0.006513  -0.003590   0.399003
    10  O   -0.004002   0.037090   0.010970  -0.000003  -0.000033  -0.002119
    11  H    0.001197  -0.012580  -0.000983   0.000001   0.000000   0.000814
    12  C   -0.218114  -1.439166  -0.159797  -0.002874   0.033681   0.337213
    13  O    0.003334  -0.021710  -0.018415  -0.000383   0.000080  -0.101823
    14  C    0.017278   1.297464  -0.758717   0.043515  -0.009853  -3.047769
    15  O    0.000345  -0.041750   0.023416  -0.000728   0.000124   0.163100
    16  C    0.005042   0.192183  -0.508786  -0.000407   0.001487  -0.632604
    17  C    0.000568  -0.001406  -0.041939   0.000563   0.000119   0.177914
    18  O    0.000004   0.010781  -0.002509  -0.000010   0.000000   0.004990
    19  H   -0.000021  -0.009043   0.008515  -0.000007   0.000000   0.015199
    20  C    0.000052  -0.000415  -0.007880  -0.000052   0.000004   0.060618
    21  O    0.000000  -0.000050  -0.000016   0.000000   0.000000  -0.000198
    22  H    0.000000   0.000001   0.000002   0.000000   0.000000  -0.000039
    23  C    0.000057   0.016405  -0.018904   0.000452  -0.000006  -0.256079
    24  O   -0.000004   0.006061  -0.010520  -0.000126  -0.000004  -0.012096
    25  H    0.000000  -0.000031   0.000833   0.000000   0.000000  -0.000203
    26  C    0.000031   0.050414  -0.116816   0.000665  -0.000001  -0.430248
    27  O    0.000000  -0.000493   0.000916   0.000000   0.000000   0.007154
    28  C    0.000006  -0.002358  -0.000834  -0.000004   0.000000   0.015050
    29  O    0.000000  -0.000006   0.000055   0.000000   0.000000  -0.000246
    30  H    0.248716   0.000556   0.005505   0.001456  -0.004227   0.004654
    31  H    0.000527  -0.004999  -0.002095   0.000017   0.000000  -0.000628
    32  H   -0.000825  -0.006931  -0.009151  -0.000021   0.000000   0.013123
    33  H    0.006056   0.056188  -0.062554   0.000106  -0.000034  -0.018587
    34  H   -0.052736   0.495268  -0.111761   0.000872  -0.001349  -0.029879
    35  H   -0.004716   0.189365   0.170173  -0.040664  -0.006022  -0.287704
    36  H   -0.000931   0.102594  -0.224489   0.005703  -0.000092   0.251865
    37  H    0.000008   0.030606  -0.051446  -0.000261   0.000007  -0.040417
    38  H    0.000000   0.000000   0.000000   0.000000   0.000000   0.000001
    39  H    0.000000   0.000026   0.000048   0.000000   0.000000   0.000885
    40  H    0.000000  -0.000182   0.000321   0.000001   0.000000   0.001476
    41  H    0.000000  -0.000165   0.001168   0.000000   0.000000   0.006334
    42  H   -0.000003  -0.001557   0.004803  -0.000002   0.000000   0.027481
    43  H    0.000000   0.000484   0.000673  -0.000001   0.000000   0.003984
    44  H    0.000000   0.000029   0.000126   0.000000   0.000000   0.000240
    45  H    0.000000  -0.000005   0.000025   0.000000   0.000000   0.000147
              7          8          9         10         11         12
     1  O   -0.000588   0.000019  -0.025358  -0.004002   0.001197  -0.218114
     2  C    0.042316  -0.009413   0.099858   0.037090  -0.012580  -1.439166
     3  C   -0.198200   0.030761  -0.322401   0.010970  -0.000983  -0.159797
     4  O    0.007774  -0.000433   0.006513  -0.000003   0.000001  -0.002874
     5  H   -0.000694   0.000010  -0.003590  -0.000033   0.000000   0.033681
     6  C    0.326507   0.017256   0.399003  -0.002119   0.000814   0.337213
     7  O    8.262493   0.207814  -0.000494   0.000024   0.000000   0.019422
     8  H    0.207814   0.332832   0.000310   0.000000   0.000000  -0.000757
     9  C   -0.000494   0.000310   8.578422   0.152012   0.030803  -3.294096
    10  O    0.000024   0.000000   0.152012   8.345039   0.216231  -0.079863
    11  H    0.000000   0.000000   0.030803   0.216231   0.412339  -0.003871
    12  C    0.019422  -0.000757  -3.294096  -0.079863  -0.003871  12.130735
    13  O    0.008576   0.000556   0.125263   0.000017  -0.000214  -0.257546
    14  C   -0.110260  -0.043663  -0.460593  -0.003234  -0.003364  -0.843267
    15  O   -0.008626   0.028510  -0.019461  -0.000156   0.000003   0.053902
    16  C    0.044569   0.006794  -0.297731  -0.004751  -0.000272   0.009456
    17  C    0.010815   0.000754  -0.021748   0.000244  -0.000022  -0.145374
    18  O   -0.000402  -0.000016   0.010974   0.000001   0.000004  -0.024692
    19  H    0.000004  -0.000015  -0.006364  -0.000025  -0.000002   0.013783
    20  C    0.003216   0.001578   0.005798   0.000091   0.000012  -0.032423
    21  O   -0.000010   0.000000   0.000211   0.000000   0.000000  -0.000029
    22  H    0.000000   0.000000  -0.000001   0.000000   0.000000   0.000053
    23  C    0.017354   0.035291   0.000660  -0.000012   0.000000  -0.007444
    24  O   -0.022634  -0.016138   0.000353   0.000000   0.000000   0.000957
    25  H    0.001288   0.000154  -0.000005   0.000000   0.000000  -0.000203
    26  C   -0.005959  -0.051454  -0.010924  -0.000101  -0.000002   0.058072
    27  O    0.000070   0.000087  -0.000056   0.000000   0.000000   0.000660
    28  C    0.000332  -0.000362  -0.003498  -0.000011  -0.000001   0.001378
    29  O   -0.000009   0.000000   0.000005   0.000000   0.000000   0.000111
    30  H   -0.000031   0.000000  -0.002333  -0.001566  -0.000029  -0.002757
    31  H   -0.000013   0.000000   0.370614  -0.035202  -0.013576  -0.000919
    32  H    0.000005   0.000000   0.717459  -0.069770   0.002762  -0.353770
    33  H    0.000035   0.000003   0.065941   0.006712   0.000030   0.110435
    34  H    0.000243   0.000004   0.022149  -0.000145   0.000000  -0.198292
    35  H    0.007510  -0.000020   0.015175   0.000115   0.000001  -0.059054
    36  H   -0.041622  -0.004098   0.008047   0.000025   0.000000  -0.013590
    37  H    0.001162  -0.001234   0.005289   0.000067   0.000000  -0.014592
    38  H    0.000000   0.000000   0.000000   0.000000   0.000000   0.000001
    39  H   -0.000447   0.000273  -0.000004   0.000000   0.000000  -0.000066
    40  H    0.001556   0.000694   0.000029   0.000000   0.000000   0.000788
    41  H   -0.000029   0.000078   0.000071   0.000000   0.000000   0.000788
    42  H   -0.001314   0.000196  -0.000040   0.000003   0.000000   0.003911
    43  H   -0.000046   0.000011   0.000163   0.000000   0.000000   0.001888
    44  H    0.000001   0.000000  -0.000134   0.000000   0.000000   0.000484
    45  H    0.000000   0.000000  -0.000001   0.000000   0.000000   0.000024
             13         14         15         16         17         18
     1  O    0.003334   0.017278   0.000345   0.005042   0.000568   0.000004
     2  C   -0.021710   1.297464  -0.041750   0.192183  -0.001406   0.010781
     3  C   -0.018415  -0.758717   0.023416  -0.508786  -0.041939  -0.002509
     4  O   -0.000383   0.043515  -0.000728  -0.000407   0.000563  -0.000010
     5  H    0.000080  -0.009853   0.000124   0.001487   0.000119   0.000000
     6  C   -0.101823  -3.047769   0.163100  -0.632604   0.177914   0.004990
     7  O    0.008576  -0.110260  -0.008626   0.044569   0.010815  -0.000402
     8  H    0.000556  -0.043663   0.028510   0.006794   0.000754  -0.000016
     9  C    0.125263  -0.460593  -0.019461  -0.297731  -0.021748   0.010974
    10  O    0.000017  -0.003234  -0.000156  -0.004751   0.000244   0.000001
    11  H   -0.000214  -0.003364   0.000003  -0.000272  -0.000022   0.000004
    12  C   -0.257546  -0.843267   0.053902   0.009456  -0.145374  -0.024692
    13  O    8.501041   0.235752  -0.018820   0.074465  -0.109181   0.031335
    14  C    0.235752  11.878003   0.010307  -0.923189  -0.613480  -0.087009
    15  O   -0.018820   0.010307   8.305545  -0.007148  -0.014745  -0.006713
    16  C    0.074465  -0.923189  -0.007148  15.089210  -2.432388  -0.084375
    17  C   -0.109181  -0.613480  -0.014745  -2.432388   8.521724   0.332254
    18  O    0.031335  -0.087009  -0.006713  -0.084375   0.332254   8.215841
    19  H    0.004928  -0.010247   0.025967  -0.110322   0.080473   0.174830
    20  C   -0.011642  -0.462099   0.030277  -1.784929  -0.133671  -0.120639
    21  O   -0.000178   0.003817   0.000204   0.019094  -0.133246   0.004528
    22  H   -0.000006  -0.000045   0.000029  -0.011438   0.032859  -0.000954
    23  C    0.022696  -0.085486  -0.012810  -0.111046  -0.303537   0.007021
    24  O   -0.001105   0.070770   0.001198   0.016049  -0.004942   0.000099
    25  H    0.000014  -0.008670   0.000916  -0.007508  -0.000013   0.000001
    26  C   -0.004257  -1.333485  -0.053094  -4.390392   0.322348   0.061722
    27  O    0.000222   0.023735   0.008860  -0.037348  -0.018932   0.001044
    28  C    0.000271   0.067270   0.010467   1.074446   0.198689   0.015883
    29  O    0.000017   0.003578   0.000303  -0.009109   0.028629  -0.000082
    30  H   -0.000666  -0.000904  -0.000010   0.000266  -0.000077   0.000000
    31  H   -0.001709   0.002110  -0.000213   0.008369  -0.000334  -0.001033
    32  H    0.009441  -0.002130  -0.000410  -0.007329   0.001334   0.000210
    33  H   -0.037509   0.102335  -0.001335   0.005164   0.004795   0.000300
    34  H    0.013279   0.086426  -0.000737   0.000943   0.001136   0.000078
    35  H    0.007167   0.198033  -0.000973   0.019468   0.000946   0.000038
    36  H    0.014378   0.083333  -0.015991   0.056277   0.002744   0.000116
    37  H   -0.054676   0.298435  -0.065222   0.027961   0.052606  -0.001070
    38  H    0.000000   0.000268   0.000002  -0.001569  -0.003686  -0.000037
    39  H   -0.000001  -0.001176   0.000215   0.015780  -0.001861   0.000032
    40  H    0.000111   0.008633   0.000946   0.019765   0.010772  -0.000005
    41  H   -0.000234   0.075043   0.006397   0.126151   0.026683  -0.000362
    42  H   -0.000113   0.043351  -0.065149   0.325864   0.058721  -0.002665
    43  H    0.003152   0.066276  -0.010092   0.091203   0.307773  -0.038048
    44  H    0.000466   0.014178  -0.001217   0.158002  -0.137182   0.001950
    45  H    0.000015   0.009029  -0.000118   0.169573   0.003487  -0.000671
             19         20         21         22         23         24
     1  O   -0.000021   0.000052   0.000000   0.000000   0.000057  -0.000004
     2  C   -0.009043  -0.000415  -0.000050   0.000001   0.016405   0.006061
     3  C    0.008515  -0.007880  -0.000016   0.000002  -0.018904  -0.010520
     4  O   -0.000007  -0.000052   0.000000   0.000000   0.000452  -0.000126
     5  H    0.000000   0.000004   0.000000   0.000000  -0.000006  -0.000004
     6  C    0.015199   0.060618  -0.000198  -0.000039  -0.256079  -0.012096
     7  O    0.000004   0.003216  -0.000010   0.000000   0.017354  -0.022634
     8  H   -0.000015   0.001578   0.000000   0.000000   0.035291  -0.016138
     9  C   -0.006364   0.005798   0.000211  -0.000001   0.000660   0.000353
    10  O   -0.000025   0.000091   0.000000   0.000000  -0.000012   0.000000
    11  H   -0.000002   0.000012   0.000000   0.000000   0.000000   0.000000
    12  C    0.013783  -0.032423  -0.000029   0.000053  -0.007444   0.000957
    13  O    0.004928  -0.011642  -0.000178  -0.000006   0.022696  -0.001105
    14  C   -0.010247  -0.462099   0.003817  -0.000045  -0.085486   0.070770
    15  O    0.025967   0.030277   0.000204   0.000029  -0.012810   0.001198
    16  C   -0.110322  -1.784929   0.019094  -0.011438  -0.111046   0.016049
    17  C    0.080473  -0.133671  -0.133246   0.032859  -0.303537  -0.004942
    18  O    0.174830  -0.120639   0.004528  -0.000954   0.007021   0.000099
    19  H    0.382957   0.021526  -0.000947   0.000022  -0.005502  -0.000005
    20  C    0.021526   8.350368   0.241795   0.008222   0.021023  -0.006631
    21  O   -0.000947   0.241795   8.257413   0.218861   0.002739   0.000032
    22  H    0.000022   0.008222   0.218861   0.417373   0.000083   0.000000
    23  C   -0.005502   0.021023   0.002739   0.000083   6.537440  -0.022724
    24  O   -0.000005  -0.006631   0.000032   0.000000  -0.022724   8.493133
    25  H    0.000000   0.000717   0.000000   0.000000   0.003871   0.219013
    26  C    0.014250   1.191932   0.009626   0.007153  -0.602194  -0.000786
    27  O    0.000119  -0.155739   0.009139  -0.000209  -0.072522   0.002479
    28  C   -0.005747  -1.225124  -0.075143  -0.029641  -0.136450   0.008094
    29  O    0.000018  -0.138276   0.008315   0.008725  -0.006457   0.000067
    30  H    0.000000   0.000001   0.000000   0.000000   0.000003   0.000000
    31  H    0.000417  -0.001095  -0.000003   0.000000  -0.000001   0.000000
    32  H   -0.000030   0.000226   0.000000   0.000000   0.000004   0.000000
    33  H    0.000139   0.000779   0.000000   0.000000   0.000353   0.000005
    34  H   -0.000009   0.000069   0.000000   0.000000   0.000133   0.000006
    35  H   -0.000003   0.000061   0.000000   0.000000   0.001495   0.000128
    36  H   -0.000035   0.000963   0.000000   0.000000   0.008423   0.000918
    37  H    0.000328   0.014805   0.000000   0.000000   0.007818   0.000619
    38  H    0.000000   0.001363  -0.001895  -0.000452  -0.000891  -0.000002
    39  H    0.000000   0.001289  -0.000006   0.000000   0.446862  -0.038926
    40  H    0.000001  -0.005729  -0.000005   0.000000   0.558638  -0.073563
    41  H    0.000017  -0.065087   0.000047   0.000003  -0.012934   0.006762
    42  H   -0.000740   0.002285  -0.000712   0.000006   0.001855   0.000073
    43  H   -0.007951  -0.100886   0.000572  -0.000121   0.020483  -0.000014
    44  H    0.000043   0.324807  -0.044209  -0.007867   0.013859  -0.000004
    45  H    0.000006  -0.222142   0.007285  -0.000509  -0.003432   0.000066
             25         26         27         28         29         30
     1  O    0.000000   0.000031   0.000000   0.000006   0.000000   0.248716
     2  C   -0.000031   0.050414  -0.000493  -0.002358  -0.000006   0.000556
     3  C    0.000833  -0.116816   0.000916  -0.000834   0.000055   0.005505
     4  O    0.000000   0.000665   0.000000  -0.000004   0.000000   0.001456
     5  H    0.000000  -0.000001   0.000000   0.000000   0.000000  -0.004227
     6  C   -0.000203  -0.430248   0.007154   0.015050  -0.000246   0.004654
     7  O    0.001288  -0.005959   0.000070   0.000332  -0.000009  -0.000031
     8  H    0.000154  -0.051454   0.000087  -0.000362   0.000000   0.000000
     9  C   -0.000005  -0.010924  -0.000056  -0.003498   0.000005  -0.002333
    10  O    0.000000  -0.000101   0.000000  -0.000011   0.000000  -0.001566
    11  H    0.000000  -0.000002   0.000000  -0.000001   0.000000  -0.000029
    12  C   -0.000203   0.058072   0.000660   0.001378   0.000111  -0.002757
    13  O    0.000014  -0.004257   0.000222   0.000271   0.000017  -0.000666
    14  C   -0.008670  -1.333485   0.023735   0.067270   0.003578  -0.000904
    15  O    0.000916  -0.053094   0.008860   0.010467   0.000303  -0.000010
    16  C   -0.007508  -4.390392  -0.037348   1.074446  -0.009109   0.000266
    17  C   -0.000013   0.322348  -0.018932   0.198689   0.028629  -0.000077
    18  O    0.000001   0.061722   0.001044   0.015883  -0.000082   0.000000
    19  H    0.000000   0.014250   0.000119  -0.005747   0.000018   0.000000
    20  C    0.000717   1.191932  -0.155739  -1.225124  -0.138276   0.000001
    21  O    0.000000   0.009626   0.009139  -0.075143   0.008315   0.000000
    22  H    0.000000   0.007153  -0.000209  -0.029641   0.008725   0.000000
    23  C    0.003871  -0.602194  -0.072522  -0.136450  -0.006457   0.000003
    24  O    0.219013  -0.000786   0.002479   0.008094   0.000067   0.000000
    25  H    0.385952   0.023138  -0.000309  -0.001749   0.000001   0.000000
    26  C    0.023138  13.068011   0.266291  -1.387609  -0.082676  -0.000005
    27  O   -0.000309   0.266291   8.383854   0.042358  -0.088945   0.000000
    28  C   -0.001749  -1.387609   0.042358   6.356506   0.435681   0.000000
    29  O    0.000001  -0.082676  -0.088945   0.435681   8.211119   0.000000
    30  H    0.000000  -0.000005   0.000000   0.000000   0.000000   0.382795
    31  H    0.000000   0.000211   0.000001   0.000121   0.000000  -0.000019
    32  H    0.000000  -0.000170   0.000000  -0.000026   0.000000   0.000146
    33  H    0.000000  -0.000440  -0.000001  -0.000076   0.000000  -0.000091
    34  H    0.000000   0.000165   0.000000  -0.000012   0.000000  -0.012110
    35  H    0.000000   0.001068   0.000000  -0.000027   0.000000  -0.000056
    36  H    0.000002   0.003959  -0.000006  -0.000287   0.000000   0.000016
    37  H    0.000006   0.012206   0.000054  -0.002075  -0.000005   0.000001
    38  H    0.000000   0.013175   0.003313  -0.002313   0.230751   0.000000
    39  H   -0.011499  -0.078555  -0.006143  -0.000501  -0.000325   0.000000
    40  H   -0.000257  -0.258440   0.011278   0.009423  -0.000006   0.000000
    41  H   -0.000193   0.046182  -0.036367   0.056678  -0.000367   0.000000
    42  H   -0.000010  -0.172653   0.005342   0.008041  -0.000234   0.000000
    43  H    0.000000  -0.102916   0.002759  -0.002510  -0.000189   0.000000
    44  H    0.000000  -0.069628   0.005081  -0.020524  -0.003553   0.000000
    45  H    0.000000  -0.141472  -0.057738   0.512731  -0.061555   0.000000
             31         32         33         34         35         36
     1  O    0.000527  -0.000825   0.006056  -0.052736  -0.004716  -0.000931
     2  C   -0.004999  -0.006931   0.056188   0.495268   0.189365   0.102594
     3  C   -0.002095  -0.009151  -0.062554  -0.111761   0.170173  -0.224489
     4  O    0.000017  -0.000021   0.000106   0.000872  -0.040664   0.005703
     5  H    0.000000   0.000000  -0.000034  -0.001349  -0.006022  -0.000092
     6  C   -0.000628   0.013123  -0.018587  -0.029879  -0.287704   0.251865
     7  O   -0.000013   0.000005   0.000035   0.000243   0.007510  -0.041622
     8  H    0.000000   0.000000   0.000003   0.000004  -0.000020  -0.004098
     9  C    0.370614   0.717459   0.065941   0.022149   0.015175   0.008047
    10  O   -0.035202  -0.069770   0.006712  -0.000145   0.000115   0.000025
    11  H   -0.013576   0.002762   0.000030   0.000000   0.000001   0.000000
    12  C   -0.000919  -0.353770   0.110435  -0.198292  -0.059054  -0.013590
    13  O   -0.001709   0.009441  -0.037509   0.013279   0.007167   0.014378
    14  C    0.002110  -0.002130   0.102335   0.086426   0.198033   0.083333
    15  O   -0.000213  -0.000410  -0.001335  -0.000737  -0.000973  -0.015991
    16  C    0.008369  -0.007329   0.005164   0.000943   0.019468   0.056277
    17  C   -0.000334   0.001334   0.004795   0.001136   0.000946   0.002744
    18  O   -0.001033   0.000210   0.000300   0.000078   0.000038   0.000116
    19  H    0.000417  -0.000030   0.000139  -0.000009  -0.000003  -0.000035
    20  C   -0.001095   0.000226   0.000779   0.000069   0.000061   0.000963
    21  O   -0.000003   0.000000   0.000000   0.000000   0.000000   0.000000
    22  H    0.000000   0.000000   0.000000   0.000000   0.000000   0.000000
    23  C   -0.000001   0.000004   0.000353   0.000133   0.001495   0.008423
    24  O    0.000000   0.000000   0.000005   0.000006   0.000128   0.000918
    25  H    0.000000   0.000000   0.000000   0.000000   0.000000   0.000002
    26  C    0.000211  -0.000170  -0.000440   0.000165   0.001068   0.003959
    27  O    0.000001   0.000000  -0.000001   0.000000   0.000000  -0.000006
    28  C    0.000121  -0.000026  -0.000076  -0.000012  -0.000027  -0.000287
    29  O    0.000000   0.000000   0.000000   0.000000   0.000000   0.000000
    30  H   -0.000019   0.000146  -0.000091  -0.012110  -0.000056   0.000016
    31  H    0.589105  -0.044716  -0.008210  -0.000016   0.000004   0.000001
    32  H   -0.044716   0.599093   0.006858   0.005727   0.000006  -0.000005
    33  H   -0.008210   0.006858   0.617438   0.007348   0.003679   0.000027
    34  H   -0.000016   0.005727   0.007348   0.629674   0.007240   0.003189
    35  H    0.000004   0.000006   0.003679   0.007240   0.629000   0.007001
    36  H    0.000001  -0.000005   0.000027   0.003189   0.007001   0.599689
    37  H   -0.000018  -0.000004   0.005114   0.000035   0.002370   0.004742
    38  H    0.000000   0.000000   0.000000   0.000000   0.000000   0.000000
    39  H    0.000000   0.000000   0.000000   0.000000   0.000000   0.000001
    40  H    0.000000   0.000000   0.000000   0.000000   0.000000  -0.000006
    41  H    0.000000   0.000000   0.000000   0.000000   0.000000  -0.000012
    42  H    0.000000   0.000000  -0.000007   0.000000  -0.000007  -0.000028
    43  H    0.000000   0.000001   0.000000   0.000000   0.000000  -0.000015
    44  H    0.000000   0.000000   0.000000   0.000000   0.000000   0.000000
    45  H    0.000000   0.000000   0.000000   0.000000   0.000000   0.000000
             37         38         39         40         41         42
     1  O    0.000008   0.000000   0.000000   0.000000   0.000000  -0.000003
     2  C    0.030606   0.000000   0.000026  -0.000182  -0.000165  -0.001557
     3  C   -0.051446   0.000000   0.000048   0.000321   0.001168   0.004803
     4  O   -0.000261   0.000000   0.000000   0.000001   0.000000  -0.000002
     5  H    0.000007   0.000000   0.000000   0.000000   0.000000   0.000000
     6  C   -0.040417   0.000001   0.000885   0.001476   0.006334   0.027481
     7  O    0.001162   0.000000  -0.000447   0.001556  -0.000029  -0.001314
     8  H   -0.001234   0.000000   0.000273   0.000694   0.000078   0.000196
     9  C    0.005289   0.000000  -0.000004   0.000029   0.000071  -0.000040
    10  O    0.000067   0.000000   0.000000   0.000000   0.000000   0.000003
    11  H    0.000000   0.000000   0.000000   0.000000   0.000000   0.000000
    12  C   -0.014592   0.000001  -0.000066   0.000788   0.000788   0.003911
    13  O   -0.054676   0.000000  -0.000001   0.000111  -0.000234  -0.000113
    14  C    0.298435   0.000268  -0.001176   0.008633   0.075043   0.043351
    15  O   -0.065222   0.000002   0.000215   0.000946   0.006397  -0.065149
    16  C    0.027961  -0.001569   0.015780   0.019765   0.126151   0.325864
    17  C    0.052606  -0.003686  -0.001861   0.010772   0.026683   0.058721
    18  O   -0.001070  -0.000037   0.000032  -0.000005  -0.000362  -0.002665
    19  H    0.000328   0.000000   0.000000   0.000001   0.000017  -0.000740
    20  C    0.014805   0.001363   0.001289  -0.005729  -0.065087   0.002285
    21  O    0.000000  -0.001895  -0.000006  -0.000005   0.000047  -0.000712
    22  H    0.000000  -0.000452   0.000000   0.000000   0.000003   0.000006
    23  C    0.007818  -0.000891   0.446862   0.558638  -0.012934   0.001855
    24  O    0.000619  -0.000002  -0.038926  -0.073563   0.006762   0.000073
    25  H    0.000006   0.000000  -0.011499  -0.000257  -0.000193  -0.000010
    26  C    0.012206   0.013175  -0.078555  -0.258440   0.046182  -0.172653
    27  O    0.000054   0.003313  -0.006143   0.011278  -0.036367   0.005342
    28  C   -0.002075  -0.002313  -0.000501   0.009423   0.056678   0.008041
    29  O   -0.000005   0.230751  -0.000325  -0.000006  -0.000367  -0.000234
    30  H    0.000001   0.000000   0.000000   0.000000   0.000000   0.000000
    31  H   -0.000018   0.000000   0.000000   0.000000   0.000000   0.000000
    32  H   -0.000004   0.000000   0.000000   0.000000   0.000000   0.000000
    33  H    0.005114   0.000000   0.000000   0.000000   0.000000  -0.000007
    34  H    0.000035   0.000000   0.000000   0.000000   0.000000   0.000000
    35  H    0.002370   0.000000   0.000000   0.000000   0.000000  -0.000007
    36  H    0.004742   0.000000   0.000001  -0.000006  -0.000012  -0.000028
    37  H    0.621762   0.000000   0.000004   0.000051  -0.000017   0.013403
    38  H    0.000000   0.410106  -0.000001  -0.000001   0.000020   0.000000
    39  H    0.000004  -0.000001   0.581841  -0.040725  -0.006153   0.000080
    40  H    0.000051  -0.000001  -0.040725   0.595486   0.006364   0.004779
    41  H   -0.000017   0.000020  -0.006153   0.006364   0.608222   0.005691
    42  H    0.013403   0.000000   0.000080   0.004779   0.005691   0.600812
    43  H   -0.000060   0.000002   0.000008  -0.000001   0.002262   0.004981
    44  H   -0.000027  -0.000022   0.000003  -0.000002   0.000104   0.002160
    45  H    0.000000  -0.007681  -0.000046  -0.000008   0.008289   0.000019
             43         44         45
     1  O    0.000000   0.000000   0.000000
     2  C    0.000484   0.000029  -0.000005
     3  C    0.000673   0.000126   0.000025
     4  O   -0.000001   0.000000   0.000000
     5  H    0.000000   0.000000   0.000000
     6  C    0.003984   0.000240   0.000147
     7  O   -0.000046   0.000001   0.000000
     8  H    0.000011   0.000000   0.000000
     9  C    0.000163  -0.000134  -0.000001
    10  O    0.000000   0.000000   0.000000
    11  H    0.000000   0.000000   0.000000
    12  C    0.001888   0.000484   0.000024
    13  O    0.003152   0.000466   0.000015
    14  C    0.066276   0.014178   0.009029
    15  O   -0.010092  -0.001217  -0.000118
    16  C    0.091203   0.158002   0.169573
    17  C    0.307773  -0.137182   0.003487
    18  O   -0.038048   0.001950  -0.000671
    19  H   -0.007951   0.000043   0.000006
    20  C   -0.100886   0.324807  -0.222142
    21  O    0.000572  -0.044209   0.007285
    22  H   -0.000121  -0.007867  -0.000509
    23  C    0.020483   0.013859  -0.003432
    24  O   -0.000014  -0.000004   0.000066
    25  H    0.000000   0.000000   0.000000
    26  C   -0.102916  -0.069628  -0.141472
    27  O    0.002759   0.005081  -0.057738
    28  C   -0.002510  -0.020524   0.512731
    29  O   -0.000189  -0.003553  -0.061555
    30  H    0.000000   0.000000   0.000000
    31  H    0.000000   0.000000   0.000000
    32  H    0.000001   0.000000   0.000000
    33  H    0.000000   0.000000   0.000000
    34  H    0.000000   0.000000   0.000000
    35  H    0.000000   0.000000   0.000000
    36  H   -0.000015   0.000000   0.000000
    37  H   -0.000060  -0.000027   0.000000
    38  H    0.000002  -0.000022  -0.007681
    39  H    0.000008   0.000003  -0.000046
    40  H   -0.000001  -0.000002  -0.000008
    41  H    0.002262   0.000104   0.008289
    42  H    0.004981   0.002160   0.000019
    43  H    0.597222   0.006343   0.002917
    44  H    0.006343   0.603652   0.007123
    45  H    0.002917   0.007123   0.664335
 Mulliken atomic charges:
              1
     1  O   -0.535613
     2  C   -0.283009
     3  C    0.172630
     4  O   -0.483917
     5  H    0.350624
     6  C   -0.016548
     7  O   -0.571709
     8  H    0.463619
     9  C   -0.146290
    10  O   -0.567644
    11  H    0.370717
    12  C    0.374814
    13  O   -0.416389
    14  C    0.169705
    15  O   -0.325515
    16  C   -0.194941
    17  C   -0.061186
    18  O   -0.502747
    19  H    0.413477
    20  C    0.190580
    21  O   -0.527032
    22  H    0.357891
    23  C   -0.066589
    24  O   -0.616658
    25  H    0.394742
    26  C    0.143657
    27  O   -0.300009
    28  C    0.083457
    29  O   -0.535336
    30  H    0.380765
    31  H    0.143301
    32  H    0.138890
    33  H    0.129006
    34  H    0.133063
    35  H    0.139204
    36  H    0.147193
    37  H    0.131665
    38  H    0.359549
    39  H    0.139092
    40  H    0.147823
    41  H    0.138568
    42  H    0.131379
    43  H    0.149694
    44  H    0.145718
    45  H    0.110310
 Sum of Mulliken atomic charges =   0.00000
 Mulliken charges with hydrogens summed into heavy atoms:
              1
     1  O   -0.154848
     2  C   -0.149946
     3  C    0.311834
     4  O   -0.133293
     6  C    0.130645
     7  O   -0.108090
     9  C    0.135901
    10  O   -0.196926
    12  C    0.503820
    13  O   -0.416389
    14  C    0.301370
    15  O   -0.325515
    16  C   -0.063563
    17  C    0.088508
    18  O   -0.089270
    20  C    0.336298
    21  O   -0.169141
    23  C    0.220327
    24  O   -0.221916
    26  C    0.282225
    27  O   -0.300009
    28  C    0.193766
    29  O   -0.175788
 Sum of Mulliken charges with hydrogens summed into heavy atoms =   0.00000
 APT atomic charges:
              1
     1  O   -0.642156
     2  C    0.404197
     3  C    0.392488
     4  O   -0.623089
     5  H    0.271627
     6  C    0.391657
     7  O   -0.759488
     8  H    0.477921
     9  C    0.500101
    10  O   -0.645651
    11  H    0.262808
    12  C    0.457547
    13  O   -0.901523
    14  C    0.904861
    15  O   -0.825781
    16  C    0.402878
    17  C    0.383539
    18  O   -0.696263
    19  H    0.404129
    20  C    0.391242
    21  O   -0.644684
    22  H    0.262579
    23  C    0.451141
    24  O   -0.679091
    25  H    0.262972
    26  C    0.426055
    27  O   -0.769622
    28  C    0.915900
    29  O   -0.668400
    30  H    0.269277
    31  H   -0.033916
    32  H   -0.047604
    33  H   -0.060861
    34  H   -0.051376
    35  H   -0.057275
    36  H   -0.032568
    37  H   -0.047696
    38  H    0.267215
    39  H   -0.035793
    40  H   -0.032269
    41  H   -0.050323
    42  H   -0.020478
    43  H   -0.043696
    44  H   -0.040131
    45  H   -0.090402
 Sum of APT charges=   0.00000
 APT Atomic charges with hydrogens summed into heavy atoms:
              1
     1  O   -0.372879
     2  C    0.352821
     3  C    0.335213
     4  O   -0.351462
[...]
 0000236,0.00000895,-0.00003919,0.00009541,0.00005368,0.00023906,0.0001
 7083,0.00016615,-0.00015635,-0.00022543,-0.00556275,-0.01729824,-0.005
 10928,0.00767512,-0.33725741,-0.05404190,-0.06175988,-0.01448249,-0.00
 205178,-0.00540844,0.00272929,-0.00160529,0.00050402,-0.00072033,0.000
 05760,0.00017186,-0.00088892,-0.00046359,0.00068864,0.00045560,0.00008
 312,0.00001365,-0.00001943,0.00006538,-0.00009653,0.00056211,0.0004098
 4,0.00042127,0.00007078,0.00005734,-0.00005990,0.00004768,-0.00000847,
 -0.00001431,-0.00135682,0.00022504,-0.00004666,0.00130926,0.00064077,-
 0.00063853,-0.00011100,0.00001946,-0.00012219,0.00005403,0.00000632,-0
 .00003083,-0.00000230,-0.00000277,-0.00000124,-0.00000314,0.00001650,-
 0.00000049,0.00001161,0.00000053,-0.00001051,0.00003120,0.00000948,0.0
 0003209,0.00001097,0.00000134,-0.00000982,0.00001698,-0.00000128,0.000
 03229,0.00006492,0.00029503,-0.00036312,0.00201328,0.00021794,0.000044
 73,-0.00000283,-0.00000696,-0.00000434,0.00022763,0.00003420,0.0000218
 1,0.00054454,-0.00073693,-0.00000260,0.00055868,0.00023810,0.00035538,
 0.36216403,0.00000404,-0.00003080,0.00003359,-0.00000002,0.00005041,-0
 .00002496,0.00004776,0.00002514,0.00000818,0.00000605,-0.00002951,-0.0
 0002009,-0.00000573,0.00001483,-0.00000392,-0.00000594,0.00005672,-0.0
 0004222,0.00026768,-0.00008073,-0.00019738,-0.00024499,-0.00004128,0.0
 0006824,0.00002618,-0.00002684,-0.00001215,-0.00000490,0.00002798,0.00
 003710,0.00000267,-0.00000438,-0.00000535,-0.00005319,0.00004145,-0.00
 003326,0.00036475,-0.00003289,0.00036606,-0.00171719,0.00144337,-0.001
 88837,-0.01257721,-0.00205531,0.00366908,-0.05372302,-0.05455788,-0.01
 298770,0.03021768,0.00398347,0.00756332,-0.00223290,0.00336017,0.00060
 811,0.00055309,-0.00024786,-0.00031069,0.00104037,0.00118797,-0.000955
 02,-0.00037567,-0.00030384,-0.00000095,-0.00009341,-0.00006928,0.00005
 240,-0.00226521,0.00129542,0.00054111,0.00036005,0.00003294,-0.0001507
 0,0.00001672,-0.00004263,-0.00000294,-0.02446999,-0.00491487,-0.006933
 46,0.00137939,0.00127689,0.00165630,0.00027685,-0.00044696,0.00001644,
 0.00000035,0.00009571,0.00004032,0.00000227,0.00000150,-0.00000323,0.0
 0000700,-0.00001797,-0.00000118,-0.00000748,-0.00000304,0.00000349,-0.
 00000637,0.00002076,-0.00000158,0.00000213,-0.00000761,0.00000018,0.00
 001445,0.00000431,0.00002648,0.00011310,0.00005253,-0.00007739,0.00060
 072,0.00038486,0.00052000,-0.00001767,0.00000320,-0.00000148,0.0003411
 8,0.00033246,0.00015933,0.00089113,-0.00020301,0.00010434,-0.00011593,
 -0.00245188,-0.00340373,0.05979330,0.05676328,-0.00000395,-0.00002728,
 -0.00002283,-0.00000131,0.00004335,0.00001440,-0.00000423,0.00003390,0
 .00006801,-0.00002606,-0.00001474,-0.00002796,0.00000038,0.00000692,0.
 00000008,0.00048944,0.00019130,-0.00038345,-0.00027651,-0.00001110,0.0
 0002495,0.00014418,-0.00019654,-0.00007194,-0.00003628,0.00001133,-0.0
 0002615,-0.00000099,-0.00002013,0.00000092,0.00000169,-0.00000235,-0.0
 0000448,0.00003762,-0.00007492,-0.00013956,-0.00087200,-0.00032707,-0.
 00013940,0.00921269,0.00245712,0.00011477,0.03074951,0.00913781,-0.010
 78265,-0.07149290,-0.01376136,-0.05611455,-0.01013092,-0.00342218,-0.0
 0136727,0.00168543,-0.00044525,0.00053563,0.00012435,0.00019785,0.0000
 1892,-0.00086347,-0.00043514,0.00032014,0.00026950,0.00004712,0.000042
 54,0.00001517,-0.00000884,-0.00003474,-0.00079832,0.00125485,0.0006511
 0,0.00020030,0.00002455,0.00003796,-0.00000711,0.00000612,0.00002972,-
 0.02368430,-0.00507427,-0.00486982,0.00082213,0.00073034,0.00214278,-0
 .00044228,0.00015410,-0.00024407,0.00006121,0.00002844,-0.00013163,-0.
 00000042,0.00000309,0.00000247,0.00000018,-0.00001344,-0.00000064,-0.0
 0000325,0.00000911,0.00000421,-0.00002635,-0.00002163,-0.00005644,-0.0
 0001042,0.00000440,0.00001249,-0.00005276,-0.00000677,-0.00006555,-0.0
 0035494,-0.00001245,-0.00011851,-0.00072651,0.00059521,-0.00203114,0.0
 0000861,-0.00000736,0.00000544,0.00016786,0.00022668,0.00002767,0.0008
 3810,-0.00039217,0.00024490,0.00017242,-0.00269493,-0.00335764,0.06480
 364,0.00992975,0.07588669,0.00000774,0.00003105,-0.00002860,-0.0000225
 7,-0.00003844,0.00001353,-0.00001505,-0.00004911,0.00000149,0.00001362
 ,0.00003913,0.00000536,-0.00000291,-0.00001360,0.00000376,0.00009213,-
 0.00000342,0.00003381,0.00005614,0.00006917,0.00005901,-0.00006491,-0.
 00002338,-0.00006037,-0.00001712,-0.00002708,0.00007923,0.00000577,-0.
 00000466,-0.00005936,-0.00000607,0.00000922,0.00001837,-0.00000989,0.0
 0005087,0.00006223,-0.00008545,0.00038218,-0.00021980,0.00017416,-0.00
 066357,-0.00043269,0.00243633,-0.00088434,0.00135711,-0.01719417,-0.00
 205251,0.00044465,-0.35207393,-0.04418406,-0.01139243,0.00035424,-0.00
 712853,-0.00739246,0.00021125,-0.00088505,0.00041200,-0.01195809,-0.00
 137828,0.00083603,0.00151481,-0.00000465,0.00021137,0.00016365,0.00002
 865,-0.00009300,0.00037380,0.00041473,0.00030876,0.00004434,-0.0000109
 5,0.00001528,-0.00000612,0.00000642,-0.00000418,-0.00097523,-0.0012773
 8,-0.00098698,0.00051488,0.00048964,0.00018465,-0.00094197,-0.00116324
 ,-0.00088237,0.00035633,0.00024622,0.00018442,-0.00000576,-0.00000516,
 0.00000435,0.00001175,0.00003943,0.00000145,0.00000570,0.00000050,-0.0
 0000520,0.00000889,-0.00000826,0.00000833,0.00000701,0.00000087,-0.000
 00673,0.00000883,0.00000029,0.00000371,0.00000189,0.00002901,-0.000048
 56,0.00016184,0.00001150,0.00031061,-0.00005762,-0.00000605,0.00008394
 ,-0.00002522,0.00013110,0.,0.00021911,-0.00025410,0.00001716,0.0010056
 0,0.00056112,0.00063179,-0.00034079,0.00207413,-0.00047772,0.37540198,
 0.00000260,0.00004065,-0.00006658,-0.00003374,-0.00006072,0.00003164,0
 .00001986,-0.00001097,-0.00001233,-0.00000203,0.00004945,-0.00001752,0
 .00000467,-0.00001622,0.00000168,-0.00014851,-0.00006574,-0.00007139,-
 0.00006765,0.00008577,0.00008703,0.00007049,-0.00000076,-0.00009672,-0
 .00003808,-0.00002928,0.00014050,0.00000583,-0.00002813,-0.00010417,-0
 .00000780,0.00001591,0.00002505,0.00004825,0.00012292,0.00012462,-0.00
 009129,0.00054507,-0.00044742,0.00044477,-0.00026767,-0.00011338,-0.00
 091244,0.00195572,-0.00185960,0.03040154,0.00155706,0.00202997,-0.0455
 2685,-0.04692110,0.00215065,-0.02857869,-0.01443986,-0.01449432,0.0000
 1799,-0.00043675,0.00169676,-0.01246018,-0.00033930,0.00190697,0.00038
 131,0.00099450,-0.00118039,0.00019794,0.00005965,-0.00021702,0.0001770
 3,0.00000835,0.00000200,-0.00006993,-0.00004988,0.00008237,-0.00000273
 ,0.00001869,-0.00000054,0.00100869,0.00193053,0.00105117,-0.00009995,-
 0.00017883,-0.00044945,0.00012434,-0.00084458,-0.00034386,0.00011430,0
 .00010400,0.00029426,-0.00000777,-0.00000125,0.00000706,0.00000460,0.0
 0006720,0.00001149,0.00001357,0.00001241,-0.00001859,-0.00000419,-0.00
 002659,-0.00000465,0.00000222,0.00000225,-0.00000331,-0.00000296,0.000
 00244,-0.00000360,-0.00001572,-0.00002695,0.00003851,-0.00029748,-0.00
 001409,0.00003996,-0.00003490,0.00006330,0.00004029,-0.00010417,-0.000
 06761,-0.00000587,-0.00023881,-0.00003754,-0.00006504,-0.00030750,-0.0
 0031172,-0.00044281,0.00172390,-0.00452349,0.00169709,0.05510678,0.061
 16764,0.00001165,0.00002714,-0.00003851,-0.00004262,-0.00003635,0.0000
 1796,0.00000471,-0.00003868,0.00000989,0.00001267,0.00003202,-0.000006
 61,-0.00000120,-0.00001081,0.00000374,-0.00005475,-0.00000403,0.000037
 81,0.00005808,0.00003682,0.00000462,-0.00005324,-0.00000217,0.00000908
 ,-0.00005739,-0.00004260,0.00010226,0.00002027,-0.00000624,-0.00006710
 ,-0.00000669,0.00000953,0.00002147,0.00001143,0.00009039,0.00006050,0.
 00014694,0.00036211,-0.00040416,-0.00044121,-0.00042140,-0.00048202,-0
 .00038235,-0.00090538,0.00128502,-0.01139314,0.00181945,0.00012136,-0.
 00956356,0.00268440,-0.04290105,-0.02569700,-0.01681161,-0.00919596,-0
 .00117015,-0.00075679,0.00141317,0.03336375,0.00534156,0.00033546,-0.0
 0205369,-0.00140792,0.00197051,-0.00012210,-0.00034389,0.00030066,0.00
 004824,0.00015422,0.00016927,0.00002637,-0.00001447,-0.00000572,0.0000
 0171,-0.00001051,0.00000059,0.00066076,-0.00040212,-0.00061416,-0.0000
 0261,-0.00052498,-0.00023715,0.00104823,0.00167743,0.00219426,-0.00049
 742,-0.00015140,-0.00035789,-0.00000744,-0.00000243,0.00000132,0.00000
 476,0.00005301,0.00000867,0.00002354,0.00000649,-0.00002578,0.00001602
 ,-0.00001165,0.00001463,0.00001164,0.00000068,-0.00001265,0.00001006,0
 .00000087,0.00000785,0.00002270,0.00003599,-0.00003306,0.00019779,0.00
 002949,-0.00004387,0.00002501,-0.00009046,-0.00009363,0.00000699,0.000
 10816,0.00001164,0.00006747,-0.00007368,-0.00002266,0.00029762,-0.0002
 3290,0.00023413,-0.00074425,0.00142361,-0.00035280,0.01481097,0.006960
 46,0.05208608,0.00000464,0.00000623,-0.00002316,-0.00000956,-0.0000105
 0,0.00001524,-0.00001169,-0.00002312,0.00001351,0.00001147,0.00001788,
 -0.00001094,-0.00000292,-0.00000461,0.00000372,0.00002502,-0.00000190,
 0.00002967,0.00002271,0.00002251,0.00000429,-0.00001959,-0.00000962,-0
 .00000684,-0.00001864,-0.00000057,0.00002644,0.00001626,-0.00000981,-0
 .00002211,-0.00001059,0.00000548,0.00000875,-0.00001873,0.00002168,0.0
 0003321,-0.00000150,0.00007101,-0.00011252,-0.00008801,-0.00015777,0.0
 0000052,0.00058441,0.00002769,0.00027050,-0.00072590,0.00087027,-0.000
 39695,-0.01429021,-0.00745743,-0.00043371,0.00187778,0.00062060,-0.001
 68802,0.00043956,0.00003985,-0.00007991,-0.31579589,-0.09550442,-0.040
 56141,-0.02123343,0.01007774,-0.01075614,0.00046367,0.00017860,0.00038
 230,-0.00003463,-0.00003463,-0.00002746,0.00004042,0.00003180,-0.00000
 214,-0.00001050,-0.00000491,-0.00000336,-0.00008351,-0.00014069,-0.000
 07288,0.00161234,-0.00112604,0.00072354,-0.00096698,-0.00038273,-0.000
 49769,0.00077368,-0.00028064,-0.00097241,-0.00000408,0.00000017,0.0000
 0394,-0.00000653,0.00001193,-0.00000077,0.00000959,0.00000301,-0.00000
 746,0.00000992,-0.00000607,0.00000369,0.00000560,0.00000160,-0.0000045
 8,0.00000627,-0.00000023,0.00000059,0.00000288,0.00000966,-0.00001119,
 0.00003322,-0.00001109,0.00004235,0.00009626,0.00007810,0.00012152,0.0
 0000944,-0.00000961,0.00001690,0.00003847,-0.00002584,0.00000938,0.000
 01515,0.00013723,0.00003734,0.00068519,-0.00042234,0.00023283,0.000167
 08,-0.00100688,0.00193660,0.34564001,0.00000274,-0.00000123,0.00000800
 ,-0.00000028,-0.00000067,-0.00000644,-0.00000862,-0.00000126,-0.000000
 21,0.00000476,-0.00000440,0.00000478,-0.00000205,0.00000141,-0.0000009
 1,0.00000672,0.00000568,0.00000219,0.00002055,-0.00000263,0.00000270,-
 0.00001601,0.00000110,-0.00000881,-0.00000007,0.00000393,-0.00001391,0
 .00000222,0.00000482,0.00001367,0.00000081,-0.00000165,-0.00000445,-0.
 00001365,0.00000429,-0.00001102,0.00001427,-0.00000392,0.00000503,-0.0
 0007374,0.00000016,-0.00003901,0.00029029,-0.00000170,0.00008599,-0.00
 101097,0.00029862,-0.00033723,-0.01250434,-0.00340513,-0.00049732,0.00
 177927,0.00068186,-0.00102827,0.00013755,-0.00019433,-0.00017085,-0.09
 938825,-0.07248483,-0.01608620,0.04073023,-0.00504792,0.01329270,0.000
 57539,0.00185573,-0.00054182,-0.00006561,0.00002448,-0.00006358,0.0000
 3548,0.00000424,-0.00000700,-0.00000566,0.00000093,0.00000029,-0.00031
 615,-0.00033052,0.00027678,0.00111527,0.00241503,0.00085727,-0.0279071
 0,-0.00995900,-0.00658875,0.00214988,0.00152780,0.00064552,0.00000001,
 0.00000052,-0.00000187,-0.00000019,-0.00000449,-0.00000033,0.00000110,
 -0.00000284,0.00000067,0.00000462,0.00000219,0.00000279,0.00000231,0.0
 0000003,-0.00000136,0.00000246,0.00000046,0.00000106,0.00000327,0.0000
 0610,-0.00000801,0.00002941,-0.00000330,0.00002719,0.00003351,-0.00003
 676,0.00040390,0.00001059,-0.00002156,-0.00000446,0.00005672,-0.000054
 50,0.00003049,0.00019626,0.00021648,-0.00003194,0.00024346,-0.00019608
 ,0.00016325,-0.00020018,-0.00039749,0.00195767,0.09364970,0.08853015,-
 0.00000309,-0.00001470,0.00000596,0.00000673,0.00001750,-0.00000435,0.
 00000584,0.00001908,0.00000647,-0.00000244,-0.00001284,-0.00000971,0.0
 0000039,0.00000618,-0.00000151,-0.00001337,-0.00000687,-0.00002063,-0.
 00001037,-0.00001499,-0.00002120,0.00000934,-0.00000730,0.00001428,0.0
 0000992,0.00001827,-0.00003378,-0.00000482,-0.00000362,0.00002198,0.00
 000307,-0.00000310,-0.00000999,0.00001333,-0.00002269,-0.00000659,0.00
 002312,-0.00018713,0.00008485,0.00004082,0.00028206,0.00019728,-0.0005
 7571,-0.00012679,-0.00038072,0.00066713,-0.00051826,0.00083840,0.03134
 514,0.01157057,0.00058952,-0.00100562,0.00019959,0.00268644,0.00001611
 ,0.00031916,0.00018657,-0.04045369,-0.01710701,-0.05024391,-0.01610044
 ,0.00626815,-0.00273597,-0.00109875,-0.00017678,0.00049687,0.00004732,
 0.00000545,0.00005915,-0.00000115,0.00002054,-0.00001593,-0.00000832,-
 0.00000321,-0.00000386,0.00011801,0.00010677,-0.00027501,0.00152204,0.
 00161155,0.00079847,-0.02753611,-0.01354188,-0.00585743,0.00132662,0.0
 0196483,0.00222317,0.00000131,0.00000250,-0.00000097,-0.00000195,-0.00
 001643,0.00000041,-0.00000460,-0.00000123,0.00000563,-0.00000748,0.000
 00546,-0.00000708,-0.00000300,-0.00000042,0.00000322,-0.00000177,-0.00
 000007,-0.00000026,-0.00000149,-0.00000936,0.00001002,-0.00003796,-0.0
 0000056,-0.00004815,-0.00011851,0.00020940,0.00039916,-0.00001538,0.00
 001961,0.00000857,-0.00000436,0.00000669,0.00000768,-0.00003341,-0.000
 02694,-0.00018134,-0.00030122,0.00020948,0.00000923,0.00140056,0.00153
 910,-0.00522575,0.05130133,0.01101401,0.05959052,0.00000418,-0.0000052
 6,-0.00003179,-0.00001153,0.00000572,0.00001878,-0.00000115,-0.0000084
 9,0.00002626,0.00001136,0.00001226,-0.00003242,-0.00000253,0.00000006,
 0.00000394,-0.00003700,0.00000422,0.00000577,0.00002825,-0.00000400,-0
 .00006829,-0.00001651,0.00000098,0.00007372,-0.00001476,0.00001652,0.0
 0000977,0.00000714,-0.00001898,-0.00001652,-0.00000448,0.00000418,0.00
 000233,0.00000923,0.00000768,0.00004216,0.00001826,-0.00005647,-0.0001
 0523,0.00005081,0.00007801,0.00014656,0.00008065,-0.00006167,-0.000404
 23,0.00006738,0.00039044,0.00015448,-0.00017554,-0.00067213,0.00027686
 ,0.00038387,0.00009350,-0.00008482,-0.00005008,-0.00002959,-0.00005776
 ,-0.00341373,0.00077948,-0.00217149,0.00212990,-0.00097941,0.00165338,
 -0.00013710,-0.00004182,-0.00013032,0.00068135,-0.00005902,0.00009489,
 0.00003642,0.00031907,-0.00015787,-0.00002327,-0.00001412,-0.00004764,
 -0.00021943,-0.00142387,0.00230382,-0.01876183,0.01193900,-0.01039976,
 -0.31123490,-0.08345127,-0.06249224,-0.01740060,-0.00636142,0.01008554
 ,-0.00000556,0.00000164,0.00000537,-0.00000242,0.00000259,-0.00000030,
 0.00000551,0.00000027,-0.00000277,0.00000278,-0.00000071,-0.00000332,0
 .00000506,-0.00000018,-0.00000275,0.00000443,0.00000059,0.00000011,0.0
 0000497,-0.00000331,-0.00000347,0.00000499,-0.00000508,0.00000035,0.00
 052093,0.00024527,0.00074136,-0.00004696,-0.00004269,0.00000099,0.0002
 0184,-0.00028509,0.00013246,0.00098247,0.00074464,-0.00128725,0.000037
 66,-0.00006389,0.00025577,0.00048399,0.00018956,-0.00055519,0.00074181
 ,0.00041400,-0.00051310,0.34505412,0.00000131,0.00001449,-0.00000505,-
 0.00000484,-0.00001655,0.00000483,-0.00000400,-0.00000106,-0.00000203,
 0.00000023,0.00001298,0.,0.00000039,-0.00000460,-0.00000026,0.00001272
 ,-0.00004426,-0.00001819,-0.00001027,0.00005931,0.00006972,0.00000298,
 -0.00004273,-0.00009911,-0.00000494,-0.00000935,0.00002063,0.00000471,
 0.00000131,-0.00001489,-0.00000393,0.00000192,0.00000633,-0.00000622,0
 .00002245,0.00001726,-0.00002404,0.00011037,-0.00005259,-0.00003590,-0
 .00008919,-0.00006627,-0.00002742,0.00033320,0.00017281,-0.00030247,-0
 .00063397,0.00009935,-0.00093069,-0.00026364,0.00118487,0.00062508,0.0
 0011513,-0.00056904,0.00016297,-0.00011074,0.00006772,-0.02661058,-0.0
 0643204,-0.01136825,0.00066238,0.00352576,0.00164210,-0.00017770,-0.00
 007196,-0.00006500,0.00046026,0.00027379,-0.00013305,-0.00021279,-0.00
 017353,0.00011407,-0.00001243,0.00002816,0.00001980,0.00432292,0.00225
 916,-0.00315076,0.03695331,-0.00547751,0.01650393,-0.08533916,-0.06855
 531,-0.02077965,-0.00730257,0.00305203,0.00278530,-0.00000104,-0.00000
 248,0.00000071,0.00000183,0.00000998,-0.00000042,0.00000183,0.00000118
 ,-0.00000180,0.00000188,-0.00000329,-0.00000006,0.00000136,0.00000055,
 -0.00000115,0.00000133,-0.00000046,0.00000032,-0.00000296,0.00000413,-
 0.00000150,0.00000431,-0.00000254,-0.00000097,-0.00042108,0.00043262,-
 0.00035898,0.00005369,0.00001423,-0.00001696,-0.00021677,-0.00009796,0
 .00001502,-0.00126111,0.00011910,-0.00040705,0.00000595,-0.00016724,0.
 00001626,0.00054398,0.00029300,-0.00050904,0.00074869,-0.00342983,-0.0
 0361377,0.07833880,0.07494540,0.00000044,-0.00000082,-0.00003256,-0.00
 000724,0.00000068,0.00002230,0.00000322,-0.00000767,0.00002150,0.00000
 623,0.00001522,-0.00002758,0.00000023,-0.00000202,0.00000342,-0.000016
 81,-0.00001092,-0.00000038,0.00001225,0.00001235,-0.00003734,-0.000012
 52,-0.00000545,0.00003651,-0.00000589,0.00001438,0.00002063,0.00000026
 ,-0.00001911,-0.00002610,-0.00000165,0.00000478,0.00000514,0.00000990,
 0.00001253,0.00004800,0.00000139,-0.00002021,-0.00009584,0.00004675,0.
 00003887,0.00009789,0.00006894,0.00007062,-0.00031621,0.00021063,-0.00
 014387,-0.00015316,-0.00123889,0.00001421,0.00141474,0.00052985,0.0000
 4477,-0.00007922,0.00006277,0.00004016,0.00006661,-0.02576350,-0.01101
 928,-0.00526945,0.00199172,0.00128505,0.00157217,0.00010241,-0.0001218
 5,-0.00018378,-0.00002721,-0.00000156,0.00001392,0.00009625,0.00018244
 ,-0.00011632,-0.00000488,-0.00001674,-0.00001688,-0.00348979,-0.000667
 23,0.00244788,-0.01448667,0.00751618,-0.00466726,-0.06772404,-0.022837
 86,-0.06028633,0.04228002,0.00954926,-0.01285353,-0.00000336,0.0000009
 4,0.00000540,-0.00000065,0.00000598,-0.00000086,0.00000238,-0.00000002
 ,-0.00000251,0.00000018,-0.00000182,-0.00000234,0.00000225,0.00000011,
 -0.00000226,0.00000238,0.00000015,0.00000006,0.00000145,-0.00000023,-0
 .00000451,0.00000502,-0.00000730,0.00000877,0.00255057,0.00068358,0.00
 324372,0.00000524,-0.00004299,0.00000467,0.00017489,-0.00003780,-0.000
 01513,0.00088863,0.00023913,0.00004722,0.00013301,0.00002084,0.0001482
 2,0.00058647,0.00005995,-0.00030141,0.00047353,-0.00334223,-0.00315970
 ,0.06253383,0.01849483,0.07842187\\0.01683915,-0.00916367,-0.01201833,
 -0.02563755,0.00175923,-0.00349734,0.00542657,-0.01747002,0.00309898,0
 .00928767,0.02437003,0.01904595,-0.01051661,-0.02234696,-0.01263144,0.
 01952797,-0.01115505,-0.01178329,0.00437883,0.00108235,0.00821205,-0.0
 0381317,0.00156393,0.02181121,-0.00003356,0.02135981,0.00596880,0.0125
 0286,0.00922797,0.00962928,-0.00973486,-0.03382538,-0.00912417,0.01822
 827,0.00705284,0.01131745,-0.00314343,-0.00197839,0.00341069,-0.055459
 80,-0.00973435,0.01370398,0.03461393,0.00368145,0.00139545,-0.03253442
 ,0.01441687,-0.02252320,0.01648086,0.04101203,-0.00290088,-0.01389149,
 -0.02255960,0.01432713,0.00766779,0.02412890,-0.01204918,0.02645665,0.
 01839540,-0.03889908,-0.01040384,0.00924407,-0.00742761,-0.00424321,-0
 .02271935,0.02664095,0.01131390,-0.01742986,-0.00852908,-0.01213496,-0
 .01580355,-0.00655360,-0.00400827,0.03196004,0.00940020,0.01009359,-0.
 01946864,0.01568365,-0.00484483,0.00083734,0.01893632,0.00769171,-0.03
 909942,-0.01589466,0.00103388,0.02511173,0.02445377,-0.00298722,0.0044
 1529,0.00021788,0.00222038,0.00600209,-0.01779754,-0.02072692,-0.00103
 154,-0.00040658,0.02300431,0.00222117,-0.00081441,-0.02237910,-0.00112
 193,-0.00214508,0.02403333,-0.00099218,-0.00107314,-0.02001092,0.00172
 034,-0.00032091,0.01650767,0.00321612,-0.00289673,-0.00459322,0.000337
 91,-0.00165913,0.00111537,-0.00499767,-0.01751185,0.01968974,0.0050225
 4,0.00207831,-0.02105638,-0.00275221,-0.00317783,0.01610552,0.00219378
 ,0.00070393,-0.02017027,-0.00652094,-0.00035236,0.02062506,0.00413666,
 0.00697663,-0.02252098,-0.00429917,-0.00502517\\\@


 Once you get people laughing, they're
 listening and you can tell them almost anything.
                                 -- Herb Gardner
 Job cpu time:  0 days 13 hours  2 minutes 31.0 seconds.
 File lengths (MBytes):  RWF=   1328 Int=      0 D2E=      0 Chk=     19 Scr=      1
 Normal termination of Gaussian 09 at Tue Mar  1 02:58:44 2016.
Gaussian '09 finished on node001 at Tue Mar  1 02:58:44 EST 2016.
