Gaussian '09 started on node007 at Mon Feb 29 14:22:29 EST 2016.
 Entering Gaussian System, Link 0=/usr/local/gaussian/g09/g09
 Initial command:
 /usr/local/gaussian/g09/l1.exe /home/srmcgrat/thesis/gaussian/cellobiose/310/9000/2/gdp/gaussian29938/Gau-29974.inp -scrdir=/home/srmcgrat/thesis/gaussian/cellobiose/310/9000/2/gdp/gaussian29938/
 Entering Link 1 = /usr/local/gaussian/g09/l1.exe PID=     29976.
  
 Copyright (c) 1988,1990,1992,1993,1995,1998,2003,2009,2010,
            Gaussian, Inc.  All Rights Reserved.
  
 This is part of the Gaussian(R) 09 program.  It is based on
 the Gaussian(R) 03 system (copyright 2003, Gaussian, Inc.),
 the Gaussian(R) 98 system (copyright 1998, Gaussian, Inc.),
 the Gaussian(R) 94 system (copyright 1995, Gaussian, Inc.),
 the Gaussian 92(TM) system (copyright 1992, Gaussian, Inc.),
 the Gaussian 90(TM) system (copyright 1990, Gaussian, Inc.),
 the Gaussian 88(TM) system (copyright 1988, Gaussian, Inc.),
 the Gaussian 86(TM) system (copyright 1986, Carnegie Mellon
 University), and the Gaussian 82(TM) system (copyright 1983,
 Carnegie Mellon University). Gaussian is a federally registered
 trademark of Gaussian, Inc.
  
 This software contains proprietary and confidential information,
 including trade secrets, belonging to Gaussian, Inc.
  
 This software is provided under written license and may be
 used, copied, transmitted, or stored only in accord with that
 written license.
  
 The following legend is applicable only to US Government
 contracts under FAR:
  
                    RESTRICTED RIGHTS LEGEND
  
 Use, reproduction and disclosure by the US Government is
 subject to restrictions as set forth in subparagraphs (a)
 and (c) of the Commercial Computer Software - Restricted
 Rights clause in FAR 52.227-19.
  
 Gaussian, Inc.
 340 Quinnipiac St., Bldg. 40, Wallingford CT 06492
  
  
 ---------------------------------------------------------------
 Warning -- This program may not be used in any manner that
 competes with the business of Gaussian, Inc. or will provide
 assistance to any competitor of Gaussian, Inc.  The licensee
 of this program is prohibited from giving any competitor of
 Gaussian, Inc. access to this program.  By using this program,
 the user acknowledges that Gaussian, Inc. is engaged in the
 business of creating and licensing software in the field of
 computational chemistry and represents and warrants to the
 licensee that it is not a competitor of Gaussian, Inc. and that
 it will not use this program in any manner prohibited above.
 ---------------------------------------------------------------
  

 Cite this work as:
 Gaussian 09, Revision B.01,
 M. J. Frisch, G. W. Trucks, H. B. Schlegel, G. E. Scuseria, 
 M. A. Robb, J. R. Cheeseman, G. Scalmani, V. Barone, B. Mennucci, 
 G. A. Petersson, H. Nakatsuji, M. Caricato, X. Li, H. P. Hratchian, 
 A. F. Izmaylov, J. Bloino, G. Zheng, J. L. Sonnenberg, M. Hada, 
 M. Ehara, K. Toyota, R. Fukuda, J. Hasegawa, M. Ishida, T. Nakajima, 
 Y. Honda, O. Kitao, H. Nakai, T. Vreven, J. A. Montgomery, Jr., 
 J. E. Peralta, F. Ogliaro, M. Bearpark, J. J. Heyd, E. Brothers, 
 K. N. Kudin, V. N. Staroverov, T. Keith, R. Kobayashi, J. Normand, 
 K. Raghavachari, A. Rendell, J. C. Burant, S. S. Iyengar, J. Tomasi, 
 M. Cossi, N. Rega, J. M. Millam, M. Klene, J. E. Knox, J. B. Cross, 
 V. Bakken, C. Adamo, J. Jaramillo, R. Gomperts, R. E. Stratmann, 
 O. Yazyev, A. J. Austin, R. Cammi, C. Pomelli, J. W. Ochterski, 
 R. L. Martin, K. Morokuma, V. G. Zakrzewski, G. A. Voth, 
 P. Salvador, J. J. Dannenberg, S. Dapprich, A. D. Daniels, 
 O. Farkas, J. B. Foresman, J. V. Ortiz, J. Cioslowski, 
 and D. J. Fox, Gaussian, Inc., Wallingford CT, 2010.
 
 ******************************************
 Gaussian 09:  EM64L-G09RevB.01 12-Aug-2010
                29-Feb-2016 
 ******************************************
 ------------------------------------------------
 # freq=raman b3lyp/6-31+g(d,p) geom=connectivity
 ------------------------------------------------
 1/10=4,30=1,38=1,57=2/1,3;
 2/12=2,17=6,18=5,40=1/2;
 3/5=1,6=6,7=111,11=2,16=1,25=1,30=1,71=2,74=-5/1,2,3;
 4//1;
 5/5=2,38=5,98=1/2;
 8/6=4,10=90,11=11/1;
 10/13=10,15=4/2;
 11/6=3,8=1,9=11,15=111,16=1/1,2,10;
 10/6=1/2;
 6/7=2,8=2,9=2,10=2,18=1,28=1/1;
 7/8=1,10=1,25=1/1,2,3,16;
 1/10=4,30=1/3;
 99//99;
 ------------
 310 9000.com
 ------------
 Symbolic Z-matrix:
 Charge =  0 Multiplicity = 1
 O                     7.668     7.386     22.657 
 C                     8.359     7.742     23.864 
 C                     7.805     9.113     24.217 
 O                     7.94      10.162    23.247 
 H                     7.6       9.677     22.441 
 C                     8.144     9.591     25.619 
 O                     7.374     10.671    26.166 
 H                     7.592     10.827    27.129 
 C                     8.246     5.272     24.634 
 O                     8.087     4.57      23.392 
 H                     8.142     3.593     23.597 
 C                     7.998     6.739     24.947 
 O                     8.474     7.224     26.21 
 C                     7.887     8.47      26.613 
 O                     8.709     8.58      27.784 
 C                     8.244     8.233     29.097 
 C                     8.739     6.852     29.495 
 O                     8.578     5.724     28.623 
 H                     8.556     5.914     27.642 
 C                     8.426     6.562     30.954 
 O                     9.101     5.411     31.482 
 H                     8.695     5.256     32.383 
 C                     8.157     10.703    29.777 
 O                     8.239     11.365    28.507 
 H                     8.093     12.348    28.626 
 C                     8.668     9.305     30.087 
 O                     8.343     9.029     31.457 
 C                     8.763     7.722     31.876 
 O                     7.923     7.548     33.027 
 H                     8.30734   7.18341   21.97012 
 H                     8.58755   4.67857   25.45624 
 H                     7.90445   5.86543   23.81176 
 H                     6.93291   6.80671   25.02383 
 H                     9.41668   7.78065   23.7068 
 H                     6.74871   8.9469    24.2564 
 H                     9.18069   9.85376   25.65264 
 H                     6.85069   8.36561   26.85806 
 H                     8.64327   11.35187   30.47515 
 H                     7.11869   10.69709   30.03541 
 H                     9.73552   9.35428   30.03337 
 H                     8.46971   7.43005   33.80725 
 H                     9.79701   7.71503   32.1511 
 H                     7.37365   6.38324   31.02815 
 H                     9.80102   6.98238   29.49975 
 H                     7.17455   8.2074    29.07423 
 

 GradGradGradGradGradGradGradGradGradGradGradGradGradGradGradGradGradGrad
 Berny optimization.
 Initialization pass.
 Trust Radius=3.00D-01 FncErr=1.00D-07 GrdErr=1.00D-07
 Number of steps in this run=      2 maximum allowed number of steps=      2.
 GradGradGradGradGradGradGradGradGradGradGradGradGradGradGradGradGradGrad

                          Input orientation:                          
 ---------------------------------------------------------------------
 Center     Atomic      Atomic             Coordinates (Angstroms)
 Number     Number       Type             X           Y           Z
 ---------------------------------------------------------------------
      1          8           0        7.668000    7.386000   22.657000
      2          6           0        8.359000    7.742000   23.864000
      3          6           0        7.805000    9.113000   24.217000
      4          8           0        7.940000   10.162000   23.247000
      5          1           0        7.600000    9.677000   22.441000
      6          6           0        8.144000    9.591000   25.619000
      7          8           0        7.374000   10.671000   26.166000
      8          1           0        7.592000   10.827000   27.129000
      9          6           0        8.246000    5.272000   24.634000
     10          8           0        8.087000    4.570000   23.392000
     11          1           0        8.142000    3.593000   23.597000
     12          6           0        7.998000    6.739000   24.947000
     13          8           0        8.474000    7.224000   26.210000
     14          6           0        7.887000    8.470000   26.613000
     15          8           0        8.709000    8.580000   27.784000
     16          6           0        8.244000    8.233000   29.097000
     17          6           0        8.739000    6.852000   29.495000
     18          8           0        8.578000    5.724000   28.623000
     19          1           0        8.556000    5.914000   27.642000
     20          6           0        8.426000    6.562000   30.954000
     21          8           0        9.101000    5.411000   31.482000
     22          1           0        8.695000    5.256000   32.383000
     23          6           0        8.157000   10.703000   29.777000
     24          8           0        8.239000   11.365000   28.507000
     25          1           0        8.093000   12.348000   28.626000
     26          6           0        8.668000    9.305000   30.087000
     27          8           0        8.343000    9.029000   31.457000
     28          6           0        8.763000    7.722000   31.876000
     29          8           0        7.923000    7.548000   33.027000
     30          1           0        8.307337    7.183407   21.970120
     31          1           0        8.587549    4.678568   25.456242
     32          1           0        7.904451    5.865432   23.811758
     33          1           0        6.932912    6.806712   25.023833
     34          1           0        9.416683    7.780654   23.706800
     35          1           0        6.748705    8.946899   24.256398
     36          1           0        9.180689    9.853763   25.652640
     37          1           0        6.850685    8.365606   26.858058
     38          1           0        8.643266   11.351867   30.475153
     39          1           0        7.118688   10.697088   30.035405
     40          1           0        9.735518    9.354283   30.033372
     41          1           0        8.469708    7.430047   33.807255
     42          1           0        9.797006    7.715032   32.151104
     43          1           0        7.373646    6.383245   31.028150
     44          1           0        9.801016    6.982384   29.499746
     45          1           0        7.174549    8.207401   29.074233
 ---------------------------------------------------------------------
                    Distance matrix (angstroms):
                    1          2          3          4          5
     1  O    0.000000
     2  C    1.435641   0.000000
     3  C    2.331287   1.520252   0.000000
     4  O    2.851010   2.532321   1.435105   0.000000
     5  H    2.302164   2.518975   1.874646   1.000230   0.000000
     6  C    3.723177   2.558330   1.519542   2.448273   3.225371
     7  O    4.815677   3.853371   2.532139   3.016620   3.861960
     8  H    5.643141   4.556944   3.385692   3.953891   4.826998
     9  C    2.951543   2.589704   3.888657   5.092102   4.962922
    10  O    2.940347   3.218439   4.625905   5.595811   5.217568
    11  H    3.936385   4.163241   5.564923   6.581418   6.216523
    12  C    2.402417   1.519611   2.491189   3.822341   3.882046
    13  O    3.646874   2.405258   2.826293   4.206705   4.581097
    14  C    4.107670   2.882667   2.482134   3.767709   4.352563
    15  O    5.366139   4.023822   3.718171   4.866051   5.566052
    16  C    6.520950   5.257242   4.978104   6.167330   6.841214
    17  C    6.941934   5.713551   5.817367   7.115617   7.683545
    18  O    6.259673   5.173815   5.612102   7.000305   7.402690
    19  H    5.273097   4.201628   4.746391   6.143369   6.490339
    20  C    8.372201   7.187836   7.230519   8.520214   9.102564
    21  O    9.156131   8.001128   8.256188   9.577847  10.108978
    22  H   10.009331   8.880679   9.074806  10.397373  10.935613
    23  C    7.869943   6.616033   5.793583   6.555964   7.428312
    24  O    7.097956   5.890499   4.864562   5.404092   6.328825
    25  H    7.773740   6.630433   5.476080   5.808239   6.755110
    26  C    7.738699   6.423720   5.936205   6.931813   7.729187
    27  O    8.977476   7.701316   7.260448   8.297602   9.069741
    28  C    9.289881   8.022204   7.843018   9.005030   9.705350
    29  O   10.374400   9.175418   8.948701  10.123324  10.802794
    30  H    0.960000   1.975216   3.004021   3.261499   2.634399
    31  H    4.001439   3.460070   4.670363   5.947109   5.920411
    32  H    1.923928   1.931541   3.274264   4.333672   4.061984
    33  H    2.545157   2.062451   2.594317   3.928017   3.918493
    34  H    2.077432   1.070000   2.152435   2.839511   2.915256
    35  H    2.416523   2.049099   1.070000   1.978519   2.133875
    36  H    4.165566   2.886858   2.121865   2.724229   3.583916
    37  H    4.390503   3.410026   2.905943   4.177724   4.668150
    38  H    8.820587   7.537857   6.699230   7.359114   8.272919
    39  H    8.105918   6.953931   6.069118   6.858813   7.677710
    40  H    7.909465   6.523451   6.133132   7.066197   7.893586
    41  H   11.179126   9.948763   9.759465  10.920766  11.618818
    42  H    9.735448   8.410986   8.298940   9.419087  10.147033
    43  H    8.436131   7.358137   7.350469   8.668682   9.199957
    44  H    7.178847   5.866691   6.035811   7.257422   7.869646
    45  H    6.488380   5.363399   4.980993   6.193789   6.807387
                    6          7          8          9         10
     6  C    0.000000
     7  O    1.434751   0.000000
     8  H    2.027930   0.999614   0.000000
     9  C    4.431071   5.679490   6.124603   0.000000
    10  O    5.493015   6.739855   7.304810   1.435496   0.000000
    11  H    6.329652   7.568862   8.068970   1.976164   0.999789
    12  C    2.933736   4.163648   4.651635   1.520382   2.670301
    13  O    2.461883   3.618528   3.821530   2.519140   3.890322
    14  C    1.520107   2.303775   2.430788   3.777900   5.062098
    15  O    2.455315   2.961829   2.593400   4.591267   5.979686
    16  C    3.735057   3.910435   3.320687   5.355921   6.781537
    17  C    4.783254   5.246925   4.765941   5.135053   6.548224
    18  O    4.915899   5.653253   5.407850   4.028231   5.379234
    19  H    4.216942   5.119057   5.032895   3.091331   4.482053
    20  C    6.141383   6.396525   5.789336   6.452821   7.827313
    21  O    7.263816   7.675284   7.110467   6.902568   8.196559
    22  H    8.052796   8.349752   7.736741   7.762014   9.037607
    23  C    4.304146   3.695055   2.710444   7.480249   8.853633
    24  O    3.390670   2.590394   1.614601   7.219753   8.506371
    25  H    4.079914   3.062824   2.192134   8.125838   9.375077
    26  C    4.507704   4.349096   3.496287   6.795468   8.220755
    27  O    5.868363   5.624038   4.746408   7.789595   9.219135
    28  C    6.559449   6.574954   5.791915   7.662660   9.075810
    29  O    7.687727   7.558297   6.756316   8.702124  10.086060
    30  H    4.374644   5.535326   6.356219   3.279253   2.983319
    31  H    4.935100   6.155136   6.449221   1.070000   2.126836
    32  H    4.147694   5.377482   5.976527   1.070000   1.373923
    33  H    3.094062   4.053619   4.585722   2.057063   2.999612
    34  H    2.924652   4.309794   4.931648   2.919511   3.489334
    35  H    2.053874   2.647659   3.535218   3.986146   4.657839
    36  H    1.070000   2.048302   2.377133   4.785794   5.850197
    37  H    2.170143   2.463259   2.584844   4.057552   5.286649
    38  H    5.189618   4.543502   3.546461   8.440478   9.822128
    39  H    4.666833   3.877907   2.947557   7.738061   9.089206
    40  H    4.698473   4.718801   3.898582   6.930867   8.349539
    41  H    8.474864   8.372164   7.543789   9.426336  10.807583
    42  H    6.994288   7.101421   6.306182   8.054867   9.462413
    43  H    6.335775   6.482696   5.915912   6.548360   7.880832
    44  H    4.960924   5.532644   5.028047   5.386926   6.786900
    45  H    3.846143   3.816664   3.289453   5.429572   6.808159
                   11         12         13         14         15
    11  H    0.000000
    12  C    3.426449   0.000000
    13  O    4.485772   1.434214   0.000000
    14  C    5.739896   2.405044   1.435094   0.000000
    15  O    6.536255   3.455918   2.090798   1.434930   0.000000
    16  C    7.196527   4.417584   3.066880   2.520689   1.435480
    17  C    6.764902   4.609355   3.316600   3.413173   2.431955
    18  O    5.476489   3.857409   2.843129   3.472477   2.979567
    19  H    4.681929   2.873154   1.942536   2.835408   2.674159
    20  C    7.938581   6.024829   4.790207   4.772344   3.768463
    21  O    8.148499   6.759173   5.610177   5.876941   4.885840
    22  H    8.959083   7.614407   6.482885   6.653988   5.674502
    23  C    9.420442   6.250398   4.992737   3.882021   2.963761
    24  O    9.193557   5.842222   4.741236   3.477379   2.915451
    25  H   10.096696   6.708573   5.677816   4.374184   3.909763
    26  C    8.661623   5.783844   4.404467   3.657303   2.414770
    27  O    9.558771   6.909647   5.550333   4.897423   3.718398
    28  C    9.272331   7.040068   5.695181   5.387583   4.181333
    29  O   10.228142   8.120745   6.846902   6.480029   5.401099
    30  H    3.945263   3.025723   4.243349   4.836149   5.992746
    31  H    2.198580   2.202788   2.657117   4.025396   4.544709
    32  H    2.294885   1.435495   2.814544   3.825054   4.878000
    33  H    3.718291   1.070000   1.988988   2.490435   3.730625
    34  H    4.378734   2.153091   2.732129   3.355761   4.214657
    35  H    5.571383   2.629161   3.124353   2.660210   4.052326
    36  H    6.670958   3.405647   2.779517   2.123846   2.527381
    37  H    5.922817   2.759406   2.087677   1.070000   2.087263
    38  H   10.380764   7.228788   5.937968   4.877839   3.863919
    39  H    9.642007   6.506268   5.341623   4.154887   3.475627
    40  H    8.783995   5.977446   4.554965   3.987220   2.590932
    41  H   10.912361   8.899672   7.600049   7.292349   6.136713
    42  H    9.638615   7.489204   6.106405   5.906666   4.582960
    43  H    7.974824   6.123460   5.013204   4.910359   4.139253
    44  H    7.005903   4.902816   3.555528   3.769584   2.586244
    45  H    7.226945   4.457390   3.295373   2.575697   2.039135
                   16         17         18         19         20
    16  C    0.000000
    17  C    1.520062   0.000000
    18  O    2.575134   1.434813   0.000000
    19  H    2.755382   2.084932   0.999472   0.000000
    20  C    2.504758   1.520115   2.481715   3.377299   0.000000
    21  O    3.792935   2.481067   2.923248   3.910963   1.434995
    22  H    4.456874   3.299954   3.790820   4.788462   1.954492
    23  C    2.563371   3.904926   5.128294   5.258512   4.313418
    24  O    3.187091   4.646861   5.652367   5.528301   5.393662
    25  H    4.144619   5.601651   6.641732   6.525257   6.245660
    26  C    1.519559   2.524423   3.869749   4.182039   2.886919
    27  O    2.492592   2.957294   4.360024   4.929789   2.519124
    28  C    2.872860   2.535081   3.822072   4.608521   1.519623
    29  O    4.002145   3.691246   4.811571   5.662938   2.350007
    30  H    7.204032   7.544533   6.816446   5.817513   9.006127
    31  H    5.099719   4.588933   3.334872   2.510941   5.813670
    32  H    5.801246   5.828296   4.860219   3.885567   7.195057
    33  H    4.510426   4.822379   4.102753   3.207203   6.120137
    34  H    5.534805   5.901264   5.394649   4.439704   7.415422
    35  H    5.116345   5.982710   5.727182   4.891533   7.304720
    36  H    3.920188   4.895855   5.122618   4.457524   6.285672
    37  H    2.640411   3.579134   3.616174   3.087561   4.744613
    38  H    3.433082   4.606372   5.925168   6.132273   4.818644
    39  H    2.866821   4.207392   5.371786   5.538248   4.433039
    40  H    2.087749   2.746691   4.062998   4.352639   3.218577
    41  H    4.783532   4.359151   5.458829   6.349504   2.982696
    42  H    3.465209   2.986485   4.230568   5.011570   2.154577
    43  H    2.812197   2.105818   2.769443   3.617203   1.070000
    44  H    2.037288   1.070000   1.961628   2.478453   2.045054
    45  H    1.070000   2.112265   2.888004   3.036344   2.794100
                   21         22         23         24         25
    21  O    0.000000
    22  H    1.000331   0.000000
    23  C    5.639453   6.062218   0.000000
    24  O    6.711467   7.249220   1.434527   0.000000
    25  H    7.569331   8.048224   2.008712   1.000883   0.000000
    26  C    4.158936   4.654755   1.520403   2.631357   3.424178
    27  O    3.696635   3.900886   2.378922   3.764334   4.369533
    28  C    2.368586   2.518497   3.695862   4.989608   5.693090
    29  O    2.888162   2.502795   4.535557   5.924504   6.514423
    30  H    9.708099  10.596851   8.564900   7.760231   8.427318
    31  H    6.091785   6.951615   7.426177   7.357784   8.313371
    32  H    7.776301   8.629170   7.684397   7.238955   8.076891
    33  H    6.953887   7.724442   6.266742   5.883563   6.710238
    34  H    8.134412   9.064831   6.853776   6.105440   6.841880
    35  H    8.381241   9.135232   5.961898   5.112319   5.698073
    36  H    7.329797   8.165357   4.333530   3.364221   4.030528
    37  H    5.930805   6.602736   3.961072   3.693615   4.530831
    38  H    6.042943   6.387656   1.070000   2.009285   2.171276
    39  H    5.827943   6.131998   1.070000   2.009285   2.379331
    40  H    4.248601   4.837287   2.092005   2.934683   3.693360
    41  H    3.143547   2.608781   5.201246   6.605284   7.153571
    42  H    2.498137   2.704632   4.153787   5.387870   6.065838
    43  H    2.033468   2.202788   4.565009   5.650037   6.470402
    44  H    2.624614   3.537913   4.077087   4.757390   5.698296
    45  H    4.162741   4.687267   2.772563   3.380125   4.264860
                   26         27         28         29         30
    26  C    0.000000
    27  O    1.434817   0.000000
    28  C    2.390698   1.435343   0.000000
    29  O    3.505093   2.198786   1.435506   0.000000
    30  H    8.397320   9.664801   9.930970  11.069564   0.000000
    31  H    6.546317   7.415872   7.106796   8.123524   4.301836
    32  H    7.196687   8.285543   8.319613   9.367607   2.300218
    33  H    5.906576   6.950723   7.151166   8.098177   3.369882
    34  H    6.602357   7.923179   8.195522   9.441999   2.145555
    35  H    6.148808   7.375445   7.975970   8.958758   3.281205
    36  H    4.497503   5.922208   6.591592   7.828123   4.631900
    37  H    3.822455   4.880304   5.408412   6.314601   5.235586
    38  H    2.083492   2.539664   3.892640   4.636821   9.477578
    39  H    2.083492   2.510456   3.865579   4.417387   8.877368
    40  H    1.070000   2.017828   2.646775   3.938234   8.471626
    41  H    4.170739   2.845418   1.975095   0.960000  11.840817
    42  H    2.839574   2.079045   1.070000   2.075330  10.303115
    43  H    3.331332   2.850190   2.107468   2.377782   9.141113
    44  H    2.650120   3.185167   2.696496   4.035887   7.678982
    45  H    2.112065   2.778108   3.257098   4.076684   7.266374
                   31         32         33         34         35
    31  H    0.000000
    32  H    2.140000   0.000000
    33  H    2.730164   1.816321   0.000000
    34  H    3.656631   2.442526   2.975274   0.000000
    35  H    4.799961   3.320977   2.281072   2.963156   0.000000
    36  H    5.212776   4.574321   3.838284   2.853029   2.947276
    37  H    4.309992   4.079367   2.408588   4.105721   2.667758
    38  H    8.350179   8.663004   7.300729   7.691706   6.931532
    39  H    7.703822   7.918088   6.347078   7.337412   6.049543
    40  H    6.643061   7.364331   6.280144   6.527135   6.516168
    41  H    8.793402  10.132990   8.938612  10.150807   9.822502
    42  H    7.450106   8.749142   7.734732   8.453120   8.551960
    43  H    5.951944   7.254392   6.035346   7.728449   7.267702
    44  H    4.809366   6.098996   5.318899   5.860305   6.377195
    45  H    5.247770   5.806137   4.292559   5.832549   4.892825
                   36         37         38         39         40
    36  H    0.000000
    37  H    3.016051   0.000000
    38  H    5.078362   5.021402   0.000000
    39  H    4.916470   3.950085   1.716523   0.000000
    40  H    4.443887   4.402541   2.319165   2.941246   0.000000
    41  H    8.536839   7.196377   5.149146   5.169687   4.421215
    42  H    6.869065   6.092651   4.167313   4.532353   2.678752
    43  H    6.648760   4.646817   5.157999   4.433936   3.923658
    44  H    4.840439   4.194791   4.624303   4.613116   2.432067
    45  H    4.294462   2.245295   3.742643   2.669366   2.965443
                   41         42         43         44         45
    41  H    0.000000
    42  H    2.141441   0.000000
    43  H    3.165528   2.984520   0.000000
    44  H    4.530718   2.750725   2.930377   0.000000
    45  H    4.968220   4.072695   2.680480   2.929173   0.000000
 Stoichiometry    C12H22O11
 Framework group  C1[X(C12H22O11)]
 Deg. of freedom   129
 Full point group                 C1      NOp   1
 Largest Abelian subgroup         C1      NOp   1
 Largest concise Abelian subgroup C1      NOp   1
                         Standard orientation:                         
 ---------------------------------------------------------------------
 Center     Atomic      Atomic             Coordinates (Angstroms)
 Number     Number       Type             X           Y           Z
 ---------------------------------------------------------------------
      1          8           0       -4.927661   -0.423091    0.277116
      2          6           0       -3.664960   -0.160572   -0.353546
      3          6           0       -3.306549    1.243529    0.106030
      4          8           0       -4.230281    2.302175   -0.186395
      5          1           0       -5.073155    1.870073    0.135026
      6          6           0       -1.869705    1.652951   -0.171210
      7          8           0       -1.342217    2.780874    0.541569
      8          1           0       -0.361916    2.891772    0.380509
      9          6           0       -2.985379   -2.630957    0.023195
     10          8           0       -4.257572   -3.283329    0.151971
     11          1           0       -4.081176   -4.266502    0.194792
     12          6           0       -2.642636   -1.156773    0.167661
     13          8           0       -1.334718   -0.748595   -0.256262
     14          6           0       -0.932795    0.532563    0.250281
     15          8           0        0.295034    0.539674   -0.492290
     16          6           0        1.560871    0.199700    0.093096
     17          6           0        1.946883   -1.229137   -0.253325
     18          8           0        1.029611   -2.315381   -0.060002
     19          1           0        0.056132   -2.098256   -0.124354
     20          6           0        3.370627   -1.529419    0.186600
     21          8           0        3.906153   -2.748287   -0.348921
     22          1           0        4.771505   -2.891260    0.132107
     23          6           0        2.313287    2.649029    0.018747
     24          8           0        1.074179    3.334829   -0.209634
     25          1           0        1.214763    4.323295   -0.139370
     26          6           0        2.612105    1.204204   -0.348424
     27          8           0        3.946736    0.921266    0.095880
     28          6           0        4.350926   -0.427920   -0.180777
     29          8           0        5.435019   -0.558742    0.751052
     30          1           0       -5.575072   -0.662176   -0.390191
     31          1           0       -2.161302   -3.273396   -0.207173
     32          1           0       -3.809456   -1.988518    0.253564
     33          1           0       -2.637233   -0.998863    1.225931
     34          1           0       -3.747546   -0.209783   -1.419218
     35          1           0       -3.345475    1.168820    1.172709
     36          1           0       -1.756159    1.823689   -1.221380
     37          1           0       -0.763274    0.512120    1.306569
     38          1           0        3.064042    3.234475   -0.469639
     39          1           0        2.499184    2.726482    1.069624
     40          1           0        2.633814    1.161979   -1.417370
     41          1           0        6.246846   -0.744374    0.273476
     42          1           0        4.696271   -0.531964   -1.188156
     43          1           0        3.366212   -1.617993    1.252918
     44          1           0        2.029057   -1.191665   -1.319507
     45          1           0        1.463627    0.267703    1.156496
 ---------------------------------------------------------------------
 Rotational constants (GHZ):      0.4008770      0.1465472      0.1095552
 Standard basis: 6-31+G(d,p) (6D, 7F)
 There are   547 symmetry adapted basis functions of A   symmetry.
 Integral buffers will be    131072 words long.
 Raffenetti 2 integral format.
 Two-electron integral symmetry is turned on.
   547 basis functions,   890 primitive gaussians,   547 cartesian basis functions
    91 alpha electrons       91 beta electrons
       nuclear repulsion energy      2285.1082131838 Hartrees.
 NAtoms=   45 NActive=   45 NUniq=   45 SFac= 1.00D+00 NAtFMM=   50 NAOKFM=F Big=F
 One-electron integrals computed using PRISM.
 NBasis=   547 RedAO= T  NBF=   547
 NBsUse=   547 1.00D-06 NBFU=   547
 Harris functional with IExCor=  402 diagonalized for initial guess.
 ExpMin= 4.38D-02 ExpMax= 5.48D+03 ExpMxC= 8.25D+02 IAcc=2 IRadAn=         0 AccDes= 0.00D+00
 HarFok:  IExCor=  402 AccDes= 0.00D+00 IRadAn=         0 IDoV= 1
 ScaDFX=  1.000000  1.000000  1.000000  1.000000
 FoFCou: FMM=F IPFlag=           0 FMFlag=      100000 FMFlg1=           0
         NFxFlg=           0 DoJE=T BraDBF=F KetDBF=T FulRan=T
         Omega=  0.000000  0.000000  1.000000  0.000000  0.000000 ICntrl=     500 IOpCl=  0
         NMat0=    1 NMatS0=    1 NMatT0=    0 NMatD0=    1 NMtDS0=    0 NMtDT0=    0
         I1Cent=           4 NGrid=           0.
 Petite list used in FoFCou.
 Initial guess orbital symmetries:
       Occupied  (A) (A) (A) (A) (A) (A) (A) (A) (A) (A) (A) (A)
                 (A) (A) (A) (A) (A) (A) (A) (A) (A) (A) (A) (A)
                 (A) (A) (A) (A) (A) (A) (A) (A) (A) (A) (A) (A)
                 (A) (A) (A) (A) (A) (A) (A) (A) (A) (A) (A) (A)
                 (A) (A) (A) (A) (A) (A) (A) (A) (A) (A) (A) (A)
                 (A) (A) (A) (A) (A) (A) (A) (A) (A) (A) (A) (A)
                 (A) (A) (A) (A) (A) (A) (A) (A) (A) (A) (A) (A)
                 (A) (A) (A) (A) (A) (A) (A)
       Virtual   (A) (A) (A) (A) (A) (A) (A) (A) (A) (A) (A) (A)
                 (A) (A) (A) (A) (A) (A) (A) (A) (A) (A) (A) (A)
                 (A) (A) (A) (A) (A) (A) (A) (A) (A) (A) (A) (A)
                 (A) (A) (A) (A) (A) (A) (A) (A) (A) (A) (A) (A)
                 (A) (A) (A) (A) (A) (A) (A) (A) (A) (A) (A) (A)
                 (A) (A) (A) (A) (A) (A) (A) (A) (A) (A) (A) (A)
                 (A) (A) (A) (A) (A) (A) (A) (A) (A) (A) (A) (A)
                 (A) (A) (A) (A) (A) (A) (A) (A) (A) (A) (A) (A)
                 (A) (A) (A) (A) (A) (A) (A) (A) (A) (A) (A) (A)
                 (A) (A) (A) (A) (A) (A) (A) (A) (A) (A) (A) (A)
                 (A) (A) (A) (A) (A) (A) (A) (A) (A) (A) (A) (A)
                 (A) (A) (A) (A) (A) (A) (A) (A) (A) (A) (A) (A)
                 (A) (A) (A) (A) (A) (A) (A) (A) (A) (A) (A) (A)
                 (A) (A) (A) (A) (A) (A) (A) (A) (A) (A) (A) (A)
                 (A) (A) (A) (A) (A) (A) (A) (A) (A) (A) (A) (A)
                 (A) (A) (A) (A) (A) (A) (A) (A) (A) (A) (A) (A)
                 (A) (A) (A) (A) (A) (A) (A) (A) (A) (A) (A) (A)
                 (A) (A) (A) (A) (A) (A) (A) (A) (A) (A) (A) (A)
                 (A) (A) (A) (A) (A) (A) (A) (A) (A) (A) (A) (A)
                 (A) (A) (A) (A) (A) (A) (A) (A) (A) (A) (A) (A)
                 (A) (A) (A) (A) (A) (A) (A) (A) (A) (A) (A) (A)
                 (A) (A) (A) (A) (A) (A) (A) (A) (A) (A) (A) (A)
                 (A) (A) (A) (A) (A) (A) (A) (A) (A) (A) (A) (A)
                 (A) (A) (A) (A) (A) (A) (A) (A) (A) (A) (A) (A)
                 (A) (A) (A) (A) (A) (A) (A) (A) (A) (A) (A) (A)
                 (A) (A) (A) (A) (A) (A) (A) (A) (A) (A) (A) (A)
                 (A) (A) (A) (A) (A) (A) (A) (A) (A) (A) (A) (A)
                 (A) (A) (A) (A) (A) (A) (A) (A) (A) (A) (A) (A)
                 (A) (A) (A) (A) (A) (A) (A) (A) (A) (A) (A) (A)
                 (A) (A) (A) (A) (A) (A) (A) (A) (A) (A) (A) (A)
                 (A) (A) (A) (A) (A) (A) (A) (A) (A) (A) (A) (A)
                 (A) (A) (A) (A) (A) (A) (A) (A) (A) (A) (A) (A)
                 (A) (A) (A) (A) (A) (A) (A) (A) (A) (A) (A) (A)
                 (A) (A) (A) (A) (A) (A) (A) (A) (A) (A) (A) (A)
                 (A) (A) (A) (A) (A) (A) (A) (A) (A) (A) (A) (A)
                 (A) (A) (A) (A) (A) (A) (A) (A) (A) (A) (A) (A)
                 (A) (A) (A) (A) (A) (A) (A) (A) (A) (A) (A) (A)
                 (A) (A) (A) (A) (A) (A) (A) (A) (A) (A) (A) (A)
 The electronic state of the initial guess is 1-A.
 Requested convergence on RMS density matrix=1.00D-08 within 128 cycles.
 Requested convergence on MAX density matrix=1.00D-06.
 Requested convergence on             energy=1.00D-06.
 No special actions if energy rises.
 SCF Done:  E(RB3LYP) =  -1297.59809084     A.U. after   19 cycles
             Convg  =    0.8954D-08             -V/T =  2.0083
 Range of M.O.s used for correlation:     1   547
 NBasis=   547 NAE=    91 NBE=    91 NFC=     0 NFV=     0
 NROrb=    547 NOA=    91 NOB=    91 NVA=   456 NVB=   456

 **** Warning!!: The largest alpha MO coefficient is  0.78186899D+02


 **** Warning!!: The smallest alpha delta epsilon is  0.58536218D-01

          Differentiating once with respect to electric field.
                with respect to dipole field.
          Electric field/nuclear overlap derivatives assumed to be zero.
          There are     3 degrees of freedom in the 1st order CPHF.  IDoFFX=0.
      3 vectors produced by pass  0 Test12= 1.38D-12 3.33D-08 XBig12= 1.61D+02 3.17D+00.
 AX will form     3 AO Fock derivatives at one time.
      3 vectors produced by pass  1 Test12= 1.38D-12 3.33D-08 XBig12= 3.40D+01 2.49D+00.
      3 vectors produced by pass  2 Test12= 1.38D-12 3.33D-08 XBig12= 1.22D+01 8.80D-01.
      3 vectors produced by pass  3 Test12= 1.38D-12 3.33D-08 XBig12= 5.61D+00 1.57D+00.
      3 vectors produced by pass  4 Test12= 1.38D-12 3.33D-08 XBig12= 1.36D+00 3.32D-01.
      3 vectors produced by pass  5 Test12= 1.38D-12 3.33D-08 XBig12= 6.29D-01 2.28D-01.
      3 vectors produced by pass  6 Test12= 1.38D-12 3.33D-08 XBig12= 1.17D-01 7.42D-02.
      3 vectors produced by pass  7 Test12= 1.38D-12 3.33D-08 XBig12= 2.18D-02 4.10D-02.
      3 vectors produced by pass  8 Test12= 1.38D-12 3.33D-08 XBig12= 4.44D-03 1.13D-02.
      3 vectors produced by pass  9 Test12= 1.38D-12 3.33D-08 XBig12= 1.30D-03 6.85D-03.
      3 vectors produced by pass 10 Test12= 1.38D-12 3.33D-08 XBig12= 2.54D-04 2.82D-03.
      3 vectors produced by pass 11 Test12= 1.38D-12 3.33D-08 XBig12= 7.60D-05 1.49D-03.
      3 vectors produced by pass 12 Test12= 1.38D-12 3.33D-08 XBig12= 1.25D-05 6.06D-04.
      3 vectors produced by pass 13 Test12= 1.38D-12 3.33D-08 XBig12= 3.70D-06 3.22D-04.
      3 vectors produced by pass 14 Test12= 1.38D-12 3.33D-08 XBig12= 6.24D-07 1.31D-04.
      3 vectors produced by pass 15 Test12= 1.38D-12 3.33D-08 XBig12= 1.16D-07 3.80D-05.
      3 vectors produced by pass 16 Test12= 1.38D-12 3.33D-08 XBig12= 3.10D-08 2.54D-05.
      3 vectors produced by pass 17 Test12= 1.38D-12 3.33D-08 XBig12= 3.63D-09 7.01D-06.
      3 vectors produced by pass 18 Test12= 1.38D-12 3.33D-08 XBig12= 4.05D-10 2.03D-06.
      3 vectors produced by pass 19 Test12= 1.38D-12 3.33D-08 XBig12= 6.01D-11 8.99D-07.
      3 vectors produced by pass 20 Test12= 1.38D-12 3.33D-08 XBig12= 1.66D-11 7.82D-07.
      3 vectors produced by pass 21 Test12= 1.38D-12 3.33D-08 XBig12= 5.16D-12 3.49D-07.
      2 vectors produced by pass 22 Test12= 1.38D-12 3.33D-08 XBig12= 1.12D-12 7.76D-08.
 Inverted reduced A of dimension    68 with in-core refinement.
 End of Minotr Frequency-dependent properties file   721 does not exist.
 End of Minotr Frequency-dependent properties file   722 does not exist.
 Symmetrizing basis deriv contribution to polar:
 IMax=3 JMax=2 DiffMx= 0.00D+00
 G2DrvN: will do    23 centers at a time, making    2 passes doing MaxLOS=2.
 Calling FoFCou, ICntrl=  3107 FMM=F I1Cent=   0 AccDes= 0.00D+00.
 Calling FoFCou, ICntrl=  3107 FMM=F I1Cent=   0 AccDes= 0.00D+00.
 FoFDir/FoFCou used for L=0 through L=2.
 End of G2Drv Frequency-dependent properties file   721 does not exist.
 End of G2Drv Frequency-dependent properties file   722 does not exist.
          IDoAtm=111111111111111111111111111111111111111111111
          Differentiating once with respect to electric field.
                with respect to dipole field.
          Differentiating once with respect to nuclear coordinates.
          There are   138 degrees of freedom in the 1st order CPHF.  IDoFFX=5.
 Will reuse    3 saved solutions.
    135 vectors produced by pass  0 Test12= 4.15D-14 1.00D-09 XBig12= 4.09D-01 4.24D-01.
 AX will form    68 AO Fock derivatives at one time.
    135 vectors produced by pass  1 Test12= 4.15D-14 1.00D-09 XBig12= 2.97D-02 2.78D-02.
    132 vectors produced by pass  2 Test12= 4.15D-14 1.00D-09 XBig12= 2.73D-04 2.17D-03.
    132 vectors produced by pass  3 Test12= 4.15D-14 1.00D-09 XBig12= 1.12D-06 1.08D-04.
    132 vectors produced by pass  4 Test12= 4.15D-14 1.00D-09 XBig12= 1.89D-09 4.20D-06.
    132 vectors produced by pass  5 Test12= 4.15D-14 1.00D-09 XBig12= 7.76D-12 2.94D-07.
     86 vectors produced by pass  6 Test12= 4.15D-14 1.00D-09 XBig12= 1.82D-13 2.57D-08.
 Inverted reduced A of dimension   884 with in-core refinement.
 Isotropic polarizability for W=    0.000000      204.30 Bohr**3.
 End of Minotr Frequency-dependent properties file   721 does not exist.
 End of Minotr Frequency-dependent properties file   722 does not exist.

 **********************************************************************

            Population analysis using the SCF density.

 **********************************************************************

 Orbital symmetries:
       Occupied  (A) (A) (A) (A) (A) (A) (A) (A) (A) (A) (A) (A)
                 (A) (A) (A) (A) (A) (A) (A) (A) (A) (A) (A) (A)
                 (A) (A) (A) (A) (A) (A) (A) (A) (A) (A) (A) (A)
                 (A) (A) (A) (A) (A) (A) (A) (A) (A) (A) (A) (A)
                 (A) (A) (A) (A) (A) (A) (A) (A) (A) (A) (A) (A)
                 (A) (A) (A) (A) (A) (A) (A) (A) (A) (A) (A) (A)
                 (A) (A) (A) (A) (A) (A) (A) (A) (A) (A) (A) (A)
                 (A) (A) (A) (A) (A) (A) (A)
       Virtual   (A) (A) (A) (A) (A) (A) (A) (A) (A) (A) (A) (A)
                 (A) (A) (A) (A) (A) (A) (A) (A) (A) (A) (A) (A)
                 (A) (A) (A) (A) (A) (A) (A) (A) (A) (A) (A) (A)
                 (A) (A) (A) (A) (A) (A) (A) (A) (A) (A) (A) (A)
                 (A) (A) (A) (A) (A) (A) (A) (A) (A) (A) (A) (A)
                 (A) (A) (A) (A) (A) (A) (A) (A) (A) (A) (A) (A)
                 (A) (A) (A) (A) (A) (A) (A) (A) (A) (A) (A) (A)
                 (A) (A) (A) (A) (A) (A) (A) (A) (A) (A) (A) (A)
                 (A) (A) (A) (A) (A) (A) (A) (A) (A) (A) (A) (A)
                 (A) (A) (A) (A) (A) (A) (A) (A) (A) (A) (A) (A)
                 (A) (A) (A) (A) (A) (A) (A) (A) (A) (A) (A) (A)
                 (A) (A) (A) (A) (A) (A) (A) (A) (A) (A) (A) (A)
                 (A) (A) (A) (A) (A) (A) (A) (A) (A) (A) (A) (A)
                 (A) (A) (A) (A) (A) (A) (A) (A) (A) (A) (A) (A)
                 (A) (A) (A) (A) (A) (A) (A) (A) (A) (A) (A) (A)
                 (A) (A) (A) (A) (A) (A) (A) (A) (A) (A) (A) (A)
                 (A) (A) (A) (A) (A) (A) (A) (A) (A) (A) (A) (A)
                 (A) (A) (A) (A) (A) (A) (A) (A) (A) (A) (A) (A)
                 (A) (A) (A) (A) (A) (A) (A) (A) (A) (A) (A) (A)
                 (A) (A) (A) (A) (A) (A) (A) (A) (A) (A) (A) (A)
                 (A) (A) (A) (A) (A) (A) (A) (A) (A) (A) (A) (A)
                 (A) (A) (A) (A) (A) (A) (A) (A) (A) (A) (A) (A)
                 (A) (A) (A) (A) (A) (A) (A) (A) (A) (A) (A) (A)
                 (A) (A) (A) (A) (A) (A) (A) (A) (A) (A) (A) (A)
                 (A) (A) (A) (A) (A) (A) (A) (A) (A) (A) (A) (A)
                 (A) (A) (A) (A) (A) (A) (A) (A) (A) (A) (A) (A)
                 (A) (A) (A) (A) (A) (A) (A) (A) (A) (A) (A) (A)
                 (A) (A) (A) (A) (A) (A) (A) (A) (A) (A) (A) (A)
                 (A) (A) (A) (A) (A) (A) (A) (A) (A) (A) (A) (A)
                 (A) (A) (A) (A) (A) (A) (A) (A) (A) (A) (A) (A)
                 (A) (A) (A) (A) (A) (A) (A) (A) (A) (A) (A) (A)
                 (A) (A) (A) (A) (A) (A) (A) (A) (A) (A) (A) (A)
                 (A) (A) (A) (A) (A) (A) (A) (A) (A) (A) (A) (A)
                 (A) (A) (A) (A) (A) (A) (A) (A) (A) (A) (A) (A)
                 (A) (A) (A) (A) (A) (A) (A) (A) (A) (A) (A) (A)
                 (A) (A) (A) (A) (A) (A) (A) (A) (A) (A) (A) (A)
                 (A) (A) (A) (A) (A) (A) (A) (A) (A) (A) (A) (A)
                 (A) (A) (A) (A) (A) (A) (A) (A) (A) (A) (A) (A)
 The electronic state is 1-A.
 Alpha  occ. eigenvalues --  -19.21029 -19.20397 -19.19777 -19.19167 -19.18927
 Alpha  occ. eigenvalues --  -19.18693 -19.18172 -19.17235 -19.17198 -19.14569
 Alpha  occ. eigenvalues --  -19.13702 -10.31242 -10.31177 -10.30134 -10.27313
 Alpha  occ. eigenvalues --  -10.26916 -10.26422 -10.26078 -10.25302 -10.25276
 Alpha  occ. eigenvalues --  -10.24979 -10.24682 -10.19456  -1.10538  -1.09586
 Alpha  occ. eigenvalues --   -1.08658  -1.06628  -1.06234  -1.03839  -1.03323
 Alpha  occ. eigenvalues --   -1.03244  -1.02470  -1.00409  -0.99948  -0.84643
 Alpha  occ. eigenvalues --   -0.81891  -0.79739  -0.79553  -0.73843  -0.71075
 Alpha  occ. eigenvalues --   -0.68242  -0.65312  -0.63717  -0.63530  -0.61492
 Alpha  occ. eigenvalues --   -0.60600  -0.57713  -0.56836  -0.56574  -0.55962
 Alpha  occ. eigenvalues --   -0.55172  -0.54133  -0.53480  -0.52218  -0.51710
 Alpha  occ. eigenvalues --   -0.51350  -0.50625  -0.49809  -0.49181  -0.48032
 Alpha  occ. eigenvalues --   -0.46360  -0.45828  -0.45180  -0.43832  -0.43395
 Alpha  occ. eigenvalues --   -0.42305  -0.42141  -0.40760  -0.40081  -0.39112
 Alpha  occ. eigenvalues --   -0.38893  -0.38590  -0.38068  -0.37625  -0.37030
 Alpha  occ. eigenvalues --   -0.36918  -0.35117  -0.34528  -0.34037  -0.33737
 Alpha  occ. eigenvalues --   -0.33176  -0.32391  -0.31127  -0.30152  -0.29690
 Alpha  occ. eigenvalues --   -0.29324  -0.28511  -0.28217  -0.26932  -0.26288
 Alpha  occ. eigenvalues --   -0.13490
 Alpha virt. eigenvalues --   -0.07637  -0.02442  -0.01789  -0.01312   0.00290
 Alpha virt. eigenvalues --    0.01124   0.01213   0.02042   0.02615   0.03135
 Alpha virt. eigenvalues --    0.03272   0.03447   0.04060   0.04775   0.05212
 Alpha virt. eigenvalues --    0.05983   0.06390   0.06747   0.07780   0.07930
 Alpha virt. eigenvalues --    0.08142   0.08534   0.08674   0.09432   0.09802
 Alpha virt. eigenvalues --    0.10003   0.10844   0.11228   0.11535   0.11776
 Alpha virt. eigenvalues --    0.12126   0.12510   0.12592   0.13269   0.13380
 Alpha virt. eigenvalues --    0.13760   0.14002   0.14257   0.14783   0.15281
 Alpha virt. eigenvalues --    0.15493   0.15745   0.16255   0.16734   0.16979
 Alpha virt. eigenvalues --    0.17081   0.17169   0.17853   0.18052   0.18161
 Alpha virt. eigenvalues --    0.18540   0.18870   0.19219   0.19546   0.20011
 Alpha virt. eigenvalues --    0.20317   0.20354   0.20541   0.21093   0.21266
 Alpha virt. eigenvalues --    0.21882   0.22146   0.22496   0.22855   0.23360
 Alpha virt. eigenvalues --    0.23585   0.23757   0.24125   0.24337   0.24727
 Alpha virt. eigenvalues --    0.24839   0.25439   0.25566   0.25710   0.26011
 Alpha virt. eigenvalues --    0.26138   0.26379   0.26729   0.26921   0.27326
 Alpha virt. eigenvalues --    0.27516   0.27838   0.27961   0.28448   0.28810
 Alpha virt. eigenvalues --    0.29194   0.29703   0.29922   0.30179   0.30614
 Alpha virt. eigenvalues --    0.30804   0.31155   0.31455   0.31867   0.32293
 Alpha virt. eigenvalues --    0.32470   0.32882   0.33157   0.33602   0.34022
 Alpha virt. eigenvalues --    0.34301   0.34443   0.35182   0.35245   0.35762
 Alpha virt. eigenvalues --    0.36180   0.36509   0.37057   0.37633   0.37746
 Alpha virt. eigenvalues --    0.38076   0.38351   0.38706   0.39332   0.39749
 Alpha virt. eigenvalues --    0.40136   0.40318   0.40967   0.41499   0.42053
 Alpha virt. eigenvalues --    0.42415   0.43131   0.43452   0.43574   0.44238
 Alpha virt. eigenvalues --    0.44440   0.45059   0.45402   0.46370   0.46465
 Alpha virt. eigenvalues --    0.47006   0.47404   0.48181   0.49382   0.49686
 Alpha virt. eigenvalues --    0.50531   0.52009   0.53954   0.62621   0.63001
 Alpha virt. eigenvalues --    0.64963   0.65760   0.68569   0.69175   0.69603
 Alpha virt. eigenvalues --    0.70231   0.73299   0.73634   0.74606   0.75294
 Alpha virt. eigenvalues --    0.76165   0.76744   0.77751   0.78722   0.79133
 Alpha virt. eigenvalues --    0.80159   0.80279   0.81996   0.83145   0.83593
 Alpha virt. eigenvalues --    0.84962   0.86482   0.87470   0.88214   0.89487
 Alpha virt. eigenvalues --    0.90382   0.91906   0.92450   0.93290   0.95734
 Alpha virt. eigenvalues --    0.95936   0.97382   0.98503   1.00122   1.00812
 Alpha virt. eigenvalues --    1.01326   1.01920   1.02424   1.03577   1.04142
 Alpha virt. eigenvalues --    1.04861   1.05074   1.05737   1.06560   1.07100
 Alpha virt. eigenvalues --    1.07756   1.08000   1.08421   1.09045   1.10407
 Alpha virt. eigenvalues --    1.11337   1.12661   1.13567   1.14240   1.14924
 Alpha virt. eigenvalues --    1.16579   1.17024   1.18330   1.19613   1.20004
 Alpha virt. eigenvalues --    1.22085   1.22569   1.22644   1.22967   1.24651
 Alpha virt. eigenvalues --    1.25054   1.26115   1.26530   1.27212   1.28068
 Alpha virt. eigenvalues --    1.28568   1.29562   1.29740   1.30265   1.31159
 Alpha virt. eigenvalues --    1.31452   1.31655   1.32998   1.33373   1.33776
 Alpha virt. eigenvalues --    1.34694   1.35697   1.36296   1.37140   1.37673
 Alpha virt. eigenvalues --    1.38249   1.38754   1.39516   1.40393   1.41870
 Alpha virt. eigenvalues --    1.42604   1.43498   1.44322   1.45190   1.46989
 Alpha virt. eigenvalues --    1.48152   1.48988   1.49848   1.50398   1.51964
 Alpha virt. eigenvalues --    1.52766   1.53580   1.55050   1.55482   1.56247
 Alpha virt. eigenvalues --    1.56946   1.57464   1.57778   1.60046   1.60360
 Alpha virt. eigenvalues --    1.61574   1.61923   1.62723   1.63241   1.64200
 Alpha virt. eigenvalues --    1.65473   1.66388   1.67207   1.67987   1.68995
 Alpha virt. eigenvalues --    1.69860   1.70077   1.71127   1.72513   1.73188
 Alpha virt. eigenvalues --    1.73906   1.75127   1.75911   1.76399   1.78153
 Alpha virt. eigenvalues --    1.78643   1.79010   1.79642   1.79858   1.80866
 Alpha virt. eigenvalues --    1.81736   1.82996   1.83242   1.85237   1.85420
 Alpha virt. eigenvalues --    1.86719   1.88000   1.88776   1.89445   1.89776
 Alpha virt. eigenvalues --    1.91171   1.91558   1.92617   1.92885   1.93470
 Alpha virt. eigenvalues --    1.94514   1.95056   1.96813   1.97011   1.98517
 Alpha virt. eigenvalues --    1.99333   1.99816   2.00245   2.00515   2.02870
 Alpha virt. eigenvalues --    2.03727   2.05288   2.06755   2.07640   2.07815
 Alpha virt. eigenvalues --    2.08085   2.09213   2.10118   2.11170   2.11774
 Alpha virt. eigenvalues --    2.13527   2.14215   2.14758   2.15797   2.17395
 Alpha virt. eigenvalues --    2.17990   2.18150   2.18838   2.19727   2.21668
 Alpha virt. eigenvalues --    2.22789   2.24789   2.25213   2.26982   2.28009
 Alpha virt. eigenvalues --    2.29484   2.30369   2.30800   2.31391   2.33493
 Alpha virt. eigenvalues --    2.34510   2.35809   2.36340   2.37236   2.39928
 Alpha virt. eigenvalues --    2.40722   2.41393   2.42675   2.44088   2.45063
 Alpha virt. eigenvalues --    2.46361   2.47248   2.47847   2.49428   2.49891
 Alpha virt. eigenvalues --    2.50708   2.51192   2.52964   2.54274   2.55433
 Alpha virt. eigenvalues --    2.56323   2.57353   2.58593   2.59309   2.60042
 Alpha virt. eigenvalues --    2.60891   2.61588   2.62453   2.63514   2.64931
 Alpha virt. eigenvalues --    2.65368   2.65527   2.66694   2.68463   2.69752
 Alpha virt. eigenvalues --    2.70603   2.70976   2.72674   2.73838   2.75088
 Alpha virt. eigenvalues --    2.75320   2.77818   2.78414   2.79120   2.79971
 Alpha virt. eigenvalues --    2.81070   2.82174   2.83095   2.84526   2.85217
 Alpha virt. eigenvalues --    2.85839   2.87626   2.88285   2.88465   2.88771
 Alpha virt. eigenvalues --    2.89708   2.90467   2.92493   2.94285   2.95392
 Alpha virt. eigenvalues --    2.95947   2.97296   2.98220   2.99431   3.00452
 Alpha virt. eigenvalues --    3.01470   3.01863   3.04593   3.07146   3.07613
 Alpha virt. eigenvalues --    3.08710   3.09191   3.11459   3.13340   3.14483
 Alpha virt. eigenvalues --    3.17788   3.18011   3.22433   3.24520   3.26020
 Alpha virt. eigenvalues --    3.28136   3.33117   3.36234   3.38259   3.39257
 Alpha virt. eigenvalues --    3.42374   3.44310   3.45574   3.48897   3.49854
 Alpha virt. eigenvalues --    3.51468   3.51827   3.52728   3.55383   3.56086
 Alpha virt. eigenvalues --    3.59447   3.60951   3.64558   3.65575   3.68832
 Alpha virt. eigenvalues --    3.72285   3.74701   3.99464   4.32043   4.33165
 Alpha virt. eigenvalues --    4.34935   4.36611   4.40533   4.41864   4.46558
 Alpha virt. eigenvalues --    4.48939   4.51199   4.51781   4.53015   4.55165
 Alpha virt. eigenvalues --    4.57458   4.61448   4.64294   4.68894   4.76436
 Alpha virt. eigenvalues --    4.82092   4.83819   4.88012   4.90976   4.92922
 Alpha virt. eigenvalues --    5.03054
          Condensed to atoms (all electrons):
              1          2          3          4          5          6
     1  O    8.345280   0.136349  -0.104246  -0.008392   0.030112   0.054792
     2  C    0.136349   9.469609  -0.711607  -0.057893  -0.107765  -2.659104
     3  C   -0.104246  -0.711607   9.260128   0.326553   0.028703  -1.477682
     4  O   -0.008392  -0.057893   0.326553   8.208543   0.200520  -0.184219
     5  H    0.030112  -0.107765   0.028703   0.200520   0.430535   0.073040
     6  C    0.054792  -2.659104  -1.477682  -0.184219   0.073040  13.830633
     7  O   -0.001449   0.034567  -0.184172   0.008565  -0.000887   0.401615
     8  H    0.000027  -0.013647   0.023741  -0.000588   0.000010  -0.009195
     9  C    0.094373  -2.896975  -0.512303  -0.015027  -0.000678   2.172915
    10  O    0.011883  -0.094652   0.000481   0.000277  -0.000058   0.016051
    11  H   -0.000002   0.013468   0.000505   0.000002   0.000000  -0.001829
    12  C   -0.247185   0.014314  -0.689286   0.016591   0.015618   0.622849
    13  O    0.007744   0.104599   0.168335  -0.001000   0.000163  -0.700033
    14  C    0.051554   1.606296   0.628757   0.026880  -0.009725  -5.926750
    15  O    0.000626  -0.097965  -0.033326   0.000099   0.000019   0.363009
    16  C    0.000065   0.413755  -0.389999   0.000514   0.000513  -0.361079
    17  C    0.001509  -0.154476  -0.065294   0.000378   0.000093   0.479040
    18  O    0.000068   0.002873  -0.001880  -0.000011   0.000000   0.004564
    19  H   -0.000043   0.008023   0.001795   0.000000   0.000000  -0.006638
    20  C    0.000044   0.014114  -0.020702  -0.000006   0.000003   0.065762
    21  O    0.000000   0.000032  -0.000006   0.000000   0.000000  -0.000806
    22  H    0.000000   0.000000   0.000001   0.000000   0.000000  -0.000035
    23  C    0.000138   0.006928  -0.026592   0.000182   0.000002  -0.068094
    24  O    0.000006   0.001618  -0.000433   0.000059  -0.000006  -0.036113
    25  H    0.000000   0.000046   0.000628   0.000003   0.000000   0.002237
    26  C   -0.000475   0.080880   0.036987   0.000057  -0.000024  -0.792574
    27  O    0.000000   0.000133   0.000109   0.000001   0.000000   0.003284
    28  C    0.000007   0.001084   0.000604   0.000008   0.000000  -0.003196
    29  O    0.000000   0.000008   0.000035   0.000000   0.000000  -0.000328
    30  H    0.236945   0.084541  -0.031235   0.000859  -0.003173   0.000124
    31  H    0.000559   0.014698   0.003474   0.000020   0.000000  -0.003629
    32  H    0.003666   0.286073   0.072379   0.000318   0.000005  -0.088445
    33  H    0.020537  -0.303325  -0.105711  -0.000616  -0.000012   0.178914
    34  H   -0.036710   0.362092  -0.076677   0.000127  -0.000285  -0.013533
    35  H   -0.001142   0.072646   0.158709  -0.046659  -0.008937  -0.160979
    36  H   -0.000679   0.086057  -0.207254   0.003446  -0.000181   0.304748
    37  H    0.000142   0.033745  -0.063634  -0.000368   0.000006  -0.064330
    38  H    0.000000   0.000019   0.000092   0.000000   0.000000   0.000261
    39  H    0.000000  -0.000060   0.000626   0.000000   0.000000   0.000331
    40  H    0.000000  -0.000506   0.001329   0.000000   0.000000   0.001462
    41  H    0.000000   0.000000   0.000000   0.000000   0.000000   0.000002
    42  H    0.000000  -0.000012   0.000011   0.000000   0.000000   0.000078
    43  H    0.000000   0.000032   0.000047   0.000000   0.000000   0.000179
    44  H    0.000000  -0.001299   0.001305  -0.000001   0.000000   0.002377
    45  H   -0.000003  -0.001272   0.004221  -0.000001   0.000000  -0.000774
              7          8          9         10         11         12
     1  O   -0.001449   0.000027   0.094373   0.011883  -0.000002  -0.247185
     2  C    0.034567  -0.013647  -2.896975  -0.094652   0.013468   0.014314
     3  C   -0.184172   0.023741  -0.512303   0.000481   0.000505  -0.689286
     4  O    0.008565  -0.000588  -0.015027   0.000277   0.000002   0.016591
     5  H   -0.000887   0.000010  -0.000678  -0.000058   0.000000   0.015618
     6  C    0.401615  -0.009195   2.172915   0.016051  -0.001829   0.622849
     7  O    8.287578   0.211307   0.016989   0.000029   0.000000   0.023722
     8  H    0.211307   0.335971   0.000845   0.000000   0.000000   0.004728
     9  C    0.016989   0.000845  17.581257   0.296289  -0.090726  -7.387684
    10  O    0.000029   0.000000   0.296289   8.536987   0.197075  -0.364688
    11  H    0.000000   0.000000  -0.090726   0.197075   0.387329   0.109654
    12  C    0.023722   0.004728  -7.387684  -0.364688   0.109654  14.514311
    13  O    0.002159   0.001309  -0.743653  -0.005516   0.000048   0.229990
    14  C   -0.168731   0.004569  -1.918613   0.002895  -0.001921  -1.542624
    15  O   -0.011850   0.014204   0.118422   0.000290  -0.000004   0.041599
    16  C    0.035416  -0.006222  -0.643175  -0.005957   0.000527   0.426999
    17  C    0.000508   0.003027   0.412312   0.003094  -0.000358  -0.397642
    18  O    0.000133  -0.000015   0.004575  -0.000178   0.000026  -0.014482
    19  H   -0.000082  -0.000003  -0.028748   0.000042  -0.000005   0.026536
    20  C    0.001862   0.000900  -0.009279  -0.000173   0.000017  -0.019134
    21  O   -0.000005   0.000000  -0.000259   0.000000   0.000000   0.000187
    22  H    0.000000   0.000000   0.000004   0.000000   0.000000   0.000016
    23  C    0.010175   0.018897  -0.007330  -0.000007   0.000000  -0.019160
    24  O   -0.039662  -0.010837   0.000235   0.000000   0.000000   0.003661
    25  H    0.003775  -0.000980   0.000002   0.000000   0.000000  -0.000272
    26  C   -0.021489  -0.033118  -0.182496  -0.000336   0.000019   0.140887
    27  O    0.000049  -0.000028  -0.000383   0.000000   0.000000  -0.000653
    28  C   -0.000494  -0.000492  -0.002491   0.000010   0.000000   0.002217
    29  O   -0.000001  -0.000001  -0.000063   0.000000   0.000000   0.000077
    30  H   -0.000019   0.000000  -0.027054  -0.000081   0.000081  -0.019919
    31  H   -0.000013   0.000000   0.292662  -0.024045  -0.009703   0.067510
    32  H   -0.000080   0.000000  -0.513722  -0.095196   0.009379   0.434563
    33  H    0.000995   0.000003   0.429454   0.027342  -0.000872   0.099829
    34  H   -0.000246   0.000003  -0.009684   0.001485  -0.000022  -0.044500
    35  H    0.003599  -0.000094   0.023953   0.000311   0.000001   0.027014
    36  H   -0.045847  -0.004089   0.005159   0.000023   0.000000   0.022187
    37  H   -0.001228  -0.002360   0.003501  -0.000003   0.000000  -0.005770
    38  H   -0.000748   0.000318  -0.000006   0.000000   0.000000   0.000002
    39  H    0.000565   0.000441  -0.000011   0.000000   0.000000   0.000063
    40  H   -0.000013  -0.000009   0.000119   0.000000   0.000000   0.000702
    41  H    0.000000   0.000000   0.000000   0.000000   0.000000  -0.000004
    42  H    0.000000   0.000000   0.000009   0.000000   0.000000   0.000040
    43  H    0.000000   0.000000  -0.000176   0.000000   0.000000   0.000729
    44  H   -0.000001   0.000002  -0.001062   0.000000   0.000000   0.004741
    45  H   -0.000416  -0.000061  -0.000142   0.000000   0.000000   0.001350
             13         14         15         16         17         18
     1  O    0.007744   0.051554   0.000626   0.000065   0.001509   0.000068
     2  C    0.104599   1.606296  -0.097965   0.413755  -0.154476   0.002873
     3  C    0.168335   0.628757  -0.033326  -0.389999  -0.065294  -0.001880
     4  O   -0.001000   0.026880   0.000099   0.000514   0.000378  -0.000011
     5  H    0.000163  -0.009725   0.000019   0.000513   0.000093   0.000000
     6  C   -0.700033  -5.926750   0.363009  -0.361079   0.479040   0.004564
     7  O    0.002159  -0.168731  -0.011850   0.035416   0.000508   0.000133
     8  H    0.001309   0.004569   0.014204  -0.006222   0.003027  -0.000015
     9  C   -0.743653  -1.918613   0.118422  -0.643175   0.412312   0.004575
    10  O   -0.005516   0.002895   0.000290  -0.005957   0.003094  -0.000178
    11  H    0.000048  -0.001921  -0.000004   0.000527  -0.000358   0.000026
    12  C    0.229990  -1.542624   0.041599   0.426999  -0.397642  -0.014482
    13  O    8.863718   0.520437  -0.125451   0.237500  -0.154168  -0.000019
    14  C    0.520437  13.219854  -0.067425  -1.235119   0.071153  -0.024248
    15  O   -0.125451  -0.067425   8.374001  -0.129415   0.112584   0.002748
    16  C    0.237500  -1.235119  -0.129415  12.669679  -2.766620  -0.124484
    17  C   -0.154168   0.071153   0.112584  -2.766620   9.915884   0.379228
    18  O   -0.000019  -0.024248   0.002748  -0.124484   0.379228   8.246617
    19  H    0.033953  -0.015882   0.005575  -0.036223   0.015528   0.206028
    20  C    0.008286  -0.263477   0.038159  -0.656022  -1.532190  -0.094938
    21  O    0.000119  -0.002390  -0.000404   0.001018  -0.176756   0.008774
    22  H   -0.000005  -0.000067   0.000056  -0.016217   0.040162  -0.000375
    23  C    0.025145  -0.072347  -0.079987   0.383566  -0.274954   0.005235
    24  O   -0.000771   0.071489  -0.018026   0.041339  -0.000999   0.000100
    25  H    0.000038  -0.008072   0.002231  -0.007636  -0.001308  -0.000001
    26  C    0.049064   0.217518  -0.059091  -2.780168  -0.866765   0.033455
    27  O    0.000278  -0.013438   0.007399  -0.152838   0.033909  -0.000585
    28  C   -0.001833  -0.041428   0.021628   0.392248   0.634818  -0.012738
    29  O    0.000041  -0.000120  -0.000088   0.025325  -0.001372  -0.000572
    30  H   -0.000474  -0.000308  -0.000032   0.000402  -0.000146  -0.000001
    31  H   -0.002178  -0.005934  -0.000508   0.007728  -0.004115  -0.000635
    32  H    0.022413   0.027814  -0.001311   0.007254  -0.004167   0.000035
    33  H   -0.115935  -0.006716   0.007137  -0.029645   0.019924   0.000043
    34  H    0.008593   0.066265   0.000118   0.001108   0.000909   0.000036
    35  H    0.007585   0.112047   0.000311   0.010208   0.000333   0.000027
    36  H    0.016320   0.024724  -0.012583   0.038202  -0.004442   0.000085
    37  H   -0.055786   0.369115  -0.058985   0.051296   0.012509  -0.000441
    38  H    0.000015   0.002493   0.000488   0.006209  -0.010060   0.000023
    39  H    0.000059   0.002061   0.002297   0.036156   0.011326   0.000005
    40  H   -0.000750   0.048295   0.002836  -0.017417   0.013649  -0.000650
    41  H    0.000000   0.000026  -0.000001  -0.006874   0.014553  -0.000041
    42  H    0.000004   0.004453   0.000084   0.067435  -0.008745  -0.000824
    43  H    0.000252   0.004477  -0.001400   0.084584  -0.147709   0.001949
    44  H   -0.000058   0.048205  -0.017285   0.036951   0.379299  -0.071900
    45  H    0.000014   0.034579  -0.074799   0.354900  -0.000750  -0.002240
             19         20         21         22         23         24
     1  O   -0.000043   0.000044   0.000000   0.000000   0.000138   0.000006
     2  C    0.008023   0.014114   0.000032   0.000000   0.006928   0.001618
     3  C    0.001795  -0.020702  -0.000006   0.000001  -0.026592  -0.000433
     4  O    0.000000  -0.000006   0.000000   0.000000   0.000182   0.000059
     5  H    0.000000   0.000003   0.000000   0.000000   0.000002  -0.000006
     6  C   -0.006638   0.065762  -0.000806  -0.000035  -0.068094  -0.036113
     7  O   -0.000082   0.001862  -0.000005   0.000000   0.010175  -0.039662
     8  H   -0.000003   0.000900   0.000000   0.000000   0.018897  -0.010837
     9  C   -0.028748  -0.009279  -0.000259   0.000004  -0.007330   0.000235
    10  O    0.000042  -0.000173   0.000000   0.000000  -0.000007   0.000000
    11  H   -0.000005   0.000017   0.000000   0.000000   0.000000   0.000000
    12  C    0.026536  -0.019134   0.000187   0.000016  -0.019160   0.003661
    13  O    0.033953   0.008286   0.000119  -0.000005   0.025145  -0.000771
    14  C   -0.015882  -0.263477  -0.002390  -0.000067  -0.072347   0.071489
    15  O    0.005575   0.038159  -0.000404   0.000056  -0.079987  -0.018026
    16  C   -0.036223  -0.656022   0.001018  -0.016217   0.383566   0.041339
    17  C    0.015528  -1.532190  -0.176756   0.040162  -0.274954  -0.000999
    18  O    0.206028  -0.094938   0.008774  -0.000375   0.005235   0.000100
    19  H    0.349014   0.010209  -0.000707   0.000014  -0.001232  -0.000027
    20  C    0.010209   9.292945   0.326203  -0.035999   0.143693  -0.007079
    21  O   -0.000707   0.326203   8.207981   0.202012  -0.001721   0.000032
    22  H    0.000014  -0.035999   0.202012   0.434851  -0.000524   0.000000
    23  C   -0.001232   0.143693  -0.001721  -0.000524   6.494167  -0.064007
    24  O   -0.000027  -0.007079   0.000032   0.000000  -0.064007   8.556064
    25  H    0.000000   0.000522   0.000000   0.000000  -0.008251   0.202873
    26  C    0.014537   0.483128   0.029803  -0.003681  -1.316179   0.047467
    27  O    0.000081  -0.200047   0.005618   0.000139  -0.113742   0.000672
    28  C    0.000439  -1.596969  -0.060166   0.024646  -0.099925   0.004306
    29  O    0.000029  -0.145781  -0.007921   0.021808  -0.004121   0.000036
    30  H    0.000000   0.000001   0.000000   0.000000   0.000002   0.000000
    31  H    0.002100   0.000129   0.000001   0.000000   0.000012   0.000000
    32  H    0.000046   0.000260   0.000000   0.000000  -0.000007   0.000000
    33  H   -0.000145   0.000117  -0.000001   0.000000   0.000307   0.000022
    34  H   -0.000005   0.000040   0.000000   0.000000   0.000129   0.000013
    35  H    0.000000   0.000083   0.000000   0.000000   0.000405   0.000169
    36  H   -0.000013   0.000592   0.000000   0.000000   0.004831   0.001996
    37  H    0.000197   0.009448  -0.000001   0.000000   0.003519   0.000921
    38  H    0.000000   0.001042   0.000002   0.000000   0.452736  -0.045206
    39  H    0.000000  -0.001963  -0.000016   0.000000   0.596060  -0.074976
    40  H    0.000011  -0.039009  -0.000160   0.000005  -0.003254   0.005082
    41  H    0.000000  -0.024287  -0.002583  -0.002458   0.001847  -0.000001
    42  H    0.000002  -0.098621  -0.002827  -0.001020  -0.000080   0.000019
    43  H    0.000029   0.401974  -0.040288  -0.010116   0.014628  -0.000001
    44  H   -0.000400  -0.141724  -0.000252  -0.000206   0.030504   0.000025
    45  H    0.000133  -0.001446  -0.000621   0.000008   0.041692  -0.000210
             25         26         27         28         29         30
     1  O    0.000000  -0.000475   0.000000   0.000007   0.000000   0.236945
     2  C    0.000046   0.080880   0.000133   0.001084   0.000008   0.084541
     3  C    0.000628   0.036987   0.000109   0.000604   0.000035  -0.031235
     4  O    0.000003   0.000057   0.000001   0.000008   0.000000   0.000859
     5  H    0.000000  -0.000024   0.000000   0.000000   0.000000  -0.003173
     6  C    0.002237  -0.792574   0.003284  -0.003196  -0.000328   0.000124
     7  O    0.003775  -0.021489   0.000049  -0.000494  -0.000001  -0.000019
     8  H   -0.000980  -0.033118  -0.000028  -0.000492  -0.000001   0.000000
     9  C    0.000002  -0.182496  -0.000383  -0.002491  -0.000063  -0.027054
    10  O    0.000000  -0.000336   0.000000   0.000010   0.000000  -0.000081
    11  H    0.000000   0.000019   0.000000   0.000000   0.000000   0.000081
    12  C   -0.000272   0.140887  -0.000653   0.002217   0.000077  -0.019919
    13  O    0.000038   0.049064   0.000278  -0.001833   0.000041  -0.000474
    14  C   -0.008072   0.217518  -0.013438  -0.041428  -0.000120  -0.000308
    15  O    0.002231  -0.059091   0.007399   0.021628  -0.000088  -0.000032
    16  C   -0.007636  -2.780168  -0.152838   0.392248   0.025325   0.000402
    17  C   -0.001308  -0.866765   0.033909   0.634818  -0.001372  -0.000146
    18  O   -0.000001   0.033455  -0.000585  -0.012738  -0.000572  -0.000001
    19  H    0.000000   0.014537   0.000081   0.000439   0.000029   0.000000
    20  C    0.000522   0.483128  -0.200047  -1.596969  -0.145781   0.000001
    21  O    0.000000   0.029803   0.005618  -0.060166  -0.007921   0.000000
    22  H    0.000000  -0.003681   0.000139   0.024646   0.021808   0.000000
    23  C   -0.008251  -1.316179  -0.113742  -0.099925  -0.004121   0.000002
    24  O    0.202873   0.047467   0.000672   0.004306   0.000036   0.000000
    25  H    0.393736   0.033542  -0.000310  -0.001312   0.000000   0.000000
    26  C    0.033542  12.000108   0.334123  -0.872971  -0.057127   0.000011
    27  O   -0.000310   0.334123   8.421912   0.159437  -0.103498   0.000000
    28  C   -0.001312  -0.872971   0.159437   6.370256   0.410883   0.000000
    29  O    0.000000  -0.057127  -0.103498   0.410883   8.266924   0.000000
    30  H    0.000000   0.000011   0.000000   0.000000   0.000000   0.371815
    31  H    0.000000   0.000859   0.000000  -0.000013   0.000000   0.000032
    32  H    0.000000   0.000894   0.000000  -0.000010   0.000000   0.003156
    33  H    0.000000  -0.007004  -0.000001   0.000012   0.000000  -0.000585
    34  H    0.000000  -0.000343   0.000000  -0.000005   0.000000  -0.009740
    35  H    0.000000   0.000888   0.000000  -0.000004   0.000000   0.000416
    36  H   -0.000031   0.000458   0.000005  -0.000054   0.000000   0.000021
    37  H    0.000011   0.000047   0.000185   0.000430  -0.000004   0.000002
    38  H   -0.009859  -0.064465  -0.002886  -0.001313  -0.000049   0.000000
    39  H   -0.002518  -0.304858   0.010291   0.010051  -0.000348   0.000000
    40  H   -0.000181   0.209908  -0.047687   0.049038  -0.002373   0.000000
    41  H    0.000000   0.002145  -0.001659   0.024855   0.230956   0.000000
    42  H    0.000000  -0.043109  -0.054845   0.437687  -0.058208   0.000000
    43  H    0.000000  -0.008423   0.005076  -0.056887  -0.013837   0.000000
    44  H    0.000000  -0.045280   0.000099  -0.023917  -0.000608   0.000000
    45  H    0.000005  -0.161899   0.007399   0.007741  -0.000879   0.000000
             31         32         33         34         35         36
     1  O    0.000559   0.003666   0.020537  -0.036710  -0.001142  -0.000679
     2  C    0.014698   0.286073  -0.303325   0.362092   0.072646   0.086057
     3  C    0.003474   0.072379  -0.105711  -0.076677   0.158709  -0.207254
     4  O    0.000020   0.000318  -0.000616   0.000127  -0.046659   0.003446
     5  H    0.000000   0.000005  -0.000012  -0.000285  -0.008937  -0.000181
     6  C   -0.003629  -0.088445   0.178914  -0.013533  -0.160979   0.304748
     7  O   -0.000013  -0.000080   0.000995  -0.000246   0.003599  -0.045847
     8  H    0.000000   0.000000   0.000003   0.000003  -0.000094  -0.004089
     9  C    0.292662  -0.513722   0.429454  -0.009684   0.023953   0.005159
    10  O   -0.024045  -0.095196   0.027342   0.001485   0.000311   0.000023
    11  H   -0.009703   0.009379  -0.000872  -0.000022   0.000001   0.000000
    12  C    0.067510   0.434563   0.099829  -0.044500   0.027014   0.022187
    13  O   -0.002178   0.022413  -0.115935   0.008593   0.007585   0.016320
    14  C   -0.005934   0.027814  -0.006716   0.066265   0.112047   0.024724
    15  O   -0.000508  -0.001311   0.007137   0.000118   0.000311  -0.012583
    16  C    0.007728   0.007254  -0.029645   0.001108   0.010208   0.038202
    17  C   -0.004115  -0.004167   0.019924   0.000909   0.000333  -0.004442
    18  O   -0.000635   0.000035   0.000043   0.000036   0.000027   0.000085
    19  H    0.002100   0.000046  -0.000145  -0.000005   0.000000  -0.000013
    20  C    0.000129   0.000260   0.000117   0.000040   0.000083   0.000592
    21  O    0.000001   0.000000  -0.000001   0.000000   0.000000   0.000000
    22  H    0.000000   0.000000   0.000000   0.000000   0.000000   0.000000
    23  C    0.000012  -0.000007   0.000307   0.000129   0.000405   0.004831
    24  O    0.000000   0.000000   0.000022   0.000013   0.000169   0.001996
    25  H    0.000000   0.000000   0.000000   0.000000   0.000000  -0.000031
    26  C    0.000859   0.000894  -0.007004  -0.000343   0.000888   0.000458
    27  O    0.000000   0.000000  -0.000001   0.000000   0.000000   0.000005
    28  C   -0.000013  -0.000010   0.000012  -0.000005  -0.000004  -0.000054
    29  O    0.000000   0.000000   0.000000   0.000000   0.000000   0.000000
    30  H    0.000032   0.003156  -0.000585  -0.009740   0.000416   0.000021
    31  H    0.507658  -0.007748  -0.003316   0.000027   0.000003   0.000001
    32  H   -0.007748   0.553631  -0.075347  -0.006208  -0.000578  -0.000007
    33  H   -0.003316  -0.075347   0.696784   0.006425   0.005074   0.000069
    34  H    0.000027  -0.006208   0.006425   0.568675   0.006794   0.002405
    35  H    0.000003  -0.000578   0.005074   0.006794   0.641391   0.008105
    36  H    0.000001  -0.000007   0.000069   0.002405   0.008105   0.603055
    37  H   -0.000002   0.000033   0.005213   0.000006   0.002975   0.004766
    38  H    0.000000   0.000000   0.000000   0.000000   0.000000   0.000002
    39  H    0.000000   0.000000   0.000000   0.000000   0.000000  -0.000003
    40  H    0.000000   0.000000   0.000000   0.000000   0.000000  -0.000017
    41  H    0.000000   0.000000   0.000000   0.000000   0.000000   0.000000
    42  H    0.000000   0.000000   0.000000   0.000000   0.000000   0.000000
    43  H    0.000000   0.000000   0.000000   0.000000   0.000000   0.000000
    44  H    0.000000   0.000000  -0.000002   0.000000   0.000000  -0.000005
    45  H    0.000000   0.000000  -0.000033   0.000000  -0.000002   0.000013
             37         38         39         40         41         42
     1  O    0.000142   0.000000   0.000000   0.000000   0.000000   0.000000
     2  C    0.033745   0.000019  -0.000060  -0.000506   0.000000  -0.000012
     3  C   -0.063634   0.000092   0.000626   0.001329   0.000000   0.000011
     4  O   -0.000368   0.000000   0.000000   0.000000   0.000000   0.000000
     5  H    0.000006   0.000000   0.000000   0.000000   0.000000   0.000000
     6  C   -0.064330   0.000261   0.000331   0.001462   0.000002   0.000078
     7  O   -0.001228  -0.000748   0.000565  -0.000013   0.000000   0.000000
     8  H   -0.002360   0.000318   0.000441  -0.000009   0.000000   0.000000
     9  C    0.003501  -0.000006  -0.000011   0.000119   0.000000   0.000009
    10  O   -0.000003   0.000000   0.000000   0.000000   0.000000   0.000000
    11  H    0.000000   0.000000   0.000000   0.000000   0.000000   0.000000
    12  C   -0.005770   0.000002   0.000063   0.000702  -0.000004   0.000040
    13  O   -0.055786   0.000015   0.000059  -0.000750   0.000000   0.000004
    14  C    0.369115   0.002493   0.002061   0.048295   0.000026   0.004453
    15  O   -0.058985   0.000488   0.002297   0.002836  -0.000001   0.000084
    16  C    0.051296   0.006209   0.036156  -0.017417  -0.006874   0.067435
    17  C    0.012509  -0.010060   0.011326   0.013649   0.014553  -0.008745
    18  O   -0.000441   0.000023   0.000005  -0.000650  -0.000041  -0.000824
    19  H    0.000197   0.000000   0.000000   0.000011   0.000000   0.000002
    20  C    0.009448   0.001042  -0.001963  -0.039009  -0.024287  -0.098621
    21  O   -0.000001   0.000002  -0.000016  -0.000160  -0.002583  -0.002827
    22  H    0.000000   0.000000   0.000000   0.000005  -0.002458  -0.001020
    23  C    0.003519   0.452736   0.596060  -0.003254   0.001847  -0.000080
    24  O    0.000921  -0.045206  -0.074976   0.005082  -0.000001   0.000019
    25  H    0.000011  -0.009859  -0.002518  -0.000181   0.000000   0.000000
    26  C    0.000047  -0.064465  -0.304858   0.209908   0.002145  -0.043109
    27  O    0.000185  -0.002886   0.010291  -0.047687  -0.001659  -0.054845
    28  C    0.000430  -0.001313   0.010051   0.049038   0.024855   0.437687
    29  O   -0.000004  -0.000049  -0.000348  -0.002373   0.230956  -0.058208
    30  H    0.000002   0.000000   0.000000   0.000000   0.000000   0.000000
    31  H   -0.000002   0.000000   0.000000   0.000000   0.000000   0.000000
    32  H    0.000033   0.000000   0.000000   0.000000   0.000000   0.000000
    33  H    0.005213   0.000000   0.000000   0.000000   0.000000   0.000000
    34  H    0.000006   0.000000   0.000000   0.000000   0.000000   0.000000
    35  H    0.002975   0.000000   0.000000   0.000000   0.000000   0.000000
    36  H    0.004766   0.000002  -0.000003  -0.000017   0.000000   0.000000
    37  H    0.600814   0.000001   0.000000  -0.000008   0.000000   0.000000
    38  H    0.000001   0.585681  -0.044292  -0.010892  -0.000002  -0.000005
    39  H    0.000000  -0.044292   0.595963   0.007548   0.000001  -0.000002
    40  H   -0.000008  -0.010892   0.007548   0.627662   0.000034   0.004480
    41  H    0.000000  -0.000002   0.000001   0.000034   0.407704  -0.007058
    42  H    0.000000  -0.000005  -0.000002   0.004480  -0.007058   0.607503
    43  H   -0.000007   0.000002  -0.000004   0.000105   0.000658   0.004990
    44  H   -0.000015   0.000007   0.000003   0.005553   0.000018   0.002742
    45  H    0.009075  -0.000029   0.004311   0.007537   0.000005   0.000049
             43         44         45
     1  O    0.000000   0.000000  -0.000003
     2  C    0.000032  -0.001299  -0.001272
     3  C    0.000047   0.001305   0.004221
     4  O    0.000000  -0.000001  -0.000001
     5  H    0.000000   0.000000   0.000000
     6  C    0.000179   0.002377  -0.000774
     7  O    0.000000  -0.000001  -0.000416
     8  H    0.000000   0.000002  -0.000061
     9  C   -0.000176  -0.001062  -0.000142
    10  O    0.000000   0.000000   0.000000
    11  H    0.000000   0.000000   0.000000
    12  C    0.000729   0.004741   0.001350
    13  O    0.000252  -0.000058   0.000014
    14  C    0.004477   0.048205   0.034579
    15  O   -0.001400  -0.017285  -0.074799
    16  C    0.084584   0.036951   0.354900
    17  C   -0.147709   0.379299  -0.000750
    18  O    0.001949  -0.071900  -0.002240
    19  H    0.000029  -0.000400   0.000133
    20  C    0.401974  -0.141724  -0.001446
    21  O   -0.040288  -0.000252  -0.000621
    22  H   -0.010116  -0.000206   0.000008
    23  C    0.014628   0.030504   0.041692
    24  O   -0.000001   0.000025  -0.000210
    25  H    0.000000   0.000000   0.000005
    26  C   -0.008423  -0.045280  -0.161899
    27  O    0.005076   0.000099   0.007399
    28  C   -0.056887  -0.023917   0.007741
    29  O   -0.013837  -0.000608  -0.000879
    30  H    0.000000   0.000000   0.000000
    31  H    0.000000   0.000000   0.000000
    32  H    0.000000   0.000000   0.000000
    33  H    0.000000  -0.000002  -0.000033
    34  H    0.000000   0.000000   0.000000
    35  H    0.000000   0.000000  -0.000002
    36  H    0.000000  -0.000005   0.000013
    37  H   -0.000007  -0.000015   0.009075
    38  H    0.000002   0.000007  -0.000029
    39  H   -0.000004   0.000003   0.004311
    40  H    0.000105   0.005553   0.007537
    41  H    0.000658   0.000018   0.000005
    42  H    0.004990   0.002742   0.000049
    43  H    0.590450   0.008172   0.004043
    44  H    0.008172   0.649754   0.008746
    45  H    0.004043   0.008746   0.638367
 Mulliken atomic charges:
              1
     1  O   -0.596099
     2  C    0.251959
     3  C   -0.017515
     4  O   -0.479222
     5  H    0.352390
     6  C   -0.018901
     7  O   -0.566176
     8  H    0.461436
     9  C   -0.461335
    10  O   -0.503674
    11  H    0.387309
    12  C   -0.099684
    13  O   -0.400552
    14  C    0.159377
    15  O   -0.325984
    16  C    0.034213
    17  C    0.017304
    18  O   -0.545370
    19  H    0.415832
    20  C    0.089312
    21  O   -0.483895
    22  H    0.346982
    23  C   -0.073286
    24  O   -0.639848
    25  H    0.401081
    26  C   -0.094912
    27  O   -0.297596
    28  C    0.223812
    29  O   -0.558824
    30  H    0.394358
    31  H    0.164365
    32  H    0.370906
    33  H    0.151065
    34  H    0.172707
    35  H    0.135352
    36  H    0.147936
    37  H    0.144986
    38  H    0.140418
    39  H    0.150895
    40  H    0.137573
    41  H    0.362161
    42  H    0.145768
    43  H    0.156472
    44  H    0.125513
    45  H    0.121389
 Sum of Mulliken atomic charges =   0.00000
 Mulliken charges with hydrogens summed into heavy atoms:
              1
     1  O   -0.201740
     2  C    0.424667
     3  C    0.117837
     4  O   -0.126833
     6  C    0.129035
     7  O   -0.104740
     9  C    0.073936
    10  O   -0.116365
    12  C    0.051381
    13  O   -0.400552
    14  C    0.304363
    15  O   -0.325984
    16  C    0.155602
    17  C    0.142817
    18  O   -0.129537
    20  C    0.245784
    21  O   -0.136913
    23  C    0.218027
    24  O   -0.238767
    26  C    0.042661
    27  O   -0.297596
    28  C    0.369580
    29  O   -0.196662
 Sum of Mulliken charges with hydrogens summed into heavy atoms =   0.00000
 APT atomic charges:
              1
     1  O   -0.644086
     2  C    0.331064
     3  C    0.425076
     4  O   -0.606320
     5  H    0.261096
     6  C    0.354946
     7  O   -0.802239
     8  H    0.524446
     9  C   -0.709626
    10  O   -0.450988
    11  H    0.253257
    12  C    0.964439
    13  O   -0.795072
    14  C    0.950236
    15  O   -0.895488
    16  C    0.445597
    17  C    0.391078
    18  O   -0.705038
    19  H    0.370951
    20  C    0.383014
    21  O   -0.595957
    22  H    0.251932
    23  C    0.452034
    24  O   -0.677867
    25  H    0.267293
    26  C    0.469501
    27  O   -0.771379
    28  C    0.891798
    29  O   -0.658726
    30  H    0.272068
    31  H    0.062962
    32  H    0.454221
    33  H   -0.180781
    34  H   -0.023647
    35  H   -0.052268
    36  H   -0.032697
    37  H   -0.057393
    38  H   -0.045164
    39  H   -0.039420
    40  H   -0.062435
    41  H    0.257963
    42  H   -0.073120
    43  H   -0.040966
    44  H   -0.057892
    45  H   -0.056406
 Sum of APT charges=   0.00000
[...]
 .00001502,0.00005496,0.00009040,-0.00000007,-0.00005430,-0.00022095,0.
 00003541,0.00028861,0.00014165,-0.00058120,-0.00064368,0.00015914,0.00
 022123,0.00015234,-0.00006473,-0.00000046,-0.00004395,-0.00004918,-0.0
 0655578,0.00179627,-0.00274327,0.00247576,0.00074230,0.00177422,-0.000
 51743,-0.00023521,-0.00008660,0.00029114,-0.00018227,-0.00023479,-0.00
 003676,0.00018598,-0.00011604,-0.00001201,-0.00001791,-0.00002894,-0.0
 0046298,-0.00001991,0.00041440,-0.00208156,0.01020665,-0.00445314,-0.3
 4004440,-0.01091582,-0.08108446,-0.01889919,-0.00304097,0.00480732,-0.
 00000244,0.00000108,0.00000316,0.00001083,0.00001152,-0.00000837,0.000
 04046,0.00001524,0.00000743,0.00000721,0.00000276,-0.00000937,0.000002
 16,-0.00000081,-0.00000296,0.00000234,0.00000139,0.00000055,0.00000487
 ,-0.00000112,0.00000070,0.00000529,-0.00000391,-0.00000401,-0.00001002
 ,-0.00001475,0.00001360,0.00004648,-0.00016062,0.00009327,0.00000828,0
 .00038961,-0.00100303,0.00025618,0.00016131,0.00022271,0.36502479,0.00
 000362,0.00003099,0.00000695,-0.00000680,-0.00002904,-0.00001471,-0.00
 001074,0.00000182,-0.00001903,-0.00000208,0.00000668,0.00001851,0.0000
 0090,-0.00000377,-0.00000232,0.00003234,-0.00005213,-0.00001795,0.0000
 0214,0.00009933,0.00014742,-0.00006312,-0.00007766,-0.00020970,-0.0000
 0471,0.00006846,-0.00004271,0.00004163,0.00000868,-0.00000802,0.000014
 65,-0.00001278,0.00000379,0.00007713,-0.00003145,0.00000825,-0.0000269
 0,0.00022856,0.00002998,-0.00007515,-0.00011005,-0.00017494,0.00007527
 ,0.00033760,0.00038794,-0.00026907,-0.00094728,0.00027475,-0.00098475,
 -0.00065907,0.00151101,0.00033320,-0.00000259,-0.00076629,0.00017749,-
 0.00016067,0.00006035,-0.02212617,-0.00068578,-0.00839942,0.00006650,0
 .00308801,0.00031795,-0.00058097,-0.00035987,-0.00005551,0.00000171,0.
 00019400,0.00029042,-0.00008771,-0.00042198,0.00033170,-0.00000372,0.0
 0003746,0.00006205,0.00347436,0.00097474,-0.00448368,0.03413643,-0.015
 67010,0.01677709,-0.00909460,-0.04033107,-0.00371263,-0.00513839,0.003
 64508,0.00106990,-0.00000002,-0.00000310,-0.00000205,-0.00004783,-0.00
 001515,0.00002417,-0.00006974,-0.00002467,0.00001166,-0.00000808,-0.00
 001102,0.00001702,-0.00000122,0.00000165,0.00000126,0.00000171,-0.0000
 0132,0.00000135,-0.00000414,0.00000438,-0.00000658,0.00000451,0.000002
 06,0.00000911,0.00000178,-0.00000034,-0.00003302,-0.00023147,0.0001523
 1,0.00004105,-0.00126546,0.00021799,0.00031053,-0.00019713,0.00034238,
 -0.00058847,0.00183576,0.05310159,-0.00000423,-0.00000729,-0.00003643,
 -0.00000167,0.00001332,0.00002871,0.00000833,-0.00000527,0.00003309,-0
 .00000024,0.00001513,-0.00003759,0.00000096,-0.00000177,0.00000439,-0.
 00002237,-0.00001596,-0.00001066,0.00000170,0.00000548,-0.00005606,0.0
 0001558,0.00000069,0.00006660,0.00003359,-0.00004543,0.00000515,-0.000
 03002,-0.00003605,-0.00002776,-0.00001498,0.00001445,0.00000313,-0.000
 04963,0.00006464,0.00005718,0.00001090,-0.00004852,-0.00011526,0.00007
 174,0.00006633,0.00014857,-0.00000166,0.00004943,-0.00043288,0.0000383
 1,-0.00022132,0.00007061,-0.00142011,0.00007935,0.00192458,0.00054510,
 -0.00016074,-0.00042868,0.00010694,-0.00002050,0.00005552,-0.02443255,
 -0.00103029,-0.00271207,0.00238789,0.00240327,0.00167782,0.00013987,-0
 .00037094,-0.00009162,0.00014215,0.00007217,-0.00000810,0.00003664,0.0
 0016614,-0.00015351,0.00000136,-0.00002147,-0.00001616,-0.00170200,-0.
 00066422,0.00310889,-0.01154887,0.00901210,-0.00216722,-0.08985927,-0.
 00797787,-0.07229643,0.03886328,0.00257328,-0.00490567,-0.00000261,0.0
 0000017,0.00000755,0.00001740,0.00001978,-0.00000426,0.00005051,0.0000
 1925,0.00003297,0.00000082,0.00000274,-0.00001592,0.00000150,-0.000000
 74,-0.00000353,0.00000209,0.00000104,0.00000022,0.00000175,0.00000035,
 -0.00000064,0.00000354,-0.00000904,-0.00000023,-0.00001344,0.00000315,
 0.00000076,0.00014270,-0.00012178,-0.00003827,0.00087057,-0.00008624,-
 0.00025021,0.00166165,0.00002661,0.00354752,0.08343482,-0.00063943,0.0
 7596777,0.00000489,-0.00000308,-0.00000190,-0.00000302,0.00000276,0.00
 000157,-0.00000914,-0.00001116,0.00000745,0.00000878,0.00000292,-0.000
 00497,-0.00000401,0.00000033,0.00000235,0.00001117,0.00001010,0.000025
 29,0.00002577,-0.00000295,-0.00001052,-0.00001746,-0.00000589,0.000004
 24,0.00006192,-0.00000589,-0.00000696,0.00000026,-0.00000389,0.0000025
 5,-0.00001228,0.00000233,0.00000037,-0.00004434,0.00001383,0.00000010,
 0.00003843,-0.00002829,-0.00001085,-0.00013796,-0.00003941,0.00003824,
 0.00040148,-0.00006950,0.00011268,-0.00035404,0.00075506,-0.00015966,-
 0.00849195,-0.00436742,0.00291554,0.00132821,0.00095322,0.00032064,0.0
 0002431,0.00012150,-0.00004360,-0.34290807,-0.06043196,0.02355938,-0.0
 1901064,0.01094856,-0.00609094,0.00037510,0.00051725,0.00037991,-0.000
 05232,-0.00001167,0.00000830,0.00003434,0.00001035,-0.00001028,-0.0000
 1188,-0.00000434,0.00000187,-0.00004725,-0.00005819,-0.00021843,0.0010
 9696,-0.00115818,0.00012755,-0.00937542,-0.00220892,0.00110247,0.00201
 533,0.00096627,0.00179148,-0.00000232,0.00000037,0.00000149,-0.0000278
 4,-0.00000581,-0.00000336,0.00000095,0.00000504,0.00000168,0.00001479,
 -0.00000713,0.00000688,0.00000251,0.00000014,-0.00000377,0.00000510,0.
 00000130,0.00000149,0.00000613,0.00000573,-0.00000620,0.00002264,-0.00
 001321,0.00001641,0.00001524,0.00000265,0.00000865,0.00003961,-0.00004
 029,-0.00000307,0.00005639,0.00014427,0.00001910,0.00043342,0.00055719
 ,0.00057349,0.00019115,-0.00044797,-0.00033673,0.37301485,0.00000336,-
 0.00000854,0.00001978,0.00000286,0.00000531,-0.00000909,-0.00000516,0.
 00000805,-0.00000555,0.00000458,-0.00001102,0.00000875,-0.00000273,0.0
 0000352,-0.00000220,-0.00000277,0.00000561,-0.00000321,0.00001824,-0.0
 0001584,0.00000058,-0.00001593,-0.00000282,-0.00000793,-0.00000883,-0.
 00001087,0.00001767,-0.00000431,0.00001974,0.00002304,0.00000065,-0.00
 000242,-0.00000391,-0.00002462,-0.00001111,-0.00003305,0.00002890,-0.0
 0007390,0.00005160,-0.00003152,0.00006930,0.00002702,0.00023549,-0.000
 02142,-0.00002639,-0.00103849,0.00055707,-0.00017571,-0.00768687,0.000
 10458,0.00157084,0.00091210,0.00085221,0.00088882,-0.00004387,0.000043
 60,-0.00011193,-0.06314531,-0.05287108,0.00211701,0.04176964,-0.009258
 39,0.00621185,0.00053547,0.00133615,-0.00138725,-0.00006990,0.00002116
 ,-0.00001927,0.00002615,-0.00003022,0.00000868,-0.00000551,0.00000458,
 0.00000434,-0.00007703,-0.00015334,-0.00003883,0.00158896,0.00088636,0
 .00049335,-0.02944305,-0.00562943,-0.00049821,0.00083300,0.00149444,0.
 00257180,0.00000104,0.00000062,-0.00000404,0.00001410,-0.00000429,-0.0
 0000854,0.00000753,-0.00000164,-0.00002567,0.00001006,0.00000301,0.000
 00168,0.00000091,-0.00000101,-0.00000058,0.00000022,0.00000029,0.00000
 083,0.00000205,0.00000175,-0.00000402,0.00001502,-0.00000515,0.0000151
 6,0.00001148,-0.00001555,0.00000162,0.00004175,-0.00004701,0.00000591,
 0.00011534,0.00014407,-0.00003211,0.00009214,0.00019260,0.00037820,-0.
 00040525,-0.00300092,-0.00326045,0.05511378,0.06541894,-0.00000692,-0.
 00001460,-0.00000552,0.00000961,0.00001141,0.00001203,0.00001034,0.000
 01535,0.00000821,-0.00000519,-0.00000204,-0.00001339,0.00000232,0.0000
 0231,-0.00000096,-0.00000907,-0.00002851,-0.00002579,-0.00001781,0.000
 00934,-0.00000088,0.00000840,-0.00001609,-0.00000626,-0.00004683,-0.00
 004710,0.00003242,-0.00002679,-0.00000753,0.00000329,-0.00000310,0.000
 00674,-0.00000471,-0.00001888,0.00004324,0.00002124,-0.00000834,-0.000
 14167,0.00003169,0.00003004,0.00016132,0.00012411,-0.00066968,-0.00001
 501,-0.00036474,0.00139639,-0.00191861,0.00134982,0.03703129,0.0094853
 4,-0.00640821,-0.00253398,-0.00034727,0.00318561,-0.00011355,0.0001775
 8,0.00007359,0.03052979,0.00364949,-0.04527378,-0.01652209,0.00684782,
 0.00012192,-0.00175974,-0.00009727,0.00081939,0.00001523,0.00001044,0.
 00009676,-0.00000418,-0.00002410,0.00001714,-0.00000182,-0.00000160,0.
 00000778,0.00026039,0.00017881,-0.00053512,0.00102454,-0.00001033,0.00
 042812,-0.02179728,-0.00798508,-0.00123638,-0.00088088,0.00033436,0.00
 111888,0.00000115,0.00000225,0.00000079,0.00005606,0.00001857,-0.00001
 494,0.00004389,0.00001354,-0.00000412,-0.00000844,0.00000819,-0.000028
 45,-0.00000173,-0.00000043,0.00000394,-0.00000251,-0.00000077,-0.00000
 006,-0.00000309,-0.00000807,0.00000771,-0.00003867,0.00000067,-0.00005
 394,-0.00000620,0.00003316,0.00000270,-0.00001828,0.00003092,0.0000011
 5,-0.00017117,-0.00009608,-0.00009392,-0.00016698,-0.00003056,0.000177
 54,-0.00076365,-0.00221990,-0.00268113,-0.02563601,-0.01037531,0.05573
 730,0.00001009,0.00006438,-0.00006374,-0.00004689,-0.00004321,0.000015
 65,-0.00000309,-0.00004757,0.00002054,0.00001035,0.00004826,-0.0000207
 7,-0.00000202,-0.00001507,0.00000672,0.00002638,-0.00001806,0.00005379
 ,0.00006413,0.00012592,0.00004395,-0.00009620,-0.00007534,-0.00009569,
 0.00009129,0.00010401,-0.00011781,0.00005587,-0.00006562,-0.00009761,0
 .00001164,-0.00000418,0.00002022,0.00011749,-0.00001989,0.00012040,-0.
 00001373,0.00051014,-0.00030350,0.00021224,-0.00054257,-0.00033206,0.0
 0229148,-0.00079413,0.00060694,-0.02132232,0.00415591,0.00084140,-0.34
 271902,-0.02637572,0.00725394,-0.00158989,-0.01350445,-0.01173114,-0.0
 0063234,-0.00107113,0.00113179,-0.01405480,-0.00039517,0.00493009,0.00
 179602,-0.00019528,-0.00023667,0.00022375,0.00006886,-0.00018749,0.000
 73777,0.00029152,-0.00001897,0.00006412,-0.00006896,0.00011180,-0.0000
 1200,0.00000407,-0.00000001,-0.00069342,-0.00184064,-0.00066050,0.0003
 6122,0.00056240,0.00024758,-0.00095482,-0.00109651,-0.00067867,0.00053
 510,0.00015257,0.00025242,-0.00001010,-0.00000849,0.00001136,-0.000124
 89,-0.00000800,0.00007349,-0.00009824,-0.00001877,0.00010885,-0.000008
 35,-0.00002260,0.00003913,0.00000407,0.00000133,-0.00001189,0.00001268
 ,0.00000247,0.00000523,0.00001299,0.00002395,-0.00003686,0.00010146,0.
 00001302,0.00028799,-0.00002403,0.00015726,-0.00000545,0.00014196,-0.0
 0038965,-0.00001675,0.00124314,0.00098219,0.00048174,-0.00002228,0.000
 04362,0.00015653,0.00054870,0.00045943,0.00069139,0.00074543,0.0002689
 3,0.00163896,0.37305230,-0.00000259,0.00004676,-0.00007145,-0.00003081
 ,-0.00003416,0.00003289,0.00000864,0.00000422,0.00000473,-0.00000955,0
 .00004247,-0.00003823,0.00000676,-0.00001179,0.00000280,-0.00013262,-0
 .00011160,-0.00010109,-0.00006845,0.00010839,0.00009838,0.00004828,0.0
 0000692,-0.00011600,0.00014132,0.00004294,-0.00007074,0.00001383,-0.00
 006346,-0.00010716,-0.00001292,0.00001756,0.00001947,0.00009191,0.0000
 2009,0.00011711,-0.00002709,0.00057077,-0.00021180,0.00030537,0.000046
 43,-0.00008130,-0.00147060,0.00182080,-0.00209985,0.03632484,-0.005242
 51,0.00137883,-0.02829384,-0.03526210,0.00866234,-0.03183528,-0.023994
 04,-0.02189131,-0.00206581,-0.00104892,0.00106268,-0.01178846,0.000895
 39,0.00279032,0.00003304,0.00053295,-0.00123310,0.00013272,0.00007567,
 -0.00024203,0.00006224,0.00002500,0.00011184,-0.00002877,0.00002170,0.
 00003865,-0.00000442,0.00001790,-0.00001496,0.00205992,0.00184797,0.00
 035734,-0.00029681,-0.00025635,-0.00011055,0.00051146,-0.00009271,-0.0
 0055967,0.00014009,0.00001515,0.00025588,-0.00000727,-0.00000407,0.000
 01142,-0.00013288,0.00001432,0.00005136,-0.00001187,-0.00000064,0.0001
 0576,-0.00003922,-0.00001989,0.00001860,-0.00000118,0.00000329,-0.0000
 0387,0.00000133,-0.00000077,-0.00000015,-0.00001341,-0.00001411,0.0000
 3253,-0.00021223,-0.00005218,-0.00009430,-0.00010127,-0.00000947,0.000
 03737,-0.00022816,0.00007625,0.00002649,-0.00058603,-0.00036220,-0.000
 14768,0.00001325,0.00007805,0.00007794,0.00008043,0.00017457,0.0001364
 1,-0.00053897,0.00009529,0.00190111,0.03583451,0.06549537,0.00001147,0
 .00003119,-0.00001514,-0.00003846,-0.00001856,-0.00000836,-0.00000635,
 -0.00003189,0.00000502,0.00000727,0.00001319,0.00000511,-0.00000198,-0
 .00000524,0.00000283,-0.00002609,0.00003520,0.00006769,0.00004359,0.00
 000750,-0.00002682,-0.00003353,0.00000105,0.00004001,0.00014633,0.0000
 7191,-0.00004923,0.00004416,-0.00000977,-0.00005417,-0.00000461,0.0000
 0156,0.00001592,0.00003123,-0.00008655,-0.00000814,0.00015302,0.000395
 37,-0.00021098,-0.00024255,-0.00029902,-0.00045271,0.00016484,-0.00135
 287,0.00151853,-0.01476439,0.00320949,0.00169123,0.00749732,0.00857657
 ,-0.03848007,-0.02641673,-0.02340372,-0.01032257,-0.00201908,-0.000886
 68,0.00046176,0.04010407,0.00500688,-0.00770552,-0.00196832,-0.0011501
 4,0.00278118,0.00005896,-0.00051181,0.00055362,0.00007387,0.00003021,-
 0.00001693,0.00001790,-0.00001952,-0.00000852,0.00000163,-0.00001373,-
 0.00000016,0.00064539,-0.00083553,-0.00013188,-0.00016916,-0.00031160,
 -0.00019319,0.00116609,0.00039050,0.00069816,-0.00056734,-0.00010738,0
 .00006671,-0.00000474,-0.00000519,0.00000062,-0.00015577,-0.00002811,0
 .00004547,-0.00005173,-0.00000915,0.00003971,-0.00000018,-0.00001310,0
 .00005382,0.00000331,0.00000155,-0.00001322,0.00000757,0.00000163,0.00
 000519,0.00001804,0.00002296,-0.00002423,0.00016490,0.00002039,0.00003
 017,0.00003722,0.00006149,-0.00001781,0.00003192,-0.00007624,-0.000042
 42,0.00026908,-0.00013598,0.00023599,-0.00013019,-0.00010694,-0.000060
 92,-0.00041229,-0.00029169,-0.00034799,0.00118566,0.00164460,-0.006556
 08,-0.00389327,0.00778082,0.05685318,0.00002330,0.00001923,0.00003509,
 -0.00003061,-0.00003431,-0.00008392,0.00003981,-0.00007309,0.00000118,
 0.00002550,-0.00002217,0.00005491,-0.00002032,0.00000104,0.00000178,0.
 00043569,0.00015911,-0.00000257,0.00028257,-0.00013671,-0.00013922,-0.
 00028468,0.00000908,0.00011404,0.00003640,0.00015602,-0.00011443,0.000
 15228,0.00005481,0.00003235,0.00004328,-0.00005184,0.00000322,0.000146
 89,0.00003798,0.00010984,0.00021223,0.00008544,0.00004221,0.00083386,-
 0.00001210,-0.00401063,-0.01341459,-0.00333647,0.01120124,-0.35036155,
 -0.00544079,-0.01315770,-0.01475591,0.00102120,-0.00391906,0.00198449,
 0.00056124,0.00136118,-0.00033863,0.00025016,0.00006006,-0.00053109,-0
 .00022232,0.00113106,0.00046239,0.00004383,-0.00011455,-0.00005312,0.0
 0005512,-0.00011150,0.00051260,0.00074583,0.00032979,0.00020972,-0.000
 12121,0.00000833,0.00001222,-0.00004782,0.00001095,-0.01190008,-0.0008
 7384,-0.00090209,0.00163217,0.00063752,-0.00092483,-0.00022703,-0.0001
 1765,0.00004839,0.00012616,0.00000618,-0.00021705,-0.00000344,-0.00000
 153,-0.00000899,-0.00018580,-0.00008621,0.00004583,-0.00023811,-0.0000
 4332,-0.00004122,0.00005671,-0.00004633,0.00008972,0.00000637,0.000001
 44,-0.00000859,0.00000994,0.00000640,0.00002129,0.00001761,0.00016381,
 -0.00027184,0.00107858,0.00042421,0.00151073,0.00030209,0.00009943,-0.
 00007208,0.00049451,-0.00091632,-0.00015466,0.00028083,-0.00103845,-0.
 00088307,0.00002669,0.00000093,-0.00000698,0.00004787,0.00000741,0.000
 15730,0.00053476,0.00035741,-0.00081553,-0.00004325,0.00213060,-0.0009
 7808,0.38236067,0.00000610,-0.00001424,0.00002923,-0.00001119,0.000015
 79,-0.00002958,0.00003984,0.00002612,-0.00002487,0.00000293,-0.0000321
 7,0.00000886,-0.00000451,0.00000714,-0.00000533,-0.00014222,0.00011558
 ,0.00001586,0.00016594,-0.00009121,-0.00024532,-0.00019591,0.00002853,
 0.00006876,-0.00007522,0.00004710,0.00000088,0.00004900,0.00003400,0.0
 0001085,0.00002905,-0.00001937,0.00000066,0.00009646,-0.00004817,-0.00
 003466,0.00018491,0.00014964,0.00017247,-0.00060863,0.00087952,-0.0011
 2187,-0.01075478,-0.00010820,0.00524915,-0.00278207,-0.04375163,-0.001
 83198,0.03677337,-0.00122549,0.00499500,-0.00297084,0.00249438,-0.0006
 2638,0.00015115,-0.00027997,-0.00035610,0.00089895,0.00131059,-0.00197
 688,-0.00046374,-0.00019833,0.00004256,-0.00009500,-0.00005426,0.00007
 168,-0.00116410,0.00157318,0.00085737,0.00014236,-0.00016250,-0.000053
 28,0.00001397,-0.00005407,0.00003367,-0.02860451,-0.00241714,-0.003110
 46,0.00185802,0.00118653,0.00101974,0.00023817,-0.00054657,0.00002944,
 -0.00005598,0.00014018,0.00003328,0.00000197,0.00000052,-0.00000647,-0
 .00001883,-0.00002445,0.00001210,-0.00009427,-0.00002398,-0.00004013,0
 .00000718,0.00000408,0.00001554,-0.00000095,-0.00000444,0.00000180,-0.
 00000034,0.00000606,0.00001226,0.00006472,0.00000347,-0.00003288,0.000
 37441,0.00019914,0.00006868,0.00030731,0.00038772,-0.00006355,0.000814
 48,-0.00017437,-0.00003417,-0.00171601,-0.00325329,-0.00322771,-0.0000
 1012,0.00001600,-0.00001393,-0.00011355,-0.00010654,0.00000003,-0.0006
 7086,-0.00009225,0.00044598,0.00274628,-0.00551527,0.00240633,0.005587
 06,0.04957263,-0.00001439,-0.00005616,-0.00002951,0.00005332,0.0000706
 7,0.00011418,-0.00004581,0.00000742,0.00001858,-0.00001824,0.00002704,
 -0.00003694,0.00000724,-0.00000330,0.00000598,-0.00004347,0.00012989,-
 0.00018367,-0.00021841,0.00004243,0.00008060,0.00016522,-0.00017045,-0
 .00002123,0.00013051,-0.00028713,0.00024524,-0.00026845,-0.00003678,-0
 .00001000,-0.00011438,0.00009598,-0.00000201,-0.00050854,-0.00001221,-
 0.00018967,-0.00056847,-0.00093901,-0.00029397,0.00628615,0.00087782,0
 .00450107,0.03957845,0.00632980,-0.02001453,-0.01916387,-0.00273240,-0
 .04262059,-0.01098662,-0.00027106,0.00105353,0.00099777,0.00077337,0.0
 0086321,0.00013639,0.00020017,-0.00022471,-0.00096945,-0.00033385,0.00
 090498,0.00030648,0.00002116,-0.00000249,0.00000392,-0.00002193,-0.000
 03213,0.00020922,0.00131083,0.00078395,0.00010616,-0.00010381,0.000037
 05,-0.00002843,0.00001963,0.00006923,-0.02490021,-0.00205050,-0.000105
 23,0.00157970,0.00092255,0.00183647,-0.00036762,0.00004640,-0.00007229
 ,0.00009147,0.00004569,-0.00021962,0.00000062,0.00000338,0.00001020,0.
 00024789,0.00012736,-0.00010294,0.00041930,0.00008534,0.00001523,-0.00
 006070,0.00007832,-0.00017855,-0.00000140,0.00000548,0.00000238,-0.000
 02714,-0.00001138,-0.00005147,-0.00022795,-0.00017141,0.00010573,-0.00
 151858,-0.00016872,-0.00002324,0.00011209,0.00028053,-0.00005550,0.000
 59379,-0.00028130,-0.00000604,-0.00137856,-0.00311689,-0.00297258,0.00
 002230,0.00000763,0.00000644,0.00012723,-0.00002618,0.00009723,0.00033
 045,-0.00002988,-0.00007477,-0.00064308,0.00208212,-0.00042485,0.01056
 813,-0.00276662,0.05719726\\0.00078795,0.00704736,0.00393055,0.0011893
 7,-0.02697374,0.00580176,0.02974572,-0.02894782,-0.01829074,-0.0067793
 9,0.03482178,0.02013031,-0.00899740,-0.02237575,-0.01412958,0.00228156
 ,-0.00690802,-0.03285273,0.00944076,-0.00033811,0.02144978,-0.00709465
 ,0.00434167,0.01771236,-0.05596939,0.05188835,-0.09789213,-0.03066747,
 0.05833454,0.06713148,-0.00324737,-0.02955425,0.00103839,-0.00592112,-
 0.03778624,0.01909500,-0.01385252,0.03573400,0.02639259,-0.05199755,0.
 03190553,-0.02528550,0.00297660,-0.03601570,-0.00956238,0.02805216,0.0
 1367723,0.01822441,-0.04624636,0.01215744,0.00904976,0.02599319,-0.000
 78941,0.00346002,-0.00304832,-0.01380818,-0.02853508,0.00650916,0.0112
 4860,0.00846964,0.00843751,-0.00131780,-0.01642170,-0.01066480,-0.0024
 0559,0.02730607,0.02202282,-0.02133387,-0.01965377,-0.01115275,-0.0120
 4156,0.00483055,-0.00466464,0.03247461,-0.00049913,-0.02472043,-0.0015
 4059,0.01906389,0.00345603,0.00549881,0.02447381,0.04414747,-0.0190560
 2,-0.01752329,-0.01238001,0.01036536,0.00166954,-0.00304446,0.00351028
 ,0.00585473,0.02352461,0.00087126,-0.01443920,0.07521324,-0.03548873,0
 .03319711,0.02819906,-0.00979438,-0.00842808,-0.01822027,0.00341559,0.
 00217517,0.02410695,0.00720256,-0.00164140,-0.02080888,-0.00258081,-0.
 00184984,0.01866366,0.00095104,-0.00262867,-0.00787402,-0.00740865,-0.
 01555274,0.02021844,0.00144515,-0.00832440,-0.02370081,0.00083379,0.00
 432863,-0.00261163,-0.00323004,-0.00606360,-0.01911229,-0.00086079,-0.
 00218983,0.02080312,0.00013131,-0.00357427,-0.02696849,-0.00597253,-0.
 00035295,0.02397566,-0.00132767,0.00090548\\\@


 WHAT, THEN, IS TIME?  IF NO ONE ASKS ME, I KNOW WHAT IT IS.
 IF I WISH TO EXPLAIN WHAT IT IS TO HIM WHO ASKS ME, I DO NOT KNOW.
                                   -- ST. AUGUSTINE (FIFTH CENTURY)
 Job cpu time:  0 days 13 hours 30 minutes  9.3 seconds.
 File lengths (MBytes):  RWF=   1377 Int=      0 D2E=      0 Chk=     19 Scr=      1
 Normal termination of Gaussian 09 at Tue Mar  1 03:53:45 2016.
Gaussian '09 finished on node007 at Tue Mar  1 03:53:45 EST 2016.
