Gaussian '09 started on node029 at Thu Jan 21 05:04:16 EST 2016.
 Entering Gaussian System, Link 0=/usr/local/gaussian/g09/g09
 Initial command:
 /usr/local/gaussian/g09/l1.exe /home/srmcgrat/thesis/gaussian/cellobiose/500/10000/gaussian24310/Gau-24346.inp -scrdir=/home/srmcgrat/thesis/gaussian/cellobiose/500/10000/gaussian24310/
 Entering Link 1 = /usr/local/gaussian/g09/l1.exe PID=     24348.
  
 Copyright (c) 1988,1990,1992,1993,1995,1998,2003,2009,2010,
            Gaussian, Inc.  All Rights Reserved.
  
 This is part of the Gaussian(R) 09 program.  It is based on
 the Gaussian(R) 03 system (copyright 2003, Gaussian, Inc.),
 the Gaussian(R) 98 system (copyright 1998, Gaussian, Inc.),
 the Gaussian(R) 94 system (copyright 1995, Gaussian, Inc.),
 the Gaussian 92(TM) system (copyright 1992, Gaussian, Inc.),
 the Gaussian 90(TM) system (copyright 1990, Gaussian, Inc.),
 the Gaussian 88(TM) system (copyright 1988, Gaussian, Inc.),
 the Gaussian 86(TM) system (copyright 1986, Carnegie Mellon
 University), and the Gaussian 82(TM) system (copyright 1983,
 Carnegie Mellon University). Gaussian is a federally registered
 trademark of Gaussian, Inc.
  
 This software contains proprietary and confidential information,
 including trade secrets, belonging to Gaussian, Inc.
  
 This software is provided under written license and may be
 used, copied, transmitted, or stored only in accord with that
 written license.
  
 The following legend is applicable only to US Government
 contracts under FAR:
  
                    RESTRICTED RIGHTS LEGEND
  
 Use, reproduction and disclosure by the US Government is
 subject to restrictions as set forth in subparagraphs (a)
 and (c) of the Commercial Computer Software - Restricted
 Rights clause in FAR 52.227-19.
  
 Gaussian, Inc.
 340 Quinnipiac St., Bldg. 40, Wallingford CT 06492
  
  
 ---------------------------------------------------------------
 Warning -- This program may not be used in any manner that
 competes with the business of Gaussian, Inc. or will provide
 assistance to any competitor of Gaussian, Inc.  The licensee
 of this program is prohibited from giving any competitor of
 Gaussian, Inc. access to this program.  By using this program,
 the user acknowledges that Gaussian, Inc. is engaged in the
 business of creating and licensing software in the field of
 computational chemistry and represents and warrants to the
 licensee that it is not a competitor of Gaussian, Inc. and that
 it will not use this program in any manner prohibited above.
 ---------------------------------------------------------------
  

 Cite this work as:
 Gaussian 09, Revision B.01,
 M. J. Frisch, G. W. Trucks, H. B. Schlegel, G. E. Scuseria, 
 M. A. Robb, J. R. Cheeseman, G. Scalmani, V. Barone, B. Mennucci, 
 G. A. Petersson, H. Nakatsuji, M. Caricato, X. Li, H. P. Hratchian, 
 A. F. Izmaylov, J. Bloino, G. Zheng, J. L. Sonnenberg, M. Hada, 
 M. Ehara, K. Toyota, R. Fukuda, J. Hasegawa, M. Ishida, T. Nakajima, 
 Y. Honda, O. Kitao, H. Nakai, T. Vreven, J. A. Montgomery, Jr., 
 J. E. Peralta, F. Ogliaro, M. Bearpark, J. J. Heyd, E. Brothers, 
 K. N. Kudin, V. N. Staroverov, T. Keith, R. Kobayashi, J. Normand, 
 K. Raghavachari, A. Rendell, J. C. Burant, S. S. Iyengar, J. Tomasi, 
 M. Cossi, N. Rega, J. M. Millam, M. Klene, J. E. Knox, J. B. Cross, 
 V. Bakken, C. Adamo, J. Jaramillo, R. Gomperts, R. E. Stratmann, 
 O. Yazyev, A. J. Austin, R. Cammi, C. Pomelli, J. W. Ochterski, 
 R. L. Martin, K. Morokuma, V. G. Zakrzewski, G. A. Voth, 
 P. Salvador, J. J. Dannenberg, S. Dapprich, A. D. Daniels, 
 O. Farkas, J. B. Foresman, J. V. Ortiz, J. Cioslowski, 
 and D. J. Fox, Gaussian, Inc., Wallingford CT, 2010.
 
 ******************************************
 Gaussian 09:  EM64L-G09RevB.01 12-Aug-2010
                21-Jan-2016 
 ******************************************
 ------------------------------------------------
 # freq=raman b3lyp/6-31+g(d,p) geom=connectivity
 ------------------------------------------------
 1/10=4,30=1,38=1,57=2/1,3;
 2/12=2,17=6,18=5,40=1/2;
 3/5=1,6=6,7=111,11=2,16=1,25=1,30=1,71=2,74=-5/1,2,3;
 4//1;
 5/5=2,38=5,98=1/2;
 8/6=4,10=90,11=11/1;
 10/13=10,15=4/2;
 11/6=3,8=1,9=11,15=111,16=1/1,2,10;
 10/6=1/2;
 6/7=2,8=2,9=2,10=2,18=1,28=1/1;
 7/8=1,10=1,25=1/1,2,3,16;
 1/10=4,30=1/3;
 99//99;
 -------------
 500 10000.com
 -------------
 Symbolic Z-matrix:
 Charge =  0 Multiplicity = 1
 O                     8.649     7.118     12.405 
 C                     9.366     7.246     13.641 
 C                     9.417     8.629     14.269 
 O                     10.204    9.52      13.466 
 H                     10.138    9.315     12.489 
 C                     9.985     8.752     15.674 
 O                     10.158    10.086    16.174 
 H                     10.667    10.628    15.505 
 C                     9.161     4.78      14.224 
 O                     8.542     3.612     14.782 
 H                     8.674     2.785     14.235 
 C                     8.932     6.215     14.671 
 O                     9.199     6.469     16.058 
 C                     9.07      7.837     16.472 
 O                     9.755     7.67      17.722 
 C                     9.026     7.477     18.943 
 C                     8.656     6.024     19.191 
 O                     7.815     5.367     18.232 
 H                     8.163     5.696     17.354 
 C                     8.086     5.753     20.574 
 O                     7.988     4.329     20.722 
 H                     7.55      4.037     19.871 
 C                     10.049    9.609     20.06 
 O                     10.689    10.346    21.111 
 H                     10.469    11.322    21.126 
 C                     9.788     8.112     20.095 
 O                     9.038     7.832     21.286 
 C                     8.979     6.433     21.6 
 O                     8.42      6.311     22.916 
 H                     9.12894   6.25125   23.56054 
 H                     9.96052   6.0077    21.57494 
 H                     7.10497   6.17591   20.63424 
 H                     9.58508   5.49425   19.15814 
 H                     8.10719   8.0164    18.84434 
 H                     10.73326   7.61698   20.17455 
 H                     9.09678   10.0731   19.90901 
 H                     9.27302   7.04285   11.67936 
 H                     10.21524   4.61598   14.30507 
 H                     8.92748   4.76095   13.17997 
 H                     10.62566   9.78942   19.17693 
 H                     7.8659    6.29814   14.63323 
 H                     10.3812   7.00518   13.40377 
 H                     8.41665   9.00809   14.29123 
 H                     10.95386   8.29802   15.66361 
 H                     8.06118   8.17921   16.57236 
 

 GradGradGradGradGradGradGradGradGradGradGradGradGradGradGradGradGradGrad
 Berny optimization.
 Initialization pass.
 Trust Radius=3.00D-01 FncErr=1.00D-07 GrdErr=1.00D-07
 Number of steps in this run=      2 maximum allowed number of steps=      2.
 GradGradGradGradGradGradGradGradGradGradGradGradGradGradGradGradGradGrad

                          Input orientation:                          
 ---------------------------------------------------------------------
 Center     Atomic      Atomic             Coordinates (Angstroms)
 Number     Number       Type             X           Y           Z
 ---------------------------------------------------------------------
      1          8           0        8.649000    7.118000   12.405000
      2          6           0        9.366000    7.246000   13.641000
      3          6           0        9.417000    8.629000   14.269000
      4          8           0       10.204000    9.520000   13.466000
      5          1           0       10.138000    9.315000   12.489000
      6          6           0        9.985000    8.752000   15.674000
      7          8           0       10.158000   10.086000   16.174000
      8          1           0       10.667000   10.628000   15.505000
      9          6           0        9.161000    4.780000   14.224000
     10          8           0        8.542000    3.612000   14.782000
     11          1           0        8.674000    2.785000   14.235000
     12          6           0        8.932000    6.215000   14.671000
     13          8           0        9.199000    6.469000   16.058000
     14          6           0        9.070000    7.837000   16.472000
     15          8           0        9.755000    7.670000   17.722000
     16          6           0        9.026000    7.477000   18.943000
     17          6           0        8.656000    6.024000   19.191000
     18          8           0        7.815000    5.367000   18.232000
     19          1           0        8.163000    5.696000   17.354000
     20          6           0        8.086000    5.753000   20.574000
     21          8           0        7.988000    4.329000   20.722000
     22          1           0        7.550000    4.037000   19.871000
     23          6           0       10.049000    9.609000   20.060000
     24          8           0       10.689000   10.346000   21.111000
     25          1           0       10.469000   11.322000   21.126000
     26          6           0        9.788000    8.112000   20.095000
     27          8           0        9.038000    7.832000   21.286000
     28          6           0        8.979000    6.433000   21.600000
     29          8           0        8.420000    6.311000   22.916000
     30          1           0        9.128945    6.251248   23.560536
     31          1           0        9.960524    6.007696   21.574938
     32          1           0        7.104971    6.175910   20.634242
     33          1           0        9.585076    5.494247   19.158142
     34          1           0        8.107191    8.016404   18.844337
     35          1           0       10.733264    7.616977   20.174547
     36          1           0        9.096783   10.073096   19.909009
     37          1           0        9.273022    7.042853   11.679363
     38          1           0       10.215242    4.615983   14.305070
     39          1           0        8.927479    4.760947   13.179967
     40          1           0       10.625661    9.789422   19.176931
     41          1           0        7.865904    6.298140   14.633229
     42          1           0       10.381198    7.005182   13.403768
     43          1           0        8.416653    9.008094   14.291229
     44          1           0       10.953862    8.298020   15.663609
     45          1           0        8.061178    8.179208   16.572357
 ---------------------------------------------------------------------
                    Distance matrix (angstroms):
                    1          2          3          4          5
     1  O    0.000000
     2  C    1.434632   0.000000
     3  C    2.519413   1.519761   0.000000
     4  O    3.051778   2.429803   1.434594   0.000000
     5  H    2.655369   2.490753   2.039323   1.000455   0.000000
     6  C    3.891171   2.604666   1.520453   2.347988   3.237994
     7  O    5.029062   3.887024   2.510170   2.766900   3.764846
     8  H    5.099257   4.074926   2.661991   2.366338   3.331676
     9  C    3.006185   2.542257   3.857766   4.912231   4.952876
    10  O    4.237171   3.897026   5.118504   6.276828   6.350533
    11  H    4.703660   4.553265   5.891141   6.949280   6.916120
    12  C    2.455658   1.520598   2.494840   3.740726   3.978135
    13  O    3.750748   2.544309   2.813120   4.127601   4.660386
    14  C    4.151469   2.907139   2.366618   3.626911   4.380570
    15  O    5.458794   4.121366   3.599602   4.662364   5.498818
    16  C    6.558693   5.317910   4.829727   5.963142   6.802125
    17  C    6.873622   5.727118   5.620608   6.884326   7.612083
    18  O    6.141294   5.197454   5.377027   6.757920   7.346093
    19  H    5.172125   4.199533   4.437593   5.822817   6.376991
    20  C    8.301371   7.206521   7.056625   8.318646   9.070048
    21  O    8.797041   7.781281   7.885002   9.192751   9.862301
    22  H    8.151167   7.239367   7.480278   8.839176   9.436575
    23  C    8.170931   6.874141   5.907242   6.596422   7.577229
    24  O    9.506630   8.195195   7.167917   7.704773   8.700888
    25  H    9.850983   8.593929   7.441599   7.873565   8.873296
    26  C    7.837184   6.525500   5.860649   6.789636   7.708498
    27  O    8.918143   7.674438   7.072280   8.084634   8.988687
    28  C    9.226383   8.009770   7.665365   8.785906   9.625982
    29  O   10.544421   9.369886   9.007649  10.138187  10.986258
    30  H   11.199446   9.972108   9.595276  10.664903  11.531855
    31  H    9.329557   8.051971   7.780963   8.840274   9.670782
    32  H    8.425674   7.427165   7.202738   8.495329   9.241110
    33  H    7.008405   5.792710   5.810219   6.999303   7.705929
    34  H    6.524243   5.408589   4.798394   5.965226   6.797120
    35  H    8.059714   6.685377   6.134511   6.993298   7.893368
    36  H    8.077330   6.881344   5.830751   6.560809   7.530961
    37  H    0.960000   1.974318   3.040199   3.192969   2.562489
    38  H    3.510480   2.842392   4.091796   4.975294   5.038337
    39  H    2.496763   2.565218   4.048143   4.935576   4.762583
    40  H    7.543390   6.221115   5.186061   5.732811   6.722449
    41  H    2.500083   2.033038   2.823379   4.148433   4.342992
    42  H    2.002692   1.070000   2.077280   2.521821   2.496238
    43  H    2.680355   2.104527   1.070000   2.034123   2.511027
    44  H    4.162135   2.778309   2.101530   2.623931   3.431913
    45  H    4.340342   3.341601   2.710354   4.004855   4.719854
                    6          7          8          9         10
     6  C    0.000000
     7  O    1.435091   0.000000
     8  H    2.003263   1.000203   0.000000
     9  C    4.307930   5.740222   6.173176   0.000000
    10  O    5.412718   6.816289   7.366316   1.434834   0.000000
    11  H    6.276506   7.698479   8.191312   2.053610   1.000281
    12  C    2.924241   4.329749   4.814598   1.520354   2.634394
    13  O    2.444860   3.743772   4.445010   2.493536   3.197229
    14  C    1.520281   2.516058   3.357853   3.795660   4.580994
    15  O    2.327644   2.897545   3.807440   4.576127   5.155806
    16  C    3.637536   3.969341   4.943837   5.437002   5.699684
    17  C    4.645160   5.278081   6.231174   5.145255   5.026930
    18  O    4.765552   5.656322   6.576363   4.268530   3.938408
    19  H    3.934618   4.964325   5.832104   3.410566   3.331949
    20  C    6.050636   6.513684   7.491458   6.513436   6.191856
    21  O    7.002374   7.650899   8.606482   6.618409   6.008711
    22  H    6.765742   7.553799   8.498172   5.919120   5.202174
    23  C    4.469401   3.916683   4.708323   7.626708   8.129720
    24  O    5.709415   4.972276   5.613131   8.985873   9.487497
    25  H    6.046773   5.113386   5.667140   9.599283  10.168764
    26  C    4.471426   4.405430   5.307636   6.779675   7.073223
    27  O    5.765219   5.698022   6.625045   7.694263   7.768940
    28  C    6.442614   6.646497   7.589229   7.561145   7.391491
    29  O    7.800915   7.919964   8.866139   8.856856   8.570965
    30  H    8.317695   8.386012   9.295872   9.451799   9.185469
    31  H    6.507909   6.770649   7.660970   7.495516   7.341361
    32  H    6.287671   6.671098   7.669308   6.875102   6.548849
    33  H    4.786663   5.506137   6.393077   5.003574   4.876626
    34  H    3.757433   3.952182   4.952194   5.738670   6.007530
    35  H    4.701393   4.736178   5.556557   6.777128   7.065482
    36  H    4.524326   3.882865   4.708375   7.767903   8.266787
    37  H    4.402865   5.499608   5.425122   3.407085   4.683108
    38  H    4.362753   5.780767   6.147216   1.070000   2.008776
    39  H    4.823594   6.231742   6.546298   1.070000   2.008776
    40  H    3.709073   3.053565   3.766696   7.195212   7.862417
    41  H    3.405172   4.687810   5.230087   2.037030   2.773912
    42  H    2.891764   4.149150   4.197817   2.667039   4.098275
    43  H    2.106502   2.781905   3.026780   4.293641   5.419816
    44  H    1.070000   2.022565   2.352925   4.202772   5.343510
    45  H    2.199142   2.862028   3.731774   4.275396   4.929093
                   11         12         13         14         15
    11  H    0.000000
    12  C    3.467212   0.000000
    13  O    4.143768   1.435122   0.000000
    14  C    5.539286   2.427659   1.435082   0.000000
    15  O    6.098439   3.478930   2.126131   1.435136   0.000000
    16  C    6.656127   4.455498   3.060918   2.497474   1.435107
    17  C    5.920590   4.532445   3.210695   3.294135   2.464767
    18  O    4.835350   3.827207   2.802880   3.282305   3.054097
    19  H    4.296883   2.838875   1.830421   2.486856   2.562531
    20  C    7.024079   5.981185   4.705920   4.705073   3.820256
    21  O    6.703410   6.408021   5.272477   5.615985   4.825409
    22  H    5.881783   5.804620   4.813813   5.320113   4.762238
    23  C    9.076796   6.465930   5.157335   4.119729   3.051623
    24  O   10.416733   7.850211   6.540951   5.516934   4.417992
    25  H   11.117026   8.373222   7.130858   5.980146   5.043225
    26  C    7.997345   5.809571   4.398152   3.703684   2.414039
    27  O    8.678785   6.810591   5.405153   4.814109   3.639015
    28  C    8.224607   6.932588   5.546482   5.317507   4.143818
    29  O    9.373204   8.261440   6.903910   6.654045   5.532336
    30  H    9.959291   8.891792   7.506023   7.263982   6.040969
    31  H    8.118843   6.983208   5.588321   5.493575   4.201265
    32  H    7.410156   6.236972   5.041116   4.893344   4.211427
    33  H    5.692750   4.591344   3.272626   3.601272   2.612524
    34  H    6.995344   4.619752   3.369003   2.566548   2.023588
    35  H    7.928858   5.958114   4.540680   4.064937   2.640985
    36  H    9.246052   6.507596   5.275436   4.100473   3.315287
    37  H    5.001942   3.122744   4.416701   4.862228   6.094184
    38  H    2.394334   2.082659   2.745757   4.047483   4.605893
    39  H    2.254265   2.082659   3.357714   4.507759   5.456871
    40  H    8.791678   5.995698   4.773709   3.680854   2.714190
    41  H    3.626811   1.070000   1.958650   2.683098   3.871845
    42  H    4.627678   2.080971   2.954663   3.438781   4.413756
    43  H    6.228667   2.865516   3.190697   2.560095   3.918145
    44  H    6.134499   3.067926   2.565229   2.101183   2.463463
    45  H    5.910692   2.869077   2.117549   1.070000   2.109503
                   16         17         18         19         20
    16  C    0.000000
    17  C    1.519741   0.000000
    18  O    2.534589   1.434786   0.000000
    19  H    2.538041   1.930078   1.000114   0.000000
    20  C    2.552633   1.520207   2.389017   3.221425   0.000000
    21  O    3.761940   2.379750   2.703234   3.639057   1.435021
    22  H    3.856600   2.373564   2.127310   3.076254   1.930327
    23  C    2.615271   3.943074   5.130975   5.117714   4.357327
    24  O    3.961938   5.147735   6.429538   6.489856   5.306565
    25  H    4.650996   5.924525   7.133090   7.155243   6.082529
    26  C    1.520188   2.541335   3.859860   3.998845   2.948072
    27  O    2.369772   2.793531   4.110824   4.559468   2.394888
    28  C    2.855135   2.464729   3.719499   4.386062   1.520699
    29  O    4.184677   3.743486   4.816328   5.601796   2.430614
    30  H    4.778568   4.400928   5.558925   6.305747   3.202403
    31  H    3.155834   2.717574   4.023555   4.598322   2.140230
    32  H    2.871148   2.124080   2.632345   3.479903   1.070000
    33  H    2.071271   1.070000   2.001774   2.306065   2.078180
    34  H    1.070000   2.095481   2.734899   2.758350   2.848716
    35  H    2.109752   2.796420   4.165591   4.272224   3.262205
    36  H    2.770902   4.135820   5.157777   5.153542   4.486326
    37  H    7.280792   7.605489   6.918914   5.936975   9.065722
    38  H    5.577644   5.318464   4.663257   3.830680   6.717586
    39  H    6.371750   6.148294   5.208450   4.345262   7.507595
    40  H    2.821513   4.249490   5.324521   5.113109   4.969344
    41  H    4.616238   4.633862   3.717629   2.802398   5.969789
    42  H    5.722086   6.118095   5.707963   4.715792   7.632046
    43  H    4.935031   5.741939   5.399003   4.518282   7.083656
    44  H    3.891674   4.784749   5.003995   4.173349   6.230064
    45  H    2.654039   3.443258   3.274681   2.605313   4.679770
                   21         22         23         24         25
    21  O    0.000000
    22  H    1.000654   0.000000
    23  C    5.706520   6.109657   0.000000
    24  O    6.606891   7.155026   1.434354   0.000000
    25  H    7.431058   7.947755   2.060855   1.000600   0.000000
    26  C    4.236062   4.654508   1.519985   2.614348   3.439596
    27  O    3.700217   4.314904   2.383889   3.012743   3.775376
    28  C    2.485917   3.282118   3.688289   4.298231   5.132942
    29  O    2.988074   3.898718   4.656950   4.968663   5.701984
    30  H    3.613043   4.583518   4.937080   5.020059   5.782321
    31  H    2.726971   3.549320   3.907973   4.423437   5.357417
    32  H    2.049028   2.314200   4.558856   5.519259   6.167720
    33  H    2.520734   2.602550   4.237897   5.345261   6.214217
    34  H    4.139658   4.147307   2.790129   4.150966   4.659516
    35  H    4.318214   4.800161   2.109383   2.885562   3.834357
    36  H    5.906352   6.231247   1.070000   2.013557   2.218965
    37  H    9.528146   8.894205   8.798996  10.093144  10.439368
    38  H    6.798526   6.198251   7.620832   8.909446   9.568706
    39  H    7.612586   6.869605   8.490953   9.858857  10.419364
    40  H    6.257851   6.559861   1.070000   2.013557   2.484392
    41  H    6.400434   5.713737   6.721424   8.143498   8.612279
    42  H    8.151434   7.658386   7.155114   8.405786   8.847344
    43  H    7.964451   7.523079   6.025310   7.311828   7.502025
    44  H    7.080733   6.888012   4.676077   5.825671   6.262369
    45  H    5.661183   5.319797   4.261384   5.674479   6.034104
                   26         27         28         29         30
    26  C    0.000000
    27  O    1.435054   0.000000
    28  C    2.395526   1.435018   0.000000
    29  O    3.615670   2.313496   1.434999   0.000000
    30  H    3.988320   2.771383   1.974644   0.960000   0.000000
    31  H    2.578386   2.064611   1.070000   2.064861   2.166435
    32  H    3.352294   2.627551   2.123857   2.637038   3.558840
    33  H    2.787743   3.208140   2.685378   4.018206   4.490232
    34  H    2.097240   2.619566   3.295587   4.425459   5.138316
    35  H    1.070000   2.038500   2.551698   3.817372   3.987979
    36  H    2.087647   2.630983   4.015423   4.863476   5.285944
    37  H    8.498895   9.641860   9.943712  11.292709  11.908387
    38  H    6.777017   7.775735   7.618783   8.957907   9.461384
    39  H    7.732253   8.668988   8.584601   9.871704  10.488937
    40  H    2.087647   3.286387   4.455146   5.562823   5.828793
    41  H    6.067576   6.927185   7.056420   8.301294   9.016334
    42  H    6.808048   8.038495   8.334973   9.737081  10.261409
    43  H    6.030534   7.120119   7.769522   9.036648   9.696784
    44  H    4.585964   5.958102   6.528332   7.935104   8.359489
    45  H    3.923703   4.826299   5.400818   6.622745   7.327469
                   31         32         33         34         35
    31  H    0.000000
    32  H    3.011210   0.000000
    33  H    2.499098   2.965545   0.000000
    34  H    3.863409   2.756016   2.940050   0.000000
    35  H    2.268922   3.930968   2.618664   2.970734   0.000000
    36  H    4.477593   4.436366   4.665629   2.518492   2.963292
    37  H    9.973295   9.254291   7.643802   7.324194   8.638870
    38  H    7.406263   7.222574   4.971998   6.050759   6.612494
    39  H    8.549684   7.803196   6.058774   6.584524   7.768006
    40  H    4.527063   5.251332   4.419469   3.097886   2.392976
    41  H    7.256660   6.050299   4.906795   4.554567   6.377091
    42  H    8.242571   7.981298   6.002463   5.982764   6.807474
    43  H    8.027350   7.069342   6.115487   4.670119   6.474205
    44  H    6.416862   6.635097   4.684707   4.277835   4.567389
    45  H    5.774841   4.628871   4.027104   2.278270   4.520168
                   36         37         38         39         40
    36  H    0.000000
    37  H    8.771574   0.000000
    38  H    7.901593   3.697542   0.000000
    39  H    8.574824   2.752873   1.716160   0.000000
    40  H    1.718684   8.098568   7.118142   8.008306   0.000000
    41  H    6.602970   3.355578   2.908046   2.366828   6.360074
    42  H    7.306161   2.050133   2.558937   2.683277   6.414139
    43  H    5.758147   3.378962   4.746130   4.419741   5.418512
    44  H    4.962163   4.502764   3.993568   4.773426   3.830852
    45  H    3.973982   5.167327   4.741008   4.893189   3.994141
                   41         42         43         44         45
    41  H    0.000000
    42  H    2.887592   0.000000
    43  H    2.786421   2.942564   0.000000
    44  H    3.820561   2.665757   2.970701   0.000000
    45  H    2.708647   4.098877   2.452950   3.034396   0.000000
 Stoichiometry    C12H22O11
 Framework group  C1[X(C12H22O11)]
 Deg. of freedom   129
 Full point group                 C1      NOp   1
 Largest Abelian subgroup         C1      NOp   1
 Largest concise Abelian subgroup C1      NOp   1
                         Standard orientation:                         
 ---------------------------------------------------------------------
 Center     Atomic      Atomic             Coordinates (Angstroms)
 Number     Number       Type             X           Y           Z
 ---------------------------------------------------------------------
      1          8           0        5.109999   -0.368633   -0.662161
      2          6           0        3.906644    0.023506    0.013362
      3          6           0        3.294372    1.356029   -0.385612
      4          8           0        4.138228    2.442233    0.021976
      5          1           0        5.109601    2.204415   -0.006107
      6          6           0        1.915835    1.696861    0.157753
      7          8           0        1.436136    3.021701   -0.114593
      8          1           0        2.131099    3.688522    0.155190
      9          6           0        3.292376   -2.351704    0.679786
     10          8           0        2.697785   -3.647133    0.515241
     11          1           0        3.242083   -4.392825    0.900268
     12          6           0        2.849596   -1.069411   -0.006615
     13          8           0        1.477558   -0.707855    0.208704
     14          6           0        1.071342    0.544569   -0.362159
     15          8           0       -0.150122    0.648742    0.384023
     16          6           0       -1.402582    0.248343   -0.190915
     17          6           0       -1.679622   -1.237877   -0.035951
     18          8           0       -0.763212   -2.163153   -0.638170
     19          1           0        0.131754   -1.756087   -0.454970
     20          6           0       -3.087947   -1.653966   -0.429040
     21          8           0       -3.253319   -3.023001   -0.031953
     22          1           0       -2.424359   -3.465855   -0.375485
     23          6           0       -2.455307    2.626192    0.087016
     24          8           0       -3.471370    3.560685    0.476516
     25          1           0       -3.486484    4.404340   -0.061274
     26          6           0       -2.515355    1.130614    0.351585
     27          8           0       -3.739548    0.640578   -0.214629
     28          6           0       -4.068882   -0.687875    0.216683
     29          8           0       -5.408407   -0.961656   -0.219137
     30          1           0       -6.022956   -0.762531    0.490989
     31          1           0       -4.006379   -0.755636    1.282705
     32          1           0       -3.185599   -1.587474   -1.492498
     33          1           0       -1.612527   -1.421834    1.015980
     34          1           0       -1.337756    0.441810   -1.241281
     35          1           0       -2.559549    0.987414    1.411038
     36          1           0       -2.340320    2.736293   -0.971075
     37          1           0        5.860609   -0.244535   -0.076683
     38          1           0        3.254371   -2.146615    1.729259
     39          1           0        4.325388   -2.472998    0.428644
     40          1           0       -1.547014    2.970939    0.535405
     41          1           0        2.843082   -1.353578   -1.038170
     42          1           0        4.184273    0.135750    1.040602
     43          1           0        3.233471    1.373883   -1.453728
     44          1           0        1.962876    1.598177    1.222154
     45          1           0        0.931681    0.526669   -1.422854
 ---------------------------------------------------------------------
 Rotational constants (GHZ):      0.3640355      0.1501501      0.1091698
 Standard basis: 6-31+G(d,p) (6D, 7F)
 There are   547 symmetry adapted basis functions of A   symmetry.
 Integral buffers will be    131072 words long.
 Raffenetti 2 integral format.
 Two-electron integral symmetry is turned on.
   547 basis functions,   890 primitive gaussians,   547 cartesian basis functions
    91 alpha electrons       91 beta electrons
       nuclear repulsion energy      2262.6264660332 Hartrees.
 NAtoms=   45 NActive=   45 NUniq=   45 SFac= 1.00D+00 NAtFMM=   50 NAOKFM=F Big=F
 One-electron integrals computed using PRISM.
 NBasis=   547 RedAO= T  NBF=   547
 NBsUse=   547 1.00D-06 NBFU=   547
 Harris functional with IExCor=  402 diagonalized for initial guess.
 ExpMin= 4.38D-02 ExpMax= 5.48D+03 ExpMxC= 8.25D+02 IAcc=2 IRadAn=         0 AccDes= 0.00D+00
 HarFok:  IExCor=  402 AccDes= 0.00D+00 IRadAn=         0 IDoV= 1
 ScaDFX=  1.000000  1.000000  1.000000  1.000000
 FoFCou: FMM=F IPFlag=           0 FMFlag=      100000 FMFlg1=           0
         NFxFlg=           0 DoJE=T BraDBF=F KetDBF=T FulRan=T
         Omega=  0.000000  0.000000  1.000000  0.000000  0.000000 ICntrl=     500 IOpCl=  0
         NMat0=    1 NMatS0=    1 NMatT0=    0 NMatD0=    1 NMtDS0=    0 NMtDT0=    0
         I1Cent=           4 NGrid=           0.
 Petite list used in FoFCou.
 Initial guess orbital symmetries:
       Occupied  (A) (A) (A) (A) (A) (A) (A) (A) (A) (A) (A) (A)
                 (A) (A) (A) (A) (A) (A) (A) (A) (A) (A) (A) (A)
                 (A) (A) (A) (A) (A) (A) (A) (A) (A) (A) (A) (A)
                 (A) (A) (A) (A) (A) (A) (A) (A) (A) (A) (A) (A)
                 (A) (A) (A) (A) (A) (A) (A) (A) (A) (A) (A) (A)
                 (A) (A) (A) (A) (A) (A) (A) (A) (A) (A) (A) (A)
                 (A) (A) (A) (A) (A) (A) (A) (A) (A) (A) (A) (A)
                 (A) (A) (A) (A) (A) (A) (A)
       Virtual   (A) (A) (A) (A) (A) (A) (A) (A) (A) (A) (A) (A)
                 (A) (A) (A) (A) (A) (A) (A) (A) (A) (A) (A) (A)
                 (A) (A) (A) (A) (A) (A) (A) (A) (A) (A) (A) (A)
                 (A) (A) (A) (A) (A) (A) (A) (A) (A) (A) (A) (A)
                 (A) (A) (A) (A) (A) (A) (A) (A) (A) (A) (A) (A)
                 (A) (A) (A) (A) (A) (A) (A) (A) (A) (A) (A) (A)
                 (A) (A) (A) (A) (A) (A) (A) (A) (A) (A) (A) (A)
                 (A) (A) (A) (A) (A) (A) (A) (A) (A) (A) (A) (A)
                 (A) (A) (A) (A) (A) (A) (A) (A) (A) (A) (A) (A)
                 (A) (A) (A) (A) (A) (A) (A) (A) (A) (A) (A) (A)
                 (A) (A) (A) (A) (A) (A) (A) (A) (A) (A) (A) (A)
                 (A) (A) (A) (A) (A) (A) (A) (A) (A) (A) (A) (A)
                 (A) (A) (A) (A) (A) (A) (A) (A) (A) (A) (A) (A)
                 (A) (A) (A) (A) (A) (A) (A) (A) (A) (A) (A) (A)
                 (A) (A) (A) (A) (A) (A) (A) (A) (A) (A) (A) (A)
                 (A) (A) (A) (A) (A) (A) (A) (A) (A) (A) (A) (A)
                 (A) (A) (A) (A) (A) (A) (A) (A) (A) (A) (A) (A)
                 (A) (A) (A) (A) (A) (A) (A) (A) (A) (A) (A) (A)
                 (A) (A) (A) (A) (A) (A) (A) (A) (A) (A) (A) (A)
                 (A) (A) (A) (A) (A) (A) (A) (A) (A) (A) (A) (A)
                 (A) (A) (A) (A) (A) (A) (A) (A) (A) (A) (A) (A)
                 (A) (A) (A) (A) (A) (A) (A) (A) (A) (A) (A) (A)
                 (A) (A) (A) (A) (A) (A) (A) (A) (A) (A) (A) (A)
                 (A) (A) (A) (A) (A) (A) (A) (A) (A) (A) (A) (A)
                 (A) (A) (A) (A) (A) (A) (A) (A) (A) (A) (A) (A)
                 (A) (A) (A) (A) (A) (A) (A) (A) (A) (A) (A) (A)
                 (A) (A) (A) (A) (A) (A) (A) (A) (A) (A) (A) (A)
                 (A) (A) (A) (A) (A) (A) (A) (A) (A) (A) (A) (A)
                 (A) (A) (A) (A) (A) (A) (A) (A) (A) (A) (A) (A)
                 (A) (A) (A) (A) (A) (A) (A) (A) (A) (A) (A) (A)
                 (A) (A) (A) (A) (A) (A) (A) (A) (A) (A) (A) (A)
                 (A) (A) (A) (A) (A) (A) (A) (A) (A) (A) (A) (A)
                 (A) (A) (A) (A) (A) (A) (A) (A) (A) (A) (A) (A)
                 (A) (A) (A) (A) (A) (A) (A) (A) (A) (A) (A) (A)
                 (A) (A) (A) (A) (A) (A) (A) (A) (A) (A) (A) (A)
                 (A) (A) (A) (A) (A) (A) (A) (A) (A) (A) (A) (A)
                 (A) (A) (A) (A) (A) (A) (A) (A) (A) (A) (A) (A)
                 (A) (A) (A) (A) (A) (A) (A) (A) (A) (A) (A) (A)
 The electronic state of the initial guess is 1-A.
 Requested convergence on RMS density matrix=1.00D-08 within 128 cycles.
 Requested convergence on MAX density matrix=1.00D-06.
 Requested convergence on             energy=1.00D-06.
 No special actions if energy rises.
 SCF Done:  E(RB3LYP) =  -1297.90388062     A.U. after   13 cycles
             Convg  =    0.7323D-08             -V/T =  2.0088
 Range of M.O.s used for correlation:     1   547
 NBasis=   547 NAE=    91 NBE=    91 NFC=     0 NFV=     0
 NROrb=    547 NOA=    91 NOB=    91 NVA=   456 NVB=   456

 **** Warning!!: The largest alpha MO coefficient is  0.89095638D+02

          Differentiating once with respect to electric field.
                with respect to dipole field.
          Electric field/nuclear overlap derivatives assumed to be zero.
          There are     3 degrees of freedom in the 1st order CPHF.  IDoFFX=0.
      3 vectors produced by pass  0 Test12= 1.38D-12 3.33D-08 XBig12= 1.19D+02 1.30D+00.
 AX will form     3 AO Fock derivatives at one time.
      3 vectors produced by pass  1 Test12= 1.38D-12 3.33D-08 XBig12= 2.06D+01 3.70D-01.
      3 vectors produced by pass  2 Test12= 1.38D-12 3.33D-08 XBig12= 8.83D+00 1.90D-01.
      3 vectors produced by pass  3 Test12= 1.38D-12 3.33D-08 XBig12= 9.15D-01 6.55D-02.
      3 vectors produced by pass  4 Test12= 1.38D-12 3.33D-08 XBig12= 3.30D-01 3.92D-02.
      3 vectors produced by pass  5 Test12= 1.38D-12 3.33D-08 XBig12= 5.15D-02 1.41D-02.
      3 vectors produced by pass  6 Test12= 1.38D-12 3.33D-08 XBig12= 1.76D-02 1.02D-02.
      3 vectors produced by pass  7 Test12= 1.38D-12 3.33D-08 XBig12= 2.49D-03 5.90D-03.
      3 vectors produced by pass  8 Test12= 1.38D-12 3.33D-08 XBig12= 5.44D-04 2.78D-03.
      3 vectors produced by pass  9 Test12= 1.38D-12 3.33D-08 XBig12= 1.20D-04 1.46D-03.
      3 vectors produced by pass 10 Test12= 1.38D-12 3.33D-08 XBig12= 3.79D-05 7.25D-04.
      3 vectors produced by pass 11 Test12= 1.38D-12 3.33D-08 XBig12= 7.23D-06 4.05D-04.
      3 vectors produced by pass 12 Test12= 1.38D-12 3.33D-08 XBig12= 7.83D-07 1.15D-04.
      3 vectors produced by pass 13 Test12= 1.38D-12 3.33D-08 XBig12= 1.52D-07 2.91D-05.
      3 vectors produced by pass 14 Test12= 1.38D-12 3.33D-08 XBig12= 4.07D-08 1.65D-05.
      3 vectors produced by pass 15 Test12= 1.38D-12 3.33D-08 XBig12= 7.01D-09 5.78D-06.
      3 vectors produced by pass 16 Test12= 1.38D-12 3.33D-08 XBig12= 8.95D-10 2.46D-06.
      3 vectors produced by pass 17 Test12= 1.38D-12 3.33D-08 XBig12= 1.72D-10 8.79D-07.
      3 vectors produced by pass 18 Test12= 1.38D-12 3.33D-08 XBig12= 2.70D-11 3.79D-07.
      3 vectors produced by pass 19 Test12= 1.38D-12 3.33D-08 XBig12= 7.77D-12 2.09D-07.
      2 vectors produced by pass 20 Test12= 1.38D-12 3.33D-08 XBig12= 7.71D-12 2.93D-07.
      1 vectors produced by pass 21 Test12= 1.38D-12 3.33D-08 XBig12= 4.61D-12 1.94D-07.
      1 vectors produced by pass 22 Test12= 1.38D-12 3.33D-08 XBig12= 4.53D-13 3.74D-08.
 Inverted reduced A of dimension    64 with in-core refinement.
 End of Minotr Frequency-dependent properties file   721 does not exist.
 End of Minotr Frequency-dependent properties file   722 does not exist.
 Symmetrizing basis deriv contribution to polar:
 IMax=3 JMax=2 DiffMx= 0.00D+00
 G2DrvN: will do    23 centers at a time, making    2 passes doing MaxLOS=2.
 Calling FoFCou, ICntrl=  3107 FMM=F I1Cent=   0 AccDes= 0.00D+00.
 Calling FoFCou, ICntrl=  3107 FMM=F I1Cent=   0 AccDes= 0.00D+00.
 FoFDir/FoFCou used for L=0 through L=2.
 End of G2Drv Frequency-dependent properties file   721 does not exist.
 End of G2Drv Frequency-dependent properties file   722 does not exist.
          IDoAtm=111111111111111111111111111111111111111111111
          Differentiating once with respect to electric field.
                with respect to dipole field.
          Differentiating once with respect to nuclear coordinates.
          There are   138 degrees of freedom in the 1st order CPHF.  IDoFFX=5.
 Will reuse    3 saved solutions.
    135 vectors produced by pass  0 Test12= 4.15D-14 1.00D-09 XBig12= 2.61D-01 8.27D-02.
 AX will form    68 AO Fock derivatives at one time.
    135 vectors produced by pass  1 Test12= 4.15D-14 1.00D-09 XBig12= 2.91D-02 1.72D-02.
    132 vectors produced by pass  2 Test12= 4.15D-14 1.00D-09 XBig12= 2.32D-04 1.54D-03.
    132 vectors produced by pass  3 Test12= 4.15D-14 1.00D-09 XBig12= 6.85D-07 6.83D-05.
    132 vectors produced by pass  4 Test12= 4.15D-14 1.00D-09 XBig12= 1.17D-09 2.34D-06.
    130 vectors produced by pass  5 Test12= 4.15D-14 1.00D-09 XBig12= 3.83D-12 1.23D-07.
     77 vectors produced by pass  6 Test12= 4.15D-14 1.00D-09 XBig12= 1.05D-13 1.90D-08.
 Inverted reduced A of dimension   873 with in-core refinement.
 Isotropic polarizability for W=    0.000000      189.09 Bohr**3.
 End of Minotr Frequency-dependent properties file   721 does not exist.
 End of Minotr Frequency-dependent properties file   722 does not exist.

 **********************************************************************

            Population analysis using the SCF density.

 **********************************************************************

 Orbital symmetries:
       Occupied  (A) (A) (A) (A) (A) (A) (A) (A) (A) (A) (A) (A)
                 (A) (A) (A) (A) (A) (A) (A) (A) (A) (A) (A) (A)
                 (A) (A) (A) (A) (A) (A) (A) (A) (A) (A) (A) (A)
                 (A) (A) (A) (A) (A) (A) (A) (A) (A) (A) (A) (A)
                 (A) (A) (A) (A) (A) (A) (A) (A) (A) (A) (A) (A)
                 (A) (A) (A) (A) (A) (A) (A) (A) (A) (A) (A) (A)
                 (A) (A) (A) (A) (A) (A) (A) (A) (A) (A) (A) (A)
                 (A) (A) (A) (A) (A) (A) (A)
       Virtual   (A) (A) (A) (A) (A) (A) (A) (A) (A) (A) (A) (A)
                 (A) (A) (A) (A) (A) (A) (A) (A) (A) (A) (A) (A)
                 (A) (A) (A) (A) (A) (A) (A) (A) (A) (A) (A) (A)
                 (A) (A) (A) (A) (A) (A) (A) (A) (A) (A) (A) (A)
                 (A) (A) (A) (A) (A) (A) (A) (A) (A) (A) (A) (A)
                 (A) (A) (A) (A) (A) (A) (A) (A) (A) (A) (A) (A)
                 (A) (A) (A) (A) (A) (A) (A) (A) (A) (A) (A) (A)
                 (A) (A) (A) (A) (A) (A) (A) (A) (A) (A) (A) (A)
                 (A) (A) (A) (A) (A) (A) (A) (A) (A) (A) (A) (A)
                 (A) (A) (A) (A) (A) (A) (A) (A) (A) (A) (A) (A)
                 (A) (A) (A) (A) (A) (A) (A) (A) (A) (A) (A) (A)
                 (A) (A) (A) (A) (A) (A) (A) (A) (A) (A) (A) (A)
                 (A) (A) (A) (A) (A) (A) (A) (A) (A) (A) (A) (A)
                 (A) (A) (A) (A) (A) (A) (A) (A) (A) (A) (A) (A)
                 (A) (A) (A) (A) (A) (A) (A) (A) (A) (A) (A) (A)
                 (A) (A) (A) (A) (A) (A) (A) (A) (A) (A) (A) (A)
                 (A) (A) (A) (A) (A) (A) (A) (A) (A) (A) (A) (A)
                 (A) (A) (A) (A) (A) (A) (A) (A) (A) (A) (A) (A)
                 (A) (A) (A) (A) (A) (A) (A) (A) (A) (A) (A) (A)
                 (A) (A) (A) (A) (A) (A) (A) (A) (A) (A) (A) (A)
                 (A) (A) (A) (A) (A) (A) (A) (A) (A) (A) (A) (A)
                 (A) (A) (A) (A) (A) (A) (A) (A) (A) (A) (A) (A)
                 (A) (A) (A) (A) (A) (A) (A) (A) (A) (A) (A) (A)
                 (A) (A) (A) (A) (A) (A) (A) (A) (A) (A) (A) (A)
                 (A) (A) (A) (A) (A) (A) (A) (A) (A) (A) (A) (A)
                 (A) (A) (A) (A) (A) (A) (A) (A) (A) (A) (A) (A)
                 (A) (A) (A) (A) (A) (A) (A) (A) (A) (A) (A) (A)
                 (A) (A) (A) (A) (A) (A) (A) (A) (A) (A) (A) (A)
                 (A) (A) (A) (A) (A) (A) (A) (A) (A) (A) (A) (A)
                 (A) (A) (A) (A) (A) (A) (A) (A) (A) (A) (A) (A)
                 (A) (A) (A) (A) (A) (A) (A) (A) (A) (A) (A) (A)
                 (A) (A) (A) (A) (A) (A) (A) (A) (A) (A) (A) (A)
                 (A) (A) (A) (A) (A) (A) (A) (A) (A) (A) (A) (A)
                 (A) (A) (A) (A) (A) (A) (A) (A) (A) (A) (A) (A)
                 (A) (A) (A) (A) (A) (A) (A) (A) (A) (A) (A) (A)
                 (A) (A) (A) (A) (A) (A) (A) (A) (A) (A) (A) (A)
                 (A) (A) (A) (A) (A) (A) (A) (A) (A) (A) (A) (A)
                 (A) (A) (A) (A) (A) (A) (A) (A) (A) (A) (A) (A)
 The electronic state is 1-A.
 Alpha  occ. eigenvalues --  -19.21443 -19.21022 -19.19626 -19.18760 -19.17909
 Alpha  occ. eigenvalues --  -19.17647 -19.16156 -19.16024 -19.15869 -19.15461
 Alpha  occ. eigenvalues --  -19.14563 -10.32742 -10.29172 -10.28994 -10.27744
 Alpha  occ. eigenvalues --  -10.27521 -10.27263 -10.26040 -10.25511 -10.25122
 Alpha  occ. eigenvalues --  -10.23690 -10.23253 -10.23149  -1.11359  -1.08488
 Alpha  occ. eigenvalues --   -1.06660  -1.06034  -1.04106  -1.03444  -1.03098
 Alpha  occ. eigenvalues --   -1.02708  -1.01220  -1.00312  -0.99720  -0.83649
 Alpha  occ. eigenvalues --   -0.82841  -0.78808  -0.77691  -0.72996  -0.70136
 Alpha  occ. eigenvalues --   -0.68214  -0.65333  -0.64144  -0.62843  -0.61284
 Alpha  occ. eigenvalues --   -0.59740  -0.58401  -0.57257  -0.55687  -0.54333
 Alpha  occ. eigenvalues --   -0.53969  -0.53708  -0.53018  -0.52233  -0.51732
 Alpha  occ. eigenvalues --   -0.51233  -0.49938  -0.48477  -0.48015  -0.47695
 Alpha  occ. eigenvalues --   -0.46310  -0.45721  -0.44517  -0.44002  -0.43490
 Alpha  occ. eigenvalues --   -0.43302  -0.42363  -0.41206  -0.40386  -0.39930
 Alpha  occ. eigenvalues --   -0.39380  -0.37813  -0.37214  -0.36931  -0.36036
 Alpha  occ. eigenvalues --   -0.35626  -0.34578  -0.34068  -0.33737  -0.33452
 Alpha  occ. eigenvalues --   -0.31789  -0.31603  -0.31072  -0.30326  -0.29767
 Alpha  occ. eigenvalues --   -0.29568  -0.29029  -0.27977  -0.27161  -0.26667
 Alpha  occ. eigenvalues --   -0.26113
 Alpha virt. eigenvalues --   -0.04749  -0.02311  -0.01048  -0.00333  -0.00068
 Alpha virt. eigenvalues --    0.00945   0.01110   0.02037   0.02716   0.02985
 Alpha virt. eigenvalues --    0.03716   0.04290   0.04754   0.05259   0.05792
 Alpha virt. eigenvalues --    0.05969   0.06241   0.07037   0.07577   0.07923
 Alpha virt. eigenvalues --    0.08048   0.08924   0.09187   0.09315   0.09756
 Alpha virt. eigenvalues --    0.10070   0.10918   0.11150   0.11211   0.12006
 Alpha virt. eigenvalues --    0.12289   0.12469   0.12781   0.13010   0.13392
 Alpha virt. eigenvalues --    0.13568   0.14180   0.14504   0.14722   0.14832
 Alpha virt. eigenvalues --    0.15208   0.15797   0.15907   0.16766   0.16842
 Alpha virt. eigenvalues --    0.17652   0.17825   0.17890   0.18202   0.18276
 Alpha virt. eigenvalues --    0.18782   0.18991   0.19293   0.19646   0.19985
 Alpha virt. eigenvalues --    0.20034   0.20261   0.20468   0.20961   0.21257
 Alpha virt. eigenvalues --    0.21428   0.21768   0.22031   0.22335   0.22941
 Alpha virt. eigenvalues --    0.23212   0.23586   0.23661   0.23974   0.24532
 Alpha virt. eigenvalues --    0.24835   0.24964   0.25333   0.25726   0.26046
 Alpha virt. eigenvalues --    0.26352   0.26664   0.27087   0.27225   0.27470
 Alpha virt. eigenvalues --    0.27861   0.27943   0.28284   0.28558   0.28824
 Alpha virt. eigenvalues --    0.28997   0.29381   0.29811   0.29963   0.30445
 Alpha virt. eigenvalues --    0.31170   0.31273   0.31552   0.31686   0.32078
 Alpha virt. eigenvalues --    0.32329   0.32823   0.32981   0.33402   0.33906
 Alpha virt. eigenvalues --    0.34392   0.34797   0.34990   0.35375   0.35581
 Alpha virt. eigenvalues --    0.36224   0.36598   0.37408   0.37503   0.37792
 Alpha virt. eigenvalues --    0.38221   0.38382   0.38434   0.38939   0.39230
 Alpha virt. eigenvalues --    0.39938   0.40433   0.40692   0.40933   0.41489
 Alpha virt. eigenvalues --    0.41743   0.42569   0.42928   0.43503   0.44045
 Alpha virt. eigenvalues --    0.44337   0.44963   0.45091   0.46068   0.46572
 Alpha virt. eigenvalues --    0.47028   0.47373   0.48217   0.48420   0.49330
 Alpha virt. eigenvalues --    0.50434   0.52181   0.55321   0.61004   0.61934
 Alpha virt. eigenvalues --    0.64693   0.65252   0.66686   0.67877   0.69622
 Alpha virt. eigenvalues --    0.70149   0.71188   0.71487   0.72832   0.73736
 Alpha virt. eigenvalues --    0.74166   0.75240   0.76862   0.77045   0.77937
 Alpha virt. eigenvalues --    0.79180   0.80646   0.82094   0.82734   0.83399
 Alpha virt. eigenvalues --    0.83978   0.85562   0.86471   0.87598   0.89068
 Alpha virt. eigenvalues --    0.90497   0.91862   0.92991   0.94307   0.94503
 Alpha virt. eigenvalues --    0.95893   0.97817   0.98559   0.99573   1.00087
 Alpha virt. eigenvalues --    1.01237   1.01497   1.01867   1.02526   1.03163
 Alpha virt. eigenvalues --    1.04413   1.04686   1.05120   1.05663   1.07119
 Alpha virt. eigenvalues --    1.07824   1.08266   1.08709   1.08991   1.09964
 Alpha virt. eigenvalues --    1.10593   1.11848   1.13274   1.14186   1.14752
 Alpha virt. eigenvalues --    1.15815   1.16961   1.18223   1.18554   1.20216
 Alpha virt. eigenvalues --    1.21602   1.22009   1.22761   1.23595   1.24512
 Alpha virt. eigenvalues --    1.24770   1.25292   1.26599   1.27159   1.27682
 Alpha virt. eigenvalues --    1.28288   1.28685   1.29708   1.29914   1.30691
 Alpha virt. eigenvalues --    1.31073   1.31854   1.32353   1.32832   1.34118
 Alpha virt. eigenvalues --    1.34429   1.35295   1.36345   1.36447   1.37367
 Alpha virt. eigenvalues --    1.37774   1.38688   1.40042   1.40182   1.41459
 Alpha virt. eigenvalues --    1.41508   1.43457   1.43887   1.46008   1.47736
 Alpha virt. eigenvalues --    1.48747   1.49843   1.51802   1.52918   1.53058
 Alpha virt. eigenvalues --    1.53097   1.54761   1.56302   1.57136   1.57420
 Alpha virt. eigenvalues --    1.57714   1.58484   1.59425   1.60347   1.60912
 Alpha virt. eigenvalues --    1.61156   1.61873   1.62670   1.63271   1.63397
 Alpha virt. eigenvalues --    1.64881   1.65840   1.66241   1.67118   1.67847
 Alpha virt. eigenvalues --    1.68886   1.69432   1.69731   1.70106   1.73542
 Alpha virt. eigenvalues --    1.74378   1.74572   1.75646   1.75864   1.77560
 Alpha virt. eigenvalues --    1.78201   1.79706   1.80230   1.81614   1.82065
 Alpha virt. eigenvalues --    1.82726   1.83092   1.84301   1.85075   1.85880
 Alpha virt. eigenvalues --    1.86513   1.87105   1.88279   1.88749   1.89691
 Alpha virt. eigenvalues --    1.91177   1.92003   1.92546   1.94309   1.94656
 Alpha virt. eigenvalues --    1.95567   1.95894   1.97305   1.97966   1.98578
 Alpha virt. eigenvalues --    1.98834   1.99855   2.00688   2.00723   2.02352
 Alpha virt. eigenvalues --    2.03426   2.05234   2.05781   2.06177   2.06778
 Alpha virt. eigenvalues --    2.08131   2.08889   2.10164   2.10508   2.11481
 Alpha virt. eigenvalues --    2.12041   2.13051   2.14055   2.14995   2.15353
 Alpha virt. eigenvalues --    2.16194   2.17265   2.18738   2.19831   2.20136
 Alpha virt. eigenvalues --    2.21543   2.22176   2.23157   2.25272   2.26430
 Alpha virt. eigenvalues --    2.29197   2.30655   2.31499   2.33749   2.33930
 Alpha virt. eigenvalues --    2.34179   2.35533   2.36590   2.37197   2.37654
 Alpha virt. eigenvalues --    2.39510   2.40017   2.41251   2.42228   2.42759
 Alpha virt. eigenvalues --    2.45024   2.46134   2.47652   2.47973   2.49609
 Alpha virt. eigenvalues --    2.50006   2.50652   2.51352   2.51702   2.53068
 Alpha virt. eigenvalues --    2.54347   2.55238   2.56131   2.56928   2.57945
 Alpha virt. eigenvalues --    2.59968   2.61072   2.61242   2.62770   2.62984
 Alpha virt. eigenvalues --    2.63959   2.64184   2.64655   2.65807   2.67520
 Alpha virt. eigenvalues --    2.68310   2.70016   2.71447   2.72552   2.74210
 Alpha virt. eigenvalues --    2.74660   2.76236   2.77848   2.79027   2.80668
 Alpha virt. eigenvalues --    2.82191   2.82671   2.83391   2.84113   2.85195
 Alpha virt. eigenvalues --    2.86961   2.87775   2.88149   2.89413   2.90272
 Alpha virt. eigenvalues --    2.91005   2.92401   2.93321   2.94800   2.95578
 Alpha virt. eigenvalues --    2.95846   2.96560   2.97509   2.98464   2.99216
 Alpha virt. eigenvalues --    3.00784   3.02015   3.02895   3.04144   3.05999
 Alpha virt. eigenvalues --    3.06762   3.09032   3.10192   3.13099   3.14244
 Alpha virt. eigenvalues --    3.15488   3.17264   3.20610   3.25664   3.30060
 Alpha virt. eigenvalues --    3.31193   3.34861   3.37849   3.39099   3.40389
 Alpha virt. eigenvalues --    3.42453   3.43589   3.44148   3.45246   3.46915
 Alpha virt. eigenvalues --    3.48679   3.49528   3.50093   3.51089   3.52266
 Alpha virt. eigenvalues --    3.53842   3.55484   3.58974   3.59745   3.64297
 Alpha virt. eigenvalues --    3.65095   3.67701   3.74254   4.23785   4.30823
 Alpha virt. eigenvalues --    4.32516   4.33836   4.35610   4.41428   4.43838
 Alpha virt. eigenvalues --    4.47009   4.48569   4.50214   4.51638   4.55833
 Alpha virt. eigenvalues --    4.56268   4.58066   4.60686   4.63809   4.69208
 Alpha virt. eigenvalues --    4.75530   4.80853   4.81195   4.85102   4.91249
 Alpha virt. eigenvalues --    4.94888
          Condensed to atoms (all electrons):
              1          2          3          4          5          6
     1  O    8.229159   0.353920  -0.081663  -0.003884   0.013978   0.035422
     2  C    0.353920  12.745019  -3.862460  -0.008856   0.033969  -2.378074
     3  C   -0.081663  -3.862460  11.412974   0.172058  -0.046780   0.909547
     4  O   -0.003884  -0.008856   0.172058   8.313823   0.212377  -0.111433
     5  H    0.013978   0.033969  -0.046780   0.212377   0.418964  -0.017980
     6  C    0.035422  -2.378074   0.909547  -0.111433  -0.017980   9.498166
     7  O   -0.000789  -0.025754   0.004433  -0.016842   0.001690   0.291989
     8  H   -0.000088   0.028688  -0.077686   0.020864  -0.000342   0.018275
     9  C   -0.025406   0.487781  -0.284266   0.008271  -0.003498  -0.040999
    10  O   -0.000267   0.029473  -0.000916   0.000049  -0.000004  -0.000975
    11  H    0.000168  -0.013491   0.002224   0.000000   0.000000  -0.000143
    12  C   -0.173698  -4.645443   1.101528   0.037219   0.013289   0.289320
    13  O    0.002848   0.163254   0.025804  -0.002021  -0.000132  -0.189891
    14  C   -0.009752   1.933903  -2.398249  -0.015742   0.023064  -1.874905
    15  O    0.000090  -0.015470  -0.021215  -0.001180   0.000145  -0.003713
    16  C    0.001900   0.443982  -0.362557  -0.001434   0.000803   0.223913
    17  C   -0.001842  -0.024430  -0.181681   0.002541   0.000033  -0.322689
    18  O    0.000035  -0.000498   0.006982  -0.000015   0.000000  -0.001361
    19  H    0.000005   0.011016  -0.004389   0.000000   0.000000   0.014157
    20  C   -0.000040   0.007329  -0.053888   0.000099   0.000003  -0.020493
    21  O    0.000000  -0.000005  -0.000003   0.000000   0.000000   0.001040
    22  H    0.000000  -0.000066   0.000040   0.000000   0.000000   0.000285
    23  C    0.000037   0.010101  -0.019353  -0.000029   0.000001  -0.034093
    24  O    0.000000   0.000085   0.000571  -0.000001   0.000000  -0.001874
    25  H    0.000000  -0.000001   0.000048   0.000000   0.000000   0.000150
    26  C   -0.000043   0.077961  -0.137477   0.000876   0.000035  -0.229880
    27  O    0.000000   0.000514  -0.000526   0.000001   0.000000   0.001770
    28  C    0.000007   0.000426  -0.000646   0.000010   0.000000   0.013525
    29  O    0.000000   0.000001   0.000051   0.000000   0.000000  -0.000081
    30  H    0.000000   0.000000   0.000001   0.000000   0.000000  -0.000002
    31  H    0.000000  -0.000020   0.000056   0.000000   0.000000   0.000191
    32  H    0.000000   0.000005   0.000115   0.000000   0.000000  -0.000099
    33  H    0.000000  -0.001376   0.003077  -0.000001   0.000000   0.000423
    34  H   -0.000002  -0.001148   0.007129   0.000006   0.000000  -0.016559
    35  H    0.000000  -0.000382   0.001858   0.000000   0.000000   0.000260
    36  H    0.000000   0.000073   0.001184  -0.000001   0.000000   0.000153
    37  H    0.236934   0.036729  -0.027158   0.000387  -0.001131   0.003911
    38  H   -0.002198   0.017051  -0.022265   0.000115  -0.000001   0.005854
    39  H    0.006058   0.115853  -0.009593  -0.000174  -0.000003  -0.000233
    40  H    0.000000  -0.000700  -0.000934   0.000001   0.000000  -0.003123
    41  H    0.000194   0.092856  -0.166935   0.000672  -0.000018   0.009991
    42  H   -0.059611   0.595784  -0.265954   0.003510  -0.001888  -0.010090
    43  H   -0.008991   0.165559   0.252108  -0.047243  -0.001344  -0.289098
    44  H   -0.000938   0.092880  -0.069292   0.005548  -0.000031   0.256955
    45  H   -0.000039   0.035412  -0.079444   0.000494   0.000001  -0.103810
              7          8          9         10         11         12
     1  O   -0.000789  -0.000088  -0.025406  -0.000267   0.000168  -0.173698
     2  C   -0.025754   0.028688   0.487781   0.029473  -0.013491  -4.645443
     3  C    0.004433  -0.077686  -0.284266  -0.000916   0.002224   1.101528
     4  O   -0.016842   0.020864   0.008271   0.000049   0.000000   0.037219
     5  H    0.001690  -0.000342  -0.003498  -0.000004   0.000000   0.013289
     6  C    0.291989   0.018275  -0.040999  -0.000975  -0.000143   0.289320
     7  O    8.203871   0.207328   0.001256  -0.000007   0.000000   0.035970
     8  H    0.207328   0.396424  -0.000109   0.000000   0.000000  -0.007696
     9  C    0.001256  -0.000109   7.163199   0.226712  -0.022040  -2.169966
    10  O   -0.000007   0.000000   0.226712   8.301608   0.212243  -0.131324
    11  H    0.000000   0.000000  -0.022040   0.212243   0.424652   0.047784
    12  C    0.035970  -0.007696  -2.169966  -0.131324   0.047784  13.230990
    13  O    0.006053  -0.000525  -0.018302   0.012334  -0.000933  -0.223352
    14  C   -0.109406   0.036857  -0.118626   0.003531  -0.001304  -0.961646
    15  O   -0.003496   0.000656   0.005612  -0.001115  -0.000006   0.019338
    16  C   -0.043302   0.003595  -0.185310   0.014230  -0.000650  -0.096350
    17  C   -0.000338  -0.000073   0.053391  -0.011517   0.000348  -0.111520
    18  O    0.000285  -0.000001  -0.000576   0.001025   0.000002  -0.001503
    19  H   -0.000045   0.000000  -0.014815   0.001614  -0.000024  -0.005929
    20  C   -0.000413  -0.000038   0.025355   0.000005  -0.000075  -0.065219
    21  O   -0.000001   0.000000  -0.000487  -0.000018   0.000000   0.001351
    22  H    0.000000   0.000000  -0.000258  -0.000014   0.000000   0.000396
    23  C    0.000324  -0.000871   0.000911   0.000014  -0.000001  -0.016464
    24  O   -0.000146  -0.000001  -0.000020   0.000000   0.000000  -0.000052
    25  H    0.000033   0.000000   0.000000   0.000000   0.000000   0.000004
    26  C   -0.007397   0.000613   0.000143   0.000266  -0.000041  -0.058904
    27  O   -0.000106   0.000000  -0.000240   0.000002   0.000000  -0.000679
    28  C   -0.000095   0.000007  -0.003712   0.000164   0.000001   0.002966
    29  O   -0.000003   0.000000   0.000003   0.000000   0.000000   0.000050
    30  H    0.000000   0.000000   0.000001   0.000000   0.000000  -0.000001
    31  H    0.000000   0.000000   0.000034   0.000000   0.000000   0.000126
    32  H    0.000002   0.000000   0.000040   0.000000   0.000000   0.000614
    33  H    0.000052   0.000000   0.002224  -0.000025   0.000000   0.000815
    34  H    0.000297   0.000002   0.000442   0.000005   0.000000   0.002175
    35  H    0.000013   0.000000   0.000214   0.000000   0.000000  -0.000039
    36  H    0.000799   0.000007  -0.000005   0.000000   0.000000  -0.000312
    37  H   -0.000043   0.000001   0.000926   0.000219  -0.000002   0.000381
    38  H   -0.000008   0.000000   0.656010  -0.065157  -0.002178  -0.315533
    39  H   -0.000005   0.000000   0.397333  -0.051403  -0.008194  -0.147320
    40  H   -0.001609  -0.000053   0.000056   0.000000   0.000000   0.000125
    41  H   -0.000083   0.000000   0.120785   0.000739  -0.000038   0.131709
    42  H    0.000197  -0.000001   0.061244  -0.000049   0.000001  -0.190437
    43  H    0.003750   0.000017   0.014374   0.000015   0.000000  -0.043593
    44  H   -0.050751  -0.003146   0.011334  -0.000004   0.000000   0.000476
    45  H    0.005709  -0.000082   0.006175  -0.000042   0.000000  -0.001533
             13         14         15         16         17         18
     1  O    0.002848  -0.009752   0.000090   0.001900  -0.001842   0.000035
     2  C    0.163254   1.933903  -0.015470   0.443982  -0.024430  -0.000498
     3  C    0.025804  -2.398249  -0.021215  -0.362557  -0.181681   0.006982
     4  O   -0.002021  -0.015742  -0.001180  -0.001434   0.002541  -0.000015
     5  H   -0.000132   0.023064   0.000145   0.000803   0.000033   0.000000
     6  C   -0.189891  -1.874905  -0.003713   0.223913  -0.322689  -0.001361
     7  O    0.006053  -0.109406  -0.003496  -0.043302  -0.000338   0.000285
     8  H   -0.000525   0.036857   0.000656   0.003595  -0.000073  -0.000001
     9  C   -0.018302  -0.118626   0.005612  -0.185310   0.053391  -0.000576
    10  O    0.012334   0.003531  -0.001115   0.014230  -0.011517   0.001025
    11  H   -0.000933  -0.001304  -0.000006  -0.000650   0.000348   0.000002
    12  C   -0.223352  -0.961646   0.019338  -0.096350  -0.111520  -0.001503
    13  O    8.645753   0.054637  -0.136491   0.122082   0.020565   0.007326
    14  C    0.054637  10.272284   0.265728  -1.240366   0.431582   0.024248
    15  O   -0.136491   0.265728   8.419236  -0.203365  -0.019958  -0.019536
    16  C    0.122082  -1.240366  -0.203365  17.544542  -3.807960  -0.091484
    17  C    0.020565   0.431582  -0.019958  -3.807960  10.474826   0.195054
    18  O    0.007326   0.024248  -0.019536  -0.091484   0.195054   8.308123
    19  H    0.015791   0.007527   0.013057  -0.030897   0.015632   0.190070
    20  C   -0.016813  -0.352410   0.082461  -3.317144  -1.054987  -0.032853
    21  O    0.000589  -0.001493  -0.000640   0.019801  -0.094584  -0.013871
    22  H    0.000033   0.002263  -0.000210   0.066737  -0.095468   0.026270
    23  C   -0.003501  -0.011082  -0.038848   0.123518  -0.463870   0.006958
    24  O    0.000091   0.003829  -0.000871   0.057317  -0.006058   0.000051
    25  H    0.000002  -0.000502   0.000171  -0.021040   0.001279   0.000000
    26  C   -0.028572  -0.940676   0.063981  -4.830405   0.775463   0.031334
    27  O    0.000030  -0.007652   0.007711  -0.015338  -0.006753   0.001014
    28  C    0.000528  -0.005602   0.003113   0.918070  -0.348278  -0.003629
    29  O   -0.000021   0.003448   0.000221   0.007531   0.028374  -0.000336
    30  H    0.000000   0.000344  -0.000003   0.000917  -0.003816   0.000003
    31  H    0.000067   0.007332  -0.000175   0.156744   0.009479  -0.000344
    32  H    0.000269   0.007532  -0.001291   0.124385   0.013349   0.000495
    33  H    0.000562   0.072319  -0.010249   0.000007   0.417300  -0.054183
    34  H   -0.001084   0.066691  -0.066629   0.350263  -0.062416   0.001685
    35  H   -0.000592   0.057449   0.005420   0.144152  -0.015157  -0.000296
    36  H    0.000071   0.012011  -0.001664   0.155039   0.003147   0.000050
    37  H   -0.000707  -0.001506   0.000000   0.000152  -0.000025  -0.000001
    38  H   -0.003613   0.009203  -0.000233  -0.006666   0.006113   0.000154
    39  H    0.010729   0.002499   0.000034   0.002512  -0.001320  -0.000044
    40  H   -0.000586   0.008344   0.006481  -0.071329  -0.006473  -0.000012
    41  H   -0.065830   0.077251  -0.003257  -0.009410   0.018010   0.001029
    42  H    0.007501   0.072258  -0.001334  -0.000464   0.001932   0.000035
    43  H    0.007262   0.149779  -0.001697   0.010161   0.002831   0.000053
    44  H    0.023645  -0.063415  -0.008850   0.037569   0.006038   0.000030
    45  H   -0.042906   0.335226  -0.053839   0.071883   0.022586   0.000002
             19         20         21         22         23         24
     1  O    0.000005  -0.000040   0.000000   0.000000   0.000037   0.000000
     2  C    0.011016   0.007329  -0.000005  -0.000066   0.010101   0.000085
     3  C   -0.004389  -0.053888  -0.000003   0.000040  -0.019353   0.000571
     4  O    0.000000   0.000099   0.000000   0.000000  -0.000029  -0.000001
     5  H    0.000000   0.000003   0.000000   0.000000   0.000001   0.000000
     6  C    0.014157  -0.020493   0.001040   0.000285  -0.034093  -0.001874
     7  O   -0.000045  -0.000413  -0.000001   0.000000   0.000324  -0.000146
     8  H    0.000000  -0.000038   0.000000   0.000000  -0.000871  -0.000001
     9  C   -0.014815   0.025355  -0.000487  -0.000258   0.000911  -0.000020
    10  O    0.001614   0.000005  -0.000018  -0.000014   0.000014   0.000000
    11  H   -0.000024  -0.000075   0.000000   0.000000  -0.000001   0.000000
    12  C   -0.005929  -0.065219   0.001351   0.000396  -0.016464  -0.000052
    13  O    0.015791  -0.016813   0.000589   0.000033  -0.003501   0.000091
    14  C    0.007527  -0.352410  -0.001493   0.002263  -0.011082   0.003829
    15  O    0.013057   0.082461  -0.000640  -0.000210  -0.038848  -0.000871
    16  C   -0.030897  -3.317144   0.019801   0.066737   0.123518   0.057317
    17  C    0.015632  -1.054987  -0.094584  -0.095468  -0.463870  -0.006058
    18  O    0.190070  -0.032853  -0.013871   0.026270   0.006958   0.000051
    19  H    0.352963   0.006956   0.001569  -0.000777  -0.001636   0.000000
    20  C    0.006956  10.716166   0.355913  -0.006254   0.130058  -0.000231
    21  O    0.001569   0.355913   8.188445   0.214529  -0.003970  -0.000004
    22  H   -0.000777  -0.006254   0.214529   0.403356   0.000925   0.000000
    23  C   -0.001636   0.130058  -0.003970   0.000925   6.975029   0.227695
    24  O    0.000000  -0.000231  -0.000004   0.000000   0.227695   8.282675
    25  H    0.000000   0.000328   0.000000   0.000000  -0.063631   0.229705
    26  C    0.002613   1.087666   0.022097  -0.007738  -1.846084  -0.140336
    27  O   -0.000001  -0.254477   0.006626  -0.000200  -0.049208   0.005824
    28  C    0.002007  -0.882387  -0.177875   0.028989  -0.006703  -0.000048
    29  O    0.000039  -0.161514   0.008514  -0.000690  -0.004295  -0.000143
    30  H    0.000000   0.030624  -0.001470   0.000022   0.001247   0.000019
    31  H   -0.000001  -0.208356   0.009203  -0.000164  -0.002584  -0.000298
    32  H   -0.000228   0.217478  -0.048641  -0.002946   0.006870  -0.000009
    33  H   -0.004866  -0.157553  -0.004987  -0.000152   0.011047   0.000025
    34  H   -0.000829   0.006636  -0.000543   0.000010   0.041485   0.000143
    35  H    0.000005  -0.029972  -0.000054  -0.000004   0.045321   0.000942
    36  H    0.000000  -0.003372  -0.000005   0.000000   0.529262  -0.047140
    37  H    0.000000  -0.000001   0.000000   0.000000  -0.000001   0.000000
    38  H    0.000059   0.000580   0.000001   0.000000   0.000019   0.000000
    39  H    0.000004   0.000010   0.000000   0.000000   0.000002   0.000000
    40  H    0.000000   0.003591  -0.000004   0.000000   0.588394  -0.072428
    41  H    0.000255   0.002459   0.000004   0.000000   0.000123   0.000000
    42  H   -0.000010   0.000085   0.000000   0.000000   0.000061   0.000000
    43  H   -0.000012   0.000075   0.000000   0.000000   0.000049   0.000000
    44  H   -0.000041   0.001492   0.000000   0.000000   0.001945   0.000001
    45  H   -0.000802   0.014840   0.000013   0.000000   0.003735   0.000006
             25         26         27         28         29         30
     1  O    0.000000  -0.000043   0.000000   0.000007   0.000000   0.000000
     2  C   -0.000001   0.077961   0.000514   0.000426   0.000001   0.000000
     3  C    0.000048  -0.137477  -0.000526  -0.000646   0.000051   0.000001
     4  O    0.000000   0.000876   0.000001   0.000010   0.000000   0.000000
     5  H    0.000000   0.000035   0.000000   0.000000   0.000000   0.000000
     6  C    0.000150  -0.229880   0.001770   0.013525  -0.000081  -0.000002
     7  O    0.000033  -0.007397  -0.000106  -0.000095  -0.000003   0.000000
     8  H    0.000000   0.000613   0.000000   0.000007   0.000000   0.000000
     9  C    0.000000   0.000143  -0.000240  -0.003712   0.000003   0.000001
    10  O    0.000000   0.000266   0.000002   0.000164   0.000000   0.000000
    11  H    0.000000  -0.000041   0.000000   0.000001   0.000000   0.000000
    12  C    0.000004  -0.058904  -0.000679   0.002966   0.000050  -0.000001
    13  O    0.000002  -0.028572   0.000030   0.000528  -0.000021   0.000000
    14  C   -0.000502  -0.940676  -0.007652  -0.005602   0.003448   0.000344
    15  O    0.000171   0.063981   0.007711   0.003113   0.000221  -0.000003
    16  C   -0.021040  -4.830405  -0.015338   0.918070   0.007531   0.000917
    17  C    0.001279   0.775463  -0.006753  -0.348278   0.028374  -0.003816
    18  O    0.000000   0.031334   0.001014  -0.003629  -0.000336   0.000003
    19  H    0.000000   0.002613  -0.000001   0.002007   0.000039   0.000000
    20  C    0.000328   1.087666  -0.254477  -0.882387  -0.161514   0.030624
    21  O    0.000000   0.022097   0.006626  -0.177875   0.008514  -0.001470
    22  H    0.000000  -0.007738  -0.000200   0.028989  -0.000690   0.000022
    23  C   -0.063631  -1.846084  -0.049208  -0.006703  -0.004295   0.001247
    24  O    0.229705  -0.140336   0.005824  -0.000048  -0.000143   0.000019
    25  H    0.423984   0.087940  -0.002040   0.001115  -0.000010   0.000000
    26  C    0.087940  13.278940   0.244978  -0.812149  -0.073059   0.001047
    27  O   -0.002040   0.244978   8.381300   0.138861  -0.054569  -0.003878
    28  C    0.001115  -0.812149   0.138861   5.975410   0.398204  -0.015318
    29  O   -0.000010  -0.073059  -0.054569   0.398204   8.170629   0.236932
    30  H    0.000000   0.001047  -0.003878  -0.015318   0.236932   0.415061
    31  H   -0.000001  -0.094327  -0.064680   0.461474  -0.045052  -0.009863
    32  H    0.000000  -0.012133   0.003496  -0.068915  -0.002009   0.000059
    33  H    0.000000  -0.077187   0.002282   0.014443  -0.000436   0.000013
    34  H   -0.000003  -0.126105   0.003275   0.008420  -0.000494   0.000002
    35  H   -0.000157   0.026272  -0.049403   0.032883  -0.000347  -0.000010
    36  H   -0.010323  -0.355409  -0.001269   0.004191  -0.000074   0.000001
    37  H    0.000000  -0.000001   0.000000   0.000000   0.000000   0.000000
    38  H    0.000000   0.000205   0.000000  -0.000034   0.000000   0.000000
    39  H    0.000000   0.000064   0.000000   0.000002   0.000000   0.000000
    40  H    0.000332  -0.145190   0.007484  -0.000441   0.000018   0.000000
    41  H    0.000000   0.001625   0.000000  -0.000043   0.000000   0.000000
    42  H    0.000000   0.000143   0.000000  -0.000005   0.000000   0.000000
    43  H    0.000000   0.000832   0.000000  -0.000004   0.000000   0.000000
    44  H    0.000000  -0.001260   0.000006   0.000114   0.000000   0.000000
    45  H    0.000000   0.020644   0.000195   0.000553  -0.000004   0.000000
             31         32         33         34         35         36
     1  O    0.000000   0.000000   0.000000  -0.000002   0.000000   0.000000
     2  C   -0.000020   0.000005  -0.001376  -0.001148  -0.000382   0.000073
     3  C    0.000056   0.000115   0.003077   0.007129   0.001858   0.001184
     4  O    0.000000   0.000000  -0.000001   0.000006   0.000000  -0.000001
     5  H    0.000000   0.000000   0.000000   0.000000   0.000000   0.000000
     6  C    0.000191  -0.000099   0.000423  -0.016559   0.000260   0.000153
     7  O    0.000000   0.000002   0.000052   0.000297   0.000013   0.000799
     8  H    0.000000   0.000000   0.000000   0.000002   0.000000   0.000007
     9  C    0.000034   0.000040   0.002224   0.000442   0.000214  -0.000005
    10  O    0.000000   0.000000  -0.000025   0.000005   0.000000   0.000000
    11  H    0.000000   0.000000   0.000000   0.000000   0.000000   0.000000
    12  C    0.000126   0.000614   0.000815   0.002175  -0.000039  -0.000312
    13  O    0.000067   0.000269   0.000562  -0.001084  -0.000592   0.000071
    14  C    0.007332   0.007532   0.072319   0.066691   0.057449   0.012011
    15  O   -0.000175  -0.001291  -0.010249  -0.066629   0.005420  -0.001664
    16  C    0.156744   0.124385   0.000007   0.350263   0.144152   0.155039
    17  C    0.009479   0.013349   0.417300  -0.062416  -0.015157   0.003147
    18  O   -0.000344   0.000495  -0.054183   0.001685  -0.000296   0.000050
    19  H   -0.000001  -0.000228  -0.004866  -0.000829   0.000005   0.000000
    20  C   -0.208356   0.217478  -0.157553   0.006636  -0.029972  -0.003372
    21  O    0.009203  -0.048641  -0.004987  -0.000543  -0.000054  -0.000005
    22  H   -0.000164  -0.002946  -0.000152   0.000010  -0.000004   0.000000
    23  C   -0.002584   0.006870   0.011047   0.041485   0.045321   0.529262
    24  O   -0.000298  -0.000009   0.000025   0.000143   0.000942  -0.047140
    25  H   -0.000001   0.000000   0.000000  -0.000003  -0.000157  -0.010323
    26  C   -0.094327  -0.012133  -0.077187  -0.126105   0.026272  -0.355409
    27  O   -0.064680   0.003496   0.002282   0.003275  -0.049403  -0.001269
    28  C    0.461474  -0.068915   0.014443   0.008420   0.032883   0.004191
    29  O   -0.045052  -0.002009  -0.000436  -0.000494  -0.000347  -0.000074
    30  H   -0.009863   0.000059   0.000013   0.000002  -0.000010   0.000001
    31  H    0.648646   0.005789   0.003373   0.000035   0.008544   0.000003
    32  H    0.005789   0.599427   0.006170   0.002181   0.000002  -0.000012
    33  H    0.003373   0.006170   0.620223   0.007850   0.003597   0.000007
    34  H    0.000035   0.002181   0.007850   0.633775   0.007092   0.005791
    35  H    0.008544   0.000002   0.003597   0.007092   0.633647   0.007746
    36  H    0.000003  -0.000012   0.000007   0.005791   0.007746   0.630807
    37  H    0.000000   0.000000   0.000000   0.000000   0.000000   0.000000
    38  H    0.000000   0.000000  -0.000002   0.000000   0.000000   0.000000
    39  H    0.000000   0.000000   0.000000   0.000000   0.000000   0.000000
    40  H    0.000002   0.000000  -0.000008  -0.000141  -0.006494  -0.049591
    41  H    0.000000   0.000000  -0.000005  -0.000009   0.000000   0.000000
    42  H    0.000000   0.000000   0.000000   0.000000   0.000000   0.000000
    43  H    0.000000   0.000000   0.000000  -0.000005   0.000000   0.000000
    44  H    0.000000   0.000000  -0.000004   0.000006  -0.000003   0.000000
    45  H    0.000000  -0.000008  -0.000019   0.007736  -0.000006   0.000005
             37         38         39         40         41         42
     1  O    0.236934  -0.002198   0.006058   0.000000   0.000194  -0.059611
     2  C    0.036729   0.017051   0.115853  -0.000700   0.092856   0.595784
     3  C   -0.027158  -0.022265  -0.009593  -0.000934  -0.166935  -0.265954
     4  O    0.000387   0.000115  -0.000174   0.000001   0.000672   0.003510
     5  H   -0.001131  -0.000001  -0.000003   0.000000  -0.000018  -0.001888
     6  C    0.003911   0.005854  -0.000233  -0.003123   0.009991  -0.010090
     7  O   -0.000043  -0.000008  -0.000005  -0.001609  -0.000083   0.000197
     8  H    0.000001   0.000000   0.000000  -0.000053   0.000000  -0.000001
     9  C    0.000926   0.656010   0.397333   0.000056   0.120785   0.061244
    10  O    0.000219  -0.065157  -0.051403   0.000000   0.000739  -0.000049
    11  H   -0.000002  -0.002178  -0.008194   0.000000  -0.000038   0.000001
    12  C    0.000381  -0.315533  -0.147320   0.000125   0.131709  -0.190437
    13  O   -0.000707  -0.003613   0.010729  -0.000586  -0.065830   0.007501
    14  C   -0.001506   0.009203   0.002499   0.008344   0.077251   0.072258
    15  O    0.000000  -0.000233   0.000034   0.006481  -0.003257  -0.001334
    16  C    0.000152  -0.006666   0.002512  -0.071329  -0.009410  -0.000464
    17  C   -0.000025   0.006113  -0.001320  -0.006473   0.018010   0.001932
    18  O   -0.000001   0.000154  -0.000044  -0.000012   0.001029   0.000035
    19  H    0.000000   0.000059   0.000004   0.000000   0.000255  -0.000010
    20  C   -0.000001   0.000580   0.000010   0.003591   0.002459   0.000085
    21  O    0.000000   0.000001   0.000000  -0.000004   0.000004   0.000000
    22  H    0.000000   0.000000   0.000000   0.000000   0.000000   0.000000
    23  C   -0.000001   0.000019   0.000002   0.588394   0.000123   0.000061
    24  O    0.000000   0.000000   0.000000  -0.072428   0.000000   0.000000
    25  H    0.000000   0.000000   0.000000   0.000332   0.000000   0.000000
    26  C   -0.000001   0.000205   0.000064  -0.145190   0.001625   0.000143
    27  O    0.000000   0.000000   0.000000   0.007484   0.000000   0.000000
    28  C    0.000000  -0.000034   0.000002  -0.000441  -0.000043  -0.000005
    29  O    0.000000   0.000000   0.000000   0.000018   0.000000   0.000000
    30  H    0.000000   0.000000   0.000000   0.000000   0.000000   0.000000
    31  H    0.000000   0.000000   0.000000   0.000002   0.000000   0.000000
    32  H    0.000000   0.000000   0.000000   0.000000   0.000000   0.000000
    33  H    0.000000  -0.000002   0.000000  -0.000008  -0.000005   0.000000
    34  H    0.000000   0.000000   0.000000  -0.000141  -0.000009   0.000000
    35  H    0.000000   0.000000   0.000000  -0.006494   0.000000   0.000000
    36  H    0.000000   0.000000   0.000000  -0.049591   0.000000   0.000000
    37  H    0.399435   0.000205  -0.001682   0.000000   0.000189  -0.012447
    38  H    0.000205   0.625428  -0.051743   0.000000   0.008826   0.006633
    39  H   -0.001682  -0.051743   0.602172   0.000000  -0.007100  -0.002289
    40  H    0.000000   0.000000   0.000000   0.585163   0.000000   0.000000
    41  H    0.000189   0.008826  -0.007100   0.000000   0.627990   0.009379
    42  H   -0.012447   0.006633  -0.002289   0.000000   0.009379   0.635934
    43  H    0.000135   0.000006  -0.000025   0.000000   0.002860   0.007204
    44  H    0.000010  -0.000016  -0.000003  -0.000014  -0.000009   0.002587
    45  H    0.000002   0.000005   0.000009  -0.000001   0.003962   0.000031
             43         44         45
     1  O   -0.008991  -0.000938  -0.000039
     2  C    0.165559   0.092880   0.035412
     3  C    0.252108  -0.069292  -0.079444
     4  O   -0.047243   0.005548   0.000494
     5  H   -0.001344  -0.000031   0.000001
     6  C   -0.289098   0.256955  -0.103810
     7  O    0.003750  -0.050751   0.005709
     8  H    0.000017  -0.003146  -0.000082
     9  C    0.014374   0.011334   0.006175
    10  O    0.000015  -0.000004  -0.000042
    11  H    0.000000   0.000000   0.000000
    12  C   -0.043593   0.000476  -0.001533
    13  O    0.007262   0.023645  -0.042906
    14  C    0.149779  -0.063415   0.335226
    15  O   -0.001697  -0.008850  -0.053839
    16  C    0.010161   0.037569   0.071883
    17  C    0.002831   0.006038   0.022586
    18  O    0.000053   0.000030   0.000002
    19  H   -0.000012  -0.000041  -0.000802
    20  C    0.000075   0.001492   0.014840
    21  O    0.000000   0.000000   0.000013
    22  H    0.000000   0.000000   0.000000
    23  C    0.000049   0.001945   0.003735
    24  O    0.000000   0.000001   0.000006
    25  H    0.000000   0.000000   0.000000
    26  C    0.000832  -0.001260   0.020644
    27  O    0.000000   0.000006   0.000195
    28  C   -0.000004   0.000114   0.000553
    29  O    0.000000   0.000000  -0.000004
    30  H    0.000000   0.000000   0.000000
    31  H    0.000000   0.000000   0.000000
    32  H    0.000000   0.000000  -0.000008
    33  H    0.000000  -0.000004  -0.000019
    34  H   -0.000005   0.000006   0.007736
    35  H    0.000000  -0.000003  -0.000006
    36  H    0.000000   0.000000   0.000005
    37  H    0.000135   0.000010   0.000002
    38  H    0.000006  -0.000016   0.000005
    39  H   -0.000025  -0.000003   0.000009
    40  H    0.000000  -0.000014  -0.000001
    41  H    0.002860  -0.000009   0.003962
    42  H    0.007204   0.002587   0.000031
    43  H    0.615044   0.006965   0.003570
    44  H    0.006965   0.594205   0.004799
    45  H    0.003570   0.004799   0.599304
 Mulliken atomic charges:
              1
     1  O   -0.511503
     2  C   -0.501448
     3  C    0.273541
     4  O   -0.570066
     5  H    0.354800
     6  C    0.076301
     7  O   -0.503410
     8  H    0.377380
     9  C   -0.355190
    10  O   -0.541409
    11  H    0.361698
    12  C    0.451888
    13  O   -0.391955
    14  C    0.173195
    15  O   -0.278122
    16  C   -0.266332
    17  C    0.141340
    18  O   -0.581768
    19  H    0.429961
    20  C   -0.071719
    21  O   -0.481041
    22  H    0.371084
    23  C   -0.138905
    24  O   -0.539320
    25  H    0.352616
    26  C    0.198637
    27  O   -0.294351
    28  C    0.320401
    29  O   -0.510877
    30  H    0.348068
    31  H    0.114766
    32  H    0.148012
    33  H    0.145244
    34  H    0.122836
    35  H    0.127495
    36  H    0.118831
    37  H    0.365091
    38  H    0.133180
    39  H    0.143851
    40  H    0.159140
    41  H    0.141828
    42  H    0.140061
    43  H    0.149360
    44  H    0.151173
    45  H    0.145638
 Sum of Mulliken atomic charges =   0.00000
 Mulliken charges with hydrogens summed into heavy atoms:
              1
     1  O   -0.146412
     2  C   -0.361387
     3  C    0.422902
     4  O   -0.215266
     6  C    0.227473
     7  O   -0.126030
     9  C   -0.078159
    10  O   -0.179711
    12  C    0.593716
    13  O   -0.391955
    14  C    0.318833
    15  O   -0.278122
    16  C   -0.143496
    17  C    0.286584
    18  O   -0.151808
    20  C    0.076293
    21  O   -0.109957
    23  C    0.139066
    24  O   -0.186704
    26  C    0.326132
    27  O   -0.294351
    28  C    0.435167
    29  O   -0.162809
 Sum of Mulliken charges with hydrogens summed into heavy atoms =   0.00000
 APT atomic charges:
              1
     1  O   -0.631200
     2  C    0.447501
     3  C    0.354285
     4  O   -0.648659
     5  H    0.249075
     6  C    0.392015
     7  O   -0.602569
     8  H    0.292310
     9  C    0.468970
    10  O   -0.637955
    11  H    0.269389
    12  C    0.420074
    13  O   -0.772964
    14  C    0.874738
    15  O   -0.867591
    16  C    0.492965
    17  C    0.322300
    18  O   -0.709932
    19  H    0.397775
    20  C    0.387072
    21  O   -0.628640
    22  H    0.298186
    23  C    0.499099
    24  O   -0.664869
    25  H    0.266377
    26  C    0.448333
    27  O   -0.797393
    28  C    0.934630
    29  O   -0.671829
    30  H    0.259020
    31  H   -0.076199
    32  H   -0.042616
    33  H   -0.052134
    34  H   -0.055010
    35  H   -0.058227
    36  H   -0.052204
    37  H    0.263401
    38  H   -0.062751
    39  H   -0.030537
    40  H   -0.030111
    41  H   -0.055753
    42  H   -0.058197
    43  H   -0.051709
    44  H   -0.028414
    45  H   -0.050054
 Sum of APT charges=   0.00000
 APT Atomic charges with hydrogens summed into heavy atoms:
              1
[...]
 63771,0.00023610,0.00189660,-0.00009685,-0.00084008,-0.00042237,0.0001
 3356,0.00007856,0.00022313,0.00003426,0.00003728,-0.00007079,-0.000070
 01,-0.00002480,-0.00006657,0.00001112,-0.00004446,0.00015574,0.0000596
 8,0.00010049,-0.00018102,0.00001416,0.00001412,-0.00000475,0.00000651,
 -0.00001843,0.00002037,-0.00000359,0.00001837,-0.00001840,-0.00001745,
 -0.00001873,-0.00000474,0.00002037,0.00002106,0.00001146,-0.00000489,-
 0.00000358,0.00000144,-0.00003248,-0.00000148,-0.00002022,0.00001635,0
 .00000079,0.00002607,-0.00002088,0.00000104,-0.00002892,0.00000371,-0.
 00000171,0.00002480,-0.00000257,0.00000260,-0.00000174,0.00000481,-0.0
 0000064,0.00000208,0.00000291,-0.00000224,-0.00000321,0.00001832,-0.00
 000029,0.00000937,0.00000285,-0.00000865,-0.00000013,0.00000750,-0.000
 00435,0.00000620,0.00000578,-0.00000223,-0.00000099,0.00095537,-0.0002
 3684,-0.00035887,0.00045457,-0.00121448,-0.00003374,-0.00036995,-0.000
 11258,-0.00017589,-0.00000360,0.00000049,-0.00000070,0.00019451,-0.001
 37632,0.00135361,0.34762903,-0.00380129,0.00327554,-0.00081399,0.06763
 246,-0.05829180,-0.01633014,0.03322383,-0.01447846,-0.01313456,-0.0003
 1578,0.00501461,0.00012792,0.00062159,-0.00113667,0.00096654,0.0013460
 5,0.00020889,0.00172400,-0.00086322,-0.00001857,-0.00019067,0.00012717
 ,-0.00007355,-0.00012572,-0.00199106,0.00113284,0.00033646,0.00073778,
 0.00059811,-0.00035351,0.00000930,-0.00005536,-0.00007366,-0.02677253,
 0.00368114,0.00840161,0.00121786,0.00062867,0.00007216,0.00009208,-0.0
 0069834,0.00029872,0.00001534,0.00011915,-0.00002906,-0.00001406,0.000
 01223,0.00002371,-0.00001971,-0.00002074,-0.00003107,0.00002967,-0.000
 00222,0.00003882,-0.00003954,0.00002071,-0.00008445,0.00000344,0.00000
 592,0.00000683,0.00000502,0.00000137,-0.00000183,-0.00000467,0.0000056
 5,-0.00000194,0.00000997,0.00000351,0.00001432,-0.00001028,-0.00000682
 ,-0.00001287,0.00000339,0.00000261,0.00000271,0.00000196,-0.00000128,0
 .00000495,0.00000033,0.00000806,-0.00001062,-0.00000236,-0.00001053,0.
 00000843,0.00000215,0.00000165,-0.00000468,0.00000010,0.00000010,0.000
 00149,0.00000033,0.00000133,0.00000015,0.00000015,-0.00000128,-0.00000
 213,0.00000785,0.00000441,0.00000532,-0.00000277,-0.00000354,0.0000073
 7,-0.00000082,0.00000267,-0.00000126,-0.00000613,0.00000154,0.00000235
 ,-0.00017404,0.00126277,0.00046409,0.00090523,0.00018480,0.00011920,-0
 .00012241,0.00005783,-0.00014962,0.00000684,-0.00000038,0.00000192,-0.
 00230504,-0.00334249,0.00317174,-0.06792823,0.06712200,-0.04537152,0.0
 0418942,-0.01401793,0.07806243,-0.01987215,-0.06068666,0.01579503,-0.0
 0425219,-0.00289951,-0.00164958,0.00182062,0.00098510,-0.00031422,-0.0
 0003724,0.00024976,0.00133518,-0.00008036,0.00097848,-0.00051230,0.000
 10777,-0.00001362,0.00006395,-0.00004646,-0.00000854,-0.00015399,-0.00
 202096,-0.00011132,-0.00027792,-0.00014372,0.00002653,-0.00005342,0.00
 000499,0.00003213,0.02745400,-0.00038927,-0.00584857,-0.00183075,-0.00
 037596,0.00042763,0.00035517,0.00037766,0.00022948,-0.00008191,-0.0000
 0580,-0.00032179,-0.00007163,-0.00004094,0.00007434,0.00006706,0.00001
 839,0.00005128,-0.00005115,0.00000874,-0.00011007,0.00004088,-0.000028
 79,0.00013787,-0.00001803,-0.00001547,0.00001044,0.00000157,0.00002594
 ,-0.00002500,-0.00000222,-0.00001836,0.00002042,0.00001954,0.00002464,
 0.00001117,-0.00002152,-0.00002677,-0.00002321,0.00000342,0.00000509,0
 .00000175,0.00003405,0.00000497,0.00002791,-0.00001155,0.00000732,-0.0
 0004418,0.00001731,-0.00001209,0.00004260,0.00000005,0.00000386,-0.000
 03628,0.00000226,-0.00000294,0.00000393,-0.00000375,0.00000130,-0.0000
 0230,-0.00000242,0.00000166,0.00000301,-0.00001840,0.00000178,-0.00001
 057,-0.00000354,0.00000781,0.00000616,-0.00000784,0.00000394,-0.000007
 09,-0.00000676,0.00000228,0.00000127,-0.00339954,0.00077565,0.00333745
 ,-0.00071339,0.00058589,0.00015132,-0.00015198,0.00018881,0.00026013,0
 .00000607,0.00000069,0.00000058,0.00117136,0.00351520,-0.00313373,-0.0
 6827684,0.01836391,0.08152552,0.00107092,0.00027158,0.00085524,0.00015
 608,0.00110595,-0.00124483,-0.30706907,0.11196348,-0.00225875,-0.02198
 333,-0.00764197,0.01321544,-0.00121333,-0.00020356,-0.00071720,-0.0136
 8806,0.00818386,-0.00274604,0.00177358,-0.00096896,0.00081184,-0.00029
 081,0.00014741,0.00025184,0.00030294,0.00014724,-0.00026368,-0.0000575
 8,0.00009382,0.00008868,0.00000470,0.00003313,-0.00001807,-0.00024306,
 0.00070885,0.00014937,0.00030725,0.00014266,-0.00010464,-0.00117889,-0
 .00067915,0.00153337,0.00068197,-0.00029497,-0.00007948,0.00003466,0.0
 0013568,-0.00016147,-0.00000779,-0.00000522,-0.00004651,0.00005526,-0.
 00002787,0.00002498,-0.00006665,0.00002997,0.00002398,-0.00000634,0.00
 002089,-0.00000163,0.00000760,-0.00001427,0.00000622,-0.00000410,0.000
 00856,-0.00000560,-0.00005275,-0.00000540,0.00000970,0.00003565,0.0000
 1419,0.00000627,-0.00001431,-0.00000280,0.00000195,-0.00002082,-0.0000
 1010,-0.00001029,0.00001741,-0.00000256,0.00001324,-0.00001186,0.00000
 886,-0.00002194,0.00000288,-0.00000358,0.00001471,-0.00000170,0.000001
 90,-0.00000181,0.00000450,-0.00000153,0.00000172,0.00000556,-0.0000026
 9,-0.00000282,0.00000898,-0.00000890,0.00000708,0.00001076,-0.00000569
 ,-0.00004233,0.00000805,-0.00000964,0.00000927,0.00001992,-0.00000678,
 -0.00000807,0.00014001,-0.00018787,-0.00010927,-0.00002972,-0.00014542
 ,-0.00002373,0.00002559,-0.00003469,0.00001201,-0.00000291,0.00000501,
 0.00000166,0.00038163,0.00019370,-0.00011285,0.00067910,-0.00077826,-0
 .00071300,0.33904308,-0.00225558,0.00302349,0.00148589,0.03356611,-0.0
 1616279,-0.00198323,0.11319193,-0.08747789,-0.00457510,-0.02995144,0.0
 0259380,0.00936024,-0.00101193,0.00012992,-0.00047175,-0.00114303,0.00
 152691,-0.00085043,0.00006892,0.00137400,0.00106980,-0.00023867,0.0000
 2963,0.00024961,-0.00021298,-0.00005992,-0.00007271,-0.00015750,-0.000
 25881,0.00004970,-0.00000484,-0.00000102,0.00002329,0.00145238,0.00190
 521,-0.00115484,-0.00043477,-0.00007735,0.00035019,0.00156274,-0.00020
 700,0.00056687,-0.00028245,0.00006229,-0.00010659,0.00002877,-0.000042
 56,0.00005850,0.00000418,-0.00000788,-0.00000129,-0.00004030,0.0000265
 6,0.00001888,0.00007060,-0.00002146,-0.00004307,0.00000104,-0.00000887
 ,0.00000392,-0.00000374,0.00001274,-0.00000326,0.00000403,-0.00000632,
 -0.00000020,0.00000353,0.00000664,-0.00000555,-0.00000253,-0.00000576,
 0.00000289,-0.00000092,0.00000032,-0.00000408,0.00000531,0.00001305,0.
 00001277,-0.00000549,-0.00000193,-0.00000858,0.00000549,-0.00000348,0.
 00000977,-0.00000136,0.00000093,-0.00000522,0.00000048,-0.00000058,-0.
 00000002,-0.00000210,-0.00000004,-0.00000115,-0.00000237,0.00000129,0.
 00000220,-0.00000670,0.00000271,-0.00000487,-0.00000569,0.00001095,0.0
 0001062,-0.00000366,-0.00000255,-0.00000523,0.00000258,0.00000219,-0.0
 0000191,-0.00000934,0.00026794,0.00047453,-0.00021448,0.00020350,0.000
 03530,0.00005375,0.00003447,0.00005969,-0.00000492,0.00000267,-0.00000
 301,-0.00095773,-0.00046396,0.00032878,-0.00004222,-0.00549740,-0.0025
 9466,-0.11221941,0.09861715,0.00002939,0.00191609,0.00154359,0.0125931
 4,-0.01006168,0.00103375,-0.00295712,-0.00405362,-0.04280066,0.0280694
 5,0.00270989,-0.00549572,0.00185499,-0.00057825,0.00002831,-0.03314758
 ,0.01532949,-0.00341595,0.00280987,-0.00032142,0.00251912,-0.00020939,
 -0.00019805,-0.00025605,-0.00021948,-0.00010092,0.00012143,-0.00001376
 ,-0.00014325,-0.00002236,-0.00001019,-0.00001674,0.00001927,0.00006520
 ,0.00021024,-0.00067686,0.00040543,0.00013195,-0.00012458,-0.00268153,
 0.00015516,0.00026794,0.00040973,-0.00012410,0.00007228,0.00015427,0.0
 0000881,0.00006694,-0.00000438,-0.00002472,-0.00003106,0.00002349,0.00
 000303,0.00001692,-0.00002151,0.00000186,0.00000098,-0.00000672,0.0000
 0586,0.00000751,0.00000578,0.00000927,-0.00000361,-0.00000183,-0.00000
 066,-0.00000227,-0.00001852,0.00001282,0.00001732,0.00000933,-0.000014
 00,-0.00000655,-0.00000412,0.00000205,-0.00000318,-0.00002561,0.000002
 40,0.00003209,0.00001443,0.00000186,-0.00001581,-0.00000762,-0.0000063
 9,0.00000812,0.00000387,0.00000066,-0.00000658,-0.00000063,0.00000011,
 0.00000186,0.00000186,-0.00000030,0.00000089,0.00000210,0.00000041,-0.
 00000079,0.00000181,-0.00000524,0.00000719,0.00004564,-0.00000074,-0.0
 0006702,0.00000526,-0.00000934,0.00000904,0.00001635,-0.00000458,-0.00
 001161,0.00011646,0.00019479,0.00013293,-0.00002136,0.00008598,-0.0000
 0813,0.00001263,0.00001120,0.00002913,-0.00000767,0.00001884,0.0000011
 0,-0.00026796,-0.00006731,0.00011012,0.00042044,-0.00232655,-0.0008993
 5,-0.00582645,-0.00229473,0.05433942,0.00036572,-0.00016756,-0.0000317
 2,-0.00040343,0.00116339,0.00048590,-0.01434764,0.00338687,-0.00153139
 ,0.00210711,-0.00027731,0.00035943,0.00011293,0.00004157,-0.00002224,-
 0.30922040,0.11601255,0.00151010,0.01051325,-0.00102605,-0.00031573,0.
 00061207,0.00019003,0.00050604,-0.00019896,-0.00003933,0.00005829,0.00
 010041,0.00005558,-0.00001831,-0.00001358,-0.00001829,-0.00000697,-0.0
 0071070,-0.00068165,-0.00041233,0.00283182,0.00061052,-0.00079122,-0.0
 2168369,0.00748276,0.00012210,0.00162133,0.00034268,-0.00212499,0.0002
 9259,0.00016134,0.00022883,0.00005029,0.00001139,-0.00015682,0.0001112
 8,-0.00005006,-0.00011315,-0.00016719,0.00000183,0.00020159,-0.0000123
 7,0.00002855,0.00004431,0.00002300,0.00001584,-0.00003454,-0.00001525,
 -0.00000363,0.00000423,-0.00002269,0.00003188,-0.00001150,0.00000803,-
 0.00002845,0.00001097,-0.00000302,0.00000103,-0.00001173,0.00001631,0.
 00001478,0.00005547,-0.00000145,-0.00003178,-0.00004173,-0.00000258,0.
 00001241,0.00002798,0.00000522,-0.00000769,-0.00001875,-0.00000031,0.0
 0000253,0.00000250,0.00000438,-0.00000141,0.00000077,0.00000939,-0.000
 00269,-0.00000943,0.00000913,-0.00003172,0.00002731,0.00017412,-0.0000
 2378,-0.00023913,0.00001430,-0.00000870,0.00002220,0.00002234,-0.00001
 136,-0.00001279,-0.00002003,-0.00002654,-0.00008211,0.00009296,-0.0000
 7008,-0.00002505,0.00002706,0.00001705,0.00000334,-0.00000674,0.000024
 42,-0.00000899,0.00015120,0.00014101,0.00004307,0.00040881,-0.00069524
 ,-0.00056353,0.00007310,-0.00049894,-0.00211160,0.32790770,0.00000229,
 0.00003909,0.00021570,-0.00037884,-0.00010166,-0.00019993,0.00048138,0
 .00299458,0.00107732,0.00005892,0.00021879,-0.00030131,-0.00005440,0.0
 0004142,-0.00002357,0.11713749,-0.08798248,0.00446155,0.02536403,-0.03
 981574,-0.01133057,0.00144984,0.00001936,-0.00074447,-0.00005228,0.000
 01782,-0.00002683,0.00000563,-0.00001958,-0.00000325,0.00000027,0.0000
 0354,-0.00000224,-0.00012174,-0.00010143,-0.00010289,-0.00017083,0.001
 56261,0.00047640,-0.01864018,0.00593019,0.00094938,0.00022691,0.000093
 09,-0.00088233,-0.00021061,0.00030178,-0.00006448,-0.00002963,-0.00002
 918,-0.00016936,0.00007064,-0.00010221,0.00008959,-0.00008549,0.000148
 44,0.00004450,0.00000671,0.00001148,-0.00000221,0.00000345,0.00000343,
 0.00002116,0.00000537,0.00001530,-0.00001831,0.00000802,-0.00001974,0.
 00005335,-0.00002515,0.00003424,-0.00005844,0.00001016,0.00000070,0.00
 003746,0.00004217,-0.00008926,-0.00003579,0.00000748,0.00006474,-0.000
 00275,-0.00000619,-0.00003645,-0.00001597,0.00000341,0.00001318,0.0000
 1331,0.00000028,-0.00000316,-0.00000088,-0.00000069,0.00000368,0.00000
 093,0.00000236,-0.00000030,-0.00000598,0.00001565,-0.00001379,0.000015
 29,0.00010345,-0.00008827,0.00009018,0.00000582,0.00003605,0.00001286,
 -0.00006533,0.00000042,0.00004500,0.00004093,0.00004137,0.00003367,0.0
 0000648,-0.00001846,-0.00000068,0.00001039,-0.00001655,-0.00000833,0.0
 0008404,-0.00004890,0.00002804,0.00007842,0.00004159,0.00004833,-0.000
 03805,0.00031368,-0.00008434,-0.00015006,0.00041815,-0.00072107,-0.123
 87326,0.11828359,0.00058774,-0.00010017,-0.00009214,-0.00064961,0.0013
 0010,0.00144666,-0.03545994,0.01252724,-0.00421001,0.00109017,-0.00137
 185,0.00312707,0.00006803,-0.00014958,0.00033605,-0.00074139,0.0053666
 5,-0.04288666,0.00951680,-0.01631367,0.00108297,0.00023316,0.00033468,
 -0.00000651,-0.00007907,-0.00003399,0.00011653,0.00002191,-0.00000913,
 -0.00002119,-0.00000079,-0.00000723,0.00000663,-0.00023132,-0.00019158
 ,-0.00040629,-0.00202834,-0.00123589,0.00080638,0.02452042,-0.00640631
 ,-0.00092737,-0.00011539,-0.00039119,0.00129526,0.00022586,-0.00032170
 ,-0.00021948,0.00000227,0.00003126,0.00024594,-0.00009469,0.00007166,-
 0.00004698,0.00010304,-0.00011002,-0.00006121,0.00000030,-0.00002564,-
 0.00003416,-0.00002569,-0.00003585,0.00001331,0.00000800,-0.00000229,0
 .00001260,0.00004831,-0.00002662,-0.00007213,-0.00002251,0.00004737,0.
 00003351,0.00001002,-0.00000807,0.00000959,0.00000797,-0.00000019,-0.0
 0006184,-0.00005318,-0.00001891,0.00009282,0.00003042,0.00004727,-0.00
 003175,-0.00001642,-0.00000859,0.00002431,0.00000204,0.00000021,-0.000
 00609,-0.00000505,-0.00000035,-0.00000306,-0.00000811,0.00000007,0.000
 00967,-0.00001998,0.00004215,-0.00002009,-0.00026375,0.00009423,-0.000
 00924,-0.00003963,0.00002630,-0.00005982,-0.00005303,0.00001217,0.0000
 4057,0.00001949,-0.00009264,-0.00008264,0.00001881,-0.00003436,0.00000
 787,-0.00000585,0.00002576,0.00000355,0.00002570,-0.00005873,0.0000464
 1,0.00013072,0.00002797,-0.00013736,0.00045384,-0.00054754,-0.00050275
 ,-0.00219714,-0.00029511,-0.00593203,0.00338627,0.00525657,0.04920940,
 0.00007036,0.00004670,0.00004933,-0.00014074,0.00003645,0.00007272,-0.
 00102640,0.00031803,-0.00100872,0.00066671,-0.00009571,-0.00005202,0.0
 0004754,-0.00000902,0.00012079,-0.01401618,0.00737171,0.00107699,0.001
 22744,-0.00070792,-0.00044351,0.00004705,-0.00005918,-0.00013059,0.000
 07088,-0.00012832,0.00005015,0.00001924,-0.00001164,0.00001346,-0.0000
 0800,-0.00000063,-0.00000339,0.00071506,0.00032493,0.00101870,0.006565
 23,0.00205771,-0.00026420,-0.33661963,0.08791564,0.03302935,-0.0136641
 6,0.00472271,-0.00618419,0.00064002,-0.00087680,0.00284855,0.00010946,
 -0.00007784,-0.00035963,0.00024510,-0.00027252,-0.00008245,-0.00035495
 ,0.00019886,0.00031019,0.00002739,0.00004018,0.00008564,0.00003527,0.0
 0007112,-0.00003655,-0.00001786,0.00000062,-0.00002041,-0.00015925,0.0
 0009948,0.00000829,0.00006759,-0.00005494,0.00000402,-0.00002440,-0.00
 000323,-0.00000883,0.00036765,-0.00010027,0.00009331,-0.00000353,-0.00
 001434,-0.00023615,-0.00003295,-0.00007391,0.00007378,0.00001988,0.000
 01162,-0.00004549,-0.00000057,0.00000078,0.00000791,0.00000857,0.00000
 476,0.00000051,0.00001574,0.00000217,-0.00002248,-0.00005849,-0.000150
 37,0.00012083,0.00113049,-0.00012328,-0.00119007,0.00007885,0.00002731
 ,0.00022817,0.00009460,-0.00004533,-0.00006108,0.00000265,0.00000694,0
 .00001235,-0.00003960,-0.00005328,-0.00006157,-0.00003538,0.00002373,0
 .00002278,-0.00001841,0.00006897,-0.00000644,-0.00025690,0.00048346,0.
 00077511,0.00000779,-0.00015242,-0.00014662,0.00109192,-0.00030674,0.0
 0049418,-0.00083584,-0.00132924,0.00159958,0.35394074,0.00014576,0.000
 29604,-0.00016917,-0.00041886,-0.00078001,-0.00010254,-0.00084232,0.00
 022027,-0.00131094,0.00019053,-0.00021351,0.00049368,0.00009877,-0.000
 10734,0.00004099,-0.01860480,0.00995446,0.00267779,0.00179383,0.001203
 86,-0.00078806,0.00028131,0.00012288,0.00001522,-0.00043831,0.00021466
 ,-0.00090131,-0.00007312,-0.00017895,0.00006201,-0.00000044,0.00005361
 ,0.00000794,0.00254791,0.00077776,0.00466246,0.02817692,-0.02320611,-0
 .00936600,0.08600329,-0.07099532,-0.00715983,0.00293203,0.00285717,0.0
 0163778,0.00012592,-0.00038450,-0.00043448,0.00022129,-0.00016292,0.00
 021508,-0.00057951,0.00041215,0.00018537,0.00131980,-0.00041185,-0.001
 02165,-0.00001717,-0.00002536,0.00002329,-0.00000139,0.00007339,-0.000
 03740,-0.00000136,-0.00004316,0.00001710,-0.00002082,0.00007467,-0.000
 01318,-0.00000097,-0.00003886,-0.00001018,-0.00000982,0.00000270,-0.00
 000023,-0.00012235,0.00011707,0.00005738,-0.00000797,0.00001964,-0.000
 03364,0.00001527,-0.00003040,0.00006321,0.00000279,0.00000743,-0.00004
 900,0.00000284,-0.00000451,0.00000568,-0.00000849,0.00000043,-0.000005
 13,-0.00001652,0.00000463,0.00002598,-0.00007562,0.00003643,-0.0000811
 4,-0.00011761,0.00002758,0.00049410,-0.00004567,-0.00003598,-0.0000822
 7,0.00000817,-0.00000767,-0.00002684,-0.00002297,0.00000166,-0.0000265
 0,-0.00009065,0.00020979,0.00019538,-0.00006981,-0.00032952,-0.0001394
 2,-0.00001227,-0.00000850,0.00000438,-0.00120772,0.00021442,-0.0005989
 5,0.00010703,-0.00003237,0.00000014,0.00019459,0.00004105,0.00026089,-
 0.00217452,-0.00216518,0.00258553,-0.09918697,0.08221824,-0.00006237,0
 .00000012,-0.00023126,-0.00003326,-0.00013312,-0.00012577,0.00180024,-
 0.00037750,0.00096688,-0.00052627,0.00015104,-0.00001269,-0.00006278,-
 0.00005023,0.00000498,0.01670636,-0.00587433,0.00175736,-0.00069573,0.
 00100526,0.00017547,0.00001000,0.00005120,0.00016094,-0.00024276,-0.00
 001684,-0.00026631,-0.00002905,-0.00007384,0.00001438,0.00000845,0.000
 01671,0.00000083,0.00149069,0.00078085,0.00294466,0.01061987,-0.008884
 50,0.00016315,0.03841691,-0.00794899,-0.04968166,-0.03318984,0.0105316
 8,-0.01015993,-0.00515051,0.00034458,0.00567465,0.00010609,0.00000938,
 -0.00068885,0.00007358,-0.00006409,0.00040274,0.00009807,0.00029646,-0
 .00036330,0.00003159,0.00003781,0.00010270,0.00005693,0.00012234,-0.00
 001519,-0.00001250,0.00000811,-0.00004849,-0.00006873,0.00010592,0.000
 10544,0.00001264,-0.00008828,-0.00008403,-0.00001080,0.00001163,-0.000
 00610,0.00004546,-0.00016976,0.00004736,0.00016577,0.00003672,-0.00028
 599,-0.00004909,-0.00015940,0.00010009,0.00003216,0.00003358,-0.000064
 71,-0.00000032,-0.00000321,0.00001289,0.00000404,0.00000518,0.00000632
 ,0.00002830,0.00001037,-0.00004734,0.00011997,-0.00024053,0.00001314,0
 .00150089,-0.00069571,-0.00000936,0.00026161,-0.00002061,0.00014524,0.
 00004189,-0.00005638,-0.00003070,-0.00002673,0.00000250,0.00000431,-0.
 00009849,0.00013205,0.00005912,-0.00003956,-0.00009414,-0.00003440,0.0
 0004480,0.00009569,-0.00004580,-0.00080735,0.00032620,0.00002228,-0.00
 009187,0.00006113,0.00010619,-0.00032101,0.00031314,-0.00060708,0.0015
 9502,0.00183535,-0.00213625,-0.03175232,0.00862647,0.05195408\\0.01340
 292,-0.01085210,-0.01807869,-0.03928858,0.01647403,-0.01060801,-0.0014
 8091,-0.03032041,0.02946096,-0.00558552,0.00263287,0.03157021,0.003616
 41,-0.00633284,-0.03111301,-0.00021501,0.00835464,0.01896085,0.0078168
 4,-0.00043922,0.01772132,0.01609612,0.02071816,-0.01429826,-0.03157694
 ,0.02268379,0.01354949,0.01620131,0.00367632,-0.01251917,-0.00107256,-
 0.03474087,-0.01101616,0.07312045,0.02321913,-0.00794873,-0.00897088,-
 0.00641220,0.03698292,-0.06270865,0.01855165,-0.05840833,0.00567038,-0
 .01948823,-0.01033272,0.01843208,-0.02067005,0.02440941,-0.01289277,0.
 01284765,-0.00558136,-0.00557198,-0.03253873,0.01628330,0.00869579,0.0
 1896816,-0.01376033,-0.00246237,0.01086958,0.00837309,0.00809356,-0.00
 135190,0.01548686,-0.01276756,-0.00442120,-0.02353744,0.01309246,-0.02
 996472,0.02238471,-0.00662331,0.00110067,-0.02131907,0.00078002,0.0368
 5313,0.00959911,-0.00691441,0.00584805,-0.04213265,0.00036537,0.008533
 05,-0.00394322,0.02589287,-0.00626391,-0.02629763,-0.00088403,0.000665
 98,0.02662642,-0.00477355,-0.00210485,-0.00209642,-0.01972852,0.006869
 39,-0.00007265,0.01771484,-0.01014399,-0.00496818,-0.02133050,0.011429
 95,-0.00092660,0.01956670,-0.01321896,0.00056735,-0.02121099,0.0115339
 9,-0.00176174,0.01981325,-0.00652071,0.00596659,-0.00308912,0.00140867
 ,0.00160464,-0.02468991,0.00237060,-0.00018142,0.00324218,-0.00830573,
 0.01818580,-0.00722488,0.00002654,0.01889908,0.02854313,-0.00313494,0.
 00484670,-0.02405782,0.00126177,0.00336255,0.02179729,-0.00909041,0.00
 096565,-0.01589957,0.01225392,-0.00353166,0.01906637,-0.00283571,-0.00
 137354\\\@


 LAW OF COMPENSATION:
      NO CALCULATION IS EVER A COMPLETE FAILURE; IT 
      CAN ALWAYS SERVE AS A BAD EXAMPLE.

                                           -- ANON
 Job cpu time:  0 days 12 hours 47 minutes 20.3 seconds.
 File lengths (MBytes):  RWF=   1323 Int=      0 D2E=      0 Chk=     19 Scr=      1
 Normal termination of Gaussian 09 at Thu Jan 21 17:51:55 2016.
Gaussian '09 finished on node029 at Thu Jan 21 17:51:55 EST 2016.
