Gaussian '09 started on node028 at Sun Mar 20 15:04:13 EDT 2016.
 Entering Gaussian System, Link 0=/usr/local/gaussian/g09/g09
 Initial command:
 /usr/local/gaussian/g09/l1.exe /home/srmcgrat/thesis/gaussian/cellobiose/280K/6180ps/1/2dp/gaussian26916/Gau-26952.inp -scrdir=/home/srmcgrat/thesis/gaussian/cellobiose/280K/6180ps/1/2dp/gaussian26916/
 Entering Link 1 = /usr/local/gaussian/g09/l1.exe PID=     26954.
  
 Copyright (c) 1988,1990,1992,1993,1995,1998,2003,2009,2010,
            Gaussian, Inc.  All Rights Reserved.
  
 This is part of the Gaussian(R) 09 program.  It is based on
 the Gaussian(R) 03 system (copyright 2003, Gaussian, Inc.),
 the Gaussian(R) 98 system (copyright 1998, Gaussian, Inc.),
 the Gaussian(R) 94 system (copyright 1995, Gaussian, Inc.),
 the Gaussian 92(TM) system (copyright 1992, Gaussian, Inc.),
 the Gaussian 90(TM) system (copyright 1990, Gaussian, Inc.),
 the Gaussian 88(TM) system (copyright 1988, Gaussian, Inc.),
 the Gaussian 86(TM) system (copyright 1986, Carnegie Mellon
 University), and the Gaussian 82(TM) system (copyright 1983,
 Carnegie Mellon University). Gaussian is a federally registered
 trademark of Gaussian, Inc.
  
 This software contains proprietary and confidential information,
 including trade secrets, belonging to Gaussian, Inc.
  
 This software is provided under written license and may be
 used, copied, transmitted, or stored only in accord with that
 written license.
  
 The following legend is applicable only to US Government
 contracts under FAR:
  
                    RESTRICTED RIGHTS LEGEND
  
 Use, reproduction and disclosure by the US Government is
 subject to restrictions as set forth in subparagraphs (a)
 and (c) of the Commercial Computer Software - Restricted
 Rights clause in FAR 52.227-19.
  
 Gaussian, Inc.
 340 Quinnipiac St., Bldg. 40, Wallingford CT 06492
  
  
 ---------------------------------------------------------------
 Warning -- This program may not be used in any manner that
 competes with the business of Gaussian, Inc. or will provide
 assistance to any competitor of Gaussian, Inc.  The licensee
 of this program is prohibited from giving any competitor of
 Gaussian, Inc. access to this program.  By using this program,
 the user acknowledges that Gaussian, Inc. is engaged in the
 business of creating and licensing software in the field of
 computational chemistry and represents and warrants to the
 licensee that it is not a competitor of Gaussian, Inc. and that
 it will not use this program in any manner prohibited above.
 ---------------------------------------------------------------
  

 Cite this work as:
 Gaussian 09, Revision B.01,
 M. J. Frisch, G. W. Trucks, H. B. Schlegel, G. E. Scuseria, 
 M. A. Robb, J. R. Cheeseman, G. Scalmani, V. Barone, B. Mennucci, 
 G. A. Petersson, H. Nakatsuji, M. Caricato, X. Li, H. P. Hratchian, 
 A. F. Izmaylov, J. Bloino, G. Zheng, J. L. Sonnenberg, M. Hada, 
 M. Ehara, K. Toyota, R. Fukuda, J. Hasegawa, M. Ishida, T. Nakajima, 
 Y. Honda, O. Kitao, H. Nakai, T. Vreven, J. A. Montgomery, Jr., 
 J. E. Peralta, F. Ogliaro, M. Bearpark, J. J. Heyd, E. Brothers, 
 K. N. Kudin, V. N. Staroverov, T. Keith, R. Kobayashi, J. Normand, 
 K. Raghavachari, A. Rendell, J. C. Burant, S. S. Iyengar, J. Tomasi, 
 M. Cossi, N. Rega, J. M. Millam, M. Klene, J. E. Knox, J. B. Cross, 
 V. Bakken, C. Adamo, J. Jaramillo, R. Gomperts, R. E. Stratmann, 
 O. Yazyev, A. J. Austin, R. Cammi, C. Pomelli, J. W. Ochterski, 
 R. L. Martin, K. Morokuma, V. G. Zakrzewski, G. A. Voth, 
 P. Salvador, J. J. Dannenberg, S. Dapprich, A. D. Daniels, 
 O. Farkas, J. B. Foresman, J. V. Ortiz, J. Cioslowski, 
 and D. J. Fox, Gaussian, Inc., Wallingford CT, 2010.
 
 ******************************************
 Gaussian 09:  EM64L-G09RevB.01 12-Aug-2010
                20-Mar-2016 
 ******************************************
 -------------------------------------------------
 # freq=raman b3lyp/6-31+g(2d,p) geom=connectivity
 -------------------------------------------------
 1/10=4,30=1,38=1,57=2/1,3;
 2/12=2,17=6,18=5,40=1/2;
 3/5=1,6=6,7=112,11=2,16=1,25=1,30=1,71=2,74=-5/1,2,3;
 4//1;
 5/5=2,38=5,98=1/2;
 8/6=4,10=90,11=11/1;
 10/13=10,15=4/2;
 11/6=3,8=1,9=11,15=111,16=1/1,2,10;
 10/6=1/2;
 6/7=2,8=2,9=2,10=2,18=1,28=1/1;
 7/8=1,10=1,25=1/1,2,3,16;
 1/10=4,30=1/3;
 99//99;
 -----------------
 280 6180/6180.com
 -----------------
 Symbolic Z-matrix:
 Charge =  0 Multiplicity = 1
 O                     7.7       7.339     12.121 
 C                     8.282     7.816     13.344 
 C                     7.514     9.016     13.873 
 O                     7.46      10.011    12.84 
 H                     7.529     9.436     12.025 
 C                     7.99      9.442     15.252 
 O                     7.267     10.557    15.792 
 H                     7.724     10.852    16.631 
 C                     9.032     5.437     13.967 
 O                     8.37      4.765     12.886 
 H                     8.416     3.777     13.03 
 C                     8.304     6.706     14.382 
 O                     8.79      7.18      15.646 
 C                     8.022     8.256     16.203 
 O                     8.835     8.601     17.334 
 C                     8.34      8.24      18.632 
 C                     8.945     6.926     19.098 
 O                     8.661     5.863     18.177 
 H                     9.324     6.012     17.444 
 C                     8.36      6.518     20.44 
 O                     8.875     5.331     21.059 
 H                     8.493     5.266     21.981 
 C                     8.161     10.632    19.477 
 O                     8.436     11.382    18.285 
 H                     8.189     12.349    18.33 
 C                     8.7       9.232     19.726 
 O                     8.099     8.927     20.993 
 C                     8.563     7.644     21.44 
 O                     7.722     7.436     22.584 
 H                     8.26784   7.29473   23.36098 
 H                     8.39773   7.09941   11.50669 
 H                     10.02569   5.69063   13.66179 
 H                     9.08425   4.77608   14.80685 
 H                     7.28334   6.42566   14.53873 
 H                     9.28957   8.11714   13.14646 
 H                     6.50582   8.68385   14.00773 
 H                     9.0031    9.76623   15.13625 
 H                     7.04167   7.94184   16.49482 
 H                     8.49424   11.23411   20.29633 
 H                     7.09582   10.56327   19.55162 
 H                     9.76359   9.27284   19.8356 
 H                     7.27572   8.13965   18.58572 
 H                     10.00482   7.03833   19.19315 
 H                     7.30688   6.38371   20.30656 
 H                     9.58918   7.7009    21.7377 
 

 GradGradGradGradGradGradGradGradGradGradGradGradGradGradGradGradGradGrad
 Berny optimization.
 Initialization pass.
 Trust Radius=3.00D-01 FncErr=1.00D-07 GrdErr=1.00D-07
 Number of steps in this run=      2 maximum allowed number of steps=      2.
 GradGradGradGradGradGradGradGradGradGradGradGradGradGradGradGradGradGrad

                          Input orientation:                          
 ---------------------------------------------------------------------
 Center     Atomic      Atomic             Coordinates (Angstroms)
 Number     Number       Type             X           Y           Z
 ---------------------------------------------------------------------
      1          8           0        7.700000    7.339000   12.121000
      2          6           0        8.282000    7.816000   13.344000
      3          6           0        7.514000    9.016000   13.873000
      4          8           0        7.460000   10.011000   12.840000
      5          1           0        7.529000    9.436000   12.025000
      6          6           0        7.990000    9.442000   15.252000
      7          8           0        7.267000   10.557000   15.792000
      8          1           0        7.724000   10.852000   16.631000
      9          6           0        9.032000    5.437000   13.967000
     10          8           0        8.370000    4.765000   12.886000
     11          1           0        8.416000    3.777000   13.030000
     12          6           0        8.304000    6.706000   14.382000
     13          8           0        8.790000    7.180000   15.646000
     14          6           0        8.022000    8.256000   16.203000
     15          8           0        8.835000    8.601000   17.334000
     16          6           0        8.340000    8.240000   18.632000
     17          6           0        8.945000    6.926000   19.098000
     18          8           0        8.661000    5.863000   18.177000
     19          1           0        9.324000    6.012000   17.444000
     20          6           0        8.360000    6.518000   20.440000
     21          8           0        8.875000    5.331000   21.059000
     22          1           0        8.493000    5.266000   21.981000
     23          6           0        8.161000   10.632000   19.477000
     24          8           0        8.436000   11.382000   18.285000
     25          1           0        8.189000   12.349000   18.330000
     26          6           0        8.700000    9.232000   19.726000
     27          8           0        8.099000    8.927000   20.993000
     28          6           0        8.563000    7.644000   21.440000
     29          8           0        7.722000    7.436000   22.584000
     30          1           0        8.267836    7.294730   23.360985
     31          1           0        8.397726    7.099405   11.506693
     32          1           0       10.025690    5.690633   13.661792
     33          1           0        9.084251    4.776080   14.806854
     34          1           0        7.283340    6.425660   14.538726
     35          1           0        9.289567    8.117142   13.146461
     36          1           0        6.505820    8.683852   14.007728
     37          1           0        9.003104    9.766225   15.136249
     38          1           0        7.041670    7.941843   16.494819
     39          1           0        8.494245   11.234114   20.296333
     40          1           0        7.095820   10.563268   19.551617
     41          1           0        9.763588    9.272836   19.835602
     42          1           0        7.275722    8.139649   18.585724
     43          1           0       10.004825    7.038330   19.193152
     44          1           0        7.306881    6.383707   20.306565
     45          1           0        9.589176    7.700898   21.737701
 ---------------------------------------------------------------------
                    Distance matrix (angstroms):
                    1          2          3          4          5
     1  O    0.000000
     2  C    1.435960   0.000000
     3  C    2.432371   1.519758   0.000000
     4  O    2.777435   2.397441   1.435280   0.000000
     5  H    2.106150   2.220624   1.895186   0.999805   0.000000
     6  C    3.782839   2.523807   1.519767   2.534246   3.259768
     7  O    4.900944   3.812612   2.473510   3.008267   3.938981
     8  H    5.716804   4.509216   3.319873   3.892128   4.822688
     9  C    2.966403   2.571045   3.888753   4.966164   4.692800
    10  O    2.767598   3.086440   4.447236   5.324541   4.823572
    11  H    3.745234   4.053403   5.382506   6.309738   5.815589
    12  C    2.424382   1.519878   2.493849   3.743411   3.689034
    13  O    3.693102   2.441672   2.853524   4.202035   4.448741
    14  C    4.196105   2.904321   2.502911   3.834793   4.369340
    15  O    5.482357   4.103917   3.727705   4.906604   5.530673
    16  C    6.604129   5.305288   4.892089   6.120303   6.763179
    17  C    7.099234   5.860050   5.806590   7.133373   7.637571
    18  O    6.306919   5.226446   5.457237   6.865266   7.203809
    19  H    5.721244   4.598932   5.005213   6.376779   6.656678
    20  C    8.385428   7.214160   7.076808   8.412553   8.945251
    21  O    9.235829   8.126998   8.189636   9.563294  10.013785
    22  H   10.106719   9.008040   8.986690  10.350845  10.836980
    23  C    8.072615   6.749680   5.868124   6.702747   7.573780
    24  O    7.408268   6.095371   5.090558   5.699144   6.617943
    25  H    7.993178   6.739209   5.606190   6.011471   6.976689
    26  C    7.900600   6.550550   5.975857   7.039988   7.792192
    27  O    9.021825   7.731430   7.144547   8.249532   9.000500
    28  C    9.363843   8.102701   7.761590   8.987730   9.639639
    29  O   10.463473   9.264750   8.855574  10.081905  10.748476
    30  H   11.254406  10.030549   9.672275  10.895955  11.560081
    31  H    0.960000   1.975499   3.170759   3.336828   2.546174
    32  H    3.240368   2.767423   4.172680   5.091530   4.789606
    33  H    3.962136   3.467660   4.616784   5.823323   5.645562
    34  H    2.617861   2.087519   2.684447   3.971340   3.929544
    35  H    2.045434   1.070000   2.118595   2.651025   2.469141
    36  H    2.606613   2.085309   1.070000   2.008823   2.354534
    37  H    4.084266   2.745091   2.091905   2.777381   3.458598
    38  H    4.463979   3.388497   2.872428   4.220677   4.738067
    39  H    9.090589   7.750064   6.865866   7.626439   8.519382
    40  H    8.122500   6.891227   5.900475   6.744140   7.622883
    41  H    8.216641   6.816037   6.378027   7.402016   8.125608
    42  H    6.527917   5.347243   4.799430   6.045598   6.692367
    43  H    7.444324   6.146989   6.198339   7.461598   7.953674
    44  H    8.250491   7.174931   6.954324   8.302427   8.828938
    45  H    9.807186   8.495656   8.239500   9.436050  10.079259
                    6          7          8          9         10
     6  C    0.000000
     7  O    1.434418   0.000000
     8  H    1.990100   0.999897   0.000000
     9  C    4.333245   5.714915   6.174948   0.000000
    10  O    5.255158   6.573333   7.175926   1.434709   0.000000
    11  H    6.100081   7.410617   7.968795   2.003254   0.999498
    12  C    2.888112   4.230091   4.752233   1.520714   2.451500
    13  O    2.431436   3.707421   3.948438   2.432212   3.691372
    14  C    1.520533   2.456328   2.647868   3.737186   4.828113
    15  O    2.399173   2.943183   2.606824   4.624543   5.892014
    16  C    3.604401   3.819086   3.347537   5.486155   6.715135
    17  C    4.694038   5.189362   4.794831   5.343393   6.602234
    18  O    4.670665   5.446567   5.306431   4.247731   5.411559
    19  H    4.283611   5.255224   5.162031   3.536300   4.820839
    20  C    5.966743   6.253965   5.804871   6.596959   7.754742
    21  O    7.169714   7.591971   7.170316   7.094530   8.208125
    22  H    7.935454   8.234165   7.772854   8.033925   9.109619
    23  C    4.392717   3.792636   2.887747   7.622779   8.826474
    24  O    3.627893   2.874410   1.877115   7.371795   8.540389
    25  H    4.238435   3.240801   2.311674   8.217187   9.337395
    26  C    4.534851   4.391523   3.627120   6.904950   8.176099
    27  O    5.765083   5.513576   4.782603   7.900333   9.116970
    28  C    6.469349   6.485760   5.841375   7.806186   9.027558
    29  O    7.606187   7.488587   6.863474   8.942303  10.079948
    30  H    8.393068   8.302627   7.631685   9.606355  10.776608
    31  H    4.436363   5.621153   6.387049   3.036281   2.711587
    32  H    4.554728   5.985790   6.383861   1.070000   2.049380
    33  H    4.813144   6.139377   6.488035   1.070000   2.049380
    34  H    3.179062   4.317283   4.915717   2.088571   2.582659
    35  H    2.806674   4.128264   4.698134   2.814745   3.485728
    36  H    2.079854   2.696610   3.614746   4.114036   4.482281
    37  H    1.070000   2.017273   2.247063   4.484436   5.520570
    38  H    2.166656   2.717310   2.992178   4.077441   4.988023
    39  H    5.376917   4.717375   3.764831   8.599777   9.837576
    40  H    4.532494   3.763517   3.001330   7.824024   8.926023
    41  H    4.917686   4.922676   4.113776   7.049067   8.399978
    42  H    3.649661   3.694395   3.373240   5.632178   6.713609
    43  H    5.036847   5.607545   5.129412   5.551875   6.900786
    44  H    5.947137   6.148111   5.800811   6.637950   7.669108
    45  H    6.903124   6.992938   6.283846   8.112920   9.405237
                   11         12         13         14         15
    11  H    0.000000
    12  C    3.227923   0.000000
    13  O    4.308566   1.434771   0.000000
    14  C    5.503145   2.407917   1.434520   0.000000
    15  O    6.478499   3.547857   2.206946   1.434976   0.000000
    16  C    7.162859   4.518512   3.200359   2.449780   1.435322
    17  C    6.856870   4.764445   3.464801   3.316904   2.435040
    18  O    5.559049   3.903860   2.856062   3.167246   2.870117
    19  H    5.030217   3.301194   2.209566   2.875904   2.637071
    20  C    7.900906   6.061175   4.858557   4.592065   3.769847
    21  O    8.190875   6.840979   5.720716   5.732711   4.956826
    22  H    9.074329   7.736545   6.624487   6.522823   5.730078
    23  C    9.413812   6.433735   5.195046   4.047687   3.028479
    24  O    9.243995   6.092275   4.974579   3.778624   2.966069
    25  H   10.080710   6.887915   5.855221   4.615698   3.931518
    26  C    8.641418   5.924173   4.567845   3.718036   2.477509
    27  O    9.488538   6.977119   5.667442   4.837383   3.746499
    28  C    9.257613   7.124766   5.816980   5.300320   4.224816
    29  O   10.254211   8.254964   7.024386   6.440463   5.491675
    30  H   10.914469   8.998338   7.733486   7.226425   6.192944
    31  H    3.655020   2.903608   4.158634   4.851204   6.033531
    32  H    2.579196   2.124590   2.771682   4.129603   4.834572
    33  H    2.145211   2.124590   2.563120   3.897107   4.591144
    34  H    3.251857   1.070000   2.016211   2.581776   3.866951
    35  H    4.428715   2.118778   2.715787   3.311863   4.239839
    36  H    5.355552   2.699153   3.187943   2.702051   4.061530
    37  H    6.375876   3.228408   2.644583   2.093156   2.493214
    38  H    5.589246   2.754050   2.087476   1.070000   2.086803
    39  H   10.412217   7.451130   6.176480   5.084049   3.978042
    40  H    9.504093   6.562252   5.437884   4.170675   3.434103
    41  H    8.850786   6.201678   4.783367   4.154862   2.751663
    42  H    7.155348   4.558947   3.443246   2.499568   2.052074
    43  H    7.151579   5.113750   3.752087   3.788842   2.695714
    44  H    7.808551   6.016526   4.955259   4.566850   4.010945
    45  H    9.622753   7.533116   6.165941   5.779022   4.557581
                   16         17         18         19         20
    16  C    0.000000
    17  C    1.519795   0.000000
    18  O    2.441351   1.434875   0.000000
    19  H    2.709905   1.927369   0.999529   0.000000
    20  C    2.496908   1.519754   2.375036   3.187687   0.000000
    21  O    3.826073   2.528724   2.938493   3.705885   1.434348
    22  H    4.481505   3.357319   3.854225   4.672413   1.989943
    23  C    2.543173   3.806932   4.968235   5.179774   4.229890
    24  O    3.162561   4.558068   5.524640   5.507515   5.320554
    25  H    4.122849   5.529041   6.504951   6.498522   6.203378
    26  C    1.520033   2.402508   3.708245   3.995660   2.826870
    27  O    2.470703   2.882836   4.199261   4.753236   2.485400
    28  C    2.879203   2.479196   3.718701   4.382985   1.519567
    29  O    4.080030   3.729346   4.772599   5.569002   2.417955
    30  H    4.823074   4.332153   5.392414   6.145859   3.023897
    31  H    7.216251   7.612983   6.789036   6.106721   8.952286
    32  H    5.834705   5.678589   4.720083   3.860148   7.028738
    33  H    5.213866   4.801613   3.566290   2.922245   5.940636
    34  H    4.600353   4.878364   3.930848   3.574356   5.999396
    35  H    5.568475   6.079339   5.548205   4.785567   7.524431
    36  H    4.994508   5.911896   5.475841   5.185450   7.035839
    37  H    3.871607   4.875010   4.959674   4.418472   6.252545
    38  H    2.518353   3.380999   3.126268   3.135964   4.396564
    39  H    3.429069   4.494333   5.776525   6.007893   4.720211
    40  H    2.791281   4.105478   5.141194   5.488248   4.330308
    41  H    2.131199   2.592640   3.948879   4.067683   3.150314
    42  H    1.070000   2.126467   2.696142   3.166365   2.691421
    43  H    2.128507   1.070000   2.054223   2.139254   2.128572
    44  H    2.705056   2.106691   2.576785   3.521536   1.070000
    45  H    3.390641   2.825500   4.113146   4.621532   2.143396
                   21         22         23         24         25
    21  O    0.000000
    22  H    1.000116   0.000000
    23  C    5.577914   5.930784   0.000000
    24  O    6.671012   7.146266   1.434918   0.000000
    25  H    7.561108   7.974403   2.065062   0.999061   0.000000
    26  C    4.126174   4.566950   1.520698   2.601668   3.453350
    27  O    3.679368   3.812388   2.282351   3.670675   4.337021
    28  C    2.364841   2.439767   3.597654   4.893138   5.652345
    29  O    2.843600   2.380536   4.478905   5.878955   6.515533
    30  H    3.086101   2.463900   5.121926   6.519178   7.131807
    31  H    9.726336  10.633981   8.721299   8.017950   8.611581
    32  H    7.494805   8.469868   7.855623   7.502854   8.336633
    33  H    6.280211   7.215121   7.546818   7.493725   8.400188
    34  H    6.800414   7.628599   6.546001   6.318900   7.090834
    35  H    8.398972   9.317329   6.904629   6.147557   6.781515
    36  H    8.159355   8.899644   6.037205   5.413008   5.911721
    37  H    7.400446   8.207487   4.505643   3.584267   4.187306
    38  H    5.568604   6.274128   4.169322   4.121114   4.909917
    39  H    5.964343   6.201330   1.070000   2.017603   2.280923
    40  H    5.728378   5.992917   1.070000   2.017603   2.424094
    41  H    4.221891   4.719308   2.131715   2.935205   3.769476
    42  H    4.069803   4.611673   2.791040   3.456808   4.314871
    43  H    2.769994   3.633024   4.049040   4.706742   5.678509
    44  H    2.033064   2.336639   4.411994   5.508591   6.345839
    45  H    2.566534   2.681329   3.967595   5.177014   5.931085
                   26         27         28         29         30
    26  C    0.000000
    27  O    1.435101   0.000000
    28  C    2.340579   1.435686   0.000000
    29  O    3.514294   2.212802   1.435020   0.000000
    30  H    4.141605   2.881000   1.974663   0.960000   0.000000
    31  H    8.496843   9.665369   9.949597  11.103001  11.856612
    32  H    7.146562   8.242136   8.152032   9.378650   9.986867
    33  H    6.648374   7.514603   7.245364   8.331561   8.954512
    34  H    6.065499   6.969910   7.123866   8.120323   8.919460
    35  H    6.699316   7.977562   8.338738   9.591057  10.298388
    36  H    6.149271   7.168778   7.781513   8.751496   9.618616
    37  H    4.630667   5.985251   6.665944   7.908234   8.619465
    38  H    3.854231   4.724628   5.182468   6.147915   7.004747
    39  H    2.091907   2.442200   3.768504   4.500606   4.996208
    40  H    2.091907   2.400276   3.773689   4.400824   5.154439
    41  H    1.070000   2.056703   2.582366   3.885324   4.310279
    42  H    2.126506   2.663210   3.170118   4.084177   4.949879
    43  H    2.607428   3.230897   2.737520   4.106979   4.522576
    44  H    3.223447   2.750816   2.109704   2.542903   3.329096
    45  H    2.679897   2.068461   1.070000   2.067060   2.132126
                   31         32         33         34         35
    31  H    0.000000
    32  H    3.046204   0.000000
    33  H    4.093925   1.741803   0.000000
    34  H    3.299850   2.971491   2.456886   0.000000
    35  H    2.126031   2.587545   3.736543   2.970600   0.000000
    36  H    3.513538   4.633413   4.749483   2.446615   2.968533
    37  H    4.544457   4.453106   5.001663   3.804471   2.600153
    38  H    5.237365   4.690241   4.128368   2.486667   4.036740
    39  H    9.714057   8.780241   8.496393   7.598523   7.840199
    40  H    8.855173   8.186375   7.743266   6.502617   7.198755
    41  H    8.715509   7.142604   6.780164   6.504993   6.804772
    42  H    7.242491   6.148585   5.372544   4.394998   5.800143
    43  H    7.852907   5.693212   5.020443   5.426373   6.183681
    44  H    8.896062   7.212855   5.999194   5.768039   7.629085
    45  H   10.317696   8.333787   7.539638   7.666051   8.606534
                   36         37         38         39         40
    36  H    0.000000
    37  H    2.946442   0.000000
    38  H    2.650157   3.003549   0.000000
    39  H    7.071367   5.388887   5.234552   0.000000
    40  H    5.883452   4.875293   4.027258   1.720531   0.000000
    41  H    6.702542   4.785988   4.510123   2.381201   2.977053
    42  H    4.674072   4.186702   2.113242   3.739879   2.615194
    43  H    6.468338   4.990322   4.108239   4.593851   4.584320
    44  H    6.753349   6.407087   4.126443   4.993635   4.252437
    45  H    8.380081   6.941773   5.834008   3.969891   4.380519
                   41         42         43         44         45
    41  H    0.000000
    42  H    3.005959   0.000000
    43  H    2.337510   3.004975   0.000000
    44  H    3.821556   2.458780   2.991174   0.000000
    45  H    2.473740   3.934404   2.662046   2.998669   0.000000
 Stoichiometry    C12H22O11
 Framework group  C1[X(C12H22O11)]
 Deg. of freedom   129
 Full point group                 C1      NOp   1
 Largest Abelian subgroup         C1      NOp   1
 Largest concise Abelian subgroup C1      NOp   1
                         Standard orientation:                         
 ---------------------------------------------------------------------
 Center     Atomic      Atomic             Coordinates (Angstroms)
 Number     Number       Type             X           Y           Z
 ---------------------------------------------------------------------
      1          8           0        5.021097   -0.357502   -0.422324
      2          6           0        3.755857   -0.014460    0.163741
      3          6           0        3.212825    1.269209   -0.442041
      4          8           0        4.206375    2.294785   -0.296848
      5          1           0        5.040069    1.743365   -0.274460
      6          6           0        1.798498    1.572630    0.024123
      7          8           0        1.245951    2.765176   -0.550401
      8          1           0        0.376768    2.959973   -0.096122
      9          6           0        3.197060   -2.498626    0.520025
     10          8           0        4.331849   -3.027016   -0.181008
     11          1           0        4.225811   -4.014918   -0.289638
     12          6           0        2.763323   -1.149012   -0.030415
     13          8           0        1.461433   -0.795847    0.458386
     14          6           0        0.895432    0.364374   -0.167217
     15          8           0       -0.282669    0.545282    0.631848
     16          6           0       -1.542455    0.219953    0.025835
     17          6           0       -1.981043   -1.184897    0.405065
     18          8           0       -1.006635   -2.161828    0.011365
     19          1           0       -0.309619   -2.090035    0.724159
     20          6           0       -3.278965   -1.544580   -0.298981
     21          8           0       -3.871491   -2.815487    0.002786
     22          1           0       -4.772722   -2.852863   -0.429207
     23          6           0       -2.474348    2.582217    0.163736
     24          8           0       -1.326480    3.321486    0.605175
     25          1           0       -1.399561    4.312611    0.502929
     26          6           0       -2.690000    1.109543    0.475581
     27          8           0       -3.916499    0.856530   -0.225276
     28          6           0       -4.331259   -0.495836    0.020235
     29          8           0       -5.428475   -0.612795   -0.897216
     30          1           0       -6.222068   -0.860363   -0.417091
     31          1           0        5.613738   -0.678832    0.261141
     32          1           0        3.448502   -2.387446    1.554102
     33          1           0        2.382969   -3.187431    0.432255
     34          1           0        2.662344   -1.277584   -1.087851
     35          1           0        3.897309    0.137993    1.213336
     36          1           0        3.135347    1.088301   -1.493787
     37          1           0        1.857137    1.744338    1.078627
     38          1           0        0.659209    0.191827   -1.196453
     39          1           0       -3.330879    3.099738    0.542451
     40          1           0       -2.499936    2.672153   -0.902171
     41          1           0       -2.847119    0.986159    1.526766
     42          1           0       -1.446130    0.282532   -1.037981
     43          1           0       -2.126448   -1.236594    1.463878
     44          1           0       -3.094753   -1.514320   -1.352570
     45          1           0       -4.675173   -0.603972    1.027672
 ---------------------------------------------------------------------
 Rotational constants (GHZ):      0.4115465      0.1434300      0.1097064
 Standard basis: 6-31+G(2d,p) (6D, 7F)
 There are   685 symmetry adapted basis functions of A   symmetry.
 Integral buffers will be    131072 words long.
 Raffenetti 2 integral format.
 Two-electron integral symmetry is turned on.
   685 basis functions,  1028 primitive gaussians,   685 cartesian basis functions
    91 alpha electrons       91 beta electrons
       nuclear repulsion energy      2282.4395382391 Hartrees.
 NAtoms=   45 NActive=   45 NUniq=   45 SFac= 1.00D+00 NAtFMM=   50 NAOKFM=F Big=F
 One-electron integrals computed using PRISM.
 NBasis=   685 RedAO= T  NBF=   685
 NBsUse=   685 1.00D-06 NBFU=   685
 Harris functional with IExCor=  402 diagonalized for initial guess.
 ExpMin= 4.38D-02 ExpMax= 5.48D+03 ExpMxC= 8.25D+02 IAcc=2 IRadAn=         0 AccDes= 0.00D+00
 HarFok:  IExCor=  402 AccDes= 0.00D+00 IRadAn=         0 IDoV= 1
 ScaDFX=  1.000000  1.000000  1.000000  1.000000
 FoFCou: FMM=F IPFlag=           0 FMFlag=      100000 FMFlg1=           0
         NFxFlg=           0 DoJE=T BraDBF=F KetDBF=T FulRan=T
         Omega=  0.000000  0.000000  1.000000  0.000000  0.000000 ICntrl=     500 IOpCl=  0
         NMat0=    1 NMatS0=    1 NMatT0=    0 NMatD0=    1 NMtDS0=    0 NMtDT0=    0
         I1Cent=           4 NGrid=           0.
 Petite list used in FoFCou.
 Initial guess orbital symmetries:
       Occupied  (A) (A) (A) (A) (A) (A) (A) (A) (A) (A) (A) (A)
                 (A) (A) (A) (A) (A) (A) (A) (A) (A) (A) (A) (A)
                 (A) (A) (A) (A) (A) (A) (A) (A) (A) (A) (A) (A)
                 (A) (A) (A) (A) (A) (A) (A) (A) (A) (A) (A) (A)
                 (A) (A) (A) (A) (A) (A) (A) (A) (A) (A) (A) (A)
                 (A) (A) (A) (A) (A) (A) (A) (A) (A) (A) (A) (A)
                 (A) (A) (A) (A) (A) (A) (A) (A) (A) (A) (A) (A)
                 (A) (A) (A) (A) (A) (A) (A)
       Virtual   (A) (A) (A) (A) (A) (A) (A) (A) (A) (A) (A) (A)
                 (A) (A) (A) (A) (A) (A) (A) (A) (A) (A) (A) (A)
                 (A) (A) (A) (A) (A) (A) (A) (A) (A) (A) (A) (A)
                 (A) (A) (A) (A) (A) (A) (A) (A) (A) (A) (A) (A)
                 (A) (A) (A) (A) (A) (A) (A) (A) (A) (A) (A) (A)
                 (A) (A) (A) (A) (A) (A) (A) (A) (A) (A) (A) (A)
                 (A) (A) (A) (A) (A) (A) (A) (A) (A) (A) (A) (A)
                 (A) (A) (A) (A) (A) (A) (A) (A) (A) (A) (A) (A)
                 (A) (A) (A) (A) (A) (A) (A) (A) (A) (A) (A) (A)
                 (A) (A) (A) (A) (A) (A) (A) (A) (A) (A) (A) (A)
                 (A) (A) (A) (A) (A) (A) (A) (A) (A) (A) (A) (A)
                 (A) (A) (A) (A) (A) (A) (A) (A) (A) (A) (A) (A)
                 (A) (A) (A) (A) (A) (A) (A) (A) (A) (A) (A) (A)
                 (A) (A) (A) (A) (A) (A) (A) (A) (A) (A) (A) (A)
                 (A) (A) (A) (A) (A) (A) (A) (A) (A) (A) (A) (A)
                 (A) (A) (A) (A) (A) (A) (A) (A) (A) (A) (A) (A)
                 (A) (A) (A) (A) (A) (A) (A) (A) (A) (A) (A) (A)
                 (A) (A) (A) (A) (A) (A) (A) (A) (A) (A) (A) (A)
                 (A) (A) (A) (A) (A) (A) (A) (A) (A) (A) (A) (A)
                 (A) (A) (A) (A) (A) (A) (A) (A) (A) (A) (A) (A)
                 (A) (A) (A) (A) (A) (A) (A) (A) (A) (A) (A) (A)
                 (A) (A) (A) (A) (A) (A) (A) (A) (A) (A) (A) (A)
                 (A) (A) (A) (A) (A) (A) (A) (A) (A) (A) (A) (A)
                 (A) (A) (A) (A) (A) (A) (A) (A) (A) (A) (A) (A)
                 (A) (A) (A) (A) (A) (A) (A) (A) (A) (A) (A) (A)
                 (A) (A) (A) (A) (A) (A) (A) (A) (A) (A) (A) (A)
                 (A) (A) (A) (A) (A) (A) (A) (A) (A) (A) (A) (A)
                 (A) (A) (A) (A) (A) (A) (A) (A) (A) (A) (A) (A)
                 (A) (A) (A) (A) (A) (A) (A) (A) (A) (A) (A) (A)
                 (A) (A) (A) (A) (A) (A) (A) (A) (A) (A) (A) (A)
                 (A) (A) (A) (A) (A) (A) (A) (A) (A) (A) (A) (A)
                 (A) (A) (A) (A) (A) (A) (A) (A) (A) (A) (A) (A)
                 (A) (A) (A) (A) (A) (A) (A) (A) (A) (A) (A) (A)
                 (A) (A) (A) (A) (A) (A) (A) (A) (A) (A) (A) (A)
                 (A) (A) (A) (A) (A) (A) (A) (A) (A) (A) (A) (A)
                 (A) (A) (A) (A) (A) (A) (A) (A) (A) (A) (A) (A)
                 (A) (A) (A) (A) (A) (A) (A) (A) (A) (A) (A) (A)
                 (A) (A) (A) (A) (A) (A) (A) (A) (A) (A) (A) (A)
                 (A) (A) (A) (A) (A) (A) (A) (A) (A) (A) (A) (A)
                 (A) (A) (A) (A) (A) (A) (A) (A) (A) (A) (A) (A)
                 (A) (A) (A) (A) (A) (A) (A) (A) (A) (A) (A) (A)
                 (A) (A) (A) (A) (A) (A) (A) (A) (A) (A) (A) (A)
                 (A) (A) (A) (A) (A) (A) (A) (A) (A) (A) (A) (A)
                 (A) (A) (A) (A) (A) (A) (A) (A) (A) (A) (A) (A)
                 (A) (A) (A) (A) (A) (A) (A) (A) (A) (A) (A) (A)
                 (A) (A) (A) (A) (A) (A) (A) (A) (A) (A) (A) (A)
                 (A) (A) (A) (A) (A) (A) (A) (A) (A) (A) (A) (A)
                 (A) (A) (A) (A) (A) (A) (A) (A) (A) (A) (A) (A)
                 (A) (A) (A) (A) (A) (A) (A) (A) (A) (A) (A) (A)
                 (A) (A) (A) (A) (A) (A)
 The electronic state of the initial guess is 1-A.
 Requested convergence on RMS density matrix=1.00D-08 within 128 cycles.
 Requested convergence on MAX density matrix=1.00D-06.
 Requested convergence on             energy=1.00D-06.
 No special actions if energy rises.
 SCF Done:  E(RB3LYP) =  -1297.99254693     A.U. after   13 cycles
             Convg  =    0.4340D-08             -V/T =  2.0064
 Range of M.O.s used for correlation:     1   685
 NBasis=   685 NAE=    91 NBE=    91 NFC=     0 NFV=     0
 NROrb=    685 NOA=    91 NOB=    91 NVA=   594 NVB=   594

 **** Warning!!: The largest alpha MO coefficient is  0.62857407D+02

          Differentiating once with respect to electric field.
                with respect to dipole field.
          Electric field/nuclear overlap derivatives assumed to be zero.
          There are     3 degrees of freedom in the 1st order CPHF.  IDoFFX=0.
      3 vectors produced by pass  0 Test12= 1.80D-12 3.33D-08 XBig12= 1.23D+02 1.02D+00.
 AX will form     3 AO Fock derivatives at one time.
      3 vectors produced by pass  1 Test12= 1.80D-12 3.33D-08 XBig12= 2.51D+01 4.97D-01.
      3 vectors produced by pass  2 Test12= 1.80D-12 3.33D-08 XBig12= 1.06D+01 2.50D-01.
      3 vectors produced by pass  3 Test12= 1.80D-12 3.33D-08 XBig12= 1.11D+00 8.75D-02.
      3 vectors produced by pass  4 Test12= 1.80D-12 3.33D-08 XBig12= 2.91D-01 3.63D-02.
      3 vectors produced by pass  5 Test12= 1.80D-12 3.33D-08 XBig12= 5.85D-02 1.73D-02.
      3 vectors produced by pass  6 Test12= 1.80D-12 3.33D-08 XBig12= 2.03D-02 1.31D-02.
      3 vectors produced by pass  7 Test12= 1.80D-12 3.33D-08 XBig12= 2.79D-03 5.89D-03.
      3 vectors produced by pass  8 Test12= 1.80D-12 3.33D-08 XBig12= 4.41D-04 1.76D-03.
      3 vectors produced by pass  9 Test12= 1.80D-12 3.33D-08 XBig12= 1.40D-04 1.06D-03.
      3 vectors produced by pass 10 Test12= 1.80D-12 3.33D-08 XBig12= 3.93D-05 4.04D-04.
      3 vectors produced by pass 11 Test12= 1.80D-12 3.33D-08 XBig12= 1.04D-05 3.03D-04.
      3 vectors produced by pass 12 Test12= 1.80D-12 3.33D-08 XBig12= 1.29D-06 1.01D-04.
      3 vectors produced by pass 13 Test12= 1.80D-12 3.33D-08 XBig12= 4.45D-07 4.72D-05.
      3 vectors produced by pass 14 Test12= 1.80D-12 3.33D-08 XBig12= 7.05D-08 1.86D-05.
      3 vectors produced by pass 15 Test12= 1.80D-12 3.33D-08 XBig12= 2.16D-08 7.72D-06.
      3 vectors produced by pass 16 Test12= 1.80D-12 3.33D-08 XBig12= 2.71D-09 3.70D-06.
      3 vectors produced by pass 17 Test12= 1.80D-12 3.33D-08 XBig12= 1.99D-10 8.11D-07.
      3 vectors produced by pass 18 Test12= 1.80D-12 3.33D-08 XBig12= 4.36D-11 3.40D-07.
      3 vectors produced by pass 19 Test12= 1.80D-12 3.33D-08 XBig12= 1.79D-11 2.90D-07.
      3 vectors produced by pass 20 Test12= 1.80D-12 3.33D-08 XBig12= 6.92D-12 1.80D-07.
      2 vectors produced by pass 21 Test12= 1.80D-12 3.33D-08 XBig12= 1.39D-12 7.96D-08.
 Inverted reduced A of dimension    65 with in-core refinement.
 End of Minotr Frequency-dependent properties file   721 does not exist.
 End of Minotr Frequency-dependent properties file   722 does not exist.
 Symmetrizing basis deriv contribution to polar:
 IMax=3 JMax=2 DiffMx= 0.00D+00
 G2DrvN: will do    16 centers at a time, making    3 passes doing MaxLOS=2.
 Calling FoFCou, ICntrl=  3107 FMM=F I1Cent=   0 AccDes= 0.00D+00.
 Calling FoFCou, ICntrl=  3107 FMM=F I1Cent=   0 AccDes= 0.00D+00.
 Calling FoFCou, ICntrl=  3107 FMM=F I1Cent=   0 AccDes= 0.00D+00.
 FoFDir/FoFCou used for L=0 through L=2.
 End of G2Drv Frequency-dependent properties file   721 does not exist.
 End of G2Drv Frequency-dependent properties file   722 does not exist.
          IDoAtm=111111111111111111111111111111111111111111111
          Differentiating once with respect to electric field.
                with respect to dipole field.
          Differentiating once with respect to nuclear coordinates.
          There are   138 degrees of freedom in the 1st order CPHF.  IDoFFX=5.
 Will reuse    3 saved solutions.
    135 vectors produced by pass  0 Test12= 5.41D-14 1.00D-09 XBig12= 1.58D-01 1.04D-01.
 AX will form    45 AO Fock derivatives at one time.
    135 vectors produced by pass  1 Test12= 5.41D-14 1.00D-09 XBig12= 1.48D-02 1.15D-02.
    132 vectors produced by pass  2 Test12= 5.41D-14 1.00D-09 XBig12= 1.44D-04 1.25D-03.
    132 vectors produced by pass  3 Test12= 5.41D-14 1.00D-09 XBig12= 6.31D-07 5.17D-05.
    132 vectors produced by pass  4 Test12= 5.41D-14 1.00D-09 XBig12= 1.35D-09 2.25D-06.
    132 vectors produced by pass  5 Test12= 5.41D-14 1.00D-09 XBig12= 2.67D-12 9.16D-08.
     82 vectors produced by pass  6 Test12= 5.41D-14 1.00D-09 XBig12= 1.13D-13 2.00D-08.
 Inverted reduced A of dimension   880 with in-core refinement.
 Isotropic polarizability for W=    0.000000      191.48 Bohr**3.
 End of Minotr Frequency-dependent properties file   721 does not exist.
 End of Minotr Frequency-dependent properties file   722 does not exist.

 **********************************************************************

            Population analysis using the SCF density.

 **********************************************************************

 Orbital symmetries:
       Occupied  (A) (A) (A) (A) (A) (A) (A) (A) (A) (A) (A) (A)
                 (A) (A) (A) (A) (A) (A) (A) (A) (A) (A) (A) (A)
                 (A) (A) (A) (A) (A) (A) (A) (A) (A) (A) (A) (A)
                 (A) (A) (A) (A) (A) (A) (A) (A) (A) (A) (A) (A)
                 (A) (A) (A) (A) (A) (A) (A) (A) (A) (A) (A) (A)
                 (A) (A) (A) (A) (A) (A) (A) (A) (A) (A) (A) (A)
                 (A) (A) (A) (A) (A) (A) (A) (A) (A) (A) (A) (A)
                 (A) (A) (A) (A) (A) (A) (A)
       Virtual   (A) (A) (A) (A) (A) (A) (A) (A) (A) (A) (A) (A)
                 (A) (A) (A) (A) (A) (A) (A) (A) (A) (A) (A) (A)
                 (A) (A) (A) (A) (A) (A) (A) (A) (A) (A) (A) (A)
                 (A) (A) (A) (A) (A) (A) (A) (A) (A) (A) (A) (A)
                 (A) (A) (A) (A) (A) (A) (A) (A) (A) (A) (A) (A)
                 (A) (A) (A) (A) (A) (A) (A) (A) (A) (A) (A) (A)
                 (A) (A) (A) (A) (A) (A) (A) (A) (A) (A) (A) (A)
                 (A) (A) (A) (A) (A) (A) (A) (A) (A) (A) (A) (A)
                 (A) (A) (A) (A) (A) (A) (A) (A) (A) (A) (A) (A)
                 (A) (A) (A) (A) (A) (A) (A) (A) (A) (A) (A) (A)
                 (A) (A) (A) (A) (A) (A) (A) (A) (A) (A) (A) (A)
                 (A) (A) (A) (A) (A) (A) (A) (A) (A) (A) (A) (A)
                 (A) (A) (A) (A) (A) (A) (A) (A) (A) (A) (A) (A)
                 (A) (A) (A) (A) (A) (A) (A) (A) (A) (A) (A) (A)
                 (A) (A) (A) (A) (A) (A) (A) (A) (A) (A) (A) (A)
                 (A) (A) (A) (A) (A) (A) (A) (A) (A) (A) (A) (A)
                 (A) (A) (A) (A) (A) (A) (A) (A) (A) (A) (A) (A)
                 (A) (A) (A) (A) (A) (A) (A) (A) (A) (A) (A) (A)
                 (A) (A) (A) (A) (A) (A) (A) (A) (A) (A) (A) (A)
                 (A) (A) (A) (A) (A) (A) (A) (A) (A) (A) (A) (A)
                 (A) (A) (A) (A) (A) (A) (A) (A) (A) (A) (A) (A)
                 (A) (A) (A) (A) (A) (A) (A) (A) (A) (A) (A) (A)
                 (A) (A) (A) (A) (A) (A) (A) (A) (A) (A) (A) (A)
                 (A) (A) (A) (A) (A) (A) (A) (A) (A) (A) (A) (A)
                 (A) (A) (A) (A) (A) (A) (A) (A) (A) (A) (A) (A)
                 (A) (A) (A) (A) (A) (A) (A) (A) (A) (A) (A) (A)
                 (A) (A) (A) (A) (A) (A) (A) (A) (A) (A) (A) (A)
                 (A) (A) (A) (A) (A) (A) (A) (A) (A) (A) (A) (A)
                 (A) (A) (A) (A) (A) (A) (A) (A) (A) (A) (A) (A)
                 (A) (A) (A) (A) (A) (A) (A) (A) (A) (A) (A) (A)
                 (A) (A) (A) (A) (A) (A) (A) (A) (A) (A) (A) (A)
                 (A) (A) (A) (A) (A) (A) (A) (A) (A) (A) (A) (A)
                 (A) (A) (A) (A) (A) (A) (A) (A) (A) (A) (A) (A)
                 (A) (A) (A) (A) (A) (A) (A) (A) (A) (A) (A) (A)
                 (A) (A) (A) (A) (A) (A) (A) (A) (A) (A) (A) (A)
                 (A) (A) (A) (A) (A) (A) (A) (A) (A) (A) (A) (A)
                 (A) (A) (A) (A) (A) (A) (A) (A) (A) (A) (A) (A)
                 (A) (A) (A) (A) (A) (A) (A) (A) (A) (A) (A) (A)
                 (A) (A) (A) (A) (A) (A) (A) (A) (A) (A) (A) (A)
                 (A) (A) (A) (A) (A) (A) (A) (A) (A) (A) (A) (A)
                 (A) (A) (A) (A) (A) (A) (A) (A) (A) (A) (A) (A)
                 (A) (A) (A) (A) (A) (A) (A) (A) (A) (A) (A) (A)
                 (A) (A) (A) (A) (A) (A) (A) (A) (A) (A) (A) (A)
                 (A) (A) (A) (A) (A) (A) (A) (A) (A) (A) (A) (A)
                 (A) (A) (A) (A) (A) (A) (A) (A) (A) (A) (A) (A)
                 (A) (A) (A) (A) (A) (A) (A) (A) (A) (A) (A) (A)
                 (A) (A) (A) (A) (A) (A) (A) (A) (A) (A) (A) (A)
                 (A) (A) (A) (A) (A) (A) (A) (A) (A) (A) (A) (A)
                 (A) (A) (A) (A) (A) (A) (A) (A) (A) (A) (A) (A)
                 (A) (A) (A) (A) (A) (A)
 The electronic state is 1-A.
 Alpha  occ. eigenvalues --  -19.18458 -19.18216 -19.17872 -19.17686 -19.17264
 Alpha  occ. eigenvalues --  -19.17014 -19.16560 -19.16555 -19.15196 -19.14356
 Alpha  occ. eigenvalues --  -19.13685 -10.30694 -10.30116 -10.26264 -10.25583
 Alpha  occ. eigenvalues --  -10.25092 -10.24897 -10.24890 -10.24773 -10.24652
 Alpha  occ. eigenvalues --  -10.24513 -10.23898 -10.23729  -1.09913  -1.09158
 Alpha  occ. eigenvalues --   -1.05431  -1.04510  -1.03872  -1.03575  -1.03065
 Alpha  occ. eigenvalues --   -1.02535  -1.01641  -1.01395  -1.00017  -0.82417
 Alpha  occ. eigenvalues --   -0.79912  -0.79584  -0.78101  -0.71750  -0.69957
 Alpha  occ. eigenvalues --   -0.67192  -0.64627  -0.63134  -0.62356  -0.61729
 Alpha  occ. eigenvalues --   -0.59912  -0.56566  -0.55354  -0.54959  -0.54545
 Alpha  occ. eigenvalues --   -0.54291  -0.53312  -0.53024  -0.52089  -0.50995
 Alpha  occ. eigenvalues --   -0.50519  -0.49570  -0.48928  -0.48519  -0.46196
 Alpha  occ. eigenvalues --   -0.45734  -0.45230  -0.44449  -0.43514  -0.43351
 Alpha  occ. eigenvalues --   -0.42389  -0.41937  -0.41030  -0.40481  -0.40089
 Alpha  occ. eigenvalues --   -0.38238  -0.38150  -0.36885  -0.36524  -0.36272
 Alpha  occ. eigenvalues --   -0.35672  -0.34930  -0.34063  -0.33688  -0.33386
 Alpha  occ. eigenvalues --   -0.32878  -0.31900  -0.30765  -0.30348  -0.29953
 Alpha  occ. eigenvalues --   -0.29417  -0.29007  -0.28499  -0.27014  -0.26827
 Alpha  occ. eigenvalues --   -0.26199
 Alpha virt. eigenvalues --   -0.02166  -0.01733  -0.01695  -0.00050   0.00112
 Alpha virt. eigenvalues --    0.00556   0.01924   0.02352   0.03231   0.03394
 Alpha virt. eigenvalues --    0.03775   0.04282   0.04658   0.05141   0.05594
 Alpha virt. eigenvalues --    0.05764   0.06617   0.07443   0.07644   0.08138
 Alpha virt. eigenvalues --    0.08824   0.08933   0.09169   0.09252   0.09948
 Alpha virt. eigenvalues --    0.10514   0.11009   0.11400   0.11572   0.12025
 Alpha virt. eigenvalues --    0.12475   0.12637   0.13102   0.13325   0.13644
 Alpha virt. eigenvalues --    0.14006   0.14426   0.14745   0.15034   0.15166
 Alpha virt. eigenvalues --    0.15862   0.16107   0.16580   0.16824   0.17259
 Alpha virt. eigenvalues --    0.17356   0.17691   0.17923   0.18145   0.18489
 Alpha virt. eigenvalues --    0.18969   0.19326   0.19371   0.19765   0.20024
 Alpha virt. eigenvalues --    0.20107   0.20555   0.20721   0.20985   0.21647
 Alpha virt. eigenvalues --    0.21873   0.22180   0.22547   0.22834   0.23090
 Alpha virt. eigenvalues --    0.23385   0.23857   0.24195   0.24458   0.24712
 Alpha virt. eigenvalues --    0.25095   0.25349   0.25578   0.25705   0.25838
 Alpha virt. eigenvalues --    0.26398   0.26460   0.26677   0.26955   0.27034
 Alpha virt. eigenvalues --    0.27498   0.27731   0.27880   0.28449   0.28727
 Alpha virt. eigenvalues --    0.29022   0.29298   0.29854   0.30170   0.30702
 Alpha virt. eigenvalues --    0.30852   0.31241   0.31450   0.31602   0.31993
 Alpha virt. eigenvalues --    0.32335   0.33177   0.33264   0.33576   0.33782
 Alpha virt. eigenvalues --    0.34105   0.34482   0.35003   0.35368   0.35598
 Alpha virt. eigenvalues --    0.36093   0.36185   0.36475   0.36818   0.37573
 Alpha virt. eigenvalues --    0.37993   0.38500   0.38847   0.39210   0.39316
 Alpha virt. eigenvalues --    0.40142   0.40303   0.41099   0.41170   0.41564
 Alpha virt. eigenvalues --    0.41655   0.42774   0.42881   0.43376   0.43750
 Alpha virt. eigenvalues --    0.44441   0.45397   0.46058   0.46262   0.46708
 Alpha virt. eigenvalues --    0.46938   0.47913   0.48795   0.49058   0.49815
 Alpha virt. eigenvalues --    0.49906   0.51149   0.53991   0.56799   0.59460
 Alpha virt. eigenvalues --    0.59762   0.59843   0.60629   0.61998   0.62248
 Alpha virt. eigenvalues --    0.62867   0.63537   0.65062   0.66741   0.67113
 Alpha virt. eigenvalues --    0.67517   0.68296   0.69385   0.69482   0.70770
 Alpha virt. eigenvalues --    0.70927   0.71324   0.72234   0.73506   0.74242
 Alpha virt. eigenvalues --    0.74990   0.75069   0.75413   0.75901   0.76599
 Alpha virt. eigenvalues --    0.77850   0.78525   0.79442   0.80596   0.81321
 Alpha virt. eigenvalues --    0.82281   0.83231   0.83624   0.84535   0.85255
 Alpha virt. eigenvalues --    0.86216   0.87977   0.88478   0.89080   0.89626
 Alpha virt. eigenvalues --    0.90125   0.90581   0.91582   0.91842   0.92362
 Alpha virt. eigenvalues --    0.92655   0.93176   0.93498   0.94022   0.94471
 Alpha virt. eigenvalues --    0.94831   0.95422   0.95614   0.96674   0.97382
 Alpha virt. eigenvalues --    0.97636   0.97872   0.98466   0.98716   0.99532
 Alpha virt. eigenvalues --    0.99694   1.00598   1.01750   1.02491   1.02748
 Alpha virt. eigenvalues --    1.03131   1.04109   1.04718   1.04920   1.05926
 Alpha virt. eigenvalues --    1.06123   1.07090   1.07208   1.07928   1.08029
 Alpha virt. eigenvalues --    1.08852   1.09859   1.09970   1.10832   1.11451
 Alpha virt. eigenvalues --    1.12448   1.12710   1.13781   1.14142   1.14640
 Alpha virt. eigenvalues --    1.14867   1.15569   1.16174   1.17000   1.17139
 Alpha virt. eigenvalues --    1.17752   1.18409   1.18981   1.19186   1.20077
 Alpha virt. eigenvalues --    1.20930   1.21738   1.21926   1.22076   1.22819
 Alpha virt. eigenvalues --    1.23150   1.23325   1.24029   1.24572   1.25254
 Alpha virt. eigenvalues --    1.25532   1.26328   1.27141   1.27688   1.28252
 Alpha virt. eigenvalues --    1.28596   1.29552   1.30109   1.30394   1.30633
 Alpha virt. eigenvalues --    1.32270   1.33217   1.33429   1.33839   1.34729
 Alpha virt. eigenvalues --    1.35062   1.35736   1.35957   1.36739   1.37762
 Alpha virt. eigenvalues --    1.38327   1.39455   1.39799   1.39990   1.40480
 Alpha virt. eigenvalues --    1.41726   1.42211   1.42451   1.43252   1.43903
 Alpha virt. eigenvalues --    1.44549   1.45115   1.45781   1.46988   1.47765
 Alpha virt. eigenvalues --    1.48162   1.49252   1.50457   1.51071   1.52020
 Alpha virt. eigenvalues --    1.53364   1.54189   1.54404   1.54995   1.56660
 Alpha virt. eigenvalues --    1.57143   1.57441   1.58919   1.59748   1.60881
 Alpha virt. eigenvalues --    1.61710   1.62392   1.63215   1.63695   1.64667
 Alpha virt. eigenvalues --    1.65818   1.66721   1.67076   1.68224   1.68385
 Alpha virt. eigenvalues --    1.69190   1.70542   1.71996   1.73213   1.74523
 Alpha virt. eigenvalues --    1.74667   1.75857   1.76556   1.77617   1.77977
 Alpha virt. eigenvalues --    1.80099   1.81044   1.81112   1.82191   1.83574
 Alpha virt. eigenvalues --    1.84902   1.85661   1.86206   1.87015   1.89364
 Alpha virt. eigenvalues --    1.89752   1.90457   1.91799   1.92416   1.93785
 Alpha virt. eigenvalues --    1.94341   1.95349   1.95503   1.97988   1.98994
 Alpha virt. eigenvalues --    2.00207   2.02203   2.03610   2.04543   2.05398
 Alpha virt. eigenvalues --    2.06146   2.07242   2.08084   2.08994   2.09824
 Alpha virt. eigenvalues --    2.11780   2.12730   2.13890   2.16514   2.17554
 Alpha virt. eigenvalues --    2.19231   2.20366   2.23044   2.23763   2.24962
 Alpha virt. eigenvalues --    2.26712   2.27622   2.28465   2.29388   2.30386
 Alpha virt. eigenvalues --    2.33515   2.34868   2.36116   2.36739   2.37981
 Alpha virt. eigenvalues --    2.38676   2.42228   2.42391   2.46058   2.50520
 Alpha virt. eigenvalues --    2.53764   2.54239   2.55079   2.56364   2.57564
 Alpha virt. eigenvalues --    2.59460   2.61126   2.62604   2.63447   2.67428
 Alpha virt. eigenvalues --    2.68790   2.69262   2.70343   2.71141   2.72650
 Alpha virt. eigenvalues --    2.73378   2.75020   2.77680   2.78533   2.80253
 Alpha virt. eigenvalues --    2.81250   2.82475   2.83073   2.84646   2.85498
 Alpha virt. eigenvalues --    2.87490   2.87860   2.90397   2.91944   2.92482
 Alpha virt. eigenvalues --    2.93307   2.95148   2.95615   2.95866   2.97747
 Alpha virt. eigenvalues --    2.98156   2.98979   2.99798   3.00699   3.00906
 Alpha virt. eigenvalues --    3.01824   3.02764   3.03921   3.04320   3.04961
 Alpha virt. eigenvalues --    3.05897   3.06254   3.06508   3.06920   3.07273
 Alpha virt. eigenvalues --    3.08961   3.10917   3.11994   3.12224   3.13840
 Alpha virt. eigenvalues --    3.14663   3.15443   3.17068   3.20673   3.23340
 Alpha virt. eigenvalues --    3.25019   3.25443   3.28219   3.72233   3.82395
 Alpha virt. eigenvalues --    3.98998   4.03351   4.06331   4.07318   4.12379
 Alpha virt. eigenvalues --    4.13038   4.13758   4.14129   4.16488   4.18030
 Alpha virt. eigenvalues --    4.18578   4.18907   4.20093   4.20951   4.22035
 Alpha virt. eigenvalues --    4.23555   4.24306   4.24658   4.25010   4.25788
 Alpha virt. eigenvalues --    4.27482   4.28507   4.28936   4.29711   4.30201
 Alpha virt. eigenvalues --    4.31072   4.31419   4.31691   4.32805   4.32996
 Alpha virt. eigenvalues --    4.33483   4.33955   4.34528   4.34950   4.35105
 Alpha virt. eigenvalues --    4.36624   4.37475   4.37510   4.38058   4.38954
 Alpha virt. eigenvalues --    4.39892   4.40049   4.41031   4.41453   4.42971
 Alpha virt. eigenvalues --    4.44854   4.45473   4.47057   4.48290   4.48994
 Alpha virt. eigenvalues --    4.50493   4.51736   4.52627   4.53420   4.56153
 Alpha virt. eigenvalues --    4.57333   4.58297   4.59053   4.59448   4.59872
 Alpha virt. eigenvalues --    4.62128   4.62344   4.62698   4.63961   4.64286
 Alpha virt. eigenvalues --    4.64456   4.64859   4.66129   4.66404   4.66926
 Alpha virt. eigenvalues --    4.67339   4.68570   4.69499   4.69610   4.70848
 Alpha virt. eigenvalues --    4.72052   4.72133   4.72766   4.73067   4.74531
 Alpha virt. eigenvalues --    4.74685   4.75642   4.75872   4.76227   4.76847
 Alpha virt. eigenvalues --    4.77753   4.78732   4.79116   4.79581   4.80179
 Alpha virt. eigenvalues --    4.80866   4.82161   4.82579   4.84159   4.85000
 Alpha virt. eigenvalues --    4.86399   4.88288   4.89366   4.90654   4.91422
 Alpha virt. eigenvalues --    4.92604   4.93683   4.94443   4.95702   4.96539
 Alpha virt. eigenvalues --    4.97989   4.99451   5.01692   5.03151   5.05483
 Alpha virt. eigenvalues --    5.07229   5.08328   5.10585   5.10915   5.16686
 Alpha virt. eigenvalues --    5.24194   5.26320   5.28779   5.31644   5.38927
 Alpha virt. eigenvalues --    5.42537   5.78033   6.07242   6.29761   6.54469
 Alpha virt. eigenvalues --    6.73274   6.74530   6.77429   6.79870   6.83603
 Alpha virt. eigenvalues --    6.87555   6.90569   6.93266   6.97566   6.99141
 Alpha virt. eigenvalues --    7.04576  11.82858  11.95965  12.06828  12.15248
 Alpha virt. eigenvalues --   12.25984  12.36089  12.66135  12.77400  12.84917
 Alpha virt. eigenvalues --   12.97919  13.12080  13.21707  13.24630  13.28553
 Alpha virt. eigenvalues --   13.30510  13.31809  13.33453  13.41385  13.44371
 Alpha virt. eigenvalues --   13.49949  13.58624  13.69333  13.87647
          Condensed to atoms (all electrons):
              1          2          3          4          5          6
     1  O    8.203476   0.126297  -0.019362  -0.032272   0.023652   0.042173
     2  C    0.126297   7.103283  -0.162093   0.050132  -0.060394  -1.291970
     3  C   -0.019362  -0.162093   5.953391   0.273894  -0.004146   0.050844
     4  O   -0.032272   0.050132   0.273894   8.198425   0.239160  -0.158896
     5  H    0.023652  -0.060394  -0.004146   0.239160   0.421550   0.008522
     6  C    0.042173  -1.291970   0.050844  -0.158896   0.008522   8.298303
     7  O   -0.000519   0.002866  -0.080433   0.008175  -0.000378   0.267353
     8  H    0.000007  -0.003271   0.007355  -0.000252   0.000010   0.034147
     9  C   -0.006288  -0.007823  -0.273246   0.004342  -0.005146   0.252112
    10  O   -0.026089   0.068425   0.003465  -0.000105  -0.000077   0.004135
    11  H    0.003740  -0.016050   0.000498   0.000004   0.000000   0.000306
    12  C   -0.043263  -0.742032   0.207381  -0.006232   0.015942   0.256851
    13  O    0.002249  -0.042353  -0.085537  -0.001847  -0.000056   0.045172
    14  C    0.004526   0.543650  -0.033150   0.013605   0.012715  -1.857282
    15  O   -0.000278  -0.003910   0.010767   0.000386  -0.000036   0.009356
    16  C    0.001185   0.100502  -0.070739  -0.004109   0.000706  -0.005534
    17  C    0.000123  -0.037462   0.029453   0.000361   0.000015  -0.123651
    18  O    0.000012   0.008854  -0.000951  -0.000008   0.000000   0.005237
    19  H   -0.000006   0.000923   0.000670   0.000001   0.000000  -0.006005
    20  C    0.000065  -0.000823  -0.010013  -0.000050   0.000001   0.053601
    21  O    0.000000  -0.000034   0.000014   0.000000   0.000000   0.000074
    22  H    0.000000   0.000000   0.000001   0.000000   0.000000  -0.000038
    23  C    0.000050   0.008518  -0.022655  -0.000168  -0.000013  -0.022255
    24  O    0.000002  -0.001880  -0.012220  -0.000021  -0.000001  -0.007109
    25  H    0.000000   0.000086   0.001756   0.000002   0.000000   0.002011
    26  C   -0.000024  -0.012159  -0.018876   0.000239   0.000031   0.005861
    27  O    0.000000  -0.000070   0.000272   0.000000   0.000000   0.001717
    28  C   -0.000001   0.000531   0.001400   0.000005   0.000000  -0.009227
    29  O    0.000000   0.000010   0.000012   0.000000   0.000000  -0.000220
    30  H    0.000000   0.000000   0.000000   0.000000   0.000000   0.000003
    31  H    0.268747   0.065252  -0.032533   0.002567  -0.003131   0.005409
    32  H    0.001133   0.006241  -0.005414  -0.000051  -0.000002   0.004370
    33  H   -0.000457  -0.014411   0.001517   0.000006   0.000001   0.002344
    34  H    0.004770   0.069522  -0.071108   0.000633   0.000005  -0.030163
    35  H   -0.023778   0.350960  -0.043755  -0.000263   0.000395  -0.029049
    36  H   -0.003401   0.004289   0.350022  -0.033721   0.000521  -0.243163
    37  H    0.000130   0.010533  -0.117376   0.002908  -0.000214   0.371574
    38  H    0.000048  -0.010239  -0.038144  -0.000055  -0.000003   0.005582
    39  H    0.000000  -0.000022  -0.000044   0.000000   0.000000  -0.000593
    40  H    0.000000   0.000105   0.000050   0.000000   0.000000  -0.005162
    41  H    0.000000  -0.000124   0.000455   0.000000   0.000000  -0.003958
    42  H    0.000000  -0.002606   0.004420   0.000004   0.000000   0.006579
    43  H    0.000000   0.000281   0.000305   0.000000   0.000000   0.008525
    44  H    0.000000   0.000160   0.000020   0.000000   0.000000   0.001807
    45  H    0.000000   0.000004   0.000007   0.000000   0.000000  -0.000035
              7          8          9         10         11         12
     1  O   -0.000519   0.000007  -0.006288  -0.026089   0.003740  -0.043263
     2  C    0.002866  -0.003271  -0.007823   0.068425  -0.016050  -0.742032
     3  C   -0.080433   0.007355  -0.273246   0.003465   0.000498   0.207381
     4  O    0.008175  -0.000252   0.004342  -0.000105   0.000004  -0.006232
     5  H   -0.000378   0.000010  -0.005146  -0.000077   0.000000   0.015942
     6  C    0.267353   0.034147   0.252112   0.004135   0.000306   0.256851
     7  O    8.239070   0.245194   0.001485   0.000004   0.000000   0.014051
     8  H    0.245194   0.349226  -0.000270   0.000000   0.000000  -0.004657
     9  C    0.001485  -0.000270   8.205329   0.108800  -0.002366  -1.960207
    10  O    0.000004   0.000000   0.108800   8.276746   0.230717  -0.063966
    11  H    0.000000   0.000000  -0.002366   0.230717   0.434178   0.021805
    12  C    0.014051  -0.004657  -1.960207  -0.063966   0.021805   9.303864
    13  O    0.001773  -0.000630   0.002982   0.000399  -0.000621   0.014739
    14  C   -0.082969  -0.060923  -0.929726  -0.010506  -0.001831  -0.769422
    15  O    0.008706   0.007744  -0.014506   0.000038   0.000001  -0.015335
    16  C    0.024206   0.019371  -0.123791  -0.000937  -0.000160  -0.181308
    17  C   -0.002800   0.000641  -0.049276  -0.000542  -0.000001  -0.104957
    18  O    0.000100  -0.000050  -0.002364  -0.000050  -0.000010   0.004059
    19  H   -0.000033   0.000000  -0.000065  -0.000004  -0.000001  -0.003095
    20  C    0.002623   0.000396  -0.002182  -0.000015   0.000010  -0.014092
    21  O   -0.000004   0.000000   0.000329   0.000000   0.000000   0.000054
    22  H    0.000000   0.000000  -0.000007   0.000000   0.000000   0.000006
    23  C    0.020650  -0.001031  -0.002491  -0.000009   0.000000  -0.007488
    24  O   -0.041389   0.018393   0.000261   0.000000   0.000000   0.004480
    25  H    0.002378  -0.003356  -0.000013   0.000000   0.000000  -0.000259
    26  C   -0.023263  -0.005128   0.000417  -0.000027  -0.000004  -0.001433
    27  O    0.000052  -0.000044  -0.000002   0.000000   0.000000  -0.000064
    28  C   -0.000316   0.000050   0.000197   0.000009   0.000000   0.003038
    29  O   -0.000004   0.000000  -0.000014   0.000000   0.000000   0.000009
    30  H    0.000000   0.000000   0.000000   0.000000   0.000000  -0.000002
    31  H    0.000001   0.000000   0.020379   0.001892  -0.000097  -0.062567
    32  H    0.000006   0.000000   0.607118  -0.058059   0.002339  -0.251219
    33  H   -0.000010   0.000000   0.430477  -0.009710  -0.014550  -0.046567
    34  H    0.000158   0.000001   0.030155  -0.000633  -0.000318   0.116532
    35  H    0.000639   0.000002  -0.062315  -0.001801  -0.000004  -0.051662
    36  H    0.005635  -0.000157   0.008589  -0.000456   0.000000   0.045366
    37  H   -0.030875  -0.006166   0.022018   0.000017   0.000000   0.086242
    38  H    0.001173  -0.000086   0.026346   0.000100   0.000000   0.091264
    39  H   -0.000542   0.000249   0.000002   0.000000   0.000000   0.000160
    40  H    0.001150  -0.000141  -0.000012   0.000000   0.000000  -0.000295
    41  H   -0.000012  -0.000012   0.000096   0.000000   0.000000   0.000760
    42  H   -0.001407  -0.000096  -0.000096   0.000000   0.000000  -0.002026
    43  H   -0.000003   0.000000  -0.000398   0.000000   0.000000  -0.002401
    44  H    0.000006   0.000000  -0.000122   0.000000   0.000000  -0.000114
    45  H    0.000001   0.000000   0.000002   0.000000   0.000000   0.000060
             13         14         15         16         17         18
     1  O    0.002249   0.004526  -0.000278   0.001185   0.000123   0.000012
     2  C   -0.042353   0.543650  -0.003910   0.100502  -0.037462   0.008854
     3  C   -0.085537  -0.033150   0.010767  -0.070739   0.029453  -0.000951
     4  O   -0.001847   0.013605   0.000386  -0.004109   0.000361  -0.000008
     5  H   -0.000056   0.012715  -0.000036   0.000706   0.000015   0.000000
     6  C    0.045172  -1.857282   0.009356  -0.005534  -0.123651   0.005237
     7  O    0.001773  -0.082969   0.008706   0.024206  -0.002800   0.000100
     8  H   -0.000630  -0.060923   0.007744   0.019371   0.000641  -0.000050
     9  C    0.002982  -0.929726  -0.014506  -0.123791  -0.049276  -0.002364
    10  O    0.000399  -0.010506   0.000038  -0.000937  -0.000542  -0.000050
    11  H   -0.000621  -0.001831   0.000001  -0.000160  -0.000001  -0.000010
    12  C    0.014739  -0.769422  -0.015335  -0.181308  -0.104957   0.004059
    13  O    8.219032   0.186599  -0.016236   0.021878   0.014950  -0.029240
    14  C    0.186599   9.326548   0.186075  -0.651051   0.165973  -0.040754
    15  O   -0.016236   0.186075   8.048317   0.224922  -0.014550  -0.006177
    16  C    0.021878  -0.651051   0.224922  10.883930  -1.841953  -0.035205
    17  C    0.014950   0.165973  -0.014550  -1.841953   7.596798   0.217206
    18  O   -0.029240  -0.040754  -0.006177  -0.035205   0.217206   8.146137
    19  H    0.008748  -0.000540   0.009165  -0.076171   0.077537   0.243743
    20  C   -0.017903  -0.151037  -0.012796  -1.090592   0.168781  -0.033029
    21  O   -0.000018   0.004560   0.000188   0.055665  -0.123923   0.006371
    22  H    0.000005  -0.001016  -0.000028  -0.014786   0.025855  -0.000559
    23  C    0.002919  -0.018781  -0.003543   0.351308  -0.255007   0.010481
    24  O   -0.000604   0.091335  -0.028777  -0.004013  -0.000236  -0.000053
    25  H   -0.000003  -0.009892   0.001982  -0.020446  -0.001319   0.000000
    26  C   -0.015377  -0.794747  -0.086549  -2.927030   0.372380   0.023304
    27  O    0.000292   0.013046   0.001745   0.058013  -0.028893   0.000229
    28  C    0.003088   0.010328   0.006776   0.885016  -0.194364  -0.010304
    29  O    0.000027  -0.001027  -0.000060  -0.005373  -0.018229   0.000249
    30  H    0.000000  -0.000045  -0.000003  -0.001729   0.008458  -0.000015
    31  H   -0.000733  -0.004103   0.000000   0.000107  -0.000061   0.000000
    32  H   -0.004819   0.008413  -0.000508  -0.001949   0.000852  -0.000119
    33  H   -0.002953  -0.015507  -0.000301   0.001538   0.000095   0.000066
    34  H   -0.030034   0.154036  -0.002784   0.002857   0.004550  -0.000692
    35  H    0.004769   0.109036  -0.000481  -0.002014   0.001565   0.000001
    36  H    0.003394   0.095913   0.000303  -0.007467   0.002659   0.000057
    37  H    0.008713  -0.058439  -0.012162  -0.034361   0.003308   0.000094
    38  H   -0.030238   0.248405  -0.035283  -0.003203  -0.012307  -0.001993
    39  H    0.000019   0.013564   0.000661   0.008469   0.001365   0.000005
    40  H    0.000084  -0.004829   0.001313   0.083643  -0.002598   0.000060
    41  H   -0.000132   0.038661  -0.001403   0.063282  -0.016159   0.000278
    42  H   -0.002461  -0.031471  -0.025719   0.132414   0.051993  -0.003969
    43  H   -0.000474  -0.016019  -0.003116  -0.102491   0.276264  -0.013725
    44  H    0.000033  -0.012849   0.000398   0.110095  -0.215769   0.008286
    45  H    0.000016   0.001088   0.000300   0.056175  -0.021911   0.000609
             19         20         21         22         23         24
     1  O   -0.000006   0.000065   0.000000   0.000000   0.000050   0.000002
     2  C    0.000923  -0.000823  -0.000034   0.000000   0.008518  -0.001880
     3  C    0.000670  -0.010013   0.000014   0.000001  -0.022655  -0.012220
     4  O    0.000001  -0.000050   0.000000   0.000000  -0.000168  -0.000021
     5  H    0.000000   0.000001   0.000000   0.000000  -0.000013  -0.000001
     6  C   -0.006005   0.053601   0.000074  -0.000038  -0.022255  -0.007109
     7  O   -0.000033   0.002623  -0.000004   0.000000   0.020650  -0.041389
     8  H    0.000000   0.000396   0.000000   0.000000  -0.001031   0.018393
     9  C   -0.000065  -0.002182   0.000329  -0.000007  -0.002491   0.000261
    10  O   -0.000004  -0.000015   0.000000   0.000000  -0.000009   0.000000
    11  H   -0.000001   0.000010   0.000000   0.000000   0.000000   0.000000
    12  C   -0.003095  -0.014092   0.000054   0.000006  -0.007488   0.004480
    13  O    0.008748  -0.017903  -0.000018   0.000005   0.002919  -0.000604
    14  C   -0.000540  -0.151037   0.004560  -0.001016  -0.018781   0.091335
    15  O    0.009165  -0.012796   0.000188  -0.000028  -0.003543  -0.028777
    16  C   -0.076171  -1.090592   0.055665  -0.014786   0.351308  -0.004013
    17  C    0.077537   0.168781  -0.123923   0.025855  -0.255007  -0.000236
    18  O    0.243743  -0.033029   0.006371  -0.000559   0.010481  -0.000053
    19  H    0.405920  -0.002765  -0.000224   0.000015  -0.003124   0.000008
    20  C   -0.002765   6.853752   0.167010  -0.033961   0.080944  -0.007487
    21  O   -0.000224   0.167010   8.217147   0.239015  -0.001317   0.000011
    22  H    0.000015  -0.033961   0.239015   0.427505  -0.000118   0.000000
    23  C   -0.003124   0.080944  -0.001317  -0.000118   6.238727   0.058229
    24  O    0.000008  -0.007487   0.000011   0.000000   0.058229   8.345853
    25  H    0.000000   0.000881   0.000000   0.000000  -0.035509   0.250683
    26  C    0.002925   0.682145  -0.027276   0.009865  -1.028017   0.009083
    27  O    0.000075  -0.109978   0.001790  -0.000295  -0.103639   0.000479
    28  C    0.003671  -0.853526   0.046932  -0.001816  -0.104004   0.006395
    29  O   -0.000002   0.003169  -0.013601   0.018423   0.012349  -0.000028
    30  H    0.000000  -0.028221  -0.000515  -0.002344  -0.000509  -0.000001
    31  H    0.000000   0.000001   0.000000   0.000000   0.000001   0.000000
    32  H    0.000023   0.000016   0.000000   0.000000  -0.000009   0.000000
    33  H    0.000692  -0.000616   0.000003   0.000000  -0.000004   0.000000
    34  H    0.000073   0.000104  -0.000001   0.000000   0.000044   0.000000
    35  H   -0.000001   0.000024   0.000000   0.000000   0.000046   0.000005
    36  H   -0.000001   0.000033   0.000000   0.000000  -0.000043   0.000014
    37  H   -0.000003   0.000597   0.000000   0.000000   0.001520   0.000766
    38  H    0.000227   0.009166   0.000014   0.000000   0.000374   0.000026
    39  H    0.000000  -0.003293  -0.000001   0.000000   0.390447  -0.030525
    40  H    0.000000  -0.000210  -0.000007   0.000000   0.631707  -0.063684
    41  H    0.000023  -0.032856  -0.000112   0.000004   0.075297   0.002444
    42  H    0.000138   0.049398  -0.000414   0.000003  -0.012994   0.000363
    43  H   -0.009744   0.044637   0.000104  -0.000175   0.014841  -0.000030
    44  H   -0.000092   0.322512  -0.026137  -0.003488   0.010113   0.000018
    45  H    0.000010  -0.134254   0.001289   0.000160   0.000155   0.000042
             25         26         27         28         29         30
     1  O    0.000000  -0.000024   0.000000  -0.000001   0.000000   0.000000
     2  C    0.000086  -0.012159  -0.000070   0.000531   0.000010   0.000000
     3  C    0.001756  -0.018876   0.000272   0.001400   0.000012   0.000000
     4  O    0.000002   0.000239   0.000000   0.000005   0.000000   0.000000
     5  H    0.000000   0.000031   0.000000   0.000000   0.000000   0.000000
     6  C    0.002011   0.005861   0.001717  -0.009227  -0.000220   0.000003
     7  O    0.002378  -0.023263   0.000052  -0.000316  -0.000004   0.000000
     8  H   -0.003356  -0.005128  -0.000044   0.000050   0.000000   0.000000
     9  C   -0.000013   0.000417  -0.000002   0.000197  -0.000014   0.000000
    10  O    0.000000  -0.000027   0.000000   0.000009   0.000000   0.000000
    11  H    0.000000  -0.000004   0.000000   0.000000   0.000000   0.000000
    12  C   -0.000259  -0.001433  -0.000064   0.003038   0.000009  -0.000002
    13  O   -0.000003  -0.015377   0.000292   0.003088   0.000027   0.000000
    14  C   -0.009892  -0.794747   0.013046   0.010328  -0.001027  -0.000045
    15  O    0.001982  -0.086549   0.001745   0.006776  -0.000060  -0.000003
    16  C   -0.020446  -2.927030   0.058013   0.885016  -0.005373  -0.001729
    17  C   -0.001319   0.372380  -0.028893  -0.194364  -0.018229   0.008458
    18  O    0.000000   0.023304   0.000229  -0.010304   0.000249  -0.000015
    19  H    0.000000   0.002925   0.000075   0.003671  -0.000002   0.000000
    20  C    0.000881   0.682145  -0.109978  -0.853526   0.003169  -0.028221
    21  O    0.000000  -0.027276   0.001790   0.046932  -0.013601  -0.000515
    22  H    0.000000   0.009865  -0.000295  -0.001816   0.018423  -0.002344
    23  C   -0.035509  -1.028017  -0.103639  -0.104004   0.012349  -0.000509
    24  O    0.250683   0.009083   0.000479   0.006395  -0.000028  -0.000001
    25  H    0.407505   0.052802  -0.000692  -0.001106  -0.000003   0.000000
    26  C    0.052802  10.670686   0.107364  -0.867508  -0.030753  -0.000374
    27  O   -0.000692   0.107364   8.181544   0.222096  -0.062164   0.003424
    28  C   -0.001106  -0.867508   0.222096   5.963064   0.254409   0.010933
    29  O   -0.000003  -0.030753  -0.062164   0.254409   8.144273   0.263054
    30  H    0.000000  -0.000374   0.003424   0.010933   0.263054   0.422925
    31  H    0.000000  -0.000004   0.000000   0.000000   0.000000   0.000000
    32  H    0.000000  -0.000108   0.000000   0.000004   0.000000   0.000000
    33  H    0.000000   0.000187   0.000000   0.000007   0.000000   0.000000
    34  H    0.000000   0.000251   0.000001  -0.000004   0.000000   0.000000
    35  H    0.000000  -0.000302   0.000000  -0.000005   0.000000   0.000000
    36  H    0.000000  -0.000767   0.000000  -0.000012   0.000000   0.000000
    37  H   -0.000011  -0.008110   0.000000  -0.000019   0.000000   0.000000
    38  H    0.000005   0.019239   0.000223  -0.000569  -0.000002   0.000000
    39  H   -0.008172  -0.044270  -0.005139   0.004040  -0.000078  -0.000001
    40  H   -0.001699  -0.341318   0.002670   0.003697  -0.000203   0.000001
    41  H   -0.000175   0.091358  -0.030108   0.060492  -0.001342   0.000026
    42  H   -0.000010   0.090139   0.005465  -0.002072  -0.000661   0.000004
    43  H    0.000000   0.077672   0.002599  -0.030246   0.000239   0.000008
    44  H    0.000000  -0.005879   0.002806   0.059234  -0.000674   0.000002
    45  H    0.000000  -0.021276  -0.046569   0.459456  -0.022044  -0.009572
             31         32         33         34         35         36
     1  O    0.268747   0.001133  -0.000457   0.004770  -0.023778  -0.003401
     2  C    0.065252   0.006241  -0.014411   0.069522   0.350960   0.004289
     3  C   -0.032533  -0.005414   0.001517  -0.071108  -0.043755   0.350022
     4  O    0.002567  -0.000051   0.000006   0.000633  -0.000263  -0.033721
     5  H   -0.003131  -0.000002   0.000001   0.000005   0.000395   0.000521
     6  C    0.005409   0.004370   0.002344  -0.030163  -0.029049  -0.243163
     7  O    0.000001   0.000006  -0.000010   0.000158   0.000639   0.005635
     8  H    0.000000   0.000000   0.000000   0.000001   0.000002  -0.000157
     9  C    0.020379   0.607118   0.430477   0.030155  -0.062315   0.008589
    10  O    0.001892  -0.058059  -0.009710  -0.000633  -0.001801  -0.000456
    11  H   -0.000097   0.002339  -0.014550  -0.000318  -0.000004   0.000000
    12  C   -0.062567  -0.251219  -0.046567   0.116532  -0.051662   0.045366
    13  O   -0.000733  -0.004819  -0.002953  -0.030034   0.004769   0.003394
    14  C   -0.004103   0.008413  -0.015507   0.154036   0.109036   0.095913
    15  O    0.000000  -0.000508  -0.000301  -0.002784  -0.000481   0.000303
    16  C    0.000107  -0.001949   0.001538   0.002857  -0.002014  -0.007467
    17  C   -0.000061   0.000852   0.000095   0.004550   0.001565   0.002659
    18  O    0.000000  -0.000119   0.000066  -0.000692   0.000001   0.000057
    19  H    0.000000   0.000023   0.000692   0.000073  -0.000001  -0.000001
    20  C    0.000001   0.000016  -0.000616   0.000104   0.000024   0.000033
    21  O    0.000000   0.000000   0.000003  -0.000001   0.000000   0.000000
    22  H    0.000000   0.000000   0.000000   0.000000   0.000000   0.000000
    23  C    0.000001  -0.000009  -0.000004   0.000044   0.000046  -0.000043
    24  O    0.000000   0.000000   0.000000   0.000000   0.000005   0.000014
    25  H    0.000000   0.000000   0.000000   0.000000   0.000000   0.000000
    26  C   -0.000004  -0.000108   0.000187   0.000251  -0.000302  -0.000767
    27  O    0.000000   0.000000   0.000000   0.000001   0.000000   0.000000
    28  C    0.000000   0.000004   0.000007  -0.000004  -0.000005  -0.000012
    29  O    0.000000   0.000000   0.000000   0.000000   0.000000   0.000000
    30  H    0.000000   0.000000   0.000000   0.000000   0.000000   0.000000
    31  H    0.404340  -0.000262   0.000030  -0.000153  -0.012241  -0.000151
    32  H   -0.000262   0.587072  -0.045280   0.006285   0.003069  -0.000006
    33  H    0.000030  -0.045280   0.576033  -0.004527  -0.000015   0.000005
    34  H   -0.000153   0.006285  -0.004527   0.625079   0.006838   0.002530
    35  H   -0.012241   0.003069  -0.000015   0.006838   0.619039   0.006510
    36  H   -0.000151  -0.000006   0.000005   0.002530   0.006510   0.639284
    37  H    0.000009  -0.000016   0.000001  -0.000061   0.002563   0.007776
    38  H    0.000002  -0.000010  -0.000020   0.002497  -0.000027   0.002539
    39  H    0.000000   0.000000   0.000000   0.000000   0.000000   0.000000
    40  H    0.000000   0.000000   0.000000   0.000000   0.000000   0.000000
    41  H    0.000000   0.000000   0.000000   0.000000   0.000000   0.000000
    42  H    0.000000   0.000000   0.000000  -0.000006   0.000000  -0.000001
    43  H    0.000000   0.000000   0.000000   0.000000   0.000000   0.000000
    44  H    0.000000   0.000000   0.000000   0.000000   0.000000   0.000000
    45  H    0.000000   0.000000   0.000000   0.000000   0.000000   0.000000
             37         38         39         40         41         42
     1  O    0.000130   0.000048   0.000000   0.000000   0.000000   0.000000
     2  C    0.010533  -0.010239  -0.000022   0.000105  -0.000124  -0.002606
     3  C   -0.117376  -0.038144  -0.000044   0.000050   0.000455   0.004420
     4  O    0.002908  -0.000055   0.000000   0.000000   0.000000   0.000004
     5  H   -0.000214  -0.000003   0.000000   0.000000   0.000000   0.000000
     6  C    0.371574   0.005582  -0.000593  -0.005162  -0.003958   0.006579
     7  O   -0.030875   0.001173  -0.000542   0.001150  -0.000012  -0.001407
     8  H   -0.006166  -0.000086   0.000249  -0.000141  -0.000012  -0.000096
     9  C    0.022018   0.026346   0.000002  -0.000012   0.000096  -0.000096
    10  O    0.000017   0.000100   0.000000   0.000000   0.000000   0.000000
    11  H    0.000000   0.000000   0.000000   0.000000   0.000000   0.000000
    12  C    0.086242   0.091264   0.000160  -0.000295   0.000760  -0.002026
    13  O    0.008713  -0.030238   0.000019   0.000084  -0.000132  -0.002461
    14  C   -0.058439   0.248405   0.013564  -0.004829   0.038661  -0.031471
    15  O   -0.012162  -0.035283   0.000661   0.001313  -0.001403  -0.025719
    16  C   -0.034361  -0.003203   0.008469   0.083643   0.063282   0.132414
    17  C    0.003308  -0.012307   0.001365  -0.002598  -0.016159   0.051993
    18  O    0.000094  -0.001993   0.000005   0.000060   0.000278  -0.003969
    19  H   -0.000003   0.000227   0.000000   0.000000   0.000023   0.000138
    20  C    0.000597   0.009166  -0.003293  -0.000210  -0.032856   0.049398
    21  O    0.000000   0.000014  -0.000001  -0.000007  -0.000112  -0.000414
    22  H    0.000000   0.000000   0.000000   0.000000   0.000004   0.000003
    23  C    0.001520   0.000374   0.390447   0.631707   0.075297  -0.012994
    24  O    0.000766   0.000026  -0.030525  -0.063684   0.002444   0.000363
    25  H   -0.000011   0.000005  -0.008172  -0.001699  -0.000175  -0.000010
    26  C   -0.008110   0.019239  -0.044270  -0.341318   0.091358   0.090139
    27  O    0.000000   0.000223  -0.005139   0.002670  -0.030108   0.005465
    28  C   -0.000019  -0.000569   0.004040   0.003697   0.060492  -0.002072
    29  O    0.000000  -0.000002  -0.000078  -0.000203  -0.001342  -0.000661
    30  H    0.000000   0.000000  -0.000001   0.000001   0.000026   0.000004
    31  H    0.000009   0.000002   0.000000   0.000000   0.000000   0.000000
    32  H   -0.000016  -0.000010   0.000000   0.000000   0.000000   0.000000
    33  H    0.000001  -0.000020   0.000000   0.000000   0.000000   0.000000
    34  H   -0.000061   0.002497   0.000000   0.000000   0.000000  -0.000006
    35  H    0.002563  -0.000027   0.000000   0.000000   0.000000   0.000000
    36  H    0.007776   0.002539   0.000000   0.000000   0.000000  -0.000001
    37  H    0.620091   0.005393   0.000001   0.000000   0.000000  -0.000004
    38  H    0.005393   0.582578  -0.000001   0.000012   0.000000   0.005940
    39  H    0.000001  -0.000001   0.579133  -0.042874  -0.006288   0.000003
    40  H    0.000000   0.000012  -0.042874   0.574145   0.006162   0.002233
    41  H    0.000000   0.000000  -0.006288   0.006162   0.619195   0.005979
    42  H   -0.000004   0.005940   0.000003   0.002233   0.005979   0.606613
    43  H   -0.000003  -0.000017   0.000004  -0.000012   0.001972   0.005753
    44  H    0.000000  -0.000009   0.000001  -0.000024  -0.000064   0.002046
    45  H    0.000000   0.000000  -0.000012  -0.000018   0.002993  -0.000042
             43         44         45
     1  O    0.000000   0.000000   0.000000
     2  C    0.000281   0.000160   0.000004
     3  C    0.000305   0.000020   0.000007
     4  O    0.000000   0.000000   0.000000
     5  H    0.000000   0.000000   0.000000
     6  C    0.008525   0.001807  -0.000035
     7  O   -0.000003   0.000006   0.000001
     8  H    0.000000   0.000000   0.000000
     9  C   -0.000398  -0.000122   0.000002
    10  O    0.000000   0.000000   0.000000
    11  H    0.000000   0.000000   0.000000
    12  C   -0.002401  -0.000114   0.000060
    13  O   -0.000474   0.000033   0.000016
    14  C   -0.016019  -0.012849   0.001088
    15  O   -0.003116   0.000398   0.000300
    16  C   -0.102491   0.110095   0.056175
    17  C    0.276264  -0.215769  -0.021911
    18  O   -0.013725   0.008286   0.000609
    19  H   -0.009744  -0.000092   0.000010
    20  C    0.044637   0.322512  -0.134254
    21  O    0.000104  -0.026137   0.001289
    22  H   -0.000175  -0.003488   0.000160
    23  C    0.014841   0.010113   0.000155
    24  O   -0.000030   0.000018   0.000042
    25  H    0.000000   0.000000   0.000000
    26  C    0.077672  -0.005879  -0.021276
[...]
 2,-0.00007579,0.00002908,0.00001831,0.00018912,0.00000190,-0.00002325,
 0.00048339,-0.00055201,-0.00430105,-0.01268580,-0.00383232,0.00993419,
 -0.35131214,-0.02628456,-0.01926864,-0.01511536,-0.00121308,-0.0038507
 1,0.00202564,-0.00053999,0.00071011,-0.00000832,-0.00020585,-0.0000830
 6,-0.00098759,-0.00044215,0.00096364,0.00059811,-0.00009720,0.00016055
 ,0.00001342,0.00006496,-0.00008551,0.00028317,0.00036102,0.00038791,0.
 00015390,0.,-0.00007887,0.00002011,-0.00003879,-0.00000953,-0.00867997
 ,-0.00032670,-0.00109666,0.00182259,0.00083200,-0.00015017,-0.00017151
 ,-0.00002862,-0.00022909,0.00004266,0.00001051,-0.00006641,0.00001106,
 -0.00000370,-0.00001695,0.,-0.00000413,-0.00000542,0.00000573,0.000005
 06,-0.00000878,-0.00000584,0.00000379,0.00000082,0.00001955,0.00001450
 ,0.00002844,0.00000607,0.00000220,-0.00000879,0.00001261,0.00000646,0.
 00001710,-0.00000922,0.00018120,-0.00026443,0.00126540,0.00052345,0.00
 083896,0.00023878,0.00004670,-0.00001280,0.00043967,-0.00053619,-0.000
 06821,0.00047939,-0.00058434,-0.00052725,0.37938675,0.00001726,-0.0000
 2119,0.00004476,-0.00001759,0.00003899,-0.00004482,0.00003926,0.000019
 26,-0.00003194,0.00000976,-0.00003627,0.00001640,-0.00000608,0.0000092
 4,-0.00000340,-0.00023392,0.00020923,0.00003810,0.00023181,-0.00010144
 ,-0.00033032,-0.00017919,-0.00006138,0.00013071,0.00001736,-0.00004008
 ,-0.00000428,-0.00000382,0.00003252,0.00003245,0.00000342,-0.00000479,
 -0.00000175,-0.00001761,0.00001556,-0.00009928,0.00011306,0.00008051,0
 .00024600,-0.00019600,0.00082810,-0.00175612,-0.01197933,-0.00045952,0
 .00515547,-0.02531065,-0.04625035,-0.00312384,0.03299799,0.00074062,0.
 00443780,-0.00221132,0.00288264,0.00017128,0.00009985,0.00011112,0.000
 10299,0.00145887,0.00104006,-0.00101234,-0.00051527,-0.00011902,-0.000
 10158,-0.00007302,-0.00000233,0.00001713,-0.00141367,0.00139272,0.0008
 4232,0.00022679,-0.00004453,-0.00010333,-0.00000348,-0.00006304,0.0000
 1477,-0.02730673,-0.00314654,-0.00381870,0.00170037,0.00139026,0.00216
 158,0.00018575,-0.00033933,0.00003470,-0.00003977,0.00009154,0.0000322
 8,-0.00001223,0.00001795,-0.00000751,0.00000159,-0.00000064,-0.0000084
 2,-0.00000824,0.00000210,0.00000678,0.00000993,-0.00000606,-0.00000284
 ,-0.00000561,0.00000837,0.00001152,0.00000055,-0.00000693,0.00000191,-
 0.00000210,0.00000873,0.00001219,0.00005614,-0.00000220,-0.00005083,0.
 00028460,0.00030094,-0.00001872,0.00039904,0.00032201,0.00005409,0.000
 81684,-0.00044671,-0.00011251,-0.00098844,-0.00269398,-0.00344085,0.03
 036182,0.04940195,-0.00001421,-0.00000461,-0.00004759,0.00000373,-0.00
 001315,0.00003655,-0.00000648,0.00005171,0.00001731,-0.00002358,0.0000
 0040,-0.00002010,0.00000054,-0.00000072,0.00000071,0.00017124,0.000056
 12,-0.00036041,-0.00023978,-0.00002149,0.00013330,0.00014217,-0.000129
 15,-0.00000588,-0.00004625,0.00004328,-0.00001698,-0.00000410,-0.00004
 732,-0.00002465,0.00000394,0.00000055,-0.00000772,0.00000275,-0.000089
 05,-0.00003777,-0.00085852,-0.00073494,-0.00042813,0.00742678,0.002383
 14,0.00292941,0.03555098,0.00770385,-0.01850433,-0.02555574,-0.0036508
 5,-0.04146768,-0.00971169,-0.00187848,0.00037236,0.00104209,0.00010427
 ,0.00051821,0.00005921,0.00007848,-0.00021170,-0.00125023,0.00022944,0
 .00008917,0.00036969,-0.00011433,0.00004356,-0.00003055,-0.00001883,-0
 .00002325,-0.00014754,0.00111770,0.00066109,0.00010040,-0.00007592,0.0
 0004938,-0.00001597,0.00001160,0.00005315,-0.02364473,-0.00272397,-0.0
 0219406,0.00070137,0.00054461,0.00203299,-0.00043385,0.00008286,-0.000
 29227,0.00008650,0.00004659,-0.00012974,0.00001871,0.00000791,0.000007
 38,-0.00000135,0.00000465,0.00000468,-0.00000089,0.00000332,0.00000534
 ,0.00000040,-0.00000786,-0.00000090,-0.00003217,-0.00004739,-0.0000899
 8,-0.00000958,0.00000435,0.00001419,-0.00004820,-0.00002331,-0.0000590
 7,-0.00024876,-0.00014456,0.00007571,-0.00108134,-0.00047069,-0.000886
 62,0.00014854,0.00021266,0.00000476,0.00055959,-0.00019604,0.00012475,
 -0.00080526,-0.00272475,-0.00312524,0.01801425,-0.00174733,0.06112212,
 -0.00000108,0.00001417,-0.00003502,-0.00000778,-0.00001509,0.00002953,
 -0.00000537,-0.00003775,0.00002991,0.00000431,0.00003578,-0.00002408,-
 0.00000202,-0.00000956,0.00000612,0.00008420,-0.00001590,0.00003841,0.
 00003851,0.00009688,0.00001393,-0.00006495,-0.00005799,-0.00006057,-0.
 00001914,-0.00002211,0.00005958,0.00001370,-0.00000724,-0.00004711,-0.
 00001011,0.00000742,0.00001695,0.00000257,-0.00000569,0.00006732,-0.00
 001024,0.00016568,-0.00013839,0.00003449,-0.00028939,-0.00007199,0.001
 95111,-0.00038428,-0.00009507,-0.01663296,-0.00065041,0.00082978,-0.35
 019386,-0.02506950,-0.02053386,-0.00156879,-0.00542244,-0.00603600,0.0
 0137487,-0.00103825,0.00002991,-0.01479394,0.00000548,0.00015920,0.001
 70982,-0.00034339,0.00011393,0.00011040,0.00000779,-0.00007254,0.00064
 188,0.00032033,0.00012018,0.00004061,-0.00005376,0.00008331,-0.0000089
 6,0.00000262,-0.00000511,-0.00111437,-0.00148484,-0.00086663,0.0005098
 8,0.00043380,0.00010116,-0.00111638,-0.00110342,-0.00096014,0.00052310
 ,0.00012153,0.00018886,-0.00003841,0.00001941,0.00012057,-0.00000460,-
 0.00000539,0.00000925,0.00001253,0.00000798,-0.00002129,-0.00001444,0.
 00002950,0.00000315,0.00002207,-0.00000334,0.00001783,0.00000756,0.000
 00523,-0.00001037,0.00001214,0.00000344,0.00000157,0.00000313,0.000025
 82,-0.00003821,0.00013335,0.00002358,0.00017914,-0.00002579,0.00013759
 ,0.00000825,0.00016754,-0.00032867,-0.00002191,0.00138797,0.00041523,0
 .00061330,-0.00017508,0.00219183,-0.00059428,0.37639543,-0.00001606,0.
 00002787,-0.00005519,0.00000701,-0.00004516,0.00003567,0.00001103,0.00
 000065,-0.00000457,-0.00001497,0.00003580,-0.00002062,0.00000499,-0.00
 001317,0.00000358,-0.00002505,-0.00011743,-0.00009927,-0.00007009,0.00
 005669,0.00011827,0.00003722,0.00001852,-0.00007617,0.00000019,-0.0000
 2496,0.00009645,0.00000646,-0.00001752,-0.00007254,-0.00001243,0.00001
 343,0.00002329,0.00000443,0.00007248,0.00010820,-0.00010124,0.00039781
 ,-0.00010913,0.00016902,-0.00005024,-0.00017733,-0.00180686,0.00178905
 ,-0.00144341,0.03152228,-0.00082364,0.00118660,-0.02435860,-0.04259690
 ,0.00069151,-0.02938098,-0.01325590,-0.01420260,-0.00091467,0.00048388
 ,0.00157824,-0.01030800,0.00013120,0.00081504,0.00033261,0.00068354,-0
 .00120856,0.00013917,0.00008953,-0.00009179,0.00006135,0.00003599,-0.0
 0001884,-0.00004702,-0.00001909,0.00005593,0.00000169,0.00002055,-0.00
 000725,0.00238645,0.00153775,0.00113886,-0.00030215,-0.00023444,-0.000
 22413,0.00034312,-0.00023554,-0.00028111,0.00010783,-0.00008622,0.0001
 6085,-0.00000383,0.00006725,0.00005419,-0.00000309,-0.00000420,0.00001
 236,0.00000964,0.00001531,-0.00002732,-0.00003220,0.00004618,0.0000047
 5,0.00002202,-0.00002036,0.00001692,0.00000113,0.00000668,-0.00000589,
 0.00000021,-0.00000135,-0.00000165,-0.00001652,-0.00000537,0.00001727,
 -0.00013686,-0.00010306,-0.00003721,-0.00008417,-0.00006000,0.00001701
 ,-0.00023250,0.00001849,-0.00000947,-0.00057427,-0.00073479,-0.0003650
 1,0.00190911,-0.00479628,0.00173138,0.03199858,0.05739068,-0.00000006,
 0.00001813,-0.00002359,-0.00000667,-0.00002399,0.00001982,0.00000396,-
 0.00004054,0.00001274,0.00000167,0.00002640,-0.00000098,0.00000063,-0.
 00000976,0.00000486,0.00002515,0.00001860,0.00006666,0.00002499,0.0000
 4038,-0.00000630,-0.00003515,-0.00000888,-0.00000141,-0.00002034,-0.00
 003779,0.00006565,0.00002377,0.00000696,-0.00003781,-0.00001141,0.0000
 0522,0.00002055,-0.00003240,0.00000762,0.00004685,0.00009301,0.0002664
 6,-0.00019872,-0.00024110,-0.00048164,-0.00034398,0.00053236,-0.001158
 12,0.00165203,-0.01341611,0.00213120,0.00043838,-0.01848179,0.00211297
 ,-0.04481808,-0.02529111,-0.01503734,-0.01078154,-0.00232263,-0.000832
 35,0.00167730,0.03412520,0.00274350,0.00137566,-0.00213188,-0.00075552
 ,0.00202523,-0.00009117,-0.00032079,0.00024991,0.00015384,0.00013194,0
 .00002777,0.00001301,-0.00002262,0.00001757,0.00000219,-0.00000807,-0.
 00000464,0.00077306,-0.00112350,-0.00039556,-0.00011867,-0.00034860,-0
 .00020510,0.00112280,0.00092031,0.00155650,-0.00050587,0.00000460,-0.0
 0014464,-0.00004598,-0.00009804,-0.00008065,-0.00000373,-0.00000554,0.
 00000572,0.00001647,0.00001378,-0.00003244,-0.00002888,0.00002855,0.00
 000405,0.00003463,-0.00000684,0.00002629,0.00000647,0.00000755,-0.0000
 1263,0.00000944,0.00000190,0.00000360,0.00000967,0.00002993,-0.0000263
 5,0.00016897,0.00002685,0.00000481,0.00001917,0.00007721,-0.00000172,0
 .00004747,-0.00009416,-0.00003636,0.00036429,-0.00028427,0.00038236,-0
 .00073658,0.00180262,-0.00030113,0.02408233,0.00922564,0.05356509,0.00
 000077,-0.00000586,-0.00002669,-0.00000194,0.00000221,0.00001780,-0.00
 000692,-0.00001928,0.00002918,0.00000569,0.00001296,-0.00002535,-0.000
 00253,-0.00000076,0.00000537,0.00003190,-0.00000053,0.00002989,0.00001
 873,0.00002269,-0.00001819,-0.00001711,-0.00001981,-0.00000041,-0.0000
 1556,0.00001282,0.00000819,0.00001405,-0.00001259,-0.00001394,-0.00000
 794,0.00000356,0.00000373,-0.00000863,0.00000808,0.00003816,0.00004556
 ,-0.00002364,-0.00008223,-0.00014650,-0.00004726,0.00015368,0.00070676
 ,0.00009673,0.00002903,-0.00089097,0.00124456,-0.00063580,-0.01656031,
 -0.00559398,-0.00042323,0.00164527,0.00052892,-0.00072715,0.00036293,0
 .00006117,-0.00024043,-0.34320220,-0.04970853,-0.03333479,-0.01154180,
 0.01117638,-0.00925634,-0.00010134,0.00053535,0.00042533,-0.00004794,-
 0.00001144,-0.00001331,0.00004024,0.00003322,-0.00001091,-0.00001230,-
 0.00000875,-0.00000102,-0.00008235,-0.00013095,-0.00016732,0.00137961,
 -0.00088569,0.00050965,-0.00672026,-0.00081201,-0.00019298,0.00152295,
 0.00003106,0.00030600,0.00026823,0.00034056,0.00037424,-0.00000326,0.0
 0000138,0.00000515,0.00000770,0.00000172,-0.00000818,-0.00000851,0.000
 00131,0.00000187,0.00000958,0.00000051,0.00000364,0.00000428,0.0000025
 1,-0.00000545,0.00000776,0.00000206,-0.00000031,0.00000485,0.00001107,
 -0.00001116,0.00004254,-0.00000526,0.00003117,0.00001432,-0.00000243,0
 .00001536,0.00003904,-0.00004656,0.00000136,0.00008097,0.00018331,0.00
 006248,0.00108511,-0.00059878,0.00021146,0.00000710,-0.00078989,0.0022
 9190,0.37143879,0.00000354,-0.00000610,0.00000728,-0.00000292,0.000006
 95,-0.00000497,-0.00000363,0.00000404,0.00000050,0.00000419,-0.0000070
 4,0.00000052,-0.00000158,0.00000336,-0.00000102,-0.00000481,0.00001136
 ,0.00000299,0.00001719,-0.00000608,-0.00001330,-0.00001398,-0.00000668
 ,-0.00000127,-0.00000148,0.00000558,-0.00001290,-0.00000215,0.00000064
 ,0.00001275,0.00000443,-0.00000222,-0.00000606,0.00000299,-0.00000405,
 -0.00000928,0.00003584,-0.00005080,0.00001040,-0.00004556,0.00007229,0
 .00001750,0.00022100,-0.00007204,-0.00008612,-0.00130954,0.00013063,0.
 00018099,-0.00754766,-0.00003403,-0.00046689,0.00096296,0.00045971,0.0
 0025704,0.00000506,-0.00011028,-0.00011103,-0.05046429,-0.04560667,-0.
 00935437,0.03924353,-0.01183186,0.01496673,0.00084399,0.00081136,-0.00
 072038,-0.00007647,0.00001187,-0.00001115,0.00002947,-0.00001641,-0.00
 000787,-0.00000776,-0.00000279,0.00000390,-0.00018312,-0.00029343,0.00
 005673,0.00132762,0.00193216,0.00059277,-0.02890826,-0.00529884,-0.005
 06697,0.00138217,0.00141239,0.00229128,0.00000551,0.00005392,0.0004281
 9,0.00000017,0.00000142,-0.00000259,-0.00000073,-0.00000256,0.00000250
 ,0.00000477,-0.00000656,-0.00000011,-0.00000213,0.00000452,-0.00000106
 ,0.00000060,-0.00000107,0.00000017,0.00000028,0.00000081,0.00000108,0.
 00000315,0.00000228,-0.00000450,0.00001592,0.00001096,0.00001818,0.000
 01083,-0.00001213,-0.00000638,0.00004159,-0.00005692,0.00001356,0.0001
 6232,0.00013852,-0.00001224,0.00017114,-0.00014724,0.00044857,-0.00020
 222,0.00008382,0.00138199,0.04450451,0.06157409,-0.00000107,-0.0000093
 2,-0.00000298,-0.00000168,0.00000707,0.00000034,0.00001007,0.00002194,
 0.00000277,-0.00000244,-0.00000913,-0.00000984,-0.00000054,0.00000468,
 -0.00000131,-0.00002971,-0.00001841,-0.00002526,-0.00001091,-0.0000097
 0,-0.00001196,0.00001233,-0.00000368,0.00001239,0.00000325,0.00001768,
 -0.00001427,-0.00000791,-0.00001099,0.00000669,0.00000438,-0.00000062,
 -0.00000775,0.00002340,0.00001002,0.00000628,0.00000657,-0.00011032,0.
 00001069,0.00009182,0.00018410,0.00013706,-0.00061193,-0.00011473,-0.0
 0034830,0.00140833,-0.00099693,0.00110586,0.03339339,0.00746853,0.0002
 8693,-0.00196183,0.00008330,0.00273674,-0.00011391,0.00031624,0.000551
 89,-0.03128791,-0.00904010,-0.04666434,-0.01729091,0.00967212,-0.00373
 760,-0.00117834,0.00005203,0.00024608,0.00002894,-0.00000880,0.0000894
 3,-0.00000470,-0.00000194,-0.00000831,-0.00000659,-0.00000396,0.000003
 89,0.00030151,0.00011268,-0.00046846,0.00144559,0.00075142,0.00090310,
 -0.02577821,-0.00754340,-0.00523081,0.00037314,0.00108645,0.00252523,-
 0.00008642,0.00025991,0.00042710,0.00000013,0.00000287,-0.00000139,-0.
 00000433,-0.00000286,0.00000695,0.00000566,-0.00000799,-0.00000004,-0.
 00001263,0.00000022,-0.00000927,-0.00000202,-0.00000261,0.00000374,-0.
 00000551,-0.00000057,-0.00000167,0.00000031,-0.00000971,0.00001129,-0.
 00004278,0.00000050,-0.00005234,-0.00001109,0.00002731,0.00000794,-0.0
 0001565,0.00001434,0.00000815,-0.00012696,-0.00005393,-0.00013780,-0.0
 0046681,0.00043782,-0.00019232,0.00206297,0.00141513,-0.00538299,0.040
 65146,-0.00130755,0.05622235,0.00000197,-0.00000999,-0.00002208,-0.000
 00792,0.00000691,0.00001268,0.00000341,-0.00000330,0.00002144,0.000004
 68,0.00000364,-0.00002482,-0.00000330,0.00000196,0.00000386,-0.0000262
 0,0.00001357,0.00001172,0.00001149,-0.00002221,-0.00005931,0.00000883,
 0.00000820,0.00006422,-0.00001320,0.00001302,0.00000238,0.00000723,-0.
 00001292,-0.00000838,-0.00000377,0.00000191,0.00000036,0.00000945,0.00
 000587,0.00002632,0.00003164,-0.00005884,-0.00006912,0.00002044,0.0000
 6939,0.00011170,0.00000963,-0.00008462,-0.00027990,0.00012393,0.000436
 58,0.00016622,-0.00047155,-0.00054905,0.00028242,0.00042863,0.00001567
 ,-0.00000536,-0.00005254,-0.00000664,-0.00013766,-0.00564876,0.0017533
 9,-0.00284157,0.00215474,-0.00008982,0.00171606,-0.00060013,-0.0001920
 8,-0.00002645,0.00051918,-0.00015352,-0.00009629,-0.00000494,0.0002695
 0,-0.00016091,0.00000011,-0.00001223,-0.00003274,-0.00032952,-0.000507
 06,0.00087903,-0.00651506,0.01090039,-0.00587690,-0.32636427,-0.028309
 67,-0.08579491,-0.01973921,-0.00425872,0.00528611,0.00027255,0.0002368
 6,0.00026152,-0.00000331,0.00000174,0.00000337,0.00000454,0.00000095,-
 0.00000411,-0.00000327,-0.00000157,0.00000161,0.00000140,0.00000021,-0
 .00000136,0.00000300,0.00000071,-0.00000275,0.00000287,0.00000124,-0.0
 0000034,0.00000609,-0.00000033,-0.00000120,0.00000439,-0.00000155,-0.0
 0000231,-0.00002238,-0.00001208,-0.00000262,0.00011876,-0.00026536,0.0
 0009167,0.00052495,0.00040095,-0.00106657,0.00004607,-0.00010106,0.000
 19074,0.00061995,0.00015593,-0.00042494,0.00059364,-0.00022646,-0.0007
 6045,0.35427574,-0.00000069,0.00001583,0.00001113,0.00000493,-0.000015
 91,-0.00000418,-0.00001088,-0.00000083,-0.00001267,-0.00000082,0.00000
 776,0.00001491,0.00000109,-0.00000466,-0.00000259,0.00003374,-0.000051
 52,-0.00002233,-0.00000109,0.00006816,0.00009227,-0.00003216,-0.000039
 53,-0.00012507,0.00000327,-0.00001713,0.00001074,0.00000407,0.00001220
 ,-0.00000283,-0.00000381,-0.00000007,0.00000484,-0.00001741,0.00000487
 ,-0.00000020,-0.00002186,0.00011764,0.00003844,-0.00009201,-0.00008659
 ,-0.00010591,0.00005474,0.00033087,0.00027969,-0.00031666,-0.00075861,
 0.00018599,-0.00098060,-0.00020815,0.00128913,0.00059099,0.00002942,-0
 .00038931,0.00007386,-0.00009018,-0.00006346,-0.02277025,-0.00142167,-
 0.00975812,0.00061128,0.00342950,0.00042943,-0.00057812,-0.00025398,0.
 00009031,0.00035673,0.00019616,-0.00009197,-0.00022603,-0.00036048,0.0
 0030077,-0.00001385,0.00003846,0.00002891,0.00381869,0.00141290,-0.004
 10928,0.03518972,-0.01350569,0.01825782,-0.02820357,-0.04345922,-0.009
 53843,-0.00649761,0.00277527,0.00142211,-0.00040433,0.00060569,-0.0005
 6732,0.00000102,-0.00000276,-0.00000047,0.00000098,0.00000217,-0.00000
 220,-0.00000228,0.00000787,-0.00000039,0.00000562,-0.00000201,0.000002
 90,0.00000052,0.00000150,-0.00000074,0.00000278,0.00000024,0.00000149,
 -0.00000435,0.00000525,-0.00000426,0.00001060,-0.00000329,0.00000897,0
 .00001494,-0.00001750,-0.00002858,-0.00031921,-0.00001296,0.00009411,-
 0.00124387,0.00030500,-0.00002251,-0.00000492,-0.00015455,-0.00000269,
 0.00048096,0.00022247,-0.00033192,-0.00009465,-0.00315691,-0.00267910,
 0.02058051,0.05403493,-0.00000369,-0.00000691,-0.00003734,-0.00000692,
 0.00000260,0.00002360,0.00000991,-0.00000208,0.00003134,-0.00000206,0.
 00001302,-0.00003673,-0.00000122,-0.00000011,0.00000525,-0.00001314,-0
 .00002058,-0.00000534,0.00000044,0.00000981,-0.00003917,0.00000462,-0.
 00000955,0.00004110,-0.00000942,0.00001573,0.00001751,0.00000098,-0.00
 002091,-0.00002394,-0.00000224,0.00000445,0.00000410,0.00001809,0.0000
 1790,0.00005156,0.00001640,-0.00004177,-0.00010247,0.00004580,0.000071
 32,0.00015628,0.00001655,0.00004992,-0.00038128,0.00017047,-0.00024916
 ,-0.00005705,-0.00163765,0.00028852,0.00165299,0.00060944,-0.00011560,
 -0.00014087,0.00005014,-0.00001588,-0.00005539,-0.02572823,-0.00280673
 ,-0.00530380,0.00228271,0.00166845,0.00200890,0.00012157,-0.00042524,-
 0.00002686,-0.00002693,0.00003477,0.00009316,0.00009652,0.00017733,-0.
 00015339,-0.00000507,-0.00002383,-0.00001259,-0.00248468,-0.00050154,0
 .00266054,-0.01114484,0.00868570,-0.00333781,-0.09286454,-0.01303268,-
 0.07482693,0.03838368,0.00441251,-0.00491963,0.00175177,0.00001555,0.0
 0367484,-0.00000303,0.00000084,0.00000649,0.00000394,0.00000070,-0.000
 00502,-0.00000390,0.00000427,0.00000051,-0.00000002,-0.00000134,-0.000
 00139,0.00000218,0.00000096,-0.00000328,0.00000245,0.00000019,-0.00000
 061,0.00000244,0.00000174,-0.00000231,0.00000769,-0.00000693,0.0000034
 3,0.00000080,-0.00000958,-0.00000886,0.00019247,-0.00005519,-0.0000618
 5,0.00075998,0.00000737,-0.00002741,0.00018168,0.00001505,0.00013140,0
 .00064614,0.00003194,-0.00041281,-0.00001088,-0.00348760,-0.00300388,0
 .08856960,0.00530258,0.08242499\\0.00702100,-0.01621319,-0.00526144,-0
 .00724493,0.01123837,-0.00570367,0.01941743,-0.00013778,0.01414457,-0.
 01441611,0.01603253,0.00738378,0.00624625,-0.02101611,-0.01706468,-0.0
 0821019,-0.02621051,0.00110306,-0.00188687,0.01059687,-0.00739552,0.00
 666614,0.00935552,0.01650956,0.00477332,0.00154092,0.00529604,0.001247
 24,0.02696210,-0.00468622,-0.00000801,-0.03382517,0.00280409,0.0142423
 2,0.00154655,-0.00346112,-0.00087699,0.00281972,0.01582962,-0.04532248
 ,0.00241986,-0.00823563,0.01615951,-0.00864040,-0.00812171,-0.00895728
 ,0.01247638,-0.00363936,0.01272108,0.03914950,0.00737190,-0.02930939,-
 0.01077737,0.01592160,0.02664324,0.00762853,-0.01410330,0.00058072,-0.
 00615882,-0.02119001,-0.00172007,-0.00046937,-0.00912496,-0.00681285,-
 0.00519418,0.03100330,0.01303612,-0.03072287,-0.00373811,-0.01057524,-
 0.00956305,0.01992813,-0.00531094,0.03417990,-0.01132257,0.00948918,-0
 .03320970,0.02153722,-0.01521857,0.02050680,0.02189061,0.04211204,-0.0
 1888513,-0.02104699,-0.01095132,0.01154965,0.00834623,-0.00157559,-0.0
 0318890,-0.00329587,-0.00120349,0.00405526,-0.00037427,-0.02018645,-0.
 00273987,0.00461829,-0.00230226,0.00693571,-0.01616364,0.02161233,0.00
 820501,-0.00019794,-0.01951263,-0.00730889,0.00316582,0.02345490,0.008
 03474,-0.00239931,-0.02204707,-0.00297542,0.00002865,0.01599453,0.0075
 9729,-0.00616024,-0.00478755,-0.00727686,-0.01685854,0.01934258,0.0043
 3173,-0.00434562,-0.02068148,0.00048184,-0.00141156,0.01821795,0.00072
 604,0.00002495,-0.02031036,-0.00273618,-0.00050658,0.01973165,0.000609
 20,0.00355666,-0.01928142,-0.00173025,-0.00465522\\\@


 Discoveries are often made by not following instructions,
 by going off the main road, by trying the untried.
 -- Frank Tyger
 Job cpu time:  1 days  7 hours 53 minutes 20.7 seconds.
 File lengths (MBytes):  RWF=   1769 Int=      0 D2E=      0 Chk=     28 Scr=      1
 Normal termination of Gaussian 09 at Mon Mar 21 22:59:10 2016.
Gaussian '09 finished on node028 at Mon Mar 21 22:59:10 EDT 2016.
