Gaussian '09 started on node018 at Mon Mar 21 22:39:51 EDT 2016.
 Entering Gaussian System, Link 0=/usr/local/gaussian/g09/g09
 Initial command:
 /usr/local/gaussian/g09/l1.exe /home/srmcgrat/thesis/gaussian/cellobiose/300K/7000ps/1/2dfp/gaussian2683/Gau-2721.inp -scrdir=/home/srmcgrat/thesis/gaussian/cellobiose/300K/7000ps/1/2dfp/gaussian2683/
 Entering Link 1 = /usr/local/gaussian/g09/l1.exe PID=      2723.
  
 Copyright (c) 1988,1990,1992,1993,1995,1998,2003,2009,2010,
            Gaussian, Inc.  All Rights Reserved.
  
 This is part of the Gaussian(R) 09 program.  It is based on
 the Gaussian(R) 03 system (copyright 2003, Gaussian, Inc.),
 the Gaussian(R) 98 system (copyright 1998, Gaussian, Inc.),
 the Gaussian(R) 94 system (copyright 1995, Gaussian, Inc.),
 the Gaussian 92(TM) system (copyright 1992, Gaussian, Inc.),
 the Gaussian 90(TM) system (copyright 1990, Gaussian, Inc.),
 the Gaussian 88(TM) system (copyright 1988, Gaussian, Inc.),
 the Gaussian 86(TM) system (copyright 1986, Carnegie Mellon
 University), and the Gaussian 82(TM) system (copyright 1983,
 Carnegie Mellon University). Gaussian is a federally registered
 trademark of Gaussian, Inc.
  
 This software contains proprietary and confidential information,
 including trade secrets, belonging to Gaussian, Inc.
  
 This software is provided under written license and may be
 used, copied, transmitted, or stored only in accord with that
 written license.
  
 The following legend is applicable only to US Government
 contracts under FAR:
  
                    RESTRICTED RIGHTS LEGEND
  
 Use, reproduction and disclosure by the US Government is
 subject to restrictions as set forth in subparagraphs (a)
 and (c) of the Commercial Computer Software - Restricted
 Rights clause in FAR 52.227-19.
  
 Gaussian, Inc.
 340 Quinnipiac St., Bldg. 40, Wallingford CT 06492
  
  
 ---------------------------------------------------------------
 Warning -- This program may not be used in any manner that
 competes with the business of Gaussian, Inc. or will provide
 assistance to any competitor of Gaussian, Inc.  The licensee
 of this program is prohibited from giving any competitor of
 Gaussian, Inc. access to this program.  By using this program,
 the user acknowledges that Gaussian, Inc. is engaged in the
 business of creating and licensing software in the field of
 computational chemistry and represents and warrants to the
 licensee that it is not a competitor of Gaussian, Inc. and that
 it will not use this program in any manner prohibited above.
 ---------------------------------------------------------------
  

 Cite this work as:
 Gaussian 09, Revision B.01,
 M. J. Frisch, G. W. Trucks, H. B. Schlegel, G. E. Scuseria, 
 M. A. Robb, J. R. Cheeseman, G. Scalmani, V. Barone, B. Mennucci, 
 G. A. Petersson, H. Nakatsuji, M. Caricato, X. Li, H. P. Hratchian, 
 A. F. Izmaylov, J. Bloino, G. Zheng, J. L. Sonnenberg, M. Hada, 
 M. Ehara, K. Toyota, R. Fukuda, J. Hasegawa, M. Ishida, T. Nakajima, 
 Y. Honda, O. Kitao, H. Nakai, T. Vreven, J. A. Montgomery, Jr., 
 J. E. Peralta, F. Ogliaro, M. Bearpark, J. J. Heyd, E. Brothers, 
 K. N. Kudin, V. N. Staroverov, T. Keith, R. Kobayashi, J. Normand, 
 K. Raghavachari, A. Rendell, J. C. Burant, S. S. Iyengar, J. Tomasi, 
 M. Cossi, N. Rega, J. M. Millam, M. Klene, J. E. Knox, J. B. Cross, 
 V. Bakken, C. Adamo, J. Jaramillo, R. Gomperts, R. E. Stratmann, 
 O. Yazyev, A. J. Austin, R. Cammi, C. Pomelli, J. W. Ochterski, 
 R. L. Martin, K. Morokuma, V. G. Zakrzewski, G. A. Voth, 
 P. Salvador, J. J. Dannenberg, S. Dapprich, A. D. Daniels, 
 O. Farkas, J. B. Foresman, J. V. Ortiz, J. Cioslowski, 
 and D. J. Fox, Gaussian, Inc., Wallingford CT, 2010.
 
 ******************************************
 Gaussian 09:  EM64L-G09RevB.01 12-Aug-2010
                21-Mar-2016 
 ******************************************
 --------------------------------------------------
 # freq=raman b3lyp/6-31+g(2df,p) geom=connectivity
 --------------------------------------------------
 1/10=4,30=1,38=1,57=2/1,3;
 2/12=2,17=6,18=5,40=1/2;
 3/5=1,6=6,7=114,11=2,16=1,25=1,30=1,71=2,74=-5/1,2,3;
 4//1;
 5/5=2,38=5,98=1/2;
 8/6=4,10=90,11=11/1;
 10/13=10,15=4/2;
 11/6=3,8=1,9=11,15=111,16=1/1,2,10;
 10/6=1/2;
 6/7=2,8=2,9=2,10=2,18=1,28=1/1;
 7/8=1,10=1,25=1/1,2,3,16;
 1/10=4,30=1/3;
 99//99;
 ------------
 300 7000.com
 ------------
 Symbolic Z-matrix:
 Charge =  0 Multiplicity = 1
 O                     7.898     7.606     12.276 
 C                     8.477     8.095     13.495 
 C                     7.732     9.336     13.96 
 O                     8.005     10.389    13.023 
 H                     7.95      10.097    12.068 
 C                     8.23      9.819     15.312 
 O                     7.585     11.009    15.789 
 H                     7.965     11.154    16.703 
 C                     8.861     5.673     14.207 
 O                     8.374     4.849     13.138 
 H                     8.603     3.92      13.426 
 C                     8.195     7.004     14.515 
 O                     8.633     7.405     15.821 
 C                     7.964     8.616     16.201 
 O                     8.543     8.93      17.476 
 C                     8.069     8.557     18.778 
 C                     8.512     7.139     19.099 
 O                     8.148     6.125     18.152 
 H                     8.549     6.476     17.305 
 C                     8.173     6.78      20.537 
 O                     8.423     5.463     21.048 
 H                     8.209     5.472     22.025 
 C                     8.343     10.957    19.619 
 O                     8.713     11.559    18.37 
 H                     8.492     12.524    18.509 
 C                     8.593     9.478     19.868 
 O                     8.187     9.086     21.187 
 C                     8.698     7.793     21.542 
 O                     7.815     7.737     22.672 
 H                     8.33163   7.69695   23.48014 
 H                     8.59711   7.36106   11.66539 
 H                     9.52631   8.27664   13.39081 
 H                     6.68049   9.14228   14.00116 
 H                     9.28492   9.98952   15.25753 
 H                     6.91199   8.44794   16.30066 
 H                     7.13714   6.84725   14.55042 
 H                     8.81969   5.08609   15.10072 
 H                     9.89154   5.87638   14.00325 
 H                     6.99963   8.59373   18.77952 
 H                     9.581     7.17115   19.06578 
 H                     9.65654   9.362     19.85006 
 H                     8.85265   11.49573   20.39031 
 H                     7.2943    11.12447   19.74973 
 H                     9.74229   7.7533    21.77174 
 H                     7.10869   6.88026   20.58279 
 

 GradGradGradGradGradGradGradGradGradGradGradGradGradGradGradGradGradGrad
 Berny optimization.
 Initialization pass.
 Trust Radius=3.00D-01 FncErr=1.00D-07 GrdErr=1.00D-07
 Number of steps in this run=      2 maximum allowed number of steps=      2.
 GradGradGradGradGradGradGradGradGradGradGradGradGradGradGradGradGradGrad

                          Input orientation:                          
 ---------------------------------------------------------------------
 Center     Atomic      Atomic             Coordinates (Angstroms)
 Number     Number       Type             X           Y           Z
 ---------------------------------------------------------------------
      1          8           0        7.898000    7.606000   12.276000
      2          6           0        8.477000    8.095000   13.495000
      3          6           0        7.732000    9.336000   13.960000
      4          8           0        8.005000   10.389000   13.023000
      5          1           0        7.950000   10.097000   12.068000
      6          6           0        8.230000    9.819000   15.312000
      7          8           0        7.585000   11.009000   15.789000
      8          1           0        7.965000   11.154000   16.703000
      9          6           0        8.861000    5.673000   14.207000
     10          8           0        8.374000    4.849000   13.138000
     11          1           0        8.603000    3.920000   13.426000
     12          6           0        8.195000    7.004000   14.515000
     13          8           0        8.633000    7.405000   15.821000
     14          6           0        7.964000    8.616000   16.201000
     15          8           0        8.543000    8.930000   17.476000
     16          6           0        8.069000    8.557000   18.778000
     17          6           0        8.512000    7.139000   19.099000
     18          8           0        8.148000    6.125000   18.152000
     19          1           0        8.549000    6.476000   17.305000
     20          6           0        8.173000    6.780000   20.537000
     21          8           0        8.423000    5.463000   21.048000
     22          1           0        8.209000    5.472000   22.025000
     23          6           0        8.343000   10.957000   19.619000
     24          8           0        8.713000   11.559000   18.370000
     25          1           0        8.492000   12.524000   18.509000
     26          6           0        8.593000    9.478000   19.868000
     27          8           0        8.187000    9.086000   21.187000
     28          6           0        8.698000    7.793000   21.542000
     29          8           0        7.815000    7.737000   22.672000
     30          1           0        8.331630    7.696951   23.480139
     31          1           0        8.597114    7.361055   11.665392
     32          1           0        9.526309    8.276644   13.390808
     33          1           0        6.680488    9.142279   14.001162
     34          1           0        9.284920    9.989516   15.257527
     35          1           0        6.911991    8.447938   16.300658
     36          1           0        7.137136    6.847253   14.550420
     37          1           0        8.819686    5.086090   15.100717
     38          1           0        9.891544    5.876382   14.003247
     39          1           0        6.999632    8.593727   18.779517
     40          1           0        9.581001    7.171151   19.065783
     41          1           0        9.656542    9.361997   19.850058
     42          1           0        8.852655   11.495731   20.390311
     43          1           0        7.294304   11.124472   19.749729
     44          1           0        9.742291    7.753299   21.771737
     45          1           0        7.108692    6.880257   20.582793
 ---------------------------------------------------------------------
                    Distance matrix (angstroms):
                    1          2          3          4          5
     1  O    0.000000
     2  C    1.435383   0.000000
     3  C    2.419982   1.520306   0.000000
     4  O    2.883496   2.389143   1.435725   0.000000
     5  H    2.500210   2.514371   2.050929   1.000157   0.000000
     6  C    3.771590   2.516878   1.519604   2.369609   3.267908
     7  O    4.900974   3.814380   2.483099   2.865581   3.848482
     8  H    5.673722   4.462162   3.299009   3.758886   4.754019
     9  C    2.897002   2.553524   3.840992   4.937130   4.997701
    10  O    2.927570   3.267197   4.606628   5.553466   5.372726
    11  H    3.925063   4.177471   5.511520   6.509069   6.358137
    12  C    2.337463   1.519936   2.441438   3.704104   3.951517
    13  O    3.625969   2.431196   2.829113   4.138532   4.668872
    14  C    4.053404   2.803042   2.365228   3.639354   4.390358
    15  O    5.404535   4.068162   3.631090   4.716708   5.564171
    16  C    6.573404   5.318834   4.892191   6.039896   6.885482
    17  C    6.866470   5.685066   5.643096   6.909220   7.648566
    18  O    6.064919   5.067227   5.296833   6.671491   7.268497
    19  H    5.195338   4.140344   4.476172   5.826065   6.395046
    20  C    8.306746   7.170175   7.069975   8.337464   9.098142
    21  O    9.045223   7.998634   8.106624   9.425541  10.116229
    22  H    9.984672   8.928205   8.955571  10.259362  10.981783
    23  C    8.083741   6.761093   5.918213   6.629033   7.609970
    24  O    7.309396   5.985033   5.035096   5.519110   6.514201
    25  H    7.961774   6.690027   5.606634   5.906910   6.904388
    26  C    7.850215   6.522367   5.972098   6.930346   7.850899
    27  O    9.037690   7.760995   7.245623   8.269331   9.177933
    28  C    9.302351   8.055697   7.797482   8.932683   9.778783
    29  O   10.397157   9.207808   8.857914  10.008617  10.864283
    30  H   11.212896   9.994127   9.678796  10.803036  11.668025
    31  H    0.960000   1.974986   3.148659   3.370778   2.840113
    32  H    2.084215   1.070000   2.160037   2.629013   2.747411
    33  H    2.611259   2.140199   1.070000   2.065295   2.502052
    34  H    4.061305   2.710798   2.126551   2.605935   3.459284
    35  H    4.228351   3.231956   2.634341   3.963008   4.659642
    36  H    2.515472   2.113296   2.626085   3.953501   4.169414
    37  H    3.895956   3.427725   4.532773   5.753388   5.921397
    38  H    3.154232   2.679835   4.078536   4.988352   5.032732
    39  H    6.639157   5.509761   4.931032   6.113204   6.943161
    40  H    7.008761   5.753776   5.845887   7.025209   7.758204
    41  H    7.971346   6.586605   6.196557   7.098665   8.000809
    42  H    9.048946   7.697493   6.875261   7.498043   8.487173
    43  H    8.282555   7.049688   6.075456   6.804034   7.777827
    44  H    9.674303   8.379863   8.220064   9.300834  10.142375
    45  H    8.375710   7.320155   7.090879   8.382428   9.140948
                    6          7          8          9         10
     6  C    0.000000
     7  O    1.435149   0.000000
     8  H    1.946107   1.000410   0.000000
     9  C    4.336877   5.709973   6.088858   0.000000
    10  O    5.426593   6.752475   7.254621   1.434889   0.000000
    11  H    6.204380   7.541486   7.967216   1.936371   0.999213
    12  C    2.925860   4.246787   4.697100   1.519862   2.563629
    13  O    2.499777   3.753418   3.908855   2.378404   3.714661
    14  C    1.519304   2.457607   2.587170   3.666319   4.872408
    15  O    2.360336   2.843585   2.424415   4.625531   5.958302
    16  C    3.692116   3.896239   3.325786   5.462487   6.756618
    17  C    4.647934   5.176131   4.707467   5.118850   6.387227
    18  O    4.660253   5.454741   5.236786   4.034315   5.178750
    19  H    3.905056   4.876027   4.752593   3.215549   4.476789
    20  C    6.044782   6.385428   5.820197   6.462793   7.649468
    21  O    7.205115   7.688787   7.174697   6.858223   7.933946
    22  H    7.997576   8.362741   7.788989   7.847715   8.910338
    23  C    4.456239   3.904634   2.946990   7.581472   8.905728
    24  O    3.551373   2.869921   1.871475   7.210927   8.515447
    25  H    4.196007   3.242881   2.327287   8.098121   9.368414
    26  C    4.583141   4.471942   3.636012   6.826183   8.171200
    27  O    5.920706   5.761835   4.942890   7.798926   9.097996
    28  C    6.567846   6.684193   5.937132   7.636962   8.910630
    29  O    7.660062   7.624603   6.879488   8.775559   9.977484
    30  H    8.439901   8.407185   7.616773   9.506194  10.727183
    31  H    4.412937   5.597858   6.337467   3.062505   2.920407
    32  H    2.783928   4.121380   4.656981   2.808517   3.624979
    33  H    2.139448   2.738458   3.605124   4.102792   4.695240
    34  H    1.070000   2.052204   2.277632   4.462692   5.634454
    35  H    2.143456   2.696993   2.931463   3.985263   5.009215
    36  H    3.256629   4.365180   4.885389   2.113886   2.741857
    37  H    4.774181   6.089256   6.333824   1.070000   2.026600
    38  H    4.474125   5.903628   6.233257   1.070000   2.026600
    39  H    3.877986   3.888366   3.434947   5.736135   6.909311
    40  H    4.788235   5.426823   4.904823   5.135234   6.479803
    41  H    4.778896   4.847277   3.997069   6.788644   8.189248
    42  H    5.384085   4.797491   3.808015   8.493386   9.849069
    43  H    4.719451   3.973060   3.119817   7.930632   9.179447
    44  H    6.948550   7.144693   6.357329   7.894908   9.211330
    45  H    6.137980   6.344591   5.835317   6.721517   7.819971
                   11         12         13         14         15
    11  H    0.000000
    12  C    3.295973   0.000000
    13  O    4.228729   1.434671   0.000000
    14  C    5.491936   2.344035   1.434741   0.000000
    15  O    6.442531   3.549380   2.252277   1.435083   0.000000
    16  C    7.101467   4.538816   3.223205   2.579813   1.434925
    17  C    6.523279   4.596930   3.291000   3.298520   2.417182
    18  O    5.234895   3.742007   2.703181   3.169438   2.912220
    19  H    4.645718   2.861503   1.752813   2.478032   2.459958
    20  C    7.676641   6.026205   4.779423   4.713329   3.758872
    21  O    7.778697   6.716156   5.580053   5.800474   4.979325
    22  H    8.746813   7.664680   6.511980   6.622970   5.723873
    23  C    9.377645   6.457471   5.208225   4.160126   2.956548
    24  O    9.099976   5.989772   4.874373   3.731864   2.782045
    25  H    9.993899   6.819871   5.783544   4.569257   3.739856
    26  C    8.508280   5.910473   4.547212   3.819106   2.454479
    27  O    9.332402   6.989304   5.640801   5.013065   3.731299
    28  C    8.993254   7.089024   5.734510   5.453656   4.224825
    29  O   10.033890   8.198679   6.907644   6.532127   5.380674
    30  H   10.743590   8.992918   7.670624   7.346133   6.133089
    31  H    3.865312   2.899905   4.155995   4.748417   6.018944
    32  H    4.453548   2.157734   2.731959   3.233133   4.252360
    33  H    5.594557   2.670209   3.184691   2.600704   3.948230
    34  H    6.376404   3.263829   2.724376   2.126386   2.568003
    35  H    5.623646   2.630522   2.068735   1.070000   2.067366
    36  H    3.461486   1.070000   2.040358   2.556674   3.856592
    37  H    2.052169   2.100399   2.435365   3.795139   4.527048
    38  H    2.412673   2.100399   2.687904   4.006376   4.816966
    39  H    7.285235   4.705554   3.582427   2.753044   2.047980
    40  H    6.582827   4.760101   3.388511   3.592946   2.588128
    41  H    8.484916   6.013244   4.594647   4.091068   2.657583
    42  H   10.293477   7.424786   6.136851   5.160706   3.895134
    43  H    9.675052   6.722494   5.573283   4.397090   3.397762
    44  H    9.254377   7.457600   6.063259   5.910980   4.612622
    45  H    7.887697   6.165508   5.027279   4.790038   3.988840
                   16         17         18         19         20
    16  C    0.000000
    17  C    1.519873   0.000000
    18  O    2.512517   1.434399   0.000000
    19  H    2.594357   1.912949   1.000705   0.000000
    20  C    2.502524   1.520410   2.473434   3.267968   0.000000
    21  O    3.853706   2.572061   2.983402   3.879703   1.434611
    22  H    4.481053   3.381150   3.928137   4.837563   1.981490
    23  C    2.557803   3.856953   5.053547   5.047414   4.280065
    24  O    3.097290   4.484221   5.467642   5.195961   5.275067
    25  H    3.998547   5.417262   6.418176   6.166942   6.099843
    26  C    1.520170   2.463502   3.792794   3.947519   2.811257
    27  O    2.469220   2.873357   4.240314   4.691809   2.395899
    28  C    2.935819   2.535855   3.817961   4.439466   1.520467
    29  O    3.987499   3.689138   4.810388   5.561795   2.366905
    30  H    4.787356   4.420206   5.558221   6.298438   3.086751
    31  H    7.231762   7.437411   6.618582   5.708837   8.900726
    32  H    5.587861   5.908173   5.403541   4.417958   7.425594
    33  H    5.008862   5.775424   5.337324   4.638505   7.108104
    34  H    3.990525   4.845592   4.960347   4.132616   6.277754
    35  H    2.736382   3.479090   3.217332   2.752643   4.724273
    36  H    4.654464   4.760771   3.809839   3.117515   6.075909
    37  H    5.112059   4.505039   3.292540   2.619920   5.730681
    38  H    5.771104   5.428079   4.507095   3.614351   6.816146
    39  H    1.070000   2.122630   2.794126   3.009902   2.784806
    40  H    2.071122   1.070000   1.995726   2.156065   2.073631
    41  H    2.077888   2.610705   3.954396   4.004116   3.056059
    42  H    3.442354   4.556823   5.861001   5.899920   4.766714
    43  H    2.852424   4.217845   5.317542   5.399930   4.501815
    44  H    3.522542   3.005745   4.277338   4.796580   2.221387
    45  H    2.644037   2.058607   2.749423   3.603031   1.070000
                   21         22         23         24         25
    21  O    0.000000
    22  H    1.000203   0.000000
    23  C    5.677365   5.990995   0.000000
    24  O    6.664608   7.117908   1.435028   0.000000
    25  H    7.503933   7.884989   1.926082   0.999693   0.000000
    26  C    4.188260   4.565976   1.520507   2.566898   3.336944
    27  O    3.633338   3.709949   2.446140   3.785220   4.368587
    28  C    2.397616   2.420630   3.719523   4.923877   5.623512
    29  O    2.859741   2.388319   4.468556   5.824199   6.379990
    30  H    3.303662   2.661367   5.053360   6.416728   6.930970
    31  H    9.574250  10.537582   8.732427   7.911254   8.573332
    32  H    8.232039   9.173364   6.882943   6.018944   6.730952
    33  H    8.138266   8.954847   6.133292   5.390584   5.919309
    34  H    7.400123   8.207572   4.565708   3.532402   4.198144
    35  H    5.807776   6.580770   4.399383   4.147833   4.897702
    36  H    6.766694   7.675256   6.635859   6.266825   7.052054
    37  H    5.972403   6.961864   7.423590   7.252458   8.188179
    38  H    7.208054   8.206278   7.729641   7.262895   8.151770
    39  H    4.119884   4.662715   2.845071   3.449084   4.212765
    40  H    2.861456   3.677834   4.021362   4.526672   5.490804
    41  H    4.261322   4.685918   2.079138   2.812057   3.626687
    42  H    6.083667   6.274698   1.070000   2.026120   2.174107
    43  H    5.917071   6.161490   1.070000   2.026120   2.220937
    44  H    2.740400   2.760335   4.105606   5.207170   5.913398
    45  H    1.988075   2.296482   4.367178   5.418569   6.169764
                   26         27         28         29         30
    26  C    0.000000
    27  O    1.434664   0.000000
    28  C    2.377504   1.434920   0.000000
    29  O    3.390985   2.040444   1.435174   0.000000
    30  H    4.035840   2.684933   1.974800   0.960000   0.000000
    31  H    8.471378   9.685280   9.886564  11.040764  11.822503
    32  H    6.653445   7.951692   8.207432   9.453059  10.176341
    33  H    6.179822   7.342276   7.921815   8.856939   9.729659
    34  H    4.690081   6.097575   6.683095   7.887262   8.589294
    35  H    4.075874   5.090099   5.575880   6.474168   7.356922
    36  H    6.108766   7.082259   7.225851   8.198244   9.049237
    37  H    6.485926   7.310431   6.988011   8.084617   8.790308
    38  H    7.003798   8.050678   7.869610   9.106108   9.775443
    39  H    2.122630   2.729130   3.340199   4.068198   4.967321
    40  H    2.634626   3.179536   2.701488   4.055089   4.617785
    41  H    1.070000   2.005777   2.498644   3.741022   4.207762
    42  H    2.100350   2.623854   3.880789   4.517841   4.924351
    43  H    2.100350   2.649155   4.035010   4.503971   5.171065
    44  H    2.814193   2.130010   1.070000   2.127250   2.216253
    45  H    3.076096   2.528461   2.068593   2.365939   3.249182
                   31         32         33         34         35
    31  H    0.000000
    32  H    2.163046   0.000000
    33  H    3.507426   3.036537   0.000000
    34  H    4.503922   2.544963   3.013193   0.000000
    35  H    5.050411   3.915511   2.413170   3.015855   0.000000
    36  H    3.273976   3.015959   2.403614   3.871278   2.382481
    37  H    4.126314   3.688189   4.715704   4.927942   4.047367
    38  H    3.057020   2.503944   4.580062   4.342704   4.557273
    39  H    7.394741   5.960103   4.820315   4.424385   2.484688
    40  H    7.467924   5.781907   6.160253   4.746963   4.049656
    41  H    8.492050   6.551096   6.566183   4.650078   4.578897
    42  H    9.658419   7.733652   7.146907   5.366657   5.457149
    43  H    9.012054   7.316272   6.111618   5.042871   4.382474
    44  H   10.178581   8.400031   8.466744   6.902520   6.198857
    45  H    9.053541   7.714882   6.972659   6.539259   4.564317
                   36         37         38         39         40
    36  H    0.000000
    37  H    2.497097   0.000000
    38  H    2.971321   1.725654   0.000000
    39  H    4.577590   5.399044   6.209659   0.000000
    40  H    5.144500   4.544097   5.234704   2.961273   0.000000
    41  H    6.384160   6.445149   6.811015   2.965716   2.328219
    42  H    7.658699   8.310499   8.570354   3.801313   4.581142
    43  H    6.734397   7.771882   8.204276   2.726318   4.617955
    44  H    7.730147   7.243460   7.993405   4.145104   2.772562
    45  H    6.032530   6.016618   7.214045   2.489914   2.915176
                   41         42         43         44         45
    41  H    0.000000
    42  H    2.343273   0.000000
    43  H    2.948992   1.725293   0.000000
    44  H    2.507611   4.087247   4.630979   0.000000
    45  H    3.631456   4.937717   4.329180   3.018549   0.000000
 Stoichiometry    C12H22O11
 Framework group  C1[X(C12H22O11)]
 Deg. of freedom   129
 Full point group                 C1      NOp   1
 Largest Abelian subgroup         C1      NOp   1
 Largest concise Abelian subgroup C1      NOp   1
                         Standard orientation:                         
 ---------------------------------------------------------------------
 Center     Atomic      Atomic             Coordinates (Angstroms)
 Number     Number       Type             X           Y           Z
 ---------------------------------------------------------------------
      1          8           0        4.956704   -0.453872   -0.326901
      2          6           0        3.714957   -0.030464    0.255434
      3          6           0        3.222608    1.230529   -0.436534
      4          8           0        4.122586    2.296882   -0.098545
      5          1           0        5.086848    2.036836   -0.152301
      6          6           0        1.849292    1.647852    0.062505
      7          8           0        1.345085    2.852727   -0.532225
      8          1           0        0.421660    2.951526   -0.160276
      9          6           0        3.072692   -2.488587    0.511581
     10          8           0        4.173553   -3.255427    0.002693
     11          1           0        3.911132   -4.202686    0.182312
     12          6           0        2.733332   -1.136825   -0.094683
     13          8           0        1.409387   -0.797078    0.341234
     14          6           0        1.001821    0.432852   -0.274919
     15          8           0       -0.290485    0.679855    0.298142
     16          6           0       -1.573370    0.291105   -0.213803
     17          6           0       -1.856742   -1.155707    0.155587
     18          8           0       -0.873710   -2.121870   -0.241499
     19          1           0       -0.043828   -1.765283    0.189259
     20          6           0       -3.277926   -1.541114   -0.223019
     21          8           0       -3.751529   -2.883487   -0.044561
     22          1           0       -4.725155   -2.893629   -0.273372
     23          6           0       -2.492002    2.648566    0.161495
     24          8           0       -1.267665    3.269375    0.579704
     25          1           0       -1.433223    4.239303    0.403020
     26          6           0       -2.698750    1.152364    0.336351
     27          8           0       -3.999018    0.740842   -0.108861
     28          6           0       -4.321214   -0.585489    0.333892
     29          8           0       -5.436103   -0.632776   -0.568610
     30          1           0       -6.249979   -0.722142   -0.067391
     31          1           0        5.564454   -0.713816    0.369280
     32          1           0        3.798356    0.103262    1.313764
     33          1           0        3.202608    1.086754   -1.496642
     34          1           0        1.883263    1.768696    1.125116
     35          1           0        0.922572    0.312953   -1.335222
     36          1           0        2.718018   -1.243206   -1.159271
     37          1           0        2.198228   -3.099512    0.428003
     38          1           0        3.255192   -2.329246    1.553792
     39          1           0       -1.560613    0.379463   -1.280073
     40          1           0       -1.839941   -1.174325    1.225293
     41          1           0       -2.692558    0.985636    1.393264
     42          1           0       -3.286858    3.138489    0.684066
     43          1           0       -2.612720    2.862557   -0.879915
     44          1           0       -4.564637   -0.682582    1.371302
     45          1           0       -3.311456   -1.390910   -1.281894
 ---------------------------------------------------------------------
 Rotational constants (GHZ):      0.4046747      0.1470811      0.1104454
 Standard basis: 6-31+G(2df,p) (6D, 7F)
 There are   846 symmetry adapted basis functions of A   symmetry.
 Integral buffers will be    131072 words long.
 Raffenetti 2 integral format.
 Two-electron integral symmetry is turned on.
   846 basis functions,  1258 primitive gaussians,   915 cartesian basis functions
    91 alpha electrons       91 beta electrons
       nuclear repulsion energy      2289.5382327497 Hartrees.
 NAtoms=   45 NActive=   45 NUniq=   45 SFac= 1.00D+00 NAtFMM=   50 NAOKFM=F Big=F
 One-electron integrals computed using PRISM.
 NBasis=   846 RedAO= T  NBF=   846
 NBsUse=   846 1.00D-06 NBFU=   846
 Harris functional with IExCor=  402 diagonalized for initial guess.
 ExpMin= 4.38D-02 ExpMax= 5.48D+03 ExpMxC= 8.25D+02 IAcc=2 IRadAn=         0 AccDes= 0.00D+00
 HarFok:  IExCor=  402 AccDes= 0.00D+00 IRadAn=         0 IDoV= 1
 ScaDFX=  1.000000  1.000000  1.000000  1.000000
 FoFCou: FMM=F IPFlag=           0 FMFlag=      100000 FMFlg1=           0
         NFxFlg=           0 DoJE=T BraDBF=F KetDBF=T FulRan=T
         Omega=  0.000000  0.000000  1.000000  0.000000  0.000000 ICntrl=     500 IOpCl=  0
         NMat0=    1 NMatS0=    1 NMatT0=    0 NMatD0=    1 NMtDS0=    0 NMtDT0=    0
         I1Cent=           4 NGrid=           0.
 Petite list used in FoFCou.
 Initial guess orbital symmetries:
       Occupied  (A) (A) (A) (A) (A) (A) (A) (A) (A) (A) (A) (A)
                 (A) (A) (A) (A) (A) (A) (A) (A) (A) (A) (A) (A)
                 (A) (A) (A) (A) (A) (A) (A) (A) (A) (A) (A) (A)
                 (A) (A) (A) (A) (A) (A) (A) (A) (A) (A) (A) (A)
                 (A) (A) (A) (A) (A) (A) (A) (A) (A) (A) (A) (A)
                 (A) (A) (A) (A) (A) (A) (A) (A) (A) (A) (A) (A)
                 (A) (A) (A) (A) (A) (A) (A) (A) (A) (A) (A) (A)
                 (A) (A) (A) (A) (A) (A) (A)
       Virtual   (A) (A) (A) (A) (A) (A) (A) (A) (A) (A) (A) (A)
                 (A) (A) (A) (A) (A) (A) (A) (A) (A) (A) (A) (A)
                 (A) (A) (A) (A) (A) (A) (A) (A) (A) (A) (A) (A)
                 (A) (A) (A) (A) (A) (A) (A) (A) (A) (A) (A) (A)
                 (A) (A) (A) (A) (A) (A) (A) (A) (A) (A) (A) (A)
                 (A) (A) (A) (A) (A) (A) (A) (A) (A) (A) (A) (A)
                 (A) (A) (A) (A) (A) (A) (A) (A) (A) (A) (A) (A)
                 (A) (A) (A) (A) (A) (A) (A) (A) (A) (A) (A) (A)
                 (A) (A) (A) (A) (A) (A) (A) (A) (A) (A) (A) (A)
                 (A) (A) (A) (A) (A) (A) (A) (A) (A) (A) (A) (A)
                 (A) (A) (A) (A) (A) (A) (A) (A) (A) (A) (A) (A)
                 (A) (A) (A) (A) (A) (A) (A) (A) (A) (A) (A) (A)
                 (A) (A) (A) (A) (A) (A) (A) (A) (A) (A) (A) (A)
                 (A) (A) (A) (A) (A) (A) (A) (A) (A) (A) (A) (A)
                 (A) (A) (A) (A) (A) (A) (A) (A) (A) (A) (A) (A)
                 (A) (A) (A) (A) (A) (A) (A) (A) (A) (A) (A) (A)
                 (A) (A) (A) (A) (A) (A) (A) (A) (A) (A) (A) (A)
                 (A) (A) (A) (A) (A) (A) (A) (A) (A) (A) (A) (A)
                 (A) (A) (A) (A) (A) (A) (A) (A) (A) (A) (A) (A)
                 (A) (A) (A) (A) (A) (A) (A) (A) (A) (A) (A) (A)
                 (A) (A) (A) (A) (A) (A) (A) (A) (A) (A) (A) (A)
                 (A) (A) (A) (A) (A) (A) (A) (A) (A) (A) (A) (A)
                 (A) (A) (A) (A) (A) (A) (A) (A) (A) (A) (A) (A)
                 (A) (A) (A) (A) (A) (A) (A) (A) (A) (A) (A) (A)
                 (A) (A) (A) (A) (A) (A) (A) (A) (A) (A) (A) (A)
                 (A) (A) (A) (A) (A) (A) (A) (A) (A) (A) (A) (A)
                 (A) (A) (A) (A) (A) (A) (A) (A) (A) (A) (A) (A)
                 (A) (A) (A) (A) (A) (A) (A) (A) (A) (A) (A) (A)
                 (A) (A) (A) (A) (A) (A) (A) (A) (A) (A) (A) (A)
                 (A) (A) (A) (A) (A) (A) (A) (A) (A) (A) (A) (A)
                 (A) (A) (A) (A) (A) (A) (A) (A) (A) (A) (A) (A)
                 (A) (A) (A) (A) (A) (A) (A) (A) (A) (A) (A) (A)
                 (A) (A) (A) (A) (A) (A) (A) (A) (A) (A) (A) (A)
                 (A) (A) (A) (A) (A) (A) (A) (A) (A) (A) (A) (A)
                 (A) (A) (A) (A) (A) (A) (A) (A) (A) (A) (A) (A)
                 (A) (A) (A) (A) (A) (A) (A) (A) (A) (A) (A) (A)
                 (A) (A) (A) (A) (A) (A) (A) (A) (A) (A) (A) (A)
                 (A) (A) (A) (A) (A) (A) (A) (A) (A) (A) (A) (A)
                 (A) (A) (A) (A) (A) (A) (A) (A) (A) (A) (A) (A)
                 (A) (A) (A) (A) (A) (A) (A) (A) (A) (A) (A) (A)
                 (A) (A) (A) (A) (A) (A) (A) (A) (A) (A) (A) (A)
                 (A) (A) (A) (A) (A) (A) (A) (A) (A) (A) (A) (A)
                 (A) (A) (A) (A) (A) (A) (A) (A) (A) (A) (A) (A)
                 (A) (A) (A) (A) (A) (A) (A) (A) (A) (A) (A) (A)
                 (A) (A) (A) (A) (A) (A) (A) (A) (A) (A) (A) (A)
                 (A) (A) (A) (A) (A) (A) (A) (A) (A) (A) (A) (A)
                 (A) (A) (A) (A) (A) (A) (A) (A) (A) (A) (A) (A)
                 (A) (A) (A) (A) (A) (A) (A) (A) (A) (A) (A) (A)
                 (A) (A) (A) (A) (A) (A) (A) (A) (A) (A) (A) (A)
                 (A) (A) (A) (A) (A) (A) (A) (A) (A) (A) (A) (A)
                 (A) (A) (A) (A) (A) (A) (A) (A) (A) (A) (A) (A)
                 (A) (A) (A) (A) (A) (A) (A) (A) (A) (A) (A) (A)
                 (A) (A) (A) (A) (A) (A) (A) (A) (A) (A) (A) (A)
                 (A) (A) (A) (A) (A) (A) (A) (A) (A) (A) (A) (A)
                 (A) (A) (A) (A) (A) (A) (A) (A) (A) (A) (A) (A)
                 (A) (A) (A) (A) (A) (A) (A) (A) (A) (A) (A) (A)
                 (A) (A) (A) (A) (A) (A) (A) (A) (A) (A) (A) (A)
                 (A) (A) (A) (A) (A) (A) (A) (A) (A) (A) (A) (A)
                 (A) (A) (A) (A) (A) (A) (A) (A) (A) (A) (A) (A)
                 (A) (A) (A) (A) (A) (A) (A) (A) (A) (A) (A) (A)
                 (A) (A) (A) (A) (A) (A) (A) (A) (A) (A) (A) (A)
                 (A) (A) (A) (A) (A) (A) (A) (A) (A) (A) (A) (A)
                 (A) (A) (A) (A) (A) (A) (A) (A) (A) (A) (A)
 The electronic state of the initial guess is 1-A.
 Requested convergence on RMS density matrix=1.00D-08 within 128 cycles.
 Requested convergence on MAX density matrix=1.00D-06.
 Requested convergence on             energy=1.00D-06.
 No special actions if energy rises.
 SCF Done:  E(RB3LYP) =  -1297.99170890     A.U. after   13 cycles
             Convg  =    0.3534D-08             -V/T =  2.0065
 Range of M.O.s used for correlation:     1   846
 NBasis=   846 NAE=    91 NBE=    91 NFC=     0 NFV=     0
 NROrb=    846 NOA=    91 NOB=    91 NVA=   755 NVB=   755

 **** Warning!!: The largest alpha MO coefficient is  0.79399171D+02

          Differentiating once with respect to electric field.
                with respect to dipole field.
          Electric field/nuclear overlap derivatives assumed to be zero.
          There are     3 degrees of freedom in the 1st order CPHF.  IDoFFX=0.
      3 vectors produced by pass  0 Test12= 2.29D-12 3.33D-08 XBig12= 1.25D+02 9.62D-01.
 AX will form     3 AO Fock derivatives at one time.
      3 vectors produced by pass  1 Test12= 2.29D-12 3.33D-08 XBig12= 2.37D+01 4.16D-01.
      3 vectors produced by pass  2 Test12= 2.29D-12 3.33D-08 XBig12= 1.05D+01 2.40D-01.
      3 vectors produced by pass  3 Test12= 2.29D-12 3.33D-08 XBig12= 1.19D+00 9.98D-02.
      3 vectors produced by pass  4 Test12= 2.29D-12 3.33D-08 XBig12= 3.18D-01 4.56D-02.
      3 vectors produced by pass  5 Test12= 2.29D-12 3.33D-08 XBig12= 6.10D-02 2.22D-02.
      3 vectors produced by pass  6 Test12= 2.29D-12 3.33D-08 XBig12= 2.29D-02 1.94D-02.
      3 vectors produced by pass  7 Test12= 2.29D-12 3.33D-08 XBig12= 3.34D-03 7.90D-03.
      3 vectors produced by pass  8 Test12= 2.29D-12 3.33D-08 XBig12= 6.89D-04 2.76D-03.
      3 vectors produced by pass  9 Test12= 2.29D-12 3.33D-08 XBig12= 1.43D-04 1.49D-03.
      3 vectors produced by pass 10 Test12= 2.29D-12 3.33D-08 XBig12= 4.32D-05 4.71D-04.
      3 vectors produced by pass 11 Test12= 2.29D-12 3.33D-08 XBig12= 8.06D-06 3.04D-04.
      3 vectors produced by pass 12 Test12= 2.29D-12 3.33D-08 XBig12= 1.22D-06 1.06D-04.
      3 vectors produced by pass 13 Test12= 2.29D-12 3.33D-08 XBig12= 4.41D-07 5.40D-05.
      3 vectors produced by pass 14 Test12= 2.29D-12 3.33D-08 XBig12= 3.94D-08 1.67D-05.
      3 vectors produced by pass 15 Test12= 2.29D-12 3.33D-08 XBig12= 5.62D-09 6.23D-06.
      3 vectors produced by pass 16 Test12= 2.29D-12 3.33D-08 XBig12= 1.46D-09 2.97D-06.
      3 vectors produced by pass 17 Test12= 2.29D-12 3.33D-08 XBig12= 1.12D-10 8.54D-07.
      3 vectors produced by pass 18 Test12= 2.29D-12 3.33D-08 XBig12= 1.23D-11 2.33D-07.
      3 vectors produced by pass 19 Test12= 2.29D-12 3.33D-08 XBig12= 5.68D-12 1.56D-07.
      3 vectors produced by pass 20 Test12= 2.29D-12 3.33D-08 XBig12= 4.25D-12 1.49D-07.
      3 vectors produced by pass 21 Test12= 2.29D-12 3.33D-08 XBig12= 2.14D-12 9.86D-08.
 Inverted reduced A of dimension    66 with in-core refinement.
 End of Minotr Frequency-dependent properties file   721 does not exist.
 End of Minotr Frequency-dependent properties file   722 does not exist.
 Symmetrizing basis deriv contribution to polar:
 IMax=3 JMax=2 DiffMx= 0.00D+00
 G2DrvN: will do     8 centers at a time, making    6 passes doing MaxLOS=3.
 Calling FoFCou, ICntrl=  3107 FMM=F I1Cent=   0 AccDes= 0.00D+00.
 Calling FoFCou, ICntrl=  3107 FMM=F I1Cent=   0 AccDes= 0.00D+00.
 Calling FoFCou, ICntrl=  3107 FMM=F I1Cent=   0 AccDes= 0.00D+00.
 Calling FoFCou, ICntrl=  3107 FMM=F I1Cent=   0 AccDes= 0.00D+00.
 Calling FoFCou, ICntrl=  3107 FMM=F I1Cent=   0 AccDes= 0.00D+00.
 Calling FoFCou, ICntrl=  3107 FMM=F I1Cent=   0 AccDes= 0.00D+00.
 FoFDir/FoFCou used for L=0 through L=3.
 End of G2Drv Frequency-dependent properties file   721 does not exist.
 End of G2Drv Frequency-dependent properties file   722 does not exist.
          IDoAtm=111111111111111111111111111111111111111111111
          Differentiating once with respect to electric field.
                with respect to dipole field.
          Differentiating once with respect to nuclear coordinates.
          There are   138 degrees of freedom in the 1st order CPHF.  IDoFFX=5.
 Will reuse    3 saved solutions.
    135 vectors produced by pass  0 Test12= 6.87D-14 1.00D-09 XBig12= 1.47D-01 9.16D-02.
 AX will form    27 AO Fock derivatives at one time.
    135 vectors produced by pass  1 Test12= 6.87D-14 1.00D-09 XBig12= 2.20D-02 1.33D-02.
    132 vectors produced by pass  2 Test12= 6.87D-14 1.00D-09 XBig12= 1.94D-04 1.56D-03.
    132 vectors produced by pass  3 Test12= 6.87D-14 1.00D-09 XBig12= 1.08D-06 7.59D-05.
    132 vectors produced by pass  4 Test12= 6.87D-14 1.00D-09 XBig12= 2.45D-09 2.83D-06.
    132 vectors produced by pass  5 Test12= 6.87D-14 1.00D-09 XBig12= 5.94D-12 1.19D-07.
     90 vectors produced by pass  6 Test12= 6.87D-14 1.00D-09 XBig12= 2.58D-13 2.77D-08.
      1 vectors produced by pass  7 Test12= 6.87D-14 1.00D-09 XBig12= 6.51D-16 1.42D-09.
 Inverted reduced A of dimension   889 with in-core refinement.
 Isotropic polarizability for W=    0.000000      192.85 Bohr**3.
 End of Minotr Frequency-dependent properties file   721 does not exist.
 End of Minotr Frequency-dependent properties file   722 does not exist.

 **********************************************************************

            Population analysis using the SCF density.

 **********************************************************************

 Orbital symmetries:
       Occupied  (A) (A) (A) (A) (A) (A) (A) (A) (A) (A) (A) (A)
                 (A) (A) (A) (A) (A) (A) (A) (A) (A) (A) (A) (A)
                 (A) (A) (A) (A) (A) (A) (A) (A) (A) (A) (A) (A)
                 (A) (A) (A) (A) (A) (A) (A) (A) (A) (A) (A) (A)
                 (A) (A) (A) (A) (A) (A) (A) (A) (A) (A) (A) (A)
                 (A) (A) (A) (A) (A) (A) (A) (A) (A) (A) (A) (A)
                 (A) (A) (A) (A) (A) (A) (A) (A) (A) (A) (A) (A)
                 (A) (A) (A) (A) (A) (A) (A)
       Virtual   (A) (A) (A) (A) (A) (A) (A) (A) (A) (A) (A) (A)
                 (A) (A) (A) (A) (A) (A) (A) (A) (A) (A) (A) (A)
                 (A) (A) (A) (A) (A) (A) (A) (A) (A) (A) (A) (A)
                 (A) (A) (A) (A) (A) (A) (A) (A) (A) (A) (A) (A)
                 (A) (A) (A) (A) (A) (A) (A) (A) (A) (A) (A) (A)
                 (A) (A) (A) (A) (A) (A) (A) (A) (A) (A) (A) (A)
                 (A) (A) (A) (A) (A) (A) (A) (A) (A) (A) (A) (A)
                 (A) (A) (A) (A) (A) (A) (A) (A) (A) (A) (A) (A)
                 (A) (A) (A) (A) (A) (A) (A) (A) (A) (A) (A) (A)
                 (A) (A) (A) (A) (A) (A) (A) (A) (A) (A) (A) (A)
                 (A) (A) (A) (A) (A) (A) (A) (A) (A) (A) (A) (A)
                 (A) (A) (A) (A) (A) (A) (A) (A) (A) (A) (A) (A)
                 (A) (A) (A) (A) (A) (A) (A) (A) (A) (A) (A) (A)
                 (A) (A) (A) (A) (A) (A) (A) (A) (A) (A) (A) (A)
                 (A) (A) (A) (A) (A) (A) (A) (A) (A) (A) (A) (A)
                 (A) (A) (A) (A) (A) (A) (A) (A) (A) (A) (A) (A)
                 (A) (A) (A) (A) (A) (A) (A) (A) (A) (A) (A) (A)
                 (A) (A) (A) (A) (A) (A) (A) (A) (A) (A) (A) (A)
                 (A) (A) (A) (A) (A) (A) (A) (A) (A) (A) (A) (A)
                 (A) (A) (A) (A) (A) (A) (A) (A) (A) (A) (A) (A)
                 (A) (A) (A) (A) (A) (A) (A) (A) (A) (A) (A) (A)
                 (A) (A) (A) (A) (A) (A) (A) (A) (A) (A) (A) (A)
                 (A) (A) (A) (A) (A) (A) (A) (A) (A) (A) (A) (A)
                 (A) (A) (A) (A) (A) (A) (A) (A) (A) (A) (A) (A)
                 (A) (A) (A) (A) (A) (A) (A) (A) (A) (A) (A) (A)
                 (A) (A) (A) (A) (A) (A) (A) (A) (A) (A) (A) (A)
                 (A) (A) (A) (A) (A) (A) (A) (A) (A) (A) (A) (A)
                 (A) (A) (A) (A) (A) (A) (A) (A) (A) (A) (A) (A)
                 (A) (A) (A) (A) (A) (A) (A) (A) (A) (A) (A) (A)
                 (A) (A) (A) (A) (A) (A) (A) (A) (A) (A) (A) (A)
                 (A) (A) (A) (A) (A) (A) (A) (A) (A) (A) (A) (A)
                 (A) (A) (A) (A) (A) (A) (A) (A) (A) (A) (A) (A)
                 (A) (A) (A) (A) (A) (A) (A) (A) (A) (A) (A) (A)
                 (A) (A) (A) (A) (A) (A) (A) (A) (A) (A) (A) (A)
                 (A) (A) (A) (A) (A) (A) (A) (A) (A) (A) (A) (A)
                 (A) (A) (A) (A) (A) (A) (A) (A) (A) (A) (A) (A)
                 (A) (A) (A) (A) (A) (A) (A) (A) (A) (A) (A) (A)
                 (A) (A) (A) (A) (A) (A) (A) (A) (A) (A) (A) (A)
                 (A) (A) (A) (A) (A) (A) (A) (A) (A) (A) (A) (A)
                 (A) (A) (A) (A) (A) (A) (A) (A) (A) (A) (A) (A)
                 (A) (A) (A) (A) (A) (A) (A) (A) (A) (A) (A) (A)
                 (A) (A) (A) (A) (A) (A) (A) (A) (A) (A) (A) (A)
                 (A) (A) (A) (A) (A) (A) (A) (A) (A) (A) (A) (A)
                 (A) (A) (A) (A) (A) (A) (A) (A) (A) (A) (A) (A)
                 (A) (A) (A) (A) (A) (A) (A) (A) (A) (A) (A) (A)
                 (A) (A) (A) (A) (A) (A) (A) (A) (A) (A) (A) (A)
                 (A) (A) (A) (A) (A) (A) (A) (A) (A) (A) (A) (A)
                 (A) (A) (A) (A) (A) (A) (A) (A) (A) (A) (A) (A)
                 (A) (A) (A) (A) (A) (A) (A) (A) (A) (A) (A) (A)
                 (A) (A) (A) (A) (A) (A) (A) (A) (A) (A) (A) (A)
                 (A) (A) (A) (A) (A) (A) (A) (A) (A) (A) (A) (A)
                 (A) (A) (A) (A) (A) (A) (A) (A) (A) (A) (A) (A)
                 (A) (A) (A) (A) (A) (A) (A) (A) (A) (A) (A) (A)
                 (A) (A) (A) (A) (A) (A) (A) (A) (A) (A) (A) (A)
                 (A) (A) (A) (A) (A) (A) (A) (A) (A) (A) (A) (A)
                 (A) (A) (A) (A) (A) (A) (A) (A) (A) (A) (A) (A)
                 (A) (A) (A) (A) (A) (A) (A) (A) (A) (A) (A) (A)
                 (A) (A) (A) (A) (A) (A) (A) (A) (A) (A) (A) (A)
                 (A) (A) (A) (A) (A) (A) (A) (A) (A) (A) (A) (A)
                 (A) (A) (A) (A) (A) (A) (A) (A) (A) (A) (A) (A)
                 (A) (A) (A) (A) (A) (A) (A) (A) (A) (A) (A) (A)
                 (A) (A) (A) (A) (A) (A) (A) (A) (A) (A) (A) (A)
                 (A) (A) (A) (A) (A) (A) (A) (A) (A) (A) (A)
 The electronic state is 1-A.
 Alpha  occ. eigenvalues --  -19.19009 -19.18593 -19.17776 -19.17663 -19.17029
 Alpha  occ. eigenvalues --  -19.16841 -19.16566 -19.15757 -19.14647 -19.14351
 Alpha  occ. eigenvalues --  -19.13978 -10.30818 -10.30481 -10.25681 -10.25494
 Alpha  occ. eigenvalues --  -10.25283 -10.25259 -10.25056 -10.24431 -10.24365
 Alpha  occ. eigenvalues --  -10.24300 -10.24198 -10.24114  -1.10211  -1.09780
 Alpha  occ. eigenvalues --   -1.05386  -1.05132  -1.03617  -1.02936  -1.02819
 Alpha  occ. eigenvalues --   -1.02106  -1.01636  -1.00632  -1.00079  -0.82326
 Alpha  occ. eigenvalues --   -0.80719  -0.78998  -0.78360  -0.71777  -0.69964
 Alpha  occ. eigenvalues --   -0.67506  -0.64266  -0.62763  -0.62263  -0.61360
 Alpha  occ. eigenvalues --   -0.60792  -0.56593  -0.55636  -0.54682  -0.54390
 Alpha  occ. eigenvalues --   -0.53695  -0.53423  -0.52503  -0.51433  -0.51045
 Alpha  occ. eigenvalues --   -0.50679  -0.49868  -0.49358  -0.48492  -0.46631
 Alpha  occ. eigenvalues --   -0.45651  -0.45311  -0.44361  -0.43546  -0.42977
 Alpha  occ. eigenvalues --   -0.42517  -0.41667  -0.40919  -0.40572  -0.39815
 Alpha  occ. eigenvalues --   -0.39133  -0.38713  -0.37523  -0.36700  -0.36305
 Alpha  occ. eigenvalues --   -0.35117  -0.34495  -0.33958  -0.33712  -0.32856
 Alpha  occ. eigenvalues --   -0.31920  -0.31183  -0.30892  -0.30193  -0.29735
 Alpha  occ. eigenvalues --   -0.29260  -0.29063  -0.28091  -0.27770  -0.26694
 Alpha  occ. eigenvalues --   -0.26571
 Alpha virt. eigenvalues --   -0.01926  -0.01856  -0.01795  -0.00162   0.00169
 Alpha virt. eigenvalues --    0.00990   0.01927   0.02070   0.03079   0.03294
 Alpha virt. eigenvalues --    0.03570   0.04227   0.04934   0.05338   0.05704
 Alpha virt. eigenvalues --    0.06034   0.06755   0.07363   0.07439   0.08020
 Alpha virt. eigenvalues --    0.08337   0.08673   0.08846   0.09407   0.10196
 Alpha virt. eigenvalues --    0.10557   0.11026   0.11414   0.11801   0.12186
 Alpha virt. eigenvalues --    0.12376   0.12782   0.13115   0.13427   0.13913
 Alpha virt. eigenvalues --    0.13988   0.14104   0.14559   0.15094   0.15199
 Alpha virt. eigenvalues --    0.15363   0.16241   0.16800   0.16849   0.17105
 Alpha virt. eigenvalues --    0.17395   0.17695   0.17847   0.18181   0.18641
 Alpha virt. eigenvalues --    0.18751   0.19140   0.19289   0.19816   0.20065
 Alpha virt. eigenvalues --    0.20527   0.20604   0.20778   0.21309   0.21683
 Alpha virt. eigenvalues --    0.22102   0.22360   0.22443   0.22746   0.23171
 Alpha virt. eigenvalues --    0.23263   0.23775   0.24002   0.24416   0.24594
 Alpha virt. eigenvalues --    0.24797   0.25309   0.25404   0.25643   0.25924
 Alpha virt. eigenvalues --    0.25994   0.26623   0.26888   0.27208   0.27376
 Alpha virt. eigenvalues --    0.27548   0.27845   0.28134   0.28709   0.29054
 Alpha virt. eigenvalues --    0.29222   0.29509   0.29815   0.30099   0.30527
 Alpha virt. eigenvalues --    0.30759   0.31196   0.31770   0.31987   0.32139
 Alpha virt. eigenvalues --    0.32683   0.32948   0.33233   0.33380   0.33879
 Alpha virt. eigenvalues --    0.34160   0.34648   0.34856   0.35166   0.35566
 Alpha virt. eigenvalues --    0.35775   0.36319   0.36838   0.36955   0.37527
 Alpha virt. eigenvalues --    0.37896   0.38155   0.38656   0.39246   0.39352
 Alpha virt. eigenvalues --    0.40035   0.40370   0.40608   0.41233   0.41777
 Alpha virt. eigenvalues --    0.42018   0.42629   0.42922   0.43536   0.44033
 Alpha virt. eigenvalues --    0.44385   0.44873   0.45348   0.46423   0.46517
 Alpha virt. eigenvalues --    0.47516   0.47831   0.48598   0.48947   0.49369
 Alpha virt. eigenvalues --    0.50473   0.51562   0.54379   0.56636   0.57014
 Alpha virt. eigenvalues --    0.58861   0.59902   0.60354   0.60886   0.61621
 Alpha virt. eigenvalues --    0.62461   0.63188   0.64347   0.65070   0.65852
 Alpha virt. eigenvalues --    0.66324   0.66697   0.68478   0.69501   0.69638
 Alpha virt. eigenvalues --    0.70058   0.70988   0.71338   0.72622   0.73475
 Alpha virt. eigenvalues --    0.73871   0.74461   0.74819   0.75279   0.75703
 Alpha virt. eigenvalues --    0.77293   0.78150   0.79196   0.80334   0.80943
 Alpha virt. eigenvalues --    0.81443   0.82002   0.83216   0.83761   0.84366
 Alpha virt. eigenvalues --    0.86262   0.86615   0.87660   0.88667   0.88933
 Alpha virt. eigenvalues --    0.89609   0.90243   0.90941   0.91532   0.91846
 Alpha virt. eigenvalues --    0.92103   0.92391   0.92720   0.93011   0.93440
 Alpha virt. eigenvalues --    0.93799   0.94182   0.94979   0.95477   0.96341
 Alpha virt. eigenvalues --    0.96512   0.97117   0.97682   0.98316   0.98655
 Alpha virt. eigenvalues --    0.99257   0.99505   1.00332   1.00545   1.01831
 Alpha virt. eigenvalues --    1.02054   1.02889   1.03938   1.04479   1.04802
 Alpha virt. eigenvalues --    1.05508   1.06371   1.06675   1.07714   1.07974
 Alpha virt. eigenvalues --    1.08546   1.09055   1.09250   1.10041   1.10481
 Alpha virt. eigenvalues --    1.11098   1.11771   1.12854   1.13205   1.13981
 Alpha virt. eigenvalues --    1.15047   1.15768   1.15896   1.16131   1.16855
 Alpha virt. eigenvalues --    1.16933   1.17065   1.17605   1.18385   1.19302
 Alpha virt. eigenvalues --    1.19921   1.20509   1.21366   1.21612   1.22041
 Alpha virt. eigenvalues --    1.23386   1.23703   1.24074   1.24366   1.24882
 Alpha virt. eigenvalues --    1.25341   1.25998   1.26513   1.27301   1.27924
 Alpha virt. eigenvalues --    1.28883   1.29024   1.29355   1.30112   1.30853
 Alpha virt. eigenvalues --    1.31474   1.32416   1.33105   1.33479   1.34139
 Alpha virt. eigenvalues --    1.34199   1.35059   1.35348   1.36166   1.36308
 Alpha virt. eigenvalues --    1.37115   1.38085   1.38786   1.39107   1.39839
 Alpha virt. eigenvalues --    1.40428   1.41244   1.41809   1.42593   1.42759
 Alpha virt. eigenvalues --    1.44158   1.44984   1.45328   1.46129   1.46503
 Alpha virt. eigenvalues --    1.47128   1.48151   1.49573   1.50259   1.51395
 Alpha virt. eigenvalues --    1.51620   1.52283   1.52939   1.53998   1.55271
 Alpha virt. eigenvalues --    1.55673   1.56322   1.57598   1.58196   1.59128
 Alpha virt. eigenvalues --    1.61159   1.61343   1.61590   1.62399   1.63653
 Alpha virt. eigenvalues --    1.63849   1.64742   1.65359   1.66276   1.67261
 Alpha virt. eigenvalues --    1.67677   1.68790   1.69924   1.70295   1.70755
 Alpha virt. eigenvalues --    1.71961   1.72731   1.74248   1.75172   1.75947
 Alpha virt. eigenvalues --    1.76415   1.77315   1.78139   1.79923   1.81159
 Alpha virt. eigenvalues --    1.81435   1.82316   1.84166   1.85546   1.86178
 Alpha virt. eigenvalues --    1.86819   1.87728   1.89055   1.89915   1.90842
 Alpha virt. eigenvalues --    1.91306   1.93205   1.93742   1.94582   1.95278
 Alpha virt. eigenvalues --    1.96675   1.97295   1.98918   1.99321   2.00663
 Alpha virt. eigenvalues --    2.01651   2.03127   2.03878   2.04583   2.05618
 Alpha virt. eigenvalues --    2.07574   2.10185   2.10982   2.12384   2.13651
 Alpha virt. eigenvalues --    2.14469   2.14684   2.17314   2.18807   2.19104
 Alpha virt. eigenvalues --    2.20060   2.21501   2.22781   2.24208   2.26665
 Alpha virt. eigenvalues --    2.27190   2.28800   2.30666   2.31736   2.32845
 Alpha virt. eigenvalues --    2.34345   2.35206   2.38505   2.39508   2.40871
 Alpha virt. eigenvalues --    2.43184   2.45560   2.47213   2.47869   2.50411
 Alpha virt. eigenvalues --    2.51056   2.52882   2.53534   2.54468   2.54741
 Alpha virt. eigenvalues --    2.55257   2.56274   2.58344   2.60045   2.60577
 Alpha virt. eigenvalues --    2.61746   2.62778   2.63234   2.63610   2.65618
 Alpha virt. eigenvalues --    2.66076   2.67688   2.68363   2.70433   2.72490
 Alpha virt. eigenvalues --    2.74461   2.74828   2.76608   2.77669   2.79367
 Alpha virt. eigenvalues --    2.79740   2.80146   2.81611   2.82084   2.82343
 Alpha virt. eigenvalues --    2.83538   2.85393   2.86955   2.87967   2.88401
 Alpha virt. eigenvalues --    2.89396   2.89928   2.90889   2.91599   2.92463
 Alpha virt. eigenvalues --    2.93034   2.94136   2.95006   2.97394   2.98046
 Alpha virt. eigenvalues --    2.98411   2.98931   2.99727   3.01745   3.03067
 Alpha virt. eigenvalues --    3.03339   3.03958   3.05169   3.06477   3.07184
 Alpha virt. eigenvalues --    3.07980   3.08286   3.08874   3.09517   3.11335
 Alpha virt. eigenvalues --    3.13007   3.14006   3.14488   3.15198   3.16955
 Alpha virt. eigenvalues --    3.17400   3.19428   3.19588   3.22733   3.22878
 Alpha virt. eigenvalues --    3.23664   3.24362   3.24844   3.25727   3.27351
 Alpha virt. eigenvalues --    3.28416   3.30064   3.30619   3.31129   3.31778
 Alpha virt. eigenvalues --    3.33560   3.36096   3.38140   3.38556   3.40329
 Alpha virt. eigenvalues --    3.41020   3.41556   3.42913   3.43769   3.44216
 Alpha virt. eigenvalues --    3.44956   3.46248   3.48096   3.49490   3.51720
 Alpha virt. eigenvalues --    3.52138   3.54373   3.56495   3.58733   3.60871
 Alpha virt. eigenvalues --    3.62020   3.62568   3.64494   3.64729   3.65829
 Alpha virt. eigenvalues --    3.66800   3.68296   3.71176   3.73336   3.74055
 Alpha virt. eigenvalues --    3.75403   3.77411   3.78130   3.79636   3.80434
 Alpha virt. eigenvalues --    3.81897   3.82956   3.83956   3.85692   3.86981
 Alpha virt. eigenvalues --    3.87302   3.89372   3.90676   3.91324   3.93366
 Alpha virt. eigenvalues --    3.95722   3.96713   3.97833   4.00707   4.02735
 Alpha virt. eigenvalues --    4.03837   4.05285   4.09053   4.10332   4.14240
 Alpha virt. eigenvalues --    4.14946   4.16395   4.18410   4.18656   4.20662
 Alpha virt. eigenvalues --    4.20690   4.21771   4.22783   4.24071   4.25582
 Alpha virt. eigenvalues --    4.26824   4.28727   4.29922   4.30762   4.31156
 Alpha virt. eigenvalues --    4.31838   4.32810   4.32992   4.34998   4.35868
 Alpha virt. eigenvalues --    4.36496   4.37196   4.37709   4.37884   4.39042
 Alpha virt. eigenvalues --    4.40522   4.41225   4.41289   4.41958   4.43297
 Alpha virt. eigenvalues --    4.43621   4.44804   4.45274   4.46555   4.47112
 Alpha virt. eigenvalues --    4.48488   4.48995   4.49321   4.50605   4.51426
 Alpha virt. eigenvalues --    4.52168   4.52740   4.53375   4.54335   4.54461
 Alpha virt. eigenvalues --    4.55108   4.56835   4.57470   4.58343   4.58392
 Alpha virt. eigenvalues --    4.59070   4.60022   4.60252   4.61106   4.61752
 Alpha virt. eigenvalues --    4.62442   4.62969   4.64197   4.65005   4.65546
 Alpha virt. eigenvalues --    4.65612   4.66345   4.67340   4.67869   4.68355
 Alpha virt. eigenvalues --    4.69221   4.69948   4.71211   4.72145   4.72324
 Alpha virt. eigenvalues --    4.73284   4.74176   4.74399   4.75082   4.75843
 Alpha virt. eigenvalues --    4.76521   4.77643   4.78509   4.78697   4.79547
 Alpha virt. eigenvalues --    4.79935   4.81160   4.81681   4.82043   4.82602
 Alpha virt. eigenvalues --    4.83099   4.84069   4.84599   4.86024   4.86537
 Alpha virt. eigenvalues --    4.87377   4.88992   4.89979   4.90586   4.91491
 Alpha virt. eigenvalues --    4.91922   4.93338   4.93849   4.95231   4.96608
 Alpha virt. eigenvalues --    4.98009   4.99334   5.00308   5.01417   5.01553
 Alpha virt. eigenvalues --    5.03101   5.04730   5.06665   5.07866   5.11415
 Alpha virt. eigenvalues --    5.12867   5.13705   5.15675   5.16704   5.18488
 Alpha virt. eigenvalues --    5.19115   5.19955   5.20969   5.23212   5.24557
 Alpha virt. eigenvalues --    5.25451   5.26963   5.27317   5.28073   5.28565
 Alpha virt. eigenvalues --    5.29480   5.32754   5.34830   5.35419   5.36393
 Alpha virt. eigenvalues --    5.37152   5.38009   5.38689   5.39416   5.39486
 Alpha virt. eigenvalues --    5.41036   5.41121   5.42423   5.42848   5.43987
 Alpha virt. eigenvalues --    5.44798   5.45391   5.46075   5.47270   5.47468
 Alpha virt. eigenvalues --    5.48728   5.49198   5.50036   5.50387   5.51806
 Alpha virt. eigenvalues --    5.52877   5.53575   5.54053   5.54719   5.55782
 Alpha virt. eigenvalues --    5.57385   5.60029   5.62607   5.63976   5.66294
 Alpha virt. eigenvalues --    5.67113   5.68926   5.70578   5.71969   5.73834
 Alpha virt. eigenvalues --    5.75584   5.78825   5.80031   5.81974   5.82783
 Alpha virt. eigenvalues --    5.84734   5.86501   5.87121   5.88151   5.89389
 Alpha virt. eigenvalues --    5.90737   5.92268   5.92461   5.92738   5.93700
 Alpha virt. eigenvalues --    5.95762   5.98316   5.99142   6.00650   6.01063
 Alpha virt. eigenvalues --    6.02295   6.03674   6.04247   6.04938   6.06637
 Alpha virt. eigenvalues --    6.08591   6.09586   6.11795   6.12614   6.13496
 Alpha virt. eigenvalues --    6.16159   6.16753   6.18229   6.20949   6.22288
 Alpha virt. eigenvalues --    6.23801   6.25696   6.27321   6.34863   6.37867
 Alpha virt. eigenvalues --    6.61601   6.71080   7.01267   7.06949   7.08006
 Alpha virt. eigenvalues --    7.11159   7.14996   7.27589   7.31109   7.32342
 Alpha virt. eigenvalues --    7.32869   7.40092   7.51967   7.60377   7.68614
 Alpha virt. eigenvalues --    7.96211   8.20143  12.07211  12.09799  12.23830
 Alpha virt. eigenvalues --   12.32850  12.42826  12.52380  12.84613  12.94796
 Alpha virt. eigenvalues --   13.00027  13.09306  13.28262  13.35384  13.39491
 Alpha virt. eigenvalues --   13.44275  13.50314  13.53734  13.58084  13.69307
 Alpha virt. eigenvalues --   13.74449  13.80109  14.08038  14.12002  14.25954
          Condensed to atoms (all electrons):
              1          2          3          4          5          6
     1  O    8.066826   0.199968  -0.027810  -0.018114   0.016463   0.019265
     2  C    0.199968   7.313951  -0.351886   0.052247  -0.069441  -1.255850
     3  C   -0.027810  -0.351886   6.487946   0.213665   0.025596   0.478748
     4  O   -0.018114   0.052247   0.213665   8.110520   0.235214  -0.135524
     5  H    0.016463  -0.069441   0.025596   0.235214   0.422540   0.004565
     6  C    0.019265  -1.255850   0.478748  -0.135524   0.004565   7.837079
     7  O   -0.000368   0.018383  -0.108837   0.005665  -0.000480   0.307591
     8  H    0.000004  -0.002745   0.016223  -0.000253   0.000013  -0.002764
     9  C    0.016016   0.134521  -0.240930   0.014849  -0.003993   0.060009
    10  O   -0.007698   0.015210   0.003139  -0.000062  -0.000024  -0.000391
    11  H    0.001798  -0.010135   0.000137   0.000001   0.000000   0.000315
    12  C   -0.094110  -0.971296   0.098841   0.013688   0.017370   0.226694
    13  O    0.002875  -0.049364  -0.045937  -0.000887  -0.000018   0.002459
    14  C   -0.015202   0.567590  -0.341051  -0.016160   0.009619  -1.488649
    15  O   -0.000198  -0.010410  -0.024198   0.000877  -0.000015  -0.065466
    16  C    0.000278   0.080403  -0.101628  -0.002748   0.000236   0.004853
    17  C   -0.000175  -0.048779   0.015985   0.000709   0.000044  -0.111802
    18  O    0.000050   0.010403  -0.000307   0.000001   0.000000  -0.004290
    19  H   -0.000051   0.000967   0.002536   0.000008   0.000000  -0.003296
    20  C    0.000089   0.006327  -0.018027  -0.000040   0.000002   0.034127
    21  O    0.000000   0.000016  -0.000026   0.000000   0.000000  -0.000151
    22  H    0.000000  -0.000001   0.000001   0.000000   0.000000  -0.000031
    23  C   -0.000003   0.011272  -0.006094  -0.000011  -0.000011  -0.076234
    24  O    0.000005  -0.000535  -0.005980   0.000006  -0.000002   0.008568
    25  H    0.000000   0.000081   0.001171   0.000004   0.000000   0.000278
    26  C    0.000057  -0.018814  -0.004508   0.000157   0.000021   0.072910
    27  O    0.000000   0.000035   0.000208   0.000000   0.000000   0.000571
    28  C    0.000000   0.000259   0.000859  -0.000001   0.000000   0.002697
    29  O    0.000000   0.000005   0.000022   0.000000   0.000000  -0.000240
    30  H    0.000000   0.000000   0.000000   0.000000   0.000000   0.000007
    31  H    0.272314   0.055270  -0.022625  -0.000034  -0.001513   0.001920
    32  H   -0.009726   0.336008  -0.070781   0.004441  -0.000499   0.005989
    33  H   -0.000556   0.031069   0.268622  -0.010571  -0.002060  -0.179478
    34  H   -0.000029   0.018909  -0.119206   0.006528  -0.000167   0.356281
    35  H    0.000059  -0.016686  -0.042495   0.000817   0.000002  -0.005482
    36  H    0.004899   0.060508  -0.071194   0.000673   0.000009  -0.013856
    37  H   -0.000404  -0.011595   0.001665   0.000012   0.000000  -0.001104
    38  H    0.002371   0.012624  -0.001272  -0.000062   0.000000   0.006463
    39  H    0.000000  -0.002223   0.005872   0.000003   0.000000   0.000327
    40  H    0.000000  -0.000301   0.001303   0.000000   0.000000   0.008810
    41  H    0.000000  -0.000077   0.001239   0.000000   0.000000  -0.004968
    42  H    0.000000  -0.000018  -0.000097   0.000000   0.000000   0.000377
    43  H    0.000000   0.000057   0.000398   0.000000   0.000000  -0.004557
    44  H    0.000000   0.000005   0.000005   0.000000   0.000000   0.000008
    45  H    0.000000   0.000103   0.000027   0.000000   0.000000   0.001400
              7          8          9         10         11         12
     1  O   -0.000368   0.000004   0.016016  -0.007698   0.001798  -0.094110
     2  C    0.018383  -0.002745   0.134521   0.015210  -0.010135  -0.971296
     3  C   -0.108837   0.016223  -0.240930   0.003139   0.000137   0.098841
     4  O    0.005665  -0.000253   0.014849  -0.000062   0.000001   0.013688
     5  H   -0.000480   0.000013  -0.003993  -0.000024   0.000000   0.017370
     6  C    0.307591  -0.002764   0.060009  -0.000391   0.000315   0.226694
     7  O    8.085745   0.254037   0.001998   0.000000   0.000000   0.010367
     8  H    0.254037   0.332017  -0.000349   0.000000   0.000000  -0.003149
     9  C    0.001998  -0.000349   7.365006   0.155594  -0.015774  -1.481583
    10  O    0.000000   0.000000   0.155594   8.113561   0.237989  -0.014275
    11  H    0.000000   0.000000  -0.015774   0.237989   0.435735   0.025991
    12  C    0.010367  -0.003149  -1.481583  -0.014275   0.025991   9.239653
    13  O    0.003324   0.000142  -0.030912   0.000122  -0.000754   0.066169
    14  C   -0.058003  -0.039015  -0.582699   0.004189  -0.003705  -0.919517
    15  O   -0.003208   0.008894   0.002479   0.000087  -0.000001  -0.001737
    16  C   -0.002744   0.009310  -0.071664  -0.000705  -0.000071   0.013021
    17  C   -0.001538   0.001084   0.003965  -0.000355  -0.000025  -0.075734
    18  O    0.000104  -0.000028  -0.009696  -0.000160  -0.000014   0.001673
    19  H   -0.000072  -0.000004  -0.001015   0.000017  -0.000003  -0.003453
    20  C    0.001713   0.000809  -0.001744  -0.000059   0.000009  -0.024153
    21  O   -0.000002   0.000000   0.000180   0.000000   0.000000   0.000055
    22  H    0.000000   0.000000   0.000000   0.000000   0.000000   0.000013
    23  C    0.003201  -0.000607  -0.002387  -0.000005   0.000000  -0.000688
    24  O   -0.032636   0.013909   0.000024   0.000000   0.000000   0.000550
    25  H    0.002395  -0.003066  -0.000011   0.000000   0.000000  -0.000217
    26  C    0.006824  -0.005226  -0.001787  -0.000038  -0.000004  -0.016376
    27  O   -0.000099  -0.000064   0.000064   0.000000   0.000000   0.000289
    28  C   -0.000702   0.000026   0.002292   0.000011   0.000001   0.004662
    29  O   -0.000001  -0.000001  -0.000002   0.000000   0.000000   0.000057
    30  H    0.000000   0.000000   0.000000   0.000000   0.000000  -0.000002
    31  H   -0.000004   0.000000   0.007393  -0.000042  -0.000056  -0.048054
    32  H    0.000610   0.000000  -0.026486  -0.000971  -0.000007  -0.059092
    33  H    0.006905  -0.000156   0.015235  -0.000145   0.000000   0.036253
    34  H   -0.026372  -0.003384   0.018144   0.000017   0.000000   0.069941
    35  H   -0.000462  -0.000005   0.022108   0.000096   0.000000   0.077077
    36  H    0.000120   0.000001   0.079499  -0.000104  -0.000256   0.068295
    37  H   -0.000010   0.000000   0.414185  -0.015780  -0.013927  -0.042275
    38  H    0.000004   0.000000   0.588610  -0.054489   0.000869  -0.246546
    39  H   -0.000814  -0.000154  -0.000095   0.000000   0.000000  -0.003042
    40  H    0.000009  -0.000002  -0.001006   0.000000   0.000000  -0.003726
    41  H   -0.000138  -0.000032   0.000107   0.000000   0.000000   0.000748
    42  H   -0.000419   0.000194   0.000000   0.000000   0.000000   0.000073
    43  H    0.000265  -0.000044  -0.000002   0.000000   0.000000   0.000007
    44  H    0.000000   0.000000   0.000003   0.000000   0.000000   0.000079
    45  H    0.000002   0.000000  -0.000053   0.000000   0.000000   0.000238
             13         14         15         16         17         18
     1  O    0.002875  -0.015202  -0.000198   0.000278  -0.000175   0.000050
     2  C   -0.049364   0.567590  -0.010410   0.080403  -0.048779   0.010403
     3  C   -0.045937  -0.341051  -0.024198  -0.101628   0.015985  -0.000307
     4  O   -0.000887  -0.016160   0.000877  -0.002748   0.000709   0.000001
     5  H   -0.000018   0.009619  -0.000015   0.000236   0.000044   0.000000
     6  C    0.002459  -1.488649  -0.065466   0.004853  -0.111802  -0.004290
     7  O    0.003324  -0.058003  -0.003208  -0.002744  -0.001538   0.000104
     8  H    0.000142  -0.039015   0.008894   0.009310   0.001084  -0.000028
     9  C   -0.030912  -0.582699   0.002479  -0.071664   0.003965  -0.009696
    10  O    0.000122   0.004189   0.000087  -0.000705  -0.000355  -0.000160
    11  H   -0.000754  -0.003705  -0.000001  -0.000071  -0.000025  -0.000014
    12  C    0.066169  -0.919517  -0.001737   0.013021  -0.075734   0.001673
    13  O    7.896851   0.274335  -0.012718  -0.018699   0.041279  -0.022779
    14  C    0.274335   8.347900   0.250520  -0.474341   0.315313   0.016421
    15  O   -0.012718   0.250520   7.904308   0.223176  -0.025929  -0.013176
    16  C   -0.018699  -0.474341   0.223176   9.999880  -1.777749  -0.045105
    17  C    0.041279   0.315313  -0.025929  -1.777749   8.214146   0.301311
    18  O   -0.022779   0.016421  -0.013176  -0.045105   0.301311   8.072190
    19  H    0.026599  -0.010599   0.008665  -0.039230   0.011157   0.238917
    20  C   -0.008928  -0.269251   0.005522  -0.836788  -0.864846  -0.098905
    21  O   -0.000092   0.002453   0.000390   0.060363  -0.174700   0.012334
    22  H    0.000002  -0.000173  -0.000009  -0.008380   0.045019  -0.000537
    23  C    0.004796   0.092663  -0.017587   0.120439  -0.292027   0.010746
    24  O   -0.002189   0.040125  -0.038417   0.018298  -0.006324  -0.000075
    25  H    0.000003  -0.006042   0.002700  -0.013139  -0.000418  -0.000001
    26  C   -0.024873  -0.423351  -0.073089  -2.335047   0.395288   0.004581
    27  O   -0.000038   0.012631   0.002183   0.129439  -0.017279  -0.001367
    28  C   -0.000792   0.063132   0.009553   1.044629  -0.133529  -0.000015
    29  O    0.000019   0.000800  -0.000177  -0.048081  -0.021752   0.000164
    30  H    0.000000   0.000009   0.000002   0.002989   0.011334  -0.000003
    31  H   -0.000717   0.000040   0.000005   0.000129  -0.000076  -0.000001
    32  H    0.006960   0.078559  -0.000082  -0.001549   0.001524   0.000021
    33  H    0.005602   0.073306   0.001398  -0.005236   0.003245   0.000067
    34  H    0.006355  -0.051022  -0.005597  -0.021040   0.004883   0.000074
    35  H   -0.043041   0.248106  -0.003542   0.001038   0.004166  -0.002500
    36  H   -0.023008   0.142278  -0.000571  -0.001821   0.006240  -0.000543
    37  H   -0.005300  -0.002726  -0.000170   0.000448   0.001763   0.000209
    38  H   -0.007164  -0.002749  -0.000602  -0.003030   0.001469  -0.000120
    39  H   -0.003651  -0.001129  -0.015927   0.076557   0.065901  -0.003849
    40  H   -0.000382  -0.013661  -0.002028  -0.142768   0.268885  -0.025587
    41  H   -0.000634   0.035292  -0.000116  -0.036177  -0.013354   0.000643
    42  H    0.000008   0.005620   0.000326   0.027256   0.001765   0.000011
    43  H    0.000087   0.005702   0.003437   0.032598  -0.006731   0.000067
    44  H    0.000005   0.000819   0.000241   0.039232  -0.015532   0.000097
    45  H   -0.000012  -0.004370   0.001478   0.080660  -0.241443   0.004631
             19         20         21         22         23         24
     1  O   -0.000051   0.000089   0.000000   0.000000  -0.000003   0.000005
     2  C    0.000967   0.006327   0.000016  -0.000001   0.011272  -0.000535
     3  C    0.002536  -0.018027  -0.000026   0.000001  -0.006094  -0.005980
     4  O    0.000008  -0.000040   0.000000   0.000000  -0.000011   0.000006
     5  H    0.000000   0.000002   0.000000   0.000000  -0.000011  -0.000002
     6  C   -0.003296   0.034127  -0.000151  -0.000031  -0.076234   0.008568
     7  O   -0.000072   0.001713  -0.000002   0.000000   0.003201  -0.032636
     8  H   -0.000004   0.000809   0.000000   0.000000  -0.000607   0.013909
     9  C   -0.001015  -0.001744   0.000180   0.000000  -0.002387   0.000024
    10  O    0.000017  -0.000059   0.000000   0.000000  -0.000005   0.000000
    11  H   -0.000003   0.000009   0.000000   0.000000   0.000000   0.000000
    12  C   -0.003453  -0.024153   0.000055   0.000013  -0.000688   0.000550
    13  O    0.026599  -0.008928  -0.000092   0.000002   0.004796  -0.002189
    14  C   -0.010599  -0.269251   0.002453  -0.000173   0.092663   0.040125
    15  O    0.008665   0.005522   0.000390  -0.000009  -0.017587  -0.038417
    16  C   -0.039230  -0.836788   0.060363  -0.008380   0.120439   0.018298
    17  C    0.011157  -0.864846  -0.174700   0.045019  -0.292027  -0.006324
    18  O    0.238917  -0.098905   0.012334  -0.000537   0.010746  -0.000075
    19  H    0.358368   0.014525  -0.000169   0.000008  -0.002912   0.000027
    20  C    0.014525   7.985646   0.250975  -0.065679   0.103113  -0.004042
    21  O   -0.000169   0.250975   8.108827   0.247002   0.000477   0.000003
    22  H    0.000008  -0.065679   0.247002   0.417142  -0.000396   0.000000
    23  C   -0.002912   0.103113   0.000477  -0.000396   6.482947   0.045996
    24  O    0.000027  -0.004042   0.000003   0.000000   0.045996   8.185581
    25  H    0.000000   0.000689   0.000000   0.000000  -0.046143   0.253451
    26  C    0.002760   0.956682  -0.031247   0.003234  -0.844033   0.053570
    27  O    0.000142  -0.210548   0.001874   0.000262  -0.121863   0.002768
    28  C    0.001688  -1.169551   0.041523   0.004612  -0.140714   0.005882
    29  O   -0.000007   0.091697  -0.019235   0.016065   0.023927  -0.000023
    30  H    0.000000  -0.046256   0.000914  -0.002252  -0.001177  -0.000002
    31  H    0.000000   0.000001   0.000000   0.000000   0.000002   0.000000
    32  H   -0.000013   0.000026   0.000000   0.000000   0.000017   0.000009
    33  H    0.000003   0.000043   0.000000   0.000000   0.000057   0.000034
    34  H   -0.000006   0.000723   0.000000   0.000000   0.001481   0.000075
    35  H    0.000313   0.010079   0.000004   0.000000  -0.001145  -0.000031
    36  H    0.000006   0.000591  -0.000001   0.000000  -0.000023   0.000000
    37  H    0.001577  -0.000251   0.000003   0.000000   0.000002   0.000000
    38  H    0.000039   0.000048   0.000000   0.000000  -0.000026   0.000000
    39  H    0.000240   0.019507  -0.000508   0.000007  -0.033078   0.001103
    40  H   -0.006185   0.045689  -0.002843  -0.000198   0.015135   0.000003
    41  H    0.000030  -0.063103   0.000304   0.000004   0.094370   0.000371
    42  H    0.000000  -0.003488  -0.000001   0.000000   0.403045  -0.032016
    43  H    0.000000  -0.003731   0.000006   0.000000   0.586085  -0.052339
    44  H    0.000005  -0.095538   0.004410   0.000442   0.003606   0.000019
    45  H   -0.000080   0.371000  -0.028056  -0.004030   0.008781   0.000016
             25         26         27         28         29         30
     1  O    0.000000   0.000057   0.000000   0.000000   0.000000   0.000000
     2  C    0.000081  -0.018814   0.000035   0.000259   0.000005   0.000000
     3  C    0.001171  -0.004508   0.000208   0.000859   0.000022   0.000000
     4  O    0.000004   0.000157   0.000000  -0.000001   0.000000   0.000000
     5  H    0.000000   0.000021   0.000000   0.000000   0.000000   0.000000
     6  C    0.000278   0.072910   0.000571   0.002697  -0.000240   0.000007
     7  O    0.002395   0.006824  -0.000099  -0.000702  -0.000001   0.000000
     8  H   -0.003066  -0.005226  -0.000064   0.000026  -0.000001   0.000000
     9  C   -0.000011  -0.001787   0.000064   0.002292  -0.000002   0.000000
    10  O    0.000000  -0.000038   0.000000   0.000011   0.000000   0.000000
    11  H    0.000000  -0.000004   0.000000   0.000001   0.000000   0.000000
    12  C   -0.000217  -0.016376   0.000289   0.004662   0.000057  -0.000002
    13  O    0.000003  -0.024873  -0.000038  -0.000792   0.000019   0.000000
    14  C   -0.006042  -0.423351   0.012631   0.063132   0.000800   0.000009
    15  O    0.002700  -0.073089   0.002183   0.009553  -0.000177   0.000002
    16  C   -0.013139  -2.335047   0.129439   1.044629  -0.048081   0.002989
    17  C   -0.000418   0.395288  -0.017279  -0.133529  -0.021752   0.011334
    18  O   -0.000001   0.004581  -0.001367  -0.000015   0.000164  -0.000003
    19  H    0.000000   0.002760   0.000142   0.001688  -0.000007   0.000000
    20  C    0.000689   0.956682  -0.210548  -1.169551   0.091697  -0.046256
    21  O    0.000000  -0.031247   0.001874   0.041523  -0.019235   0.000914
    22  H    0.000000   0.003234   0.000262   0.004612   0.016065  -0.002252
    23  C   -0.046143  -0.844033  -0.121863  -0.140714   0.023927  -0.001177
    24  O    0.253451   0.053570   0.002768   0.005882  -0.000023  -0.000002
    25  H    0.414689   0.048696  -0.000564  -0.001193  -0.000004   0.000000
    26  C    0.048696   9.369198   0.085322  -1.232379   0.021348  -0.013103
    27  O   -0.000564   0.085322   7.999646   0.331099  -0.111758   0.000724
    28  C   -0.001193  -1.232379   0.331099   6.482247   0.184095   0.036443
    29  O   -0.000004   0.021348  -0.111758   0.184095   8.076505   0.265831
    30  H    0.000000  -0.013103   0.000724   0.036443   0.265831   0.415088
    31  H    0.000000  -0.000006   0.000000   0.000000   0.000000   0.000000
    32  H    0.000000  -0.000052   0.000000  -0.000002   0.000000   0.000000
    33  H    0.000000  -0.000497   0.000000  -0.000002   0.000000   0.000000
    34  H   -0.000006  -0.003093  -0.000001   0.000008   0.000000   0.000000
    35  H    0.000006   0.017181   0.000072  -0.000461  -0.000002   0.000000
    36  H    0.000000   0.000594   0.000000  -0.000013   0.000000   0.000000
    37  H    0.000000   0.000128   0.000000  -0.000016   0.000000   0.000000
    38  H    0.000000  -0.000055   0.000000   0.000009   0.000000   0.000000
    39  H   -0.000007   0.134266   0.000315   0.001714  -0.000523   0.000005
    40  H    0.000000   0.118753  -0.000335  -0.042108   0.000638   0.000009
    41  H   -0.000158   0.190219  -0.035434   0.063954  -0.001623   0.000050
    42  H   -0.007183  -0.071732  -0.001571   0.005943  -0.000173  -0.000001
    43  H   -0.004643  -0.255014  -0.001799   0.004008  -0.000301   0.000001
    44  H    0.000000   0.007813  -0.038158   0.390714  -0.016623  -0.007861
    45  H    0.000000   0.005003  -0.001384   0.044394  -0.007095   0.000304
             31         32         33         34         35         36
     1  O    0.272314  -0.009726  -0.000556  -0.000029   0.000059   0.004899
     2  C    0.055270   0.336008   0.031069   0.018909  -0.016686   0.060508
     3  C   -0.022625  -0.070781   0.268622  -0.119206  -0.042495  -0.071194
     4  O   -0.000034   0.004441  -0.010571   0.006528   0.000817   0.000673
     5  H   -0.001513  -0.000499  -0.002060  -0.000167   0.000002   0.000009
     6  C    0.001920   0.005989  -0.179478   0.356281  -0.005482  -0.013856
     7  O   -0.000004   0.000610   0.006905  -0.026372  -0.000462   0.000120
     8  H    0.000000   0.000000  -0.000156  -0.003384  -0.000005   0.000001
     9  C    0.007393  -0.026486   0.015235   0.018144   0.022108   0.079499
    10  O   -0.000042  -0.000971  -0.000145   0.000017   0.000096  -0.000104
    11  H   -0.000056  -0.000007   0.000000   0.000000   0.000000  -0.000256
    12  C   -0.048054  -0.059092   0.036253   0.069941   0.077077   0.068295
    13  O   -0.000717   0.006960   0.005602   0.006355  -0.043041  -0.023008
    14  C    0.000040   0.078559   0.073306  -0.051022   0.248106   0.142278
    15  O    0.000005  -0.000082   0.001398  -0.005597  -0.003542  -0.000571
    16  C    0.000129  -0.001549  -0.005236  -0.021040   0.001038  -0.001821
    17  C   -0.000076   0.001524   0.003245   0.004883   0.004166   0.006240
    18  O   -0.000001   0.000021   0.000067   0.000074  -0.002500  -0.000543
    19  H    0.000000  -0.000013   0.000003  -0.000006   0.000313   0.000006
    20  C    0.000001   0.000026   0.000043   0.000723   0.010079   0.000591
    21  O    0.000000   0.000000   0.000000   0.000000   0.000004  -0.000001
    22  H    0.000000   0.000000   0.000000   0.000000   0.000000   0.000000
    23  C    0.000002   0.000017   0.000057   0.001481  -0.001145  -0.000023
    24  O    0.000000   0.000009   0.000034   0.000075  -0.000031   0.000000
    25  H    0.000000   0.000000   0.000000  -0.000006   0.000006   0.000000
    26  C   -0.000006  -0.000052  -0.000497  -0.003093   0.017181   0.000594
    27  O    0.000000   0.000000   0.000000  -0.000001   0.000072   0.000000
    28  C    0.000000  -0.000002  -0.000002   0.000008  -0.000461  -0.000013
    29  O    0.000000   0.000000   0.000000   0.000000  -0.000002   0.000000
    30  H    0.000000   0.000000   0.000000   0.000000   0.000000   0.000000
    31  H    0.398074  -0.011605  -0.000102   0.000014   0.000004  -0.000155
    32  H   -0.011605   0.592340   0.005316   0.001916  -0.000075   0.005742
    33  H   -0.000102   0.005316   0.604524   0.006052   0.002253   0.001886
    34  H    0.000014   0.001916   0.006052   0.593137   0.005000  -0.000106
    35  H    0.000004  -0.000075   0.002253   0.005000   0.579341   0.001964
    36  H   -0.000155   0.005742   0.001886  -0.000106   0.001964   0.603031
    37  H    0.000032   0.000044   0.000006   0.000001  -0.000036  -0.003049
    38  H   -0.000441   0.003318  -0.000006  -0.000028  -0.000018   0.006271
    39  H    0.000000   0.000000  -0.000001  -0.000007   0.003761  -0.000002
    40  H    0.000000   0.000000   0.000000  -0.000006  -0.000030  -0.000001
    41  H    0.000000   0.000000   0.000000  -0.000001  -0.000004   0.000000
    42  H    0.000000   0.000000   0.000000   0.000000   0.000000   0.000000
    43  H    0.000000   0.000000   0.000000   0.000000   0.000009   0.000000
    44  H    0.000000   0.000000   0.000000   0.000000   0.000000   0.000000
    45  H    0.000000   0.000000   0.000000   0.000000  -0.000002   0.000000
             37         38         39         40         41         42
     1  O   -0.000404   0.002371   0.000000   0.000000   0.000000   0.000000
[...]
 000162,0.00000664,0.00000634,0.00003691,0.00002710,-0.00004251,-0.0000
 6543,-0.00006635,0.00007159,0.00014751,-0.00005383,-0.00015119,-0.0002
 0423,0.00037248,0.00144061,-0.00042556,0.00047429,0.00018406,0.0001864
 2,-0.00008618,0.00013507,0.00000767,-0.00000147,0.00001680,-0.00000317
 ,-0.00004290,0.00006252,-0.00008460,0.00002053,-0.00000460,0.00005414,
 -0.00000187,-0.00000876,-0.00000685,-0.12588961,-0.08074538,-0.1114517
 7,0.01020300,0.00531423,0.01473362,0.00060799,0.00112473,-0.00110270,0
 .00389850,0.00796946,0.00557653,0.00022609,-0.00083359,0.00043491,-0.0
 0003453,0.00010809,0.00010041,-0.00006587,-0.00000748,0.00021127,0.000
 00370,-0.00007644,-0.00000596,0.00000005,0.00000162,0.00000485,-0.0000
 0003,-0.00000027,-0.00000086,0.00000447,0.00000154,-0.00000037,-0.0000
 0106,-0.00000132,-0.00000606,0.00001854,0.00001301,0.00000469,-0.00000
 085,0.00000133,-0.00000191,-0.00000083,0.00000193,-0.00000125,0.000000
 57,-0.00000140,-0.00000037,0.00028765,0.00039871,0.00018963,-0.0000018
 4,-0.00009212,0.00003436,0.00123001,-0.00030789,0.00082086,0.12521504,
 -0.00001069,0.00002991,-0.00005217,0.00000265,-0.00004559,0.00005569,-
 0.00002647,0.00006493,0.00004971,-0.00000363,0.00005181,-0.00006949,0.
 00000208,-0.00000031,-0.00000092,0.00014157,-0.00042026,-0.00013443,0.
 00022657,0.00050280,0.00070082,-0.00052842,-0.00048630,-0.00098932,-0.
 00001094,0.00002490,0.00003512,0.00000022,-0.00003815,-0.00004966,-0.0
 0000410,0.00000896,0.00000813,0.00004420,0.00002141,0.00013082,-0.0000
 0530,0.00003144,-0.00031677,0.00022965,0.00009232,0.00061237,-0.000052
 13,0.00061882,-0.00027777,0.00248104,-0.00610663,0.00398005,-0.0012467
 9,0.00039755,-0.00177989,0.00028895,-0.00131971,-0.00036701,-0.0001246
 4,-0.00000736,0.00033874,0.00001155,0.00026954,-0.00046564,0.00004784,
 0.00005482,0.00028345,-0.00001951,-0.00007290,-0.00001162,-0.07789840,
 -0.12735935,-0.11661563,0.00489982,0.00625978,0.02123850,0.00056453,0.
 00207624,0.00105615,-0.01786737,-0.02252818,-0.02499975,0.00057783,0.0
 0292310,-0.00031382,0.00022587,-0.00040199,0.00013417,0.00001744,0.000
 04571,0.00021055,-0.00002901,-0.00006734,0.00001573,-0.00000193,-0.000
 00075,0.00000998,0.00000106,0.00000125,-0.00000371,0.00000937,-0.00000
 233,-0.00000249,-0.00002895,0.00002073,-0.00000495,-0.00001523,-0.0000
 2766,-0.00001650,-0.00000383,-0.00000317,-0.00000750,-0.00000408,0.000
 02015,-0.00000240,0.00000573,-0.00000043,-0.00000563,0.00001707,0.0002
 1701,0.00016766,0.00017166,-0.00005053,0.00005461,0.00023051,0.0016146
 9,-0.00032796,0.08390106,0.13911326,0.00000582,-0.00007841,-0.00009019
 ,-0.00004554,0.00009740,0.00000828,0.00009568,-0.00013106,0.00006327,0
 .00001356,-0.00000359,-0.00006618,-0.00000389,-0.00000769,0.00001113,-
 0.00038014,0.00061569,0.00018887,-0.00039075,-0.00088013,-0.00133553,0
 .00108738,0.00098949,0.00214664,-0.00000795,0.00003789,0.00001905,-0.0
 0000387,-0.00004412,-0.00002040,0.00000178,0.00000779,0.00000005,0.000
 03080,0.00004410,0.00002673,0.00004794,-0.00024064,0.00004244,-0.00004
 430,0.00019565,-0.00010720,-0.00001707,-0.00035030,0.00026224,0.000496
 95,0.00112731,-0.00029724,-0.00005624,-0.00000304,0.00015994,-0.000020
 78,0.00010824,0.00015066,0.00000786,0.00007060,-0.00012105,-0.00002810
 ,0.00000978,-0.00006680,0.00001372,0.00000956,0.00004557,-0.00000536,-
 0.00001613,-0.00000332,-0.10732528,-0.11289857,-0.18767499,-0.00900042
 ,-0.00247421,-0.04476684,0.00030664,-0.00106163,-0.00019487,-0.0001724
 0,0.00078406,0.00208838,-0.00007673,0.00013526,0.00113714,0.00004347,-
 0.00003148,0.00017616,0.00000278,0.00000190,0.00002953,-0.00000902,-0.
 00001282,0.00000760,-0.00000968,0.00000324,0.00001005,0.00000003,-0.00
 000513,-0.00000286,-0.00000589,0.00000558,-0.00000134,0.00005157,-0.00
 003785,0.00001508,-0.00000480,-0.00000350,-0.00000538,-0.00000238,0.00
 000172,-0.00000215,-0.00000055,-0.00001157,0.00000125,0.00000102,-0.00
 000105,-0.00000352,-0.00004508,-0.00000227,0.00000300,0.00000088,0.000
 02332,-0.00000828,0.00038938,-0.00012814,0.00044676,0.11449615,0.11370
 468,0.22343734,0.00000867,0.00002646,0.00004769,0.00000676,-0.00002999
 ,-0.00001655,-0.00003840,0.00003428,-0.00003385,0.00001870,-0.00000503
 ,0.00003282,-0.00000652,0.00000396,-0.00000357,0.00004842,-0.00013879,
 -0.00000220,0.00021594,0.00027805,0.00034642,-0.00044422,-0.00032924,-
 0.00066588,-0.00000642,-0.00002386,-0.00001674,0.00001200,0.00002985,0
 .00002080,-0.00000433,-0.00000649,-0.00000117,-0.00003245,-0.00002206,
 -0.00003517,0.00003276,0.00007665,0.00004377,-0.00011661,-0.00002854,-
 0.00008577,0.00019993,0.00005416,0.00003639,0.00057042,-0.00028647,-0.
 00012333,0.00028804,-0.00003485,0.00006710,0.00001766,0.00014620,-0.00
 000024,-0.00001487,-0.00002096,-0.00001024,-0.00006605,-0.00006369,0.0
 0006836,0.00002918,-0.00000116,-0.00003720,-0.00001542,0.00000488,-0.0
 0000098,-0.34107047,0.04951055,0.02400331,-0.00495721,-0.00513870,0.01
 253685,0.00012421,-0.00029566,0.00085753,-0.00958884,0.00297802,-0.000
 14705,0.00092562,0.00032790,-0.00069675,0.00032513,-0.00018222,-0.0000
 7823,0.00009975,0.00014200,-0.00029593,-0.00000741,0.00004846,0.000006
 62,0.00000143,-0.00000247,-0.00000690,0.00000460,0.00000009,-0.0000019
 6,0.00000919,0.00000554,0.00001016,0.00001082,-0.00000905,-0.00003460,
 0.00003961,0.00002516,0.00002460,0.00000675,0.00000146,0.00000375,-0.0
 0000105,0.00000051,0.00000032,0.00000452,0.00000109,-0.00000114,0.0003
 7770,0.00068706,0.00049116,0.00006930,-0.00021610,-0.00000193,0.001253
 71,0.00158774,0.00011633,-0.01621708,0.00379921,0.00055095,0.36783471,
 -0.00000254,0.00002261,0.00001590,0.00000697,-0.00002924,-0.00000194,-
 0.00000379,0.00002691,-0.00001866,-0.00000405,0.00000402,0.00001650,0.
 00000110,0.00000141,-0.00000353,0.00004268,-0.00015588,-0.00007226,0.0
 0003282,0.00010283,0.00024114,-0.00020051,-0.00005002,-0.00045443,0.00
 000284,-0.00000896,0.00000060,-0.00000231,0.00000734,-0.00000176,0.000
 00041,-0.00000096,0.00000141,0.00000716,-0.00000856,0.00000313,-0.0000
 4923,0.00007635,-0.00005574,0.00013495,-0.00014796,0.00000949,-0.00034
 886,0.00012717,-0.00040032,0.00138097,0.00268769,0.00093676,0.00019811
 ,-0.00015095,0.00012310,-0.00026151,-0.00009505,-0.00014358,0.00002889
 ,-0.00004629,0.00010252,0.00009392,0.00012235,-0.00002402,-0.00003991,
 0.00001568,-0.00000833,0.00001135,0.00001163,0.00000212,0.05096914,-0.
 05419455,-0.01061869,-0.01632842,0.00057622,0.01334695,-0.00143788,0.0
 0081112,0.00036100,0.03930529,-0.01127426,-0.00238345,-0.00193501,0.00
 288896,-0.00096285,0.00002327,0.00020080,-0.00019970,-0.00012592,-0.00
 016137,0.00018605,0.00000235,-0.00001596,-0.00002103,0.00000207,-0.000
 00214,-0.00000160,-0.00000005,0.00000033,0.00000100,0.00000120,-0.0000
 0029,0.00000134,-0.00000476,-0.00000415,-0.00000879,-0.00002485,-0.000
 01473,-0.00003318,-0.00000209,-0.00000210,-0.00000144,0.00000106,0.000
 00629,-0.00000115,-0.00000119,0.00000013,0.00000174,-0.00084249,-0.000
 34721,-0.00033245,-0.00041612,0.00012725,-0.00005609,0.00116988,-0.006
 91304,0.00151761,-0.01836239,0.00449714,0.00048230,-0.05280731,0.06121
 779,-0.00000183,-0.00001594,0.00001089,0.00000361,0.00001846,-0.000012
 41,0.00000675,-0.00000520,-0.00001747,-0.00001704,-0.00002680,0.000022
 64,0.00000281,0.00000080,0.00000025,0.00003052,0.00011338,0.00003062,-
 0.00038595,-0.00020032,-0.00010108,0.00084692,0.00028843,0.00052609,0.
 00000525,-0.00000549,-0.00000606,-0.00000355,0.00000694,0.00001192,0.0
 0000219,-0.00000172,-0.00000244,-0.00000356,-0.00000296,-0.00004519,-0
 .00003667,0.00000217,0.00009714,0.00005820,-0.00002113,-0.00018245,-0.
 00016287,-0.00012586,0.00024976,0.00083410,0.00018558,-0.00012974,-0.0
 0011402,-0.00013191,0.00003086,0.00000732,0.00009459,0.00007316,0.0000
 1570,0.00000723,-0.00006304,0.00000839,-0.00006982,0.00008567,-0.00000
 344,0.00001630,-0.00004911,-0.00000387,0.00000381,0.00000560,0.0192542
 5,-0.00897425,-0.04254965,0.04155190,0.00689180,-0.02318504,0.00034426
 ,-0.00150098,0.00051753,-0.00196262,0.00054885,0.00213584,0.00012895,-
 0.00058557,0.00097732,-0.00016804,-0.00016688,0.00005567,0.00009236,-0
 .00000196,-0.00014451,-0.00001196,0.00002677,0.00001974,0.00000172,0.0
 0000304,-0.00000233,-0.00000426,0.00000237,0.00000345,-0.00001365,-0.0
 0000821,-0.00001030,-0.00003364,0.00003623,0.00005074,-0.00002950,-0.0
 0002877,-0.00001220,-0.00000078,-0.00000150,0.00000207,0.00000109,-0.0
 0000647,0.00000123,-0.00000318,0.00000110,0.00000160,-0.00009240,-0.00
 005477,0.00014544,-0.00000075,0.00000247,-0.00003216,0.00046912,0.0011
 4543,0.00012990,-0.02363475,0.00398989,0.00429802,-0.03705138,-0.00145
 967,0.05707284,0.00000189,-0.00000626,-0.00001735,-0.00000666,0.000004
 17,0.00000998,0.00000041,-0.00000026,0.00001619,0.00000633,0.00000456,
 -0.00001989,-0.00000252,0.00000069,0.00000102,-0.00002048,-0.00000242,
 0.00000189,0.00000992,-0.00000520,-0.00003327,0.00000082,-0.00000230,0
 .00003384,-0.00001021,0.00000911,0.00000334,0.00000736,-0.00001077,-0.
 00000666,-0.00000402,0.00000201,-0.00000015,0.00000554,0.00000697,0.00
 002439,0.00002279,-0.00003089,-0.00006081,0.00001754,0.00005432,0.0000
 8658,-0.00000861,-0.00002254,-0.00026149,0.00018771,0.00024082,0.00009
 329,-0.00048146,-0.00050212,0.00016916,0.00029373,0.00010104,-0.000053
 33,-0.00005881,-0.00002465,-0.00004246,-0.00686206,0.00356496,-0.00124
 171,0.00171777,-0.00079414,0.00120784,-0.00066136,-0.00013523,-0.00000
 481,0.00037816,-0.00021872,-0.00014524,-0.00000633,0.00015495,-0.00008
 930,-0.00000824,-0.00000078,-0.00002064,-0.00014025,-0.00027630,0.0003
 3383,-0.00368902,0.00823164,-0.00238655,-0.34626009,-0.00068470,-0.070
 58606,-0.01458568,-0.00091810,0.00213747,0.00028947,0.00014962,0.00022
 113,-0.00000241,0.00000143,0.00000189,0.00000178,0.00000025,-0.0000020
 9,0.00000285,0.00000090,0.00000012,0.00000411,-0.00000038,-0.00000108,
 0.00000352,-0.00000381,-0.00000270,0.00000213,-0.00000064,-0.00000077,
 -0.00000390,0.00000027,0.00000098,0.00000460,0.00000100,-0.00000407,0.
 00003818,-0.00011456,0.00020035,0.00046978,0.00009140,-0.00055365,0.00
 029306,0.00036125,-0.00092497,-0.00001232,-0.00000080,0.00000540,0.000
 01476,-0.00015773,0.00007091,0.36898840,0.00000004,0.00001445,0.000007
 18,0.00000127,-0.00002031,-0.00000585,-0.00000738,-0.00000775,-0.00001
 275,-0.00000193,0.00000703,0.00001625,0.00000084,-0.00000258,0.,0.0000
 2990,-0.00003352,-0.00000348,0.00000176,0.00005331,0.00007727,-0.00003
 111,-0.00002805,-0.00011192,0.00000038,-0.00001507,0.00001584,0.000003
 81,0.00000952,-0.00000515,-0.00000429,0.00000020,0.00000392,-0.0000123
 9,0.00001986,0.00000580,-0.00001324,0.00015663,-0.00002037,-0.00008128
 ,-0.00011372,-0.00014267,0.00009215,0.00035578,0.00037689,-0.00037280,
 -0.00076197,0.00019202,-0.00102710,-0.00054533,0.00159474,0.00045321,0
 .00015462,-0.00060742,0.00001589,-0.00020806,0.00008463,-0.01962206,0.
 00395571,-0.00561889,0.00183663,0.00294787,0.00073259,-0.00038233,-0.0
 0000964,0.00022681,-0.00003806,0.00020809,0.00011277,-0.00012276,-0.00
 026972,0.00020464,-0.00000117,0.00003447,0.00002799,0.00342406,0.00148
 655,-0.00485169,0.03227492,-0.01111531,0.01260817,-0.00158995,-0.04277
 073,-0.00049734,-0.00412442,0.00304117,-0.00046056,0.00026286,0.000050
 83,-0.00063073,0.00000062,-0.00000194,-0.00000067,0.00000062,0.0000012
 2,-0.00000024,0.00000129,-0.00000038,0.00000136,-0.00000291,0.00000464
 ,-0.00000484,0.00001136,0.00000424,0.00001141,0.00000154,-0.00000367,0
 .00000191,-0.00000220,0.00000892,-0.00000048,0.00000191,0.00000266,-0.
 00000314,-0.00002545,-0.00011398,-0.00003897,0.00055655,0.00014319,-0.
 00030158,-0.00145859,0.00045676,0.00024610,0.00000073,-0.00002617,-0.0
 0001516,-0.00015496,0.00013569,0.00000197,-0.00850972,0.04544714,-0.00
 000163,-0.00000425,-0.00003753,-0.00000933,-0.00000067,0.00002165,0.00
 000577,-0.00000225,0.00002909,0.00000343,0.00001798,-0.00003690,-0.000
 00094,-0.00000130,0.00000212,-0.00001735,-0.00003475,-0.00000751,0.000
 00466,0.00002490,-0.00002430,-0.00000337,-0.00002353,0.00001924,-0.000
 01071,0.00001452,0.00001937,0.00000396,-0.00002186,-0.00002260,-0.0000
 0372,0.00000491,0.00000326,0.00001794,0.00002223,0.00005870,0.00001267
 ,-0.00000967,-0.00013584,0.00005449,0.00006872,0.00017105,0.00007601,0
 .00009510,-0.00042904,-0.00001682,-0.00036123,-0.00004859,-0.00136625,
 0.00022753,0.00235127,0.00059664,-0.00008222,-0.00036934,-0.00000511,-
 0.00009260,0.00005769,-0.02183253,0.00297693,-0.00068224,0.00218417,-0
 .00022009,0.00155500,0.00014707,-0.00042590,-0.00009242,0.00011942,0.0
 0006690,-0.00000291,0.00004512,0.00009411,-0.00006145,-0.00000182,-0.0
 0001198,-0.00000663,-0.00206076,-0.00075940,0.00299006,-0.00844437,0.0
 0545312,-0.00181566,-0.07769279,-0.00324797,-0.06518157,0.03394014,-0.
 00084919,-0.00247071,0.00078528,0.00057238,0.00357644,-0.00000306,0.00
 000100,0.00000541,0.00000125,0.00000025,-0.00000289,0.00000365,0.00000
 046,-0.00000021,0.00000182,0.00000165,-0.00000201,0.00000017,-0.000009
 48,0.00000105,0.00000021,-0.00000200,-0.00000215,-0.00000408,0.0000062
 8,0.00000006,0.00000504,0.00000083,-0.00000570,0.00023756,0.00004833,0
 .00004016,0.00079556,0.00010357,-0.00036262,0.00085270,-0.00015057,-0.
 00014371,0.00000012,0.00001788,-0.00001451,0.00009050,-0.00011330,-0.0
 0001702,0.07284046,-0.00059898,0.06408943,0.00000653,-0.00001316,-0.00
 000529,-0.00000300,0.00001326,0.00000509,-0.00001386,-0.00000085,0.000
 01736,0.00001276,-0.00000377,-0.00001565,-0.00000484,0.00000311,0.0000
 0073,-0.00000617,0.00000736,0.00001324,0.00002665,-0.00001688,-0.00003
 127,-0.00001014,-0.00000327,0.00002430,-0.00001513,0.00001187,-0.00001
 967,0.00001539,-0.00000372,0.00001069,-0.00000600,-0.00000050,-0.00000
 465,-0.00001512,-0.00000502,-0.00000362,0.00005642,-0.00009653,-0.0000
 0907,-0.00012116,0.00010546,0.00016611,0.00063654,0.00002301,-0.000132
 18,-0.00026490,0.00116239,-0.00050126,-0.01450628,-0.00263026,0.005108
 46,0.00142765,0.00086949,0.00064610,0.00009168,0.00012884,-0.00017271,
 -0.34674331,0.01682335,0.01555290,-0.00330046,0.01377928,-0.00566128,0
 .00012504,0.00067154,0.00020916,-0.00003000,-0.00001767,0.00000083,0.0
 0004302,0.00004386,-0.00005887,-0.00001444,-0.00000746,-0.00000118,-0.
 00034399,-0.00038146,0.00015879,0.00273180,0.00082060,0.00095169,-0.01
 894789,-0.00029814,-0.00059631,0.00198745,0.00054267,0.00213953,0.0005
 9871,0.00059668,0.00072593,-0.00000242,0.00000325,-0.00000042,0.000003
 48,0.00000110,-0.00000397,0.00000566,0.00000097,0.00000034,0.00000649,
 0.00000400,-0.00000482,0.00001447,-0.00001511,0.00001541,0.00000986,0.
 00000167,0.00000593,-0.00000764,-0.00000864,0.00000246,0.00000784,0.00
 000036,-0.00000519,0.00071776,-0.00085647,0.00011722,0.00076299,-0.000
 72419,0.00200075,0.00014864,0.00019496,-0.00001471,0.00000788,-0.00001
 525,0.00000643,0.00003707,-0.00005748,0.00000339,0.00006182,-0.0013862
 6,-0.00135117,0.37481315,0.00000147,-0.00000121,0.00001406,-0.00000133
 ,0.00000619,-0.00000637,0.00000170,0.00001001,-0.00000693,-0.00000032,
 -0.00000877,0.00000584,0.00000006,0.00000206,-0.00000184,-0.00001015,0
 .00000814,-0.00000942,0.00000938,-0.00001202,-0.00000685,-0.00000765,0
 .00000171,0.00000193,0.00000047,-0.00000499,-0.00001162,-0.00000468,0.
 00000879,0.00001214,0.00000538,-0.00000395,-0.00000159,0.00000298,-0.0
 0001603,-0.00002402,0.00001180,-0.00004711,0.00005171,0.00001251,0.000
 09339,0.00001785,0.00012173,-0.00015503,-0.00022603,-0.00123942,0.0002
 3904,0.00068966,-0.00547900,0.00195804,0.00323304,0.00047518,0.0003426
 8,0.00063277,-0.00008432,-0.00001360,-0.00012386,0.01806820,-0.0340762
 6,-0.00698792,0.04203520,-0.03054596,0.01130612,0.00106006,0.00038770,
 -0.00093195,-0.00003264,0.00001896,0.00001799,0.00002247,-0.00001561,-
 0.00001668,-0.00000553,-0.00000224,0.00000345,-0.00030370,-0.00029227,
 0.00018421,-0.00024956,0.00143658,-0.00039995,-0.02528334,-0.00125571,
 -0.00249330,0.00048686,0.00091639,0.00169013,-0.00009098,0.00006490,0.
 00030845,0.00000093,-0.00000072,-0.00000234,-0.00000011,-0.00000090,0.
 00000062,-0.00000111,0.00000024,0.00000105,0.00000161,-0.00000074,-0.0
 0000228,0.00000371,0.00000781,0.00001078,-0.00000088,0.00000381,-0.000
 00029,0.00000522,-0.00000584,-0.00000038,-0.00000207,-0.00000154,0.000
 00267,0.00007004,-0.00005461,0.00036579,0.00000109,0.00027625,0.001330
 62,0.00019747,0.00011895,-0.00005647,-0.00000172,0.00000685,-0.0000170
 5,0.00002835,-0.00004404,0.00000855,-0.00055835,-0.00265267,-0.0027963
 5,-0.02926701,0.06330333,-0.00000490,-0.00000194,-0.00000483,0.0000035
 7,0.00000086,0.00000420,0.00000920,0.00000176,0.00000072,-0.00000540,0
 .00000004,-0.00000054,0.00000223,-0.00000005,-0.00000050,0.00000650,0.
 00000055,0.00000791,-0.00001827,0.00000549,-0.00000166,0.00000981,-0.0
 0000292,0.00000368,0.00001292,0.00001310,0.00000060,-0.00001505,-0.000
 01222,-0.00000520,0.00000635,0.00000220,-0.00000299,0.00001538,0.00000
 532,0.00002748,-0.00003012,-0.00010208,0.00007474,0.00002511,0.,0.0000
 6762,-0.00074941,-0.00003937,0.00001797,0.00149111,-0.00124320,0.00109
 185,0.03928712,0.00208594,-0.00917207,-0.00217409,-0.00026297,0.002584
 21,-0.00009353,0.00033934,0.00024838,0.02186771,-0.00644775,-0.0430381
 1,-0.01261097,0.01300936,0.00111789,-0.00114272,0.00019440,0.00018176,
 0.00002879,-0.00000100,0.00006792,-0.00000916,-0.00000609,-0.00000539,
 -0.00000321,0.00000004,0.00000355,0.00016260,0.00022303,-0.00031514,0.
 00103513,0.00169400,0.00069486,-0.02687484,-0.00413691,-0.00293807,-0.
 00080664,0.00065672,0.00092050,-0.00011736,0.00006433,0.00021260,0.000
 00099,0.00000100,0.00000064,-0.00000299,-0.00000175,0.00000386,-0.0000
 0314,0.00000046,-0.00000180,-0.00000384,-0.00000654,0.00000791,-0.0000
 2836,0.00000055,-0.00005355,-0.00001239,0.00000106,-0.00001305,0.00000
 799,0.00000029,0.00000043,-0.00000806,-0.00000273,0.00000863,-0.000621
 15,0.00048139,-0.00029482,0.00183584,0.00191438,-0.00643445,-0.0001688
 5,-0.00009237,-0.00018760,-0.00000665,0.00002034,0.00000745,-0.0000066
 5,0.00002726,0.00000621,-0.00100105,-0.00261738,-0.00301498,-0.0192895
 4,-0.00576595,0.05812122\\-0.00208293,-0.01611308,0.00259763,0.0295539
 9,0.02154509,-0.01004215,-0.02591387,-0.03690467,0.03652609,0.00272506
 ,-0.00205546,0.02542260,0.00355285,-0.00034718,-0.03419763,0.01398033,
 0.00415715,0.00172034,-0.00968333,0.02121227,-0.01028176,0.00771364,0.
 00206632,0.01769696,-0.00815684,0.00942956,0.00028125,0.00150368,0.019
 12484,-0.01164853,0.00988924,-0.02944566,0.01363202,-0.00649973,0.0137
 8058,0.00573470,0.00340617,-0.01286909,0.01850869,-0.02884552,-0.00114
 786,-0.06040963,-0.00938874,-0.01210868,-0.00119269,0.01882968,0.01993
 723,0.01603093,-0.02767397,0.03388082,-0.00096709,-0.00131639,-0.02431
 548,0.00307547,0.01398882,0.01473025,-0.01475282,0.01987673,0.01266446
 ,-0.01606558,-0.01319952,0.00086474,-0.00852509,-0.00249753,-0.0037644
 3,0.03212115,0.01522026,-0.00640414,-0.01130846,0.00195001,-0.02037575
 ,-0.00303852,-0.00950462,0.02948078,0.00826773,-0.02619589,-0.00732508
 ,0.02157150,-0.01988186,-0.02530895,0.04890013,0.07917941,-0.03310861,
 -0.00832886,-0.02329373,0.04076007,-0.02038372,-0.00067959,-0.00048428
 ,-0.00516269,-0.00014925,0.00283321,0.00056736,-0.01606736,-0.00508909
 ,0.00126325,0.01933420,0.00408897,0.00071960,-0.01858868,-0.00128780,0
 .00093502,0.01993624,0.00599139,-0.00163261,0.02080332,0.00220862,0.00
 149922,0.00014840,0.00577462,-0.01826837,-0.02180967,-0.00433994,0.001
 12568,0.02224911,-0.00143581,0.00070472,-0.02573826,-0.00374756,0.0032
 3572,-0.02418260,0.00174573,0.00421023,-0.00805525,-0.00675193,-0.0161
 5053,0.02104129,-0.00284358,-0.00531032,-0.01696740,-0.00138370,-0.003
 97967,0.02149009,-0.00731890,-0.00470125\\\@


 IF AT FIRST YOU DON'T SUCCEED, TRY, TRY AGAIN.
 THEN GIVE UP;
 THERE'S NO USE BEING A DAMN FOOL ABOUT IT.

                                 -- W. C. FIELDS
 Job cpu time:  3 days 21 hours 15 minutes 13.3 seconds.
 File lengths (MBytes):  RWF=   2348 Int=      0 D2E=      0 Chk=     43 Scr=      1
 Normal termination of Gaussian 09 at Fri Mar 25 19:56:16 2016.
Gaussian '09 finished on node018 at Fri Mar 25 19:56:16 EDT 2016.
