Gaussian '09 started on node017 at Fri Mar 25 20:04:29 EDT 2016.
 Entering Gaussian System, Link 0=/usr/local/gaussian/g09/g09
 Initial command:
 /usr/local/gaussian/g09/l1.exe /home/srmcgrat/thesis/gaussian/cellobiose/400K/8312ps/1/2dp/gaussian12637/Gau-12673.inp -scrdir=/home/srmcgrat/thesis/gaussian/cellobiose/400K/8312ps/1/2dp/gaussian12637/
 Entering Link 1 = /usr/local/gaussian/g09/l1.exe PID=     12675.
  
 Copyright (c) 1988,1990,1992,1993,1995,1998,2003,2009,2010,
            Gaussian, Inc.  All Rights Reserved.
  
 This is part of the Gaussian(R) 09 program.  It is based on
 the Gaussian(R) 03 system (copyright 2003, Gaussian, Inc.),
 the Gaussian(R) 98 system (copyright 1998, Gaussian, Inc.),
 the Gaussian(R) 94 system (copyright 1995, Gaussian, Inc.),
 the Gaussian 92(TM) system (copyright 1992, Gaussian, Inc.),
 the Gaussian 90(TM) system (copyright 1990, Gaussian, Inc.),
 the Gaussian 88(TM) system (copyright 1988, Gaussian, Inc.),
 the Gaussian 86(TM) system (copyright 1986, Carnegie Mellon
 University), and the Gaussian 82(TM) system (copyright 1983,
 Carnegie Mellon University). Gaussian is a federally registered
 trademark of Gaussian, Inc.
  
 This software contains proprietary and confidential information,
 including trade secrets, belonging to Gaussian, Inc.
  
 This software is provided under written license and may be
 used, copied, transmitted, or stored only in accord with that
 written license.
  
 The following legend is applicable only to US Government
 contracts under FAR:
  
                    RESTRICTED RIGHTS LEGEND
  
 Use, reproduction and disclosure by the US Government is
 subject to restrictions as set forth in subparagraphs (a)
 and (c) of the Commercial Computer Software - Restricted
 Rights clause in FAR 52.227-19.
  
 Gaussian, Inc.
 340 Quinnipiac St., Bldg. 40, Wallingford CT 06492
  
  
 ---------------------------------------------------------------
 Warning -- This program may not be used in any manner that
 competes with the business of Gaussian, Inc. or will provide
 assistance to any competitor of Gaussian, Inc.  The licensee
 of this program is prohibited from giving any competitor of
 Gaussian, Inc. access to this program.  By using this program,
 the user acknowledges that Gaussian, Inc. is engaged in the
 business of creating and licensing software in the field of
 computational chemistry and represents and warrants to the
 licensee that it is not a competitor of Gaussian, Inc. and that
 it will not use this program in any manner prohibited above.
 ---------------------------------------------------------------
  

 Cite this work as:
 Gaussian 09, Revision B.01,
 M. J. Frisch, G. W. Trucks, H. B. Schlegel, G. E. Scuseria, 
 M. A. Robb, J. R. Cheeseman, G. Scalmani, V. Barone, B. Mennucci, 
 G. A. Petersson, H. Nakatsuji, M. Caricato, X. Li, H. P. Hratchian, 
 A. F. Izmaylov, J. Bloino, G. Zheng, J. L. Sonnenberg, M. Hada, 
 M. Ehara, K. Toyota, R. Fukuda, J. Hasegawa, M. Ishida, T. Nakajima, 
 Y. Honda, O. Kitao, H. Nakai, T. Vreven, J. A. Montgomery, Jr., 
 J. E. Peralta, F. Ogliaro, M. Bearpark, J. J. Heyd, E. Brothers, 
 K. N. Kudin, V. N. Staroverov, T. Keith, R. Kobayashi, J. Normand, 
 K. Raghavachari, A. Rendell, J. C. Burant, S. S. Iyengar, J. Tomasi, 
 M. Cossi, N. Rega, J. M. Millam, M. Klene, J. E. Knox, J. B. Cross, 
 V. Bakken, C. Adamo, J. Jaramillo, R. Gomperts, R. E. Stratmann, 
 O. Yazyev, A. J. Austin, R. Cammi, C. Pomelli, J. W. Ochterski, 
 R. L. Martin, K. Morokuma, V. G. Zakrzewski, G. A. Voth, 
 P. Salvador, J. J. Dannenberg, S. Dapprich, A. D. Daniels, 
 O. Farkas, J. B. Foresman, J. V. Ortiz, J. Cioslowski, 
 and D. J. Fox, Gaussian, Inc., Wallingford CT, 2010.
 
 ******************************************
 Gaussian 09:  EM64L-G09RevB.01 12-Aug-2010
                25-Mar-2016 
 ******************************************
 -------------------------------------------------
 # freq=raman b3lyp/6-31+g(2d,p) geom=connectivity
 -------------------------------------------------
 1/10=4,30=1,38=1,57=2/1,3;
 2/12=2,17=6,18=5,40=1/2;
 3/5=1,6=6,7=112,11=2,16=1,25=1,30=1,71=2,74=-5/1,2,3;
 4//1;
 5/5=2,38=5,98=1/2;
 8/6=4,10=90,11=11/1;
 10/13=10,15=4/2;
 11/6=3,8=1,9=11,15=111,16=1/1,2,10;
 10/6=1/2;
 6/7=2,8=2,9=2,10=2,18=1,28=1/1;
 7/8=1,10=1,25=1/1,2,3,16;
 1/10=4,30=1/3;
 99//99;
 -----------------
 400 8312/8312.com
 -----------------
 Symbolic Z-matrix:
 Charge =  0 Multiplicity = 1
 O                     9.355     7.796     11.927 
 C                     10.083    7.883     13.161 
 C                     9.914     9.284     13.725 
 O                     10.477    10.201    12.776 
 H                     10.055    10.072    11.878 
 C                     10.664    9.424     15.04 
 O                     10.226    10.682    15.575 
 H                     10.474    10.804    16.536 
 C                     9.69      5.434     13.988 
 O                     9.346     4.856     12.721 
 H                     9.44      3.87      12.861 
 C                     9.52      6.93      14.202 
 O                     10.234    7.025     15.443 
 C                     10.197    8.346     16.004 
 O                     11.035    8.269     17.166 
 C                     10.415    8.262     18.46 
 C                     10.7      6.896     19.063 
 O                     10.398    5.893     18.083 
 H                     10.887    6.038     17.223 
 C                     10.324    6.509     20.484 
 O                     10.485    5.167     20.968 
 H                     9.945     5.159     21.81 
 C                     10.564    10.627    19.29 
 O                     10.956    11.19     18.029 
 H                     11.06     12.179    18.132 
 C                     11.118    9.217     19.411 
 O                     10.747    9.022     20.783 
 C                     10.907    7.678     21.26 
 O                     10.055    7.76      22.412 
 H                     10.59338   7.81643   23.20482 
 H                     9.97275   7.74432   11.19398 
 H                     9.10428   4.93769   14.73333 
 H                     10.71734   5.20081   14.17534 
 H                     8.48633   7.15178   14.36706 
 H                     11.11932   7.67586   12.99355 
 H                     8.87575   9.49818   13.87015 
 H                     11.72429   9.40075   14.89809 
 H                     9.19577   8.56536   16.31112 
 H                     11.91933   7.48695   21.54912 
 H                     9.26578   6.66098   20.52833 
 H                     11.76912   6.88223   19.10413 
 H                     9.36471   8.45798   18.40189 
 H                     12.18026   9.19987   19.28368 
 H                     10.94907   11.23074   20.08506 
 H                     9.49613   10.59682   19.35037 
 

 GradGradGradGradGradGradGradGradGradGradGradGradGradGradGradGradGradGrad
 Berny optimization.
 Initialization pass.
 Trust Radius=3.00D-01 FncErr=1.00D-07 GrdErr=1.00D-07
 Number of steps in this run=      2 maximum allowed number of steps=      2.
 GradGradGradGradGradGradGradGradGradGradGradGradGradGradGradGradGradGrad

                          Input orientation:                          
 ---------------------------------------------------------------------
 Center     Atomic      Atomic             Coordinates (Angstroms)
 Number     Number       Type             X           Y           Z
 ---------------------------------------------------------------------
      1          8           0        9.355000    7.796000   11.927000
      2          6           0       10.083000    7.883000   13.161000
      3          6           0        9.914000    9.284000   13.725000
      4          8           0       10.477000   10.201000   12.776000
      5          1           0       10.055000   10.072000   11.878000
      6          6           0       10.664000    9.424000   15.040000
      7          8           0       10.226000   10.682000   15.575000
      8          1           0       10.474000   10.804000   16.536000
      9          6           0        9.690000    5.434000   13.988000
     10          8           0        9.346000    4.856000   12.721000
     11          1           0        9.440000    3.870000   12.861000
     12          6           0        9.520000    6.930000   14.202000
     13          8           0       10.234000    7.025000   15.443000
     14          6           0       10.197000    8.346000   16.004000
     15          8           0       11.035000    8.269000   17.166000
     16          6           0       10.415000    8.262000   18.460000
     17          6           0       10.700000    6.896000   19.063000
     18          8           0       10.398000    5.893000   18.083000
     19          1           0       10.887000    6.038000   17.223000
     20          6           0       10.324000    6.509000   20.484000
     21          8           0       10.485000    5.167000   20.968000
     22          1           0        9.945000    5.159000   21.810000
     23          6           0       10.564000   10.627000   19.290000
     24          8           0       10.956000   11.190000   18.029000
     25          1           0       11.060000   12.179000   18.132000
     26          6           0       11.118000    9.217000   19.411000
     27          8           0       10.747000    9.022000   20.783000
     28          6           0       10.907000    7.678000   21.260000
     29          8           0       10.055000    7.760000   22.412000
     30          1           0       10.593379    7.816433   23.204820
     31          1           0        9.972748    7.744320   11.193981
     32          1           0        9.104285    4.937691   14.733328
     33          1           0       10.717340    5.200812   14.175337
     34          1           0        8.486332    7.151777   14.367062
     35          1           0       11.119318    7.675864   12.993549
     36          1           0        8.875752    9.498179   13.870146
     37          1           0       11.724292    9.400749   14.898086
     38          1           0        9.195769    8.565357   16.311115
     39          1           0       11.919328    7.486948   21.549120
     40          1           0        9.265776    6.660975   20.528332
     41          1           0       11.769121    6.882233   19.104126
     42          1           0        9.364707    8.457979   18.401889
     43          1           0       12.180259    9.199874   19.283676
     44          1           0       10.949065   11.230740   20.085062
     45          1           0        9.496131   10.596822   19.350370
 ---------------------------------------------------------------------
                    Distance matrix (angstroms):
                    1          2          3          4          5
     1  O    0.000000
     2  C    1.435378   0.000000
     3  C    2.399881   1.519690   0.000000
     4  O    2.786343   2.382558   1.434733   0.000000
     5  H    2.381717   2.537438   2.013016   1.000564   0.000000
     6  C    3.748951   2.498576   1.520304   2.400915   3.284666
     7  O    4.732393   3.698952   2.339711   2.851099   3.750887
     8  H    5.616325   4.480597   3.244337   3.808046   4.733746
     9  C    3.152616   2.614571   3.865468   4.981225   5.108461
    10  O    3.045343   3.146347   4.575787   5.463626   5.331040
    11  H    4.036466   4.075245   5.502960   6.415930   6.309463
    12  C    2.439837   1.519493   2.433944   3.694424   3.944536
    13  O    3.705312   2.442640   2.856047   4.154385   4.693131
    14  C    4.199213   2.882709   2.480680   3.733552   4.474720
    15  O    5.522069   4.134649   3.758636   4.828674   5.672226
    16  C    6.634821   5.322900   4.869878   6.005949   6.835819
    17  C    7.317207   6.015685   5.900388   7.106273   7.882083
    18  O    6.527296   5.318403   5.543041   6.835887   7.488906
    19  H    5.786640   4.533242   4.870241   6.105283   6.747919
    20  C    8.707329   7.454682   7.317978   8.547955   9.318292
    21  O    9.483049   8.275718   8.350855   9.615097  10.337893
    22  H   10.245758   9.068871   9.076553  10.359437  11.081259
    23  C    7.980602   6.732424   5.761543   6.528495   7.450158
    24  O    7.163577   5.949437   4.821101   5.366710   6.316370
    25  H    7.785868   6.642363   5.395923   5.739260   6.675477
    26  C    7.819058   6.474047   5.812461   6.738127   7.655526
    27  O    9.048175   7.735186   7.111814   8.097839   8.993352
    28  C    9.461898   8.143390   7.767980   8.861641   9.720034
    29  O   10.508402   9.251860   8.820795   9.949325  10.784735
    30  H   11.345625  10.056999   9.616771  10.698597  11.561759
    31  H    0.960000   1.974981   2.963127   2.965186   2.427497
    32  H    4.013511   3.479217   4.534619   5.780822   5.951293
    33  H    3.694048   2.936903   4.185759   5.197864   5.426318
    34  H    2.668991   2.130404   2.645157   3.973915   4.145341
    35  H    2.065133   1.070000   2.138671   2.614615   2.849332
    36  H    2.627339   2.137555   1.070000   2.062792   2.385067
    37  H    4.125059   2.831054   2.160305   2.588318   3.515399
    38  H    4.453957   3.343055   2.778542   4.100478   4.760332
    39  H    9.962755   8.595901   8.274514   9.295914  10.182768
    40  H    8.676356   7.512575   7.320231   8.607990   9.331999
    41  H    7.627194   6.258217   6.176160   7.261471   8.082680
    42  H    6.508648   5.321040   4.780934   5.993826   6.755938
    43  H    8.004600   6.604530   6.003489   6.800970   7.753797
    44  H    8.994023   7.739513   6.731385   7.396323   8.336539
    45  H    7.935424   6.783624   5.791624   6.658913   7.511597
                    6          7          8          9         10
     6  C    0.000000
     7  O    1.435491   0.000000
     8  H    2.044142   0.999954   0.000000
     9  C    4.239750   5.508845   5.995320   0.000000
    10  O    5.289755   6.546907   7.155789   1.434472   0.000000
    11  H    6.090413   7.374750   7.915500   1.943894   1.000316
    12  C    2.868975   4.057224   4.622288   1.520760   2.554430
    13  O    2.470326   3.659390   3.941204   2.223565   3.591990
    14  C    1.519694   2.375243   2.530122   3.577855   4.866456
    15  O    2.447763   3.001388   2.671675   4.466087   5.853146
    16  C    3.620586   3.770324   3.188577   5.340599   6.758677
    17  C    4.751485   5.169586   4.659321   5.377097   6.798226
    18  O    4.668893   5.408712   5.149457   4.181025   5.561755
    19  H    4.034875   4.971877   4.832938   3.501835   4.903041
    20  C    6.184655   6.443742   5.835771   6.614801   7.997066
    21  O    7.300361   7.717950   7.170670   7.030200   8.331089
    22  H    8.033684   8.334130   7.743445   7.830986   9.113755
    23  C    4.418111   3.730750   2.761149   7.472773   8.828348
    24  O    3.483983   2.610188   1.615664   7.145906   8.419413
    25  H    4.160205   3.078119   2.186604   8.033969   9.265152
    26  C    4.399387   4.201998   3.346480   6.764555   8.180123
    27  O    5.757651   5.490929   4.613790   7.756482   9.182276
    28  C    6.464980   6.465833   5.681157   7.707049   9.127701
    29  O    7.581963   7.437197   6.630903   8.746844  10.141567
    30  H    8.321871   8.158467   7.308417   9.562523  10.964971
    31  H    4.253353   5.280854   6.176573   3.636491   3.326709
    32  H    4.759594   5.913015   6.288031   1.070000   2.028439
    33  H    4.311126   5.678371   6.085036   1.070000   2.028439
    34  H    3.218397   4.116799   4.689760   2.131493   2.952819
    35  H    2.729699   4.061867   4.769762   2.838633   3.342240
    36  H    2.138199   2.476112   3.371401   4.146618   4.805361
    37  H    1.070000   2.084394   2.493012   4.549912   5.572317
    38  H    2.123371   2.466459   2.587657   3.930207   5.164381
    39  H    6.906277   6.983253   6.182490   8.145860   9.564497
    40  H    6.301677   6.451835   5.879046   6.667937   8.013664
    41  H    4.919247   5.410561   4.863421   5.709191   7.121898
    42  H    3.731442   3.698567   3.196230   5.360287   6.726597
    43  H    4.511990   4.446358   3.610299   6.958978   8.364866
    44  H    5.366397   4.600499   3.606055   8.506562   9.870994
    45  H    4.617220   3.846217   2.986608   7.446297   8.770868
                   11         12         13         14         15
    11  H    0.000000
    12  C    3.341898   0.000000
    13  O    4.153455   1.434887   0.000000
    14  C    5.521420   2.389684   1.435664   0.000000
    15  O    6.358321   3.587958   2.271094   1.434718   0.000000
    16  C    7.182555   4.550364   3.265765   2.467087   1.434882
    17  C    7.014918   5.002287   3.652150   3.422425   2.365579
    18  O    5.681512   4.111984   2.877137   3.221778   2.625268
    19  H    5.081444   3.433773   2.137517   2.699801   2.236630
    20  C    8.115165   6.347218   5.068139   4.843666   3.822597
    21  O    8.276333   7.058197   5.834449   5.901718   4.937622
    22  H    9.055448   7.822962   6.641097   6.627979   5.694465
    23  C    9.394278   6.375381   5.280408   4.016895   3.208330
    24  O    9.087842   5.903865   4.955392   3.572820   3.046843
    25  H    9.972328   6.735614   5.871687   4.468226   4.027640
    26  C    8.620243   5.909116   4.618587   3.635180   2.438364
    27  O    9.539887   7.013669   5.724227   4.857810   3.705758
    28  C    9.337888   7.231780   5.892099   5.345639   4.138418
    29  O   10.331114   8.269173   7.009938   6.436305   5.360970
    30  H   11.131003   9.109812   7.810337   7.231138   6.071836
    31  H    4.251250   3.149012   4.317388   4.852689   6.088405
    32  H    2.181349   2.103432   2.477247   3.798053   4.554468
    33  H    2.264981   2.103432   2.273378   3.675183   4.296365
    34  H    3.734671   1.070000   2.056224   2.651814   3.946891
    35  H    4.162004   2.138804   2.684627   3.219095   4.215243
    36  H    5.745707   2.668469   3.230375   2.761620   4.127456
    37  H    6.321146   3.383495   2.856936   2.160593   2.626673
    38  H    5.831751   2.688473   2.050426   1.070000   2.049738
    39  H    9.732050   7.749009   6.351254   5.869646   4.539315
    40  H    8.161365   6.337151   5.189468   4.916917   4.125673
    41  H    7.312658   5.393669   3.972508   3.771599   2.493669
    42  H    7.194211   4.471902   3.400606   2.540693   2.086388
    43  H    8.784494   6.168690   4.823774   3.926664   2.581220
    44  H   10.423283   7.426238   6.304625   5.053948   4.159352
    45  H    9.346936   6.320749   5.345083   4.093362   3.543776
                   16         17         18         19         20
    16  C    0.000000
    17  C    1.520128   0.000000
    18  O    2.398870   1.434438   0.000000
    19  H    2.588268   2.038807   0.999873   0.000000
    20  C    2.679154   1.519995   2.479866   3.342593   0.000000
    21  O    3.984217   2.581606   2.976217   3.865911   1.435667
    22  H    4.590426   3.336645   3.825506   4.764512   1.929875
    23  C    2.510842   3.740372   4.888268   5.043386   4.294317
    24  O    3.008592   4.424153   5.326583   5.215122   5.323365
    25  H    3.983277   5.376472   6.320953   6.210321   6.182435
    26  C    1.520077   2.383877   3.651159   3.866102   3.019111
    27  O    2.466608   2.735048   4.147583   4.647306   2.565833
    28  C    2.902261   2.341192   3.679488   4.357450   1.519416
    29  O    3.999988   3.518284   4.726900   5.530211   2.313989
    30  H    4.769032   4.244200   5.474560   6.247496   3.030645
    31  H    7.297850   7.947956   7.146104   6.332176   9.378371
    32  H    5.163050   5.012718   3.715725   3.253801   6.084977
    33  H    5.274526   5.173318   3.981323   3.165110   6.454867
    34  H    4.658808   5.197844   4.364308   3.893596   6.419277
    35  H    5.542717   6.133698   5.440718   4.541456   7.622399
    36  H    4.996417   6.088099   5.750017   5.221072   7.401059
    37  H    3.962099   4.966835   4.920064   4.173052   6.444026
    38  H    2.489228   3.552792   3.424387   3.174796   4.786907
    39  H    3.522268   2.831391   4.107201   4.677656   2.153122
    40  H    2.856920   2.063840   2.802029   3.733857   1.070000
    41  H    2.037718   1.070000   1.975159   2.242655   2.032666
    42  H    1.070000   2.158669   2.783613   3.092483   3.008978
    43  H    2.161988   2.747308   3.943791   3.989530   3.482425
    44  H    3.426291   4.460562   5.727424   5.929570   4.779611
    45  H    2.662419   3.902303   4.954346   5.219491   4.322126
                   21         22         23         24         25
    21  O    0.000000
    22  H    1.000314   0.000000
    23  C    5.712576   6.052486   0.000000
    24  O    6.718340   7.189648   1.435533   0.000000
    25  H    7.585622   8.003206   1.998921   0.999773   0.000000
    26  C    4.384910   4.857828   1.519756   2.414311   3.226864
    27  O    3.868319   4.076850   2.199673   3.511185   4.134298
    28  C    2.562902   2.751964   3.563025   4.772411   5.483320
    29  O    2.998947   2.672023   4.269151   5.638031   6.233457
    30  H    3.469093   3.070484   4.819332   6.188825   6.706953
    31  H   10.121088  10.926322   8.614229   7.717317   8.305697
    32  H    6.389843   7.129871   7.433859   7.306276   8.234826
    33  H    6.796720   7.673744   7.458338   7.125872   8.029178
    34  H    7.176795   7.841951   6.374104   5.984672   6.787599
    35  H    8.383831   9.243562   6.975879   6.142605   6.832674
    36  H    8.469258   9.111150   5.787853   4.948309   5.488273
    37  H    7.503621   8.302582   4.705197   3.687047   4.314877
    38  H    5.907412   6.511709   3.872490   3.596983   4.455266
    39  H    2.788755   3.063556   4.098837   5.199215   5.867751
    40  H    1.977821   2.088049   4.352954   5.442020   6.277758
    41  H    2.839898   3.690353   3.938292   4.513747   5.431723
    42  H    4.320940   4.778621   2.632812   3.183583   4.097909
    43  H    4.687742   5.263778   2.156159   2.652098   3.384749
    44  H    6.145232   6.391368   1.070000   2.056477   2.173926
    45  H    5.751309   5.985079   1.070000   2.056477   2.536415
                   26         27         28         29         30
    26  C    0.000000
    27  O    1.434591   0.000000
    28  C    2.414921   1.435084   0.000000
    29  O    3.501260   2.173741   1.435177   0.000000
    30  H    4.077975   2.709650   1.974803   0.960000   0.000000
    31  H    8.426137   9.704701  10.109499  11.218331  12.027079
    32  H    6.651928   7.481886   7.304555   8.235975   9.070321
    33  H    6.610784   7.633058   7.507655   8.650477   9.401511
    34  H    6.052449   7.054971   7.324557   8.218983   9.109741
    35  H    6.599908   7.913675   8.269178   9.478770  10.225773
    36  H    5.983962   7.177456   7.877117   8.796315   9.639224
    37  H    4.557165   5.977522   6.641520   7.870038   8.531755
    38  H    3.705252   4.755270   5.311042   6.213507   7.073709
    39  H    2.864745   2.077902   1.070000   2.072400   2.146635
    40  H    3.348496   2.798807   2.064775   2.319253   3.203311
    41  H    2.443208   2.905504   2.454443   3.827625   4.367011
    42  H    2.160661   2.810435   3.340035   4.128519   4.998936
    43  H    1.070000   2.081789   2.800562   4.046774   4.450558
    44  H    2.130269   2.325184   3.742220   4.273176   4.638630
    45  H    2.130269   2.469244   3.762547   4.211113   4.877632
                   31         32         33         34         35
    31  H    0.000000
    32  H    4.599824   0.000000
    33  H    3.989027   1.727002   0.000000
    34  H    3.553728   2.327701   2.969919   0.000000
    35  H    2.134889   3.819003   2.772019   3.015596   0.000000
    36  H    3.382496   4.647082   4.685291   2.429851   3.020405
    37  H    4.419508   5.177883   4.379016   3.977970   2.639789
    38  H    5.240502   3.956987   4.265781   2.506163   3.936685
    39  H   10.539654   7.802448   7.813058   7.967418   8.594970
    40  H    9.423564   6.047963   6.678298   6.229741   7.825508
    41  H    8.157238   5.475990   5.312850   5.769673   6.196067
    42  H    7.268628   5.091030   5.504770   4.330997   5.739382
    43  H    8.510869   6.952229   6.650395   6.481735   6.558498
    44  H    9.599981   8.464439   8.446216   7.443018   7.934462
    45  H    8.653936   7.314123   7.575569   6.141774   7.181637
                   36         37         38         39         40
    36  H    0.000000
    37  H    3.029907   0.000000
    38  H    2.632660   3.014624   0.000000
    39  H    8.501473   6.923650   6.001452   0.000000
    40  H    7.247985   6.726837   4.627795   2.960672   0.000000
    41  H    6.527580   4.902622   4.154028   2.523141   2.888608
    42  H    4.675232   4.328175   2.100334   4.168219   2.785816
    43  H    6.349414   4.413803   4.259801   2.852094   4.060713
    44  H    6.776841   5.554688   4.941759   4.135318   4.890061
    45  H    5.623588   5.120364   3.667988   4.514167   4.114797
                   41         42         43         44         45
    41  H    0.000000
    42  H    2.959276   0.000000
    43  H    2.360663   3.042251   0.000000
    44  H    4.532575   3.609912   2.506486   0.000000
    45  H    4.361799   2.343404   3.026625   1.747181   0.000000
 Stoichiometry    C12H22O11
 Framework group  C1[X(C12H22O11)]
 Deg. of freedom   129
 Full point group                 C1      NOp   1
 Largest Abelian subgroup         C1      NOp   1
 Largest concise Abelian subgroup C1      NOp   1
                         Standard orientation:                         
 ---------------------------------------------------------------------
 Center     Atomic      Atomic             Coordinates (Angstroms)
 Number     Number       Type             X           Y           Z
 ---------------------------------------------------------------------
      1          8           0        5.090512    0.226026    0.440027
      2          6           0        3.790292    0.075458   -0.149096
      3          6           0        3.232044   -1.280443    0.250089
      4          8           0        4.112345   -2.281589   -0.280228
      5          1           0        5.048603   -2.120407    0.033733
      6          6           0        1.848548   -1.484558   -0.346233
      7          8           0        1.346919   -2.665470    0.297542
      8          1           0        0.365097   -2.796462    0.160518
      9          6           0        3.029560    2.572046    0.006834
     10          8           0        4.329721    3.160633    0.151250
     11          1           0        4.190731    4.129854   -0.053505
     12          6           0        2.818787    1.114337    0.385477
     13          8           0        1.512897    0.957747   -0.188135
     14          6           0        0.945465   -0.335457    0.070275
     15          8           0       -0.292303   -0.338770   -0.655215
     16          6           0       -1.519146   -0.225430    0.080241
     17          6           0       -2.133933    1.106890   -0.316937
     18          8           0       -1.119379    2.118051   -0.240475
     19          1           0       -0.312915    1.893857   -0.787375
     20          6           0       -3.507404    1.569269    0.141504
     21          8           0       -3.991843    2.890742   -0.141635
     22          1           0       -4.776720    2.985066    0.471308
     23          6           0       -2.382614   -2.571550    0.313639
     24          8           0       -1.171637   -3.206976   -0.122849
     25          1           0       -1.293908   -4.198695   -0.089845
     26          6           0       -2.543695   -1.240001   -0.400986
     27          8           0       -3.870754   -0.969762    0.072232
     28          6           0       -4.348110    0.353667   -0.210846
     29          8           0       -5.411757    0.404752    0.751327
     30          1           0       -6.254055    0.298606    0.303145
     31          1           0        5.759893    0.183527   -0.246795
     32          1           0        2.350094    3.154305    0.593521
     33          1           0        2.744659    2.678388   -1.019042
     34          1           0        2.753735    1.027870    1.449992
     35          1           0        3.857320    0.147018   -1.214595
     36          1           0        3.187334   -1.359237    1.316247
     37          1           0        1.886032   -1.597830   -1.409560
     38          1           0        0.735894   -0.420470    1.116101
     39          1           0       -4.733235    0.422345   -1.206769
     40          1           0       -3.449230    1.552459    1.209789
     41          1           0       -2.279555    0.987133   -1.370195
     42          1           0       -1.360231   -0.289137    1.136455
     43          1           0       -2.520982   -1.359275   -1.464075
     44          1           0       -3.217408   -3.201221    0.086634
     45          1           0       -2.337690   -2.406129    1.369820
 ---------------------------------------------------------------------
 Rotational constants (GHZ):      0.4186710      0.1433830      0.1093413
 Standard basis: 6-31+G(2d,p) (6D, 7F)
 There are   685 symmetry adapted basis functions of A   symmetry.
 Integral buffers will be    131072 words long.
 Raffenetti 2 integral format.
 Two-electron integral symmetry is turned on.
   685 basis functions,  1028 primitive gaussians,   685 cartesian basis functions
    91 alpha electrons       91 beta electrons
       nuclear repulsion energy      2287.5192021915 Hartrees.
 NAtoms=   45 NActive=   45 NUniq=   45 SFac= 1.00D+00 NAtFMM=   50 NAOKFM=F Big=F
 One-electron integrals computed using PRISM.
 NBasis=   685 RedAO= T  NBF=   685
 NBsUse=   685 1.00D-06 NBFU=   685
 Harris functional with IExCor=  402 diagonalized for initial guess.
 ExpMin= 4.38D-02 ExpMax= 5.48D+03 ExpMxC= 8.25D+02 IAcc=2 IRadAn=         0 AccDes= 0.00D+00
 HarFok:  IExCor=  402 AccDes= 0.00D+00 IRadAn=         0 IDoV= 1
 ScaDFX=  1.000000  1.000000  1.000000  1.000000
 FoFCou: FMM=F IPFlag=           0 FMFlag=      100000 FMFlg1=           0
         NFxFlg=           0 DoJE=T BraDBF=F KetDBF=T FulRan=T
         Omega=  0.000000  0.000000  1.000000  0.000000  0.000000 ICntrl=     500 IOpCl=  0
         NMat0=    1 NMatS0=    1 NMatT0=    0 NMatD0=    1 NMtDS0=    0 NMtDT0=    0
         I1Cent=           4 NGrid=           0.
 Petite list used in FoFCou.
 Initial guess orbital symmetries:
       Occupied  (A) (A) (A) (A) (A) (A) (A) (A) (A) (A) (A) (A)
                 (A) (A) (A) (A) (A) (A) (A) (A) (A) (A) (A) (A)
                 (A) (A) (A) (A) (A) (A) (A) (A) (A) (A) (A) (A)
                 (A) (A) (A) (A) (A) (A) (A) (A) (A) (A) (A) (A)
                 (A) (A) (A) (A) (A) (A) (A) (A) (A) (A) (A) (A)
                 (A) (A) (A) (A) (A) (A) (A) (A) (A) (A) (A) (A)
                 (A) (A) (A) (A) (A) (A) (A) (A) (A) (A) (A) (A)
                 (A) (A) (A) (A) (A) (A) (A)
       Virtual   (A) (A) (A) (A) (A) (A) (A) (A) (A) (A) (A) (A)
                 (A) (A) (A) (A) (A) (A) (A) (A) (A) (A) (A) (A)
                 (A) (A) (A) (A) (A) (A) (A) (A) (A) (A) (A) (A)
                 (A) (A) (A) (A) (A) (A) (A) (A) (A) (A) (A) (A)
                 (A) (A) (A) (A) (A) (A) (A) (A) (A) (A) (A) (A)
                 (A) (A) (A) (A) (A) (A) (A) (A) (A) (A) (A) (A)
                 (A) (A) (A) (A) (A) (A) (A) (A) (A) (A) (A) (A)
                 (A) (A) (A) (A) (A) (A) (A) (A) (A) (A) (A) (A)
                 (A) (A) (A) (A) (A) (A) (A) (A) (A) (A) (A) (A)
                 (A) (A) (A) (A) (A) (A) (A) (A) (A) (A) (A) (A)
                 (A) (A) (A) (A) (A) (A) (A) (A) (A) (A) (A) (A)
                 (A) (A) (A) (A) (A) (A) (A) (A) (A) (A) (A) (A)
                 (A) (A) (A) (A) (A) (A) (A) (A) (A) (A) (A) (A)
                 (A) (A) (A) (A) (A) (A) (A) (A) (A) (A) (A) (A)
                 (A) (A) (A) (A) (A) (A) (A) (A) (A) (A) (A) (A)
                 (A) (A) (A) (A) (A) (A) (A) (A) (A) (A) (A) (A)
                 (A) (A) (A) (A) (A) (A) (A) (A) (A) (A) (A) (A)
                 (A) (A) (A) (A) (A) (A) (A) (A) (A) (A) (A) (A)
                 (A) (A) (A) (A) (A) (A) (A) (A) (A) (A) (A) (A)
                 (A) (A) (A) (A) (A) (A) (A) (A) (A) (A) (A) (A)
                 (A) (A) (A) (A) (A) (A) (A) (A) (A) (A) (A) (A)
                 (A) (A) (A) (A) (A) (A) (A) (A) (A) (A) (A) (A)
                 (A) (A) (A) (A) (A) (A) (A) (A) (A) (A) (A) (A)
                 (A) (A) (A) (A) (A) (A) (A) (A) (A) (A) (A) (A)
                 (A) (A) (A) (A) (A) (A) (A) (A) (A) (A) (A) (A)
                 (A) (A) (A) (A) (A) (A) (A) (A) (A) (A) (A) (A)
                 (A) (A) (A) (A) (A) (A) (A) (A) (A) (A) (A) (A)
                 (A) (A) (A) (A) (A) (A) (A) (A) (A) (A) (A) (A)
                 (A) (A) (A) (A) (A) (A) (A) (A) (A) (A) (A) (A)
                 (A) (A) (A) (A) (A) (A) (A) (A) (A) (A) (A) (A)
                 (A) (A) (A) (A) (A) (A) (A) (A) (A) (A) (A) (A)
                 (A) (A) (A) (A) (A) (A) (A) (A) (A) (A) (A) (A)
                 (A) (A) (A) (A) (A) (A) (A) (A) (A) (A) (A) (A)
                 (A) (A) (A) (A) (A) (A) (A) (A) (A) (A) (A) (A)
                 (A) (A) (A) (A) (A) (A) (A) (A) (A) (A) (A) (A)
                 (A) (A) (A) (A) (A) (A) (A) (A) (A) (A) (A) (A)
                 (A) (A) (A) (A) (A) (A) (A) (A) (A) (A) (A) (A)
                 (A) (A) (A) (A) (A) (A) (A) (A) (A) (A) (A) (A)
                 (A) (A) (A) (A) (A) (A) (A) (A) (A) (A) (A) (A)
                 (A) (A) (A) (A) (A) (A) (A) (A) (A) (A) (A) (A)
                 (A) (A) (A) (A) (A) (A) (A) (A) (A) (A) (A) (A)
                 (A) (A) (A) (A) (A) (A) (A) (A) (A) (A) (A) (A)
                 (A) (A) (A) (A) (A) (A) (A) (A) (A) (A) (A) (A)
                 (A) (A) (A) (A) (A) (A) (A) (A) (A) (A) (A) (A)
                 (A) (A) (A) (A) (A) (A) (A) (A) (A) (A) (A) (A)
                 (A) (A) (A) (A) (A) (A) (A) (A) (A) (A) (A) (A)
                 (A) (A) (A) (A) (A) (A) (A) (A) (A) (A) (A) (A)
                 (A) (A) (A) (A) (A) (A) (A) (A) (A) (A) (A) (A)
                 (A) (A) (A) (A) (A) (A) (A) (A) (A) (A) (A) (A)
                 (A) (A) (A) (A) (A) (A)
 The electronic state of the initial guess is 1-A.
 Requested convergence on RMS density matrix=1.00D-08 within 128 cycles.
 Requested convergence on MAX density matrix=1.00D-06.
 Requested convergence on             energy=1.00D-06.
 No special actions if energy rises.
 SCF Done:  E(RB3LYP) =  -1297.96399714     A.U. after   13 cycles
             Convg  =    0.3819D-08             -V/T =  2.0063
 Range of M.O.s used for correlation:     1   685
 NBasis=   685 NAE=    91 NBE=    91 NFC=     0 NFV=     0
 NROrb=    685 NOA=    91 NOB=    91 NVA=   594 NVB=   594

 **** Warning!!: The largest alpha MO coefficient is  0.65222584D+02

          Differentiating once with respect to electric field.
                with respect to dipole field.
          Electric field/nuclear overlap derivatives assumed to be zero.
          There are     3 degrees of freedom in the 1st order CPHF.  IDoFFX=0.
      3 vectors produced by pass  0 Test12= 1.80D-12 3.33D-08 XBig12= 1.24D+02 1.31D+00.
 AX will form     3 AO Fock derivatives at one time.
      3 vectors produced by pass  1 Test12= 1.80D-12 3.33D-08 XBig12= 2.35D+01 4.75D-01.
      3 vectors produced by pass  2 Test12= 1.80D-12 3.33D-08 XBig12= 9.61D+00 2.00D-01.
      3 vectors produced by pass  3 Test12= 1.80D-12 3.33D-08 XBig12= 1.15D+00 9.66D-02.
      3 vectors produced by pass  4 Test12= 1.80D-12 3.33D-08 XBig12= 3.33D-01 5.02D-02.
      3 vectors produced by pass  5 Test12= 1.80D-12 3.33D-08 XBig12= 5.65D-02 1.95D-02.
      3 vectors produced by pass  6 Test12= 1.80D-12 3.33D-08 XBig12= 2.22D-02 1.79D-02.
      3 vectors produced by pass  7 Test12= 1.80D-12 3.33D-08 XBig12= 3.11D-03 9.53D-03.
      3 vectors produced by pass  8 Test12= 1.80D-12 3.33D-08 XBig12= 6.24D-04 3.10D-03.
      3 vectors produced by pass  9 Test12= 1.80D-12 3.33D-08 XBig12= 1.33D-04 1.77D-03.
      3 vectors produced by pass 10 Test12= 1.80D-12 3.33D-08 XBig12= 3.03D-05 7.06D-04.
      3 vectors produced by pass 11 Test12= 1.80D-12 3.33D-08 XBig12= 9.69D-06 4.22D-04.
      3 vectors produced by pass 12 Test12= 1.80D-12 3.33D-08 XBig12= 1.30D-06 1.44D-04.
      3 vectors produced by pass 13 Test12= 1.80D-12 3.33D-08 XBig12= 2.82D-07 4.82D-05.
      3 vectors produced by pass 14 Test12= 1.80D-12 3.33D-08 XBig12= 6.69D-08 1.99D-05.
      3 vectors produced by pass 15 Test12= 1.80D-12 3.33D-08 XBig12= 2.00D-08 9.78D-06.
      3 vectors produced by pass 16 Test12= 1.80D-12 3.33D-08 XBig12= 2.36D-09 3.69D-06.
      3 vectors produced by pass 17 Test12= 1.80D-12 3.33D-08 XBig12= 1.37D-10 8.96D-07.
      3 vectors produced by pass 18 Test12= 1.80D-12 3.33D-08 XBig12= 1.56D-11 3.11D-07.
      3 vectors produced by pass 19 Test12= 1.80D-12 3.33D-08 XBig12= 8.17D-12 1.96D-07.
      3 vectors produced by pass 20 Test12= 1.80D-12 3.33D-08 XBig12= 4.87D-12 1.68D-07.
      2 vectors produced by pass 21 Test12= 1.80D-12 3.33D-08 XBig12= 2.07D-12 9.18D-08.
      2 vectors produced by pass 22 Test12= 1.80D-12 3.33D-08 XBig12= 6.36D-13 5.35D-08.
 Inverted reduced A of dimension    67 with in-core refinement.
 End of Minotr Frequency-dependent properties file   721 does not exist.
 End of Minotr Frequency-dependent properties file   722 does not exist.
 Symmetrizing basis deriv contribution to polar:
 IMax=3 JMax=2 DiffMx= 0.00D+00
 G2DrvN: will do    16 centers at a time, making    3 passes doing MaxLOS=2.
 Calling FoFCou, ICntrl=  3107 FMM=F I1Cent=   0 AccDes= 0.00D+00.
 Calling FoFCou, ICntrl=  3107 FMM=F I1Cent=   0 AccDes= 0.00D+00.
 Calling FoFCou, ICntrl=  3107 FMM=F I1Cent=   0 AccDes= 0.00D+00.
 FoFDir/FoFCou used for L=0 through L=2.
 End of G2Drv Frequency-dependent properties file   721 does not exist.
 End of G2Drv Frequency-dependent properties file   722 does not exist.
          IDoAtm=111111111111111111111111111111111111111111111
          Differentiating once with respect to electric field.
                with respect to dipole field.
          Differentiating once with respect to nuclear coordinates.
          There are   138 degrees of freedom in the 1st order CPHF.  IDoFFX=5.
 Will reuse    3 saved solutions.
    135 vectors produced by pass  0 Test12= 5.41D-14 1.00D-09 XBig12= 1.41D-01 7.30D-02.
 AX will form    45 AO Fock derivatives at one time.
    135 vectors produced by pass  1 Test12= 5.41D-14 1.00D-09 XBig12= 1.74D-02 1.18D-02.
    132 vectors produced by pass  2 Test12= 5.41D-14 1.00D-09 XBig12= 1.45D-04 1.26D-03.
    132 vectors produced by pass  3 Test12= 5.41D-14 1.00D-09 XBig12= 4.20D-07 5.24D-05.
    132 vectors produced by pass  4 Test12= 5.41D-14 1.00D-09 XBig12= 9.00D-10 2.35D-06.
    132 vectors produced by pass  5 Test12= 5.41D-14 1.00D-09 XBig12= 2.19D-12 1.12D-07.
     78 vectors produced by pass  6 Test12= 5.41D-14 1.00D-09 XBig12= 9.99D-14 1.65D-08.
 Inverted reduced A of dimension   876 with in-core refinement.
 Isotropic polarizability for W=    0.000000      191.76 Bohr**3.
 End of Minotr Frequency-dependent properties file   721 does not exist.
 End of Minotr Frequency-dependent properties file   722 does not exist.

 **********************************************************************

            Population analysis using the SCF density.

 **********************************************************************

 Orbital symmetries:
       Occupied  (A) (A) (A) (A) (A) (A) (A) (A) (A) (A) (A) (A)
                 (A) (A) (A) (A) (A) (A) (A) (A) (A) (A) (A) (A)
                 (A) (A) (A) (A) (A) (A) (A) (A) (A) (A) (A) (A)
                 (A) (A) (A) (A) (A) (A) (A) (A) (A) (A) (A) (A)
                 (A) (A) (A) (A) (A) (A) (A) (A) (A) (A) (A) (A)
                 (A) (A) (A) (A) (A) (A) (A) (A) (A) (A) (A) (A)
                 (A) (A) (A) (A) (A) (A) (A) (A) (A) (A) (A) (A)
                 (A) (A) (A) (A) (A) (A) (A)
       Virtual   (A) (A) (A) (A) (A) (A) (A) (A) (A) (A) (A) (A)
                 (A) (A) (A) (A) (A) (A) (A) (A) (A) (A) (A) (A)
                 (A) (A) (A) (A) (A) (A) (A) (A) (A) (A) (A) (A)
                 (A) (A) (A) (A) (A) (A) (A) (A) (A) (A) (A) (A)
                 (A) (A) (A) (A) (A) (A) (A) (A) (A) (A) (A) (A)
                 (A) (A) (A) (A) (A) (A) (A) (A) (A) (A) (A) (A)
                 (A) (A) (A) (A) (A) (A) (A) (A) (A) (A) (A) (A)
                 (A) (A) (A) (A) (A) (A) (A) (A) (A) (A) (A) (A)
                 (A) (A) (A) (A) (A) (A) (A) (A) (A) (A) (A) (A)
                 (A) (A) (A) (A) (A) (A) (A) (A) (A) (A) (A) (A)
                 (A) (A) (A) (A) (A) (A) (A) (A) (A) (A) (A) (A)
                 (A) (A) (A) (A) (A) (A) (A) (A) (A) (A) (A) (A)
                 (A) (A) (A) (A) (A) (A) (A) (A) (A) (A) (A) (A)
                 (A) (A) (A) (A) (A) (A) (A) (A) (A) (A) (A) (A)
                 (A) (A) (A) (A) (A) (A) (A) (A) (A) (A) (A) (A)
                 (A) (A) (A) (A) (A) (A) (A) (A) (A) (A) (A) (A)
                 (A) (A) (A) (A) (A) (A) (A) (A) (A) (A) (A) (A)
                 (A) (A) (A) (A) (A) (A) (A) (A) (A) (A) (A) (A)
                 (A) (A) (A) (A) (A) (A) (A) (A) (A) (A) (A) (A)
                 (A) (A) (A) (A) (A) (A) (A) (A) (A) (A) (A) (A)
                 (A) (A) (A) (A) (A) (A) (A) (A) (A) (A) (A) (A)
                 (A) (A) (A) (A) (A) (A) (A) (A) (A) (A) (A) (A)
                 (A) (A) (A) (A) (A) (A) (A) (A) (A) (A) (A) (A)
                 (A) (A) (A) (A) (A) (A) (A) (A) (A) (A) (A) (A)
                 (A) (A) (A) (A) (A) (A) (A) (A) (A) (A) (A) (A)
                 (A) (A) (A) (A) (A) (A) (A) (A) (A) (A) (A) (A)
                 (A) (A) (A) (A) (A) (A) (A) (A) (A) (A) (A) (A)
                 (A) (A) (A) (A) (A) (A) (A) (A) (A) (A) (A) (A)
                 (A) (A) (A) (A) (A) (A) (A) (A) (A) (A) (A) (A)
                 (A) (A) (A) (A) (A) (A) (A) (A) (A) (A) (A) (A)
                 (A) (A) (A) (A) (A) (A) (A) (A) (A) (A) (A) (A)
                 (A) (A) (A) (A) (A) (A) (A) (A) (A) (A) (A) (A)
                 (A) (A) (A) (A) (A) (A) (A) (A) (A) (A) (A) (A)
                 (A) (A) (A) (A) (A) (A) (A) (A) (A) (A) (A) (A)
                 (A) (A) (A) (A) (A) (A) (A) (A) (A) (A) (A) (A)
                 (A) (A) (A) (A) (A) (A) (A) (A) (A) (A) (A) (A)
                 (A) (A) (A) (A) (A) (A) (A) (A) (A) (A) (A) (A)
                 (A) (A) (A) (A) (A) (A) (A) (A) (A) (A) (A) (A)
                 (A) (A) (A) (A) (A) (A) (A) (A) (A) (A) (A) (A)
                 (A) (A) (A) (A) (A) (A) (A) (A) (A) (A) (A) (A)
                 (A) (A) (A) (A) (A) (A) (A) (A) (A) (A) (A) (A)
                 (A) (A) (A) (A) (A) (A) (A) (A) (A) (A) (A) (A)
                 (A) (A) (A) (A) (A) (A) (A) (A) (A) (A) (A) (A)
                 (A) (A) (A) (A) (A) (A) (A) (A) (A) (A) (A) (A)
                 (A) (A) (A) (A) (A) (A) (A) (A) (A) (A) (A) (A)
                 (A) (A) (A) (A) (A) (A) (A) (A) (A) (A) (A) (A)
                 (A) (A) (A) (A) (A) (A) (A) (A) (A) (A) (A) (A)
                 (A) (A) (A) (A) (A) (A) (A) (A) (A) (A) (A) (A)
                 (A) (A) (A) (A) (A) (A) (A) (A) (A) (A) (A) (A)
                 (A) (A) (A) (A) (A) (A)
 The electronic state is 1-A.
 Alpha  occ. eigenvalues --  -19.18930 -19.18563 -19.18136 -19.17506 -19.17225
 Alpha  occ. eigenvalues --  -19.17091 -19.16205 -19.15190 -19.14533 -19.13376
 Alpha  occ. eigenvalues --  -19.12280 -10.30447 -10.29807 -10.26212 -10.25718
 Alpha  occ. eigenvalues --  -10.25380 -10.25156 -10.24731 -10.24236 -10.24222
 Alpha  occ. eigenvalues --  -10.23723 -10.23405 -10.22893  -1.09858  -1.09135
 Alpha  occ. eigenvalues --   -1.05859  -1.04797  -1.03912  -1.03722  -1.02423
 Alpha  occ. eigenvalues --   -1.01755  -1.01285  -1.00107  -0.99189  -0.82260
 Alpha  occ. eigenvalues --   -0.80224  -0.79529  -0.77904  -0.71932  -0.69080
 Alpha  occ. eigenvalues --   -0.67029  -0.64680  -0.63484  -0.61563  -0.61096
 Alpha  occ. eigenvalues --   -0.59853  -0.56409  -0.56236  -0.54880  -0.54619
 Alpha  occ. eigenvalues --   -0.53135  -0.53065  -0.52857  -0.51461  -0.51203
 Alpha  occ. eigenvalues --   -0.50821  -0.49812  -0.48717  -0.48056  -0.46741
 Alpha  occ. eigenvalues --   -0.45769  -0.44985  -0.43896  -0.42995  -0.42774
 Alpha  occ. eigenvalues --   -0.41922  -0.41495  -0.40671  -0.40314  -0.39225
 Alpha  occ. eigenvalues --   -0.38939  -0.37996  -0.37560  -0.36003  -0.35272
 Alpha  occ. eigenvalues --   -0.35224  -0.34869  -0.33519  -0.33263  -0.32588
 Alpha  occ. eigenvalues --   -0.32190  -0.31410  -0.30703  -0.30573  -0.29508
 Alpha  occ. eigenvalues --   -0.28887  -0.28472  -0.27748  -0.27330  -0.26393
 Alpha  occ. eigenvalues --   -0.25605
 Alpha virt. eigenvalues --   -0.01948  -0.01480  -0.01219  -0.00276   0.00043
 Alpha virt. eigenvalues --    0.00645   0.01822   0.02358   0.02534   0.03610
 Alpha virt. eigenvalues --    0.03876   0.04265   0.05010   0.05316   0.05787
 Alpha virt. eigenvalues --    0.05973   0.06657   0.07540   0.07595   0.07960
 Alpha virt. eigenvalues --    0.08240   0.08654   0.09097   0.09395   0.10279
 Alpha virt. eigenvalues --    0.10382   0.10606   0.11220   0.12063   0.12151
 Alpha virt. eigenvalues --    0.12582   0.12844   0.12977   0.13573   0.13744
 Alpha virt. eigenvalues --    0.14008   0.14156   0.14650   0.14955   0.15512
 Alpha virt. eigenvalues --    0.16091   0.16195   0.16404   0.16673   0.17172
 Alpha virt. eigenvalues --    0.17356   0.17714   0.17989   0.18324   0.18808
 Alpha virt. eigenvalues --    0.19087   0.19433   0.19606   0.19690   0.20137
 Alpha virt. eigenvalues --    0.20424   0.20888   0.21140   0.21441   0.21792
 Alpha virt. eigenvalues --    0.21954   0.22136   0.22632   0.23040   0.23208
 Alpha virt. eigenvalues --    0.23428   0.23858   0.23915   0.24192   0.24688
 Alpha virt. eigenvalues --    0.25011   0.25226   0.25367   0.25944   0.26403
 Alpha virt. eigenvalues --    0.26635   0.26844   0.27152   0.27460   0.27952
 Alpha virt. eigenvalues --    0.28130   0.28419   0.28550   0.28810   0.29258
 Alpha virt. eigenvalues --    0.29462   0.29598   0.30235   0.30525   0.31014
 Alpha virt. eigenvalues --    0.31334   0.31633   0.31813   0.32258   0.32748
 Alpha virt. eigenvalues --    0.32947   0.33163   0.33322   0.33513   0.34221
 Alpha virt. eigenvalues --    0.34384   0.34642   0.34915   0.35494   0.35766
 Alpha virt. eigenvalues --    0.35969   0.36408   0.37022   0.37395   0.37578
 Alpha virt. eigenvalues --    0.37873   0.38132   0.38653   0.39639   0.39740
 Alpha virt. eigenvalues --    0.40021   0.40525   0.41102   0.41602   0.41836
 Alpha virt. eigenvalues --    0.42261   0.42544   0.43105   0.43334   0.43814
 Alpha virt. eigenvalues --    0.44361   0.45161   0.45531   0.46970   0.47632
 Alpha virt. eigenvalues --    0.47845   0.48295   0.48687   0.49246   0.49929
 Alpha virt. eigenvalues --    0.50525   0.51460   0.52837   0.56518   0.58290
 Alpha virt. eigenvalues --    0.60203   0.60785   0.61264   0.61879   0.62813
 Alpha virt. eigenvalues --    0.63519   0.63737   0.65280   0.65971   0.67330
 Alpha virt. eigenvalues --    0.68067   0.68921   0.69654   0.70202   0.70315
 Alpha virt. eigenvalues --    0.71523   0.72365   0.72721   0.73393   0.74453
 Alpha virt. eigenvalues --    0.74886   0.76100   0.76780   0.77649   0.78121
 Alpha virt. eigenvalues --    0.78853   0.80187   0.80554   0.81234   0.81992
 Alpha virt. eigenvalues --    0.82395   0.83431   0.83555   0.84589   0.85094
 Alpha virt. eigenvalues --    0.85956   0.87105   0.88661   0.89423   0.90356
 Alpha virt. eigenvalues --    0.90594   0.91264   0.91447   0.91925   0.92082
 Alpha virt. eigenvalues --    0.92859   0.93280   0.94175   0.94670   0.95048
 Alpha virt. eigenvalues --    0.95302   0.95609   0.95948   0.97027   0.97357
 Alpha virt. eigenvalues --    0.97483   0.98004   0.98512   0.99008   0.99378
 Alpha virt. eigenvalues --    1.00242   1.01247   1.01645   1.02020   1.02532
 Alpha virt. eigenvalues --    1.03300   1.03766   1.04011   1.04607   1.05161
 Alpha virt. eigenvalues --    1.06417   1.07254   1.07763   1.08172   1.09013
 Alpha virt. eigenvalues --    1.09269   1.10114   1.11013   1.11628   1.11736
 Alpha virt. eigenvalues --    1.12702   1.13241   1.14000   1.14665   1.14895
 Alpha virt. eigenvalues --    1.15638   1.15950   1.16641   1.17358   1.17554
 Alpha virt. eigenvalues --    1.17776   1.18418   1.19309   1.19502   1.20627
 Alpha virt. eigenvalues --    1.20962   1.21501   1.21831   1.22506   1.23180
 Alpha virt. eigenvalues --    1.23385   1.24011   1.24533   1.25353   1.26043
 Alpha virt. eigenvalues --    1.26365   1.26530   1.27435   1.28018   1.28363
 Alpha virt. eigenvalues --    1.29034   1.29393   1.29670   1.30438   1.30868
 Alpha virt. eigenvalues --    1.31834   1.32637   1.32967   1.33636   1.34912
 Alpha virt. eigenvalues --    1.35504   1.36223   1.36720   1.37329   1.37702
 Alpha virt. eigenvalues --    1.37764   1.38912   1.39594   1.40326   1.40948
 Alpha virt. eigenvalues --    1.42203   1.42568   1.42943   1.43867   1.44753
 Alpha virt. eigenvalues --    1.45252   1.46172   1.46625   1.47640   1.49203
 Alpha virt. eigenvalues --    1.49684   1.50294   1.51112   1.51420   1.51849
 Alpha virt. eigenvalues --    1.53553   1.54690   1.54876   1.56445   1.57725
 Alpha virt. eigenvalues --    1.58565   1.59547   1.60499   1.60947   1.61558
 Alpha virt. eigenvalues --    1.62260   1.63178   1.64276   1.65234   1.65573
 Alpha virt. eigenvalues --    1.67214   1.67655   1.68502   1.69020   1.69864
 Alpha virt. eigenvalues --    1.71453   1.71707   1.72528   1.73805   1.74890
 Alpha virt. eigenvalues --    1.75330   1.75532   1.76893   1.77691   1.78941
 Alpha virt. eigenvalues --    1.80031   1.81231   1.81385   1.83967   1.84372
 Alpha virt. eigenvalues --    1.85400   1.86128   1.88179   1.88585   1.89990
 Alpha virt. eigenvalues --    1.90625   1.91068   1.91908   1.93427   1.94691
 Alpha virt. eigenvalues --    1.95618   1.96618   1.96912   1.97162   1.99569
 Alpha virt. eigenvalues --    2.01285   2.02540   2.03584   2.04837   2.05902
 Alpha virt. eigenvalues --    2.06407   2.07976   2.10189   2.10812   2.12889
 Alpha virt. eigenvalues --    2.13236   2.14279   2.15445   2.17204   2.18437
 Alpha virt. eigenvalues --    2.19007   2.22132   2.23173   2.25402   2.26032
 Alpha virt. eigenvalues --    2.26842   2.27399   2.28800   2.29347   2.31918
 Alpha virt. eigenvalues --    2.33054   2.34667   2.35379   2.36321   2.37826
 Alpha virt. eigenvalues --    2.40581   2.42946   2.45761   2.49757   2.53709
 Alpha virt. eigenvalues --    2.54462   2.56007   2.56463   2.57593   2.59292
 Alpha virt. eigenvalues --    2.61548   2.63978   2.64736   2.67304   2.68328
 Alpha virt. eigenvalues --    2.68669   2.70269   2.71290   2.71788   2.73608
 Alpha virt. eigenvalues --    2.74010   2.75843   2.77116   2.78829   2.79695
 Alpha virt. eigenvalues --    2.80841   2.81402   2.83486   2.85504   2.86259
 Alpha virt. eigenvalues --    2.87418   2.90202   2.90382   2.91492   2.92789
 Alpha virt. eigenvalues --    2.93117   2.94534   2.95230   2.95699   2.96873
 Alpha virt. eigenvalues --    2.97710   2.98612   3.00322   3.01015   3.01750
 Alpha virt. eigenvalues --    3.02036   3.02385   3.03086   3.03935   3.05263
 Alpha virt. eigenvalues --    3.05916   3.06851   3.07648   3.07962   3.08753
 Alpha virt. eigenvalues --    3.09589   3.10978   3.12387   3.12567   3.15386
 Alpha virt. eigenvalues --    3.16743   3.18737   3.19733   3.21343   3.23553
 Alpha virt. eigenvalues --    3.25063   3.27087   3.38641   3.74038   3.85367
 Alpha virt. eigenvalues --    4.06056   4.08398   4.10225   4.13254   4.13341
 Alpha virt. eigenvalues --    4.14799   4.15069   4.16179   4.16847   4.17613
 Alpha virt. eigenvalues --    4.17899   4.18482   4.19578   4.20686   4.22062
 Alpha virt. eigenvalues --    4.23442   4.25127   4.26152   4.26888   4.27353
 Alpha virt. eigenvalues --    4.27461   4.29113   4.29833   4.30150   4.30869
 Alpha virt. eigenvalues --    4.31286   4.31546   4.32205   4.33310   4.33846
 Alpha virt. eigenvalues --    4.34023   4.34448   4.35092   4.35562   4.35774
 Alpha virt. eigenvalues --    4.36783   4.37739   4.38298   4.39383   4.39478
 Alpha virt. eigenvalues --    4.41206   4.41697   4.43238   4.43726   4.45533
 Alpha virt. eigenvalues --    4.47351   4.47846   4.48898   4.49937   4.50263
 Alpha virt. eigenvalues --    4.51649   4.53507   4.54473   4.55220   4.55641
 Alpha virt. eigenvalues --    4.56626   4.57909   4.59601   4.60285   4.60933
 Alpha virt. eigenvalues --    4.61676   4.62473   4.63040   4.63600   4.64699
 Alpha virt. eigenvalues --    4.65246   4.65653   4.66263   4.67097   4.67691
 Alpha virt. eigenvalues --    4.68296   4.69017   4.69307   4.70479   4.71379
 Alpha virt. eigenvalues --    4.71765   4.72637   4.73260   4.73505   4.74819
 Alpha virt. eigenvalues --    4.75448   4.75987   4.76749   4.77222   4.77439
 Alpha virt. eigenvalues --    4.78553   4.79670   4.80482   4.80733   4.81297
 Alpha virt. eigenvalues --    4.83116   4.83874   4.85130   4.85243   4.86650
 Alpha virt. eigenvalues --    4.87390   4.88393   4.89834   4.90736   4.92378
 Alpha virt. eigenvalues --    4.93879   4.94845   4.96930   4.99655   5.00432
 Alpha virt. eigenvalues --    5.01847   5.03147   5.04541   5.05243   5.06971
 Alpha virt. eigenvalues --    5.10419   5.10687   5.12947   5.15467   5.18254
 Alpha virt. eigenvalues --    5.23756   5.27036   5.29994   5.35166   5.47309
 Alpha virt. eigenvalues --    5.49653   5.81399   5.97086   6.21947   6.59976
 Alpha virt. eigenvalues --    6.73333   6.73865   6.81805   6.82457   6.85988
 Alpha virt. eigenvalues --    6.91811   6.93128   6.97022   7.00954   7.06964
 Alpha virt. eigenvalues --    7.19572  11.86783  11.91358  12.12746  12.14017
 Alpha virt. eigenvalues --   12.32587  12.46527  12.66185  12.76062  12.79650
 Alpha virt. eigenvalues --   13.05734  13.10283  13.16155  13.19101  13.32040
 Alpha virt. eigenvalues --   13.36254  13.37144  13.41078  13.44221  13.45774
 Alpha virt. eigenvalues --   13.66085  13.75201  13.80004  13.89944
          Condensed to atoms (all electrons):
              1          2          3          4          5          6
     1  O    8.209265   0.305248  -0.153931  -0.003729   0.020321   0.030930
     2  C    0.305248   6.752508  -0.448036   0.072374  -0.061353  -1.218690
     3  C   -0.153931  -0.448036   7.474023   0.021077   0.004545   0.148520
     4  O   -0.003729   0.072374   0.021077   8.240110   0.235468  -0.009960
     5  H    0.020321  -0.061353   0.004545   0.235468   0.431433   0.021250
     6  C    0.030930  -1.218690   0.148520  -0.009960   0.021250   8.102079
     7  O    0.000945   0.036594  -0.128819   0.002449  -0.000231   0.187022
     8  H    0.000012  -0.004200   0.006592  -0.000335   0.000019   0.010360
     9  C   -0.043256  -0.165486  -0.337339   0.015244  -0.000857   0.144956
    10  O   -0.018434  -0.011563   0.025288  -0.000159   0.000015  -0.010250
    11  H    0.000781  -0.005189  -0.003633   0.000003   0.000000   0.000325
    12  C   -0.047533  -0.485341  -0.588924   0.028142   0.015917   0.615741
    13  O    0.002855  -0.008996  -0.031255  -0.001459  -0.000096   0.000070
    14  C   -0.009936   0.707911  -0.208384  -0.011421   0.000637  -1.896106
    15  O    0.000030  -0.005818  -0.012316   0.000650  -0.000012   0.010230
    16  C    0.000249   0.065777  -0.020203  -0.003624   0.000390  -0.101411
    17  C    0.000061  -0.011849   0.011571  -0.000067   0.000007   0.005309
    18  O    0.000011   0.004481  -0.001083   0.000011   0.000000  -0.000843
    19  H   -0.000003  -0.003808   0.001641  -0.000001   0.000000   0.009072
    20  C    0.000000   0.000325   0.008703  -0.000047   0.000001   0.039601
    21  O    0.000000  -0.000010  -0.000034   0.000000   0.000000  -0.000199
    22  H    0.000000  -0.000001   0.000001   0.000000   0.000000  -0.000022
    23  C   -0.000063   0.008186   0.005270   0.000187  -0.000010  -0.061641
    24  O    0.000003   0.002262  -0.008736  -0.000106  -0.000003  -0.024203
    25  H    0.000000  -0.000077   0.001978   0.000009   0.000000   0.001796
    26  C    0.000116   0.007614  -0.014834  -0.000127   0.000011  -0.094079
    27  O    0.000000  -0.000091  -0.000138   0.000000   0.000000   0.004387
    28  C    0.000001  -0.000290  -0.002098   0.000001   0.000000  -0.007865
    29  O    0.000000   0.000003  -0.000001   0.000000   0.000000  -0.000340
    30  H    0.000000   0.000000   0.000000   0.000000   0.000000   0.000010
    31  H    0.262587   0.033022  -0.028324  -0.000174  -0.001988  -0.008336
    32  H   -0.000279  -0.003399   0.002859   0.000008   0.000000  -0.001562
    33  H    0.000875  -0.014950  -0.004130  -0.000018   0.000000   0.013124
    34  H    0.003307   0.058458  -0.026900   0.000461   0.000002  -0.032177
    35  H   -0.010704   0.371992  -0.087379   0.003137  -0.000196   0.004365
    36  H    0.002876   0.053452   0.232097  -0.013995  -0.003599  -0.159447
    37  H   -0.000227   0.039341  -0.113296   0.004713  -0.000203   0.332036
    38  H    0.000006  -0.018894  -0.014149  -0.000048   0.000006   0.021441
    39  H    0.000000   0.000002  -0.000008   0.000000   0.000000  -0.000093
    40  H    0.000000   0.000063  -0.000003   0.000000   0.000000   0.000257
    41  H    0.000000   0.000474   0.000536   0.000000   0.000000   0.003382
    42  H   -0.000002  -0.002606   0.005985   0.000001   0.000000   0.013178
    43  H    0.000000  -0.000025   0.000448   0.000000   0.000000  -0.003165
    44  H    0.000000   0.000008   0.000041   0.000000   0.000000   0.000789
    45  H    0.000000   0.000051   0.000343   0.000000   0.000000  -0.002449
              7          8          9         10         11         12
     1  O    0.000945   0.000012  -0.043256  -0.018434   0.000781  -0.047533
     2  C    0.036594  -0.004200  -0.165486  -0.011563  -0.005189  -0.485341
     3  C   -0.128819   0.006592  -0.337339   0.025288  -0.003633  -0.588924
     4  O    0.002449  -0.000335   0.015244  -0.000159   0.000003   0.028142
     5  H   -0.000231   0.000019  -0.000857   0.000015   0.000000   0.015917
     6  C    0.187022   0.010360   0.144956  -0.010250   0.000325   0.615741
     7  O    8.289401   0.247693   0.000995  -0.000001   0.000000   0.012655
     8  H    0.247693   0.346443   0.000295   0.000000   0.000000   0.003494
     9  C    0.000995   0.000295   6.115760   0.084163  -0.019126  -0.328342
    10  O   -0.000001   0.000000   0.084163   8.266087   0.227117   0.018485
    11  H    0.000000   0.000000  -0.019126   0.227117   0.454551   0.031969
    12  C    0.012655   0.003494  -0.328342   0.018485   0.031969   7.868824
    13  O    0.002479  -0.000105  -0.060165  -0.003815   0.000129  -0.082125
    14  C    0.023084  -0.032561  -0.258637   0.016913  -0.003162  -0.862967
    15  O    0.003918   0.007999  -0.004408   0.000070   0.000002   0.001138
    16  C   -0.012981  -0.000285  -0.040280   0.000077  -0.000111  -0.128712
    17  C    0.003953   0.002373   0.015822   0.000188   0.000038  -0.025308
    18  O    0.000075  -0.000069   0.000220  -0.000020   0.000007  -0.007901
    19  H   -0.000048   0.000000   0.008190  -0.000012  -0.000001  -0.012078
    20  C    0.000134   0.001008   0.002321   0.000038  -0.000007  -0.009664
    21  O   -0.000001   0.000000   0.000035   0.000000   0.000000  -0.000124
    22  H    0.000000   0.000000   0.000000   0.000000   0.000000   0.000007
    23  C    0.010003   0.011279   0.001286  -0.000002   0.000000   0.005026
    24  O   -0.038661  -0.020376   0.000049   0.000000   0.000000  -0.000351
    25  H    0.004461  -0.001755  -0.000010   0.000000   0.000000  -0.000302
    26  C   -0.015093  -0.014929  -0.000466  -0.000004   0.000003  -0.005145
    27  O   -0.000115  -0.000203  -0.000032   0.000000   0.000000   0.000367
    28  C   -0.000039  -0.000272  -0.000981  -0.000002   0.000000   0.002726
    29  O   -0.000005  -0.000001  -0.000003   0.000000   0.000000   0.000030
    30  H    0.000000   0.000000   0.000000   0.000000   0.000000  -0.000001
    31  H   -0.000021   0.000000   0.001229  -0.000847  -0.000013  -0.005179
    32  H   -0.000006   0.000000   0.407946  -0.029934  -0.008029  -0.035661
    33  H    0.000002   0.000000   0.586585  -0.046785  -0.004424  -0.202009
    34  H   -0.000280   0.000007   0.046404   0.003347  -0.000227   0.092774
    35  H    0.000780  -0.000001   0.001167  -0.000368  -0.000015  -0.083303
    36  H    0.010276  -0.000266   0.019623  -0.000054   0.000000   0.023470
    37  H   -0.028255  -0.001938   0.010981   0.000008   0.000000   0.018281
    38  H   -0.006932  -0.000509   0.011346   0.000033   0.000000   0.032926
    39  H    0.000000   0.000000   0.000002   0.000000   0.000000   0.000021
    40  H    0.000000   0.000000  -0.000026   0.000000   0.000000   0.000260
    41  H    0.000007  -0.000001  -0.000098   0.000000   0.000000  -0.000340
    42  H   -0.001503  -0.000290  -0.000066   0.000000   0.000000   0.004599
    43  H   -0.000223  -0.000034   0.000039   0.000000   0.000000   0.000794
    44  H   -0.000440   0.000216  -0.000002   0.000000   0.000000   0.000037
    45  H    0.000698  -0.000294  -0.000001   0.000000   0.000000  -0.000027
             13         14         15         16         17         18
     1  O    0.002855  -0.009936   0.000030   0.000249   0.000061   0.000011
     2  C   -0.008996   0.707911  -0.005818   0.065777  -0.011849   0.004481
     3  C   -0.031255  -0.208384  -0.012316  -0.020203   0.011571  -0.001083
     4  O   -0.001459  -0.011421   0.000650  -0.003624  -0.000067   0.000011
     5  H   -0.000096   0.000637  -0.000012   0.000390   0.000007   0.000000
     6  C    0.000070  -1.896106   0.010230  -0.101411   0.005309  -0.000843
     7  O    0.002479   0.023084   0.003918  -0.012981   0.003953   0.000075
     8  H   -0.000105  -0.032561   0.007999  -0.000285   0.002373  -0.000069
     9  C   -0.060165  -0.258637  -0.004408  -0.040280   0.015822   0.000220
    10  O   -0.003815   0.016913   0.000070   0.000077   0.000188  -0.000020
    11  H    0.000129  -0.003162   0.000002  -0.000111   0.000038   0.000007
    12  C   -0.082125  -0.862967   0.001138  -0.128712  -0.025308  -0.007901
    13  O    8.249536   0.250751  -0.005068   0.047776  -0.024294  -0.020385
    14  C    0.250751   8.182627   0.224051  -0.540131   0.041551  -0.033818
    15  O   -0.005068   0.224051   8.049245   0.109942   0.018103  -0.015961
    16  C    0.047776  -0.540131   0.109942   9.473442  -1.125987  -0.041483
    17  C   -0.024294   0.041551   0.018103  -1.125987   7.472522   0.218787
    18  O   -0.020385  -0.033818  -0.015961  -0.041483   0.218787   8.228197
    19  H    0.003722   0.025326   0.014631  -0.090453   0.060434   0.245337
    20  C   -0.010229  -0.140256   0.025573  -0.638279  -0.476540  -0.042181
    21  O   -0.000205   0.001484  -0.000139   0.063041  -0.174169   0.005416
    22  H    0.000003   0.000064  -0.000013  -0.011379   0.041126   0.000014
    23  C    0.003810   0.131449   0.001675   0.178720  -0.265516   0.010120
    24  O    0.000659   0.063863  -0.010904   0.064381   0.012729   0.000021
    25  H   -0.000042  -0.011615   0.001271  -0.005881  -0.000975   0.000000
    26  C   -0.017659  -0.425088  -0.098494  -2.239373  -0.385993   0.044296
    27  O    0.000142   0.022078   0.002298   0.075895  -0.002906   0.000862
    28  C   -0.000101   0.039713   0.000147   0.426898   0.247582  -0.023572
    29  O    0.000021   0.000914  -0.000376   0.004027  -0.044020   0.000062
    30  H    0.000000  -0.000144  -0.000002  -0.002130   0.006605  -0.000017
    31  H   -0.000619   0.005033   0.000002   0.000177  -0.000016   0.000000
    32  H   -0.004793  -0.000412  -0.000164   0.005361  -0.001719   0.000031
    33  H   -0.012819   0.001123  -0.000537  -0.005293   0.002236  -0.000511
    34  H   -0.027283   0.128382  -0.001745   0.005762   0.003287  -0.000198
    35  H    0.009904   0.065206   0.000012  -0.003263   0.000894   0.000027
    36  H    0.006340   0.087010   0.000407  -0.005339   0.000856   0.000040
    37  H    0.007619   0.011267  -0.008945  -0.012378   0.003774   0.000127
    38  H   -0.033440   0.296888  -0.039986  -0.029166   0.035686  -0.002871
    39  H    0.000005   0.002488   0.000094   0.050448  -0.032043   0.000519
    40  H    0.000009  -0.003768   0.000711   0.032638  -0.209003   0.006243
    41  H   -0.000023  -0.027796   0.000829  -0.239813   0.207967  -0.021933
    42  H   -0.001070   0.013997  -0.021621   0.095341   0.055624   0.003089
    43  H   -0.000048   0.054695   0.000093   0.038455  -0.019814   0.000269
    44  H    0.000020   0.004021   0.000462  -0.016028   0.009127   0.000002
    45  H    0.000009   0.003228   0.000696   0.076649  -0.006308   0.000069
             19         20         21         22         23         24
     1  O   -0.000003   0.000000   0.000000   0.000000  -0.000063   0.000003
     2  C   -0.003808   0.000325  -0.000010  -0.000001   0.008186   0.002262
     3  C    0.001641   0.008703  -0.000034   0.000001   0.005270  -0.008736
     4  O   -0.000001  -0.000047   0.000000   0.000000   0.000187  -0.000106
     5  H    0.000000   0.000001   0.000000   0.000000  -0.000010  -0.000003
     6  C    0.009072   0.039601  -0.000199  -0.000022  -0.061641  -0.024203
     7  O   -0.000048   0.000134  -0.000001   0.000000   0.010003  -0.038661
     8  H    0.000000   0.001008   0.000000   0.000000   0.011279  -0.020376
     9  C    0.008190   0.002321   0.000035   0.000000   0.001286   0.000049
    10  O   -0.000012   0.000038   0.000000   0.000000  -0.000002   0.000000
    11  H   -0.000001  -0.000007   0.000000   0.000000   0.000000   0.000000
    12  C   -0.012078  -0.009664  -0.000124   0.000007   0.005026  -0.000351
    13  O    0.003722  -0.010229  -0.000205   0.000003   0.003810   0.000659
    14  C    0.025326  -0.140256   0.001484   0.000064   0.131449   0.063863
    15  O    0.014631   0.025573  -0.000139  -0.000013   0.001675  -0.010904
    16  C   -0.090453  -0.638279   0.063041  -0.011379   0.178720   0.064381
    17  C    0.060434  -0.476540  -0.174169   0.041126  -0.265516   0.012729
    18  O    0.245337  -0.042181   0.005416   0.000014   0.010120   0.000021
    19  H    0.393174   0.002364  -0.000313   0.000011  -0.003973   0.000013
    20  C    0.002364   6.425535   0.276790  -0.035716   0.046415  -0.007920
    21  O   -0.000313   0.276790   8.190233   0.241985  -0.000771   0.000013
    22  H    0.000011  -0.035716   0.241985   0.425907  -0.000257   0.000000
    23  C   -0.003973   0.046415  -0.000771  -0.000257   6.137756   0.033586
    24  O    0.000013  -0.007920   0.000013   0.000000   0.033586   8.396857
    25  H    0.000000   0.000667   0.000000   0.000000  -0.033464   0.241959
    26  C   -0.012485   0.607977  -0.003998  -0.000549  -0.935047  -0.090131
    27  O    0.000014  -0.047712   0.001365  -0.000937  -0.086696   0.005740
    28  C    0.004784  -0.281451  -0.022896  -0.004447  -0.085941   0.004901
    29  O    0.000015  -0.029786  -0.002593   0.013480   0.016979  -0.000099
    30  H    0.000000  -0.011441  -0.000650  -0.000956   0.000015   0.000000
    31  H    0.000000   0.000000   0.000000   0.000000   0.000001   0.000000
    32  H   -0.000030  -0.000042   0.000000   0.000000  -0.000001   0.000000
    33  H    0.000140   0.000259   0.000000   0.000000  -0.000004   0.000000
    34  H    0.000057   0.000083   0.000000   0.000000  -0.000111  -0.000001
    35  H    0.000004  -0.000032   0.000000   0.000000  -0.000004   0.000010
    36  H    0.000000  -0.000068   0.000000   0.000000   0.000536   0.000149
    37  H   -0.000019  -0.000133   0.000000   0.000000   0.002179   0.000001
    38  H    0.000252   0.004432  -0.000001   0.000000  -0.002597  -0.000324
    39  H    0.000015  -0.067189   0.001773   0.000194   0.001594   0.000075
    40  H   -0.000084   0.452896  -0.040034  -0.008835   0.007531   0.000038
    41  H   -0.007819   0.092659  -0.005950  -0.000157   0.017778  -0.000052
    42  H    0.000099   0.036050  -0.000445   0.000004   0.007612   0.001393
    43  H    0.000040  -0.030561   0.000091   0.000001   0.071702   0.009537
    44  H    0.000000   0.003447  -0.000008   0.000000   0.381432  -0.012283
    45  H    0.000000  -0.004343  -0.000001   0.000000   0.599125  -0.049820
             25         26         27         28         29         30
     1  O    0.000000   0.000116   0.000000   0.000001   0.000000   0.000000
     2  C   -0.000077   0.007614  -0.000091  -0.000290   0.000003   0.000000
     3  C    0.001978  -0.014834  -0.000138  -0.002098  -0.000001   0.000000
     4  O    0.000009  -0.000127   0.000000   0.000001   0.000000   0.000000
     5  H    0.000000   0.000011   0.000000   0.000000   0.000000   0.000000
     6  C    0.001796  -0.094079   0.004387  -0.007865  -0.000340   0.000010
     7  O    0.004461  -0.015093  -0.000115  -0.000039  -0.000005   0.000000
     8  H   -0.001755  -0.014929  -0.000203  -0.000272  -0.000001   0.000000
     9  C   -0.000010  -0.000466  -0.000032  -0.000981  -0.000003   0.000000
    10  O    0.000000  -0.000004   0.000000  -0.000002   0.000000   0.000000
    11  H    0.000000   0.000003   0.000000   0.000000   0.000000   0.000000
    12  C   -0.000302  -0.005145   0.000367   0.002726   0.000030  -0.000001
    13  O   -0.000042  -0.017659   0.000142  -0.000101   0.000021   0.000000
    14  C   -0.011615  -0.425088   0.022078   0.039713   0.000914  -0.000144
    15  O    0.001271  -0.098494   0.002298   0.000147  -0.000376  -0.000002
    16  C   -0.005881  -2.239373   0.075895   0.426898   0.004027  -0.002130
    17  C   -0.000975  -0.385993  -0.002906   0.247582  -0.044020   0.006605
    18  O    0.000000   0.044296   0.000862  -0.023572   0.000062  -0.000017
    19  H    0.000000  -0.012485   0.000014   0.004784   0.000015   0.000000
    20  C    0.000667   0.607977  -0.047712  -0.281451  -0.029786  -0.011441
    21  O    0.000000  -0.003998   0.001365  -0.022896  -0.002593  -0.000650
    22  H    0.000000  -0.000549  -0.000937  -0.004447   0.013480  -0.000956
    23  C   -0.033464  -0.935047  -0.086696  -0.085941   0.016979   0.000015
    24  O    0.241959  -0.090131   0.005740   0.004901  -0.000099   0.000000
    25  H    0.410936   0.040712  -0.001004  -0.000341  -0.000005   0.000000
    26  C    0.040712  10.579034  -0.055374  -0.628444  -0.018231  -0.001564
    27  O   -0.001004  -0.055374   8.304901   0.146657  -0.096746   0.002676
    28  C   -0.000341  -0.628444   0.146657   5.281379   0.273863   0.007119
    29  O   -0.000005  -0.018231  -0.096746   0.273863   8.179853   0.252988
    30  H    0.000000  -0.001564   0.002676   0.007119   0.252988   0.433868
    31  H    0.000000  -0.000004   0.000000   0.000000   0.000000   0.000000
    32  H    0.000000   0.000040   0.000000   0.000036   0.000000   0.000000
    33  H    0.000000  -0.000103   0.000000  -0.000041   0.000000   0.000000
    34  H    0.000000   0.000184   0.000000  -0.000006   0.000000   0.000000
    35  H    0.000000   0.000050   0.000000  -0.000002   0.000000   0.000000
    36  H    0.000000   0.000121   0.000000  -0.000003   0.000000   0.000000
    37  H    0.000006  -0.002234   0.000005   0.000032   0.000000   0.000000
    38  H    0.000010   0.004886   0.000403   0.000140  -0.000004   0.000000
    39  H    0.000000  -0.013340  -0.059288   0.403693  -0.015463  -0.010431
    40  H    0.000000   0.055789  -0.003490  -0.051201  -0.008950   0.000401
    41  H    0.000001   0.250602  -0.005873  -0.069537   0.000961   0.000019
    42  H   -0.000042   0.040734   0.006704  -0.006008  -0.000126   0.000003
    43  H   -0.000379   0.115755  -0.015785   0.035254  -0.001060   0.000016
    44  H   -0.011672   0.000845  -0.013979  -0.010515  -0.000377   0.000001
    45  H    0.000961  -0.307812   0.000979   0.003631  -0.000014   0.000001
             31         32         33         34         35         36
     1  O    0.262587  -0.000279   0.000875   0.003307  -0.010704   0.002876
     2  C    0.033022  -0.003399  -0.014950   0.058458   0.371992   0.053452
     3  C   -0.028324   0.002859  -0.004130  -0.026900  -0.087379   0.232097
     4  O   -0.000174   0.000008  -0.000018   0.000461   0.003137  -0.013995
     5  H   -0.001988   0.000000   0.000000   0.000002  -0.000196  -0.003599
     6  C   -0.008336  -0.001562   0.013124  -0.032177   0.004365  -0.159447
     7  O   -0.000021  -0.000006   0.000002  -0.000280   0.000780   0.010276
     8  H    0.000000   0.000000   0.000000   0.000007  -0.000001  -0.000266
     9  C    0.001229   0.407946   0.586585   0.046404   0.001167   0.019623
    10  O   -0.000847  -0.029934  -0.046785   0.003347  -0.000368  -0.000054
    11  H   -0.000013  -0.008029  -0.004424  -0.000227  -0.000015   0.000000
    12  C   -0.005179  -0.035661  -0.202009   0.092774  -0.083303   0.023470
    13  O   -0.000619  -0.004793  -0.012819  -0.027283   0.009904   0.006340
    14  C    0.005033  -0.000412   0.001123   0.128382   0.065206   0.087010
    15  O    0.000002  -0.000164  -0.000537  -0.001745   0.000012   0.000407
    16  C    0.000177   0.005361  -0.005293   0.005762  -0.003263  -0.005339
    17  C   -0.000016  -0.001719   0.002236   0.003287   0.000894   0.000856
    18  O    0.000000   0.000031  -0.000511  -0.000198   0.000027   0.000040
    19  H    0.000000  -0.000030   0.000140   0.000057   0.000004   0.000000
    20  C    0.000000  -0.000042   0.000259   0.000083  -0.000032  -0.000068
    21  O    0.000000   0.000000   0.000000   0.000000   0.000000   0.000000
    22  H    0.000000   0.000000   0.000000   0.000000   0.000000   0.000000
    23  C    0.000001  -0.000001  -0.000004  -0.000111  -0.000004   0.000536
    24  O    0.000000   0.000000   0.000000  -0.000001   0.000010   0.000149
    25  H    0.000000   0.000000   0.000000   0.000000   0.000000   0.000000
    26  C   -0.000004   0.000040  -0.000103   0.000184   0.000050   0.000121
    27  O    0.000000   0.000000   0.000000   0.000000   0.000000   0.000000
    28  C    0.000000   0.000036  -0.000041  -0.000006  -0.000002  -0.000003
    29  O    0.000000   0.000000   0.000000   0.000000   0.000000   0.000000
    30  H    0.000000   0.000000   0.000000   0.000000   0.000000   0.000000
    31  H    0.418503   0.000005  -0.000035  -0.000212  -0.012308  -0.000147
    32  H    0.000005   0.579872  -0.051100  -0.007470  -0.000040   0.000004
    33  H   -0.000035  -0.051100   0.592372   0.006120   0.001987  -0.000005
    34  H   -0.000212  -0.007470   0.006120   0.628441   0.006063   0.001780
    35  H   -0.012308  -0.000040   0.001987   0.006063   0.603619   0.005434
    36  H   -0.000147   0.000004  -0.000005   0.001780   0.005434   0.601557
    37  H    0.000018   0.000000  -0.000014  -0.000096   0.001403   0.005429
    38  H    0.000001   0.000020  -0.000027   0.002912  -0.000043   0.001360
    39  H    0.000000   0.000000   0.000000   0.000000   0.000000   0.000000
    40  H    0.000000   0.000000   0.000000   0.000000   0.000000   0.000000
    41  H    0.000000   0.000000   0.000000   0.000000   0.000000   0.000000
    42  H    0.000000  -0.000001   0.000000  -0.000007   0.000000   0.000000
    43  H    0.000000   0.000000   0.000000   0.000000   0.000000   0.000000
    44  H    0.000000   0.000000   0.000000   0.000000   0.000000   0.000000
    45  H    0.000000   0.000000   0.000000   0.000000   0.000000   0.000000
             37         38         39         40         41         42
     1  O   -0.000227   0.000006   0.000000   0.000000   0.000000  -0.000002
     2  C    0.039341  -0.018894   0.000002   0.000063   0.000474  -0.002606
     3  C   -0.113296  -0.014149  -0.000008  -0.000003   0.000536   0.005985
     4  O    0.004713  -0.000048   0.000000   0.000000   0.000000   0.000001
     5  H   -0.000203   0.000006   0.000000   0.000000   0.000000   0.000000
     6  C    0.332036   0.021441  -0.000093   0.000257   0.003382   0.013178
     7  O   -0.028255  -0.006932   0.000000   0.000000   0.000007  -0.001503
     8  H   -0.001938  -0.000509   0.000000   0.000000  -0.000001  -0.000290
     9  C    0.010981   0.011346   0.000002  -0.000026  -0.000098  -0.000066
    10  O    0.000008   0.000033   0.000000   0.000000   0.000000   0.000000
    11  H    0.000000   0.000000   0.000000   0.000000   0.000000   0.000000
    12  C    0.018281   0.032926   0.000021   0.000260  -0.000340   0.004599
    13  O    0.007619  -0.033440   0.000005   0.000009  -0.000023  -0.001070
    14  C    0.011267   0.296888   0.002488  -0.003768  -0.027796   0.013997
    15  O   -0.008945  -0.039986   0.000094   0.000711   0.000829  -0.021621
    16  C   -0.012378  -0.029166   0.050448   0.032638  -0.239813   0.095341
    17  C    0.003774   0.035686  -0.032043  -0.209003   0.207967   0.055624
    18  O    0.000127  -0.002871   0.000519   0.006243  -0.021933   0.003089
    19  H   -0.000019   0.000252   0.000015  -0.000084  -0.007819   0.000099
    20  C   -0.000133   0.004432  -0.067189   0.452896   0.092659   0.036050
    21  O    0.000000  -0.000001   0.001773  -0.040034  -0.005950  -0.000445
    22  H    0.000000   0.000000   0.000194  -0.008835  -0.000157   0.000004
    23  C    0.002179  -0.002597   0.001594   0.007531   0.017778   0.007612
    24  O    0.000001  -0.000324   0.000075   0.000038  -0.000052   0.001393
    25  H    0.000006   0.000010   0.000000   0.000000   0.000001  -0.000042
    26  C   -0.002234   0.004886  -0.013340   0.055789   0.250602   0.040734
    27  O    0.000005   0.000403  -0.059288  -0.003490  -0.005873   0.006704
    28  C    0.000032   0.000140   0.403693  -0.051201  -0.069537  -0.006008
    29  O    0.000000  -0.000004  -0.015463  -0.008950   0.000961  -0.000126
    30  H    0.000000   0.000000  -0.010431   0.000401   0.000019   0.000003
    31  H    0.000018   0.000001   0.000000   0.000000   0.000000   0.000000
    32  H    0.000000   0.000020   0.000000   0.000000   0.000000  -0.000001
    33  H   -0.000014  -0.000027   0.000000   0.000000   0.000000   0.000000
    34  H   -0.000096   0.002912   0.000000   0.000000   0.000000  -0.000007
    35  H    0.001403  -0.000043   0.000000   0.000000   0.000000   0.000000
    36  H    0.005429   0.001360   0.000000   0.000000   0.000000   0.000000
    37  H    0.592666   0.004875   0.000000   0.000000  -0.000004  -0.000008
    38  H    0.004875   0.606255   0.000000   0.000002   0.000011   0.007691
    39  H    0.000000   0.000000   0.598232   0.006048   0.002632  -0.000007
    40  H    0.000000   0.000002   0.006048   0.627665   0.009093   0.002349
    41  H   -0.000004   0.000011   0.002632   0.009093   0.689268   0.007304
    42  H   -0.000008   0.007691  -0.000007   0.002349   0.007304   0.610572
    43  H   -0.000001   0.000007   0.002211  -0.000041   0.001631   0.005539
    44  H    0.000000  -0.000001  -0.000041   0.000000   0.000003   0.000157
    45  H    0.000000   0.000026  -0.000012  -0.000039  -0.000025   0.003912
             43         44         45
     1  O    0.000000   0.000000   0.000000
     2  C   -0.000025   0.000008   0.000051
     3  C    0.000448   0.000041   0.000343
     4  O    0.000000   0.000000   0.000000
     5  H    0.000000   0.000000   0.000000
     6  C   -0.003165   0.000789  -0.002449
     7  O   -0.000223  -0.000440   0.000698
     8  H   -0.000034   0.000216  -0.000294
     9  C    0.000039  -0.000002  -0.000001
    10  O    0.000000   0.000000   0.000000
    11  H    0.000000   0.000000   0.000000
    12  C    0.000794   0.000037  -0.000027
    13  O   -0.000048   0.000020   0.000009
    14  C    0.054695   0.004021   0.003228
    15  O    0.000093   0.000462   0.000696
    16  C    0.038455  -0.016028   0.076649
    17  C   -0.019814   0.009127  -0.006308
    18  O    0.000269   0.000002   0.000069
    19  H    0.000040   0.000000   0.000000
    20  C   -0.030561   0.003447  -0.004343
    21  O    0.000091  -0.000008  -0.000001
    22  H    0.000001   0.000000   0.000000
    23  C    0.071702   0.381432   0.599125
    24  O    0.009537  -0.012283  -0.049820
[...]
 0.00000946,-0.00000051,0.00000421,-0.00004136,0.00009172,0.00002553,0.
 00032711,-0.00015410,0.00017450,0.00005987,0.00020752,-0.00468249,-0.0
 1494930,0.00250221,0.00820236,-0.34392362,0.05631256,-0.02173697,-0.00
 487142,0.00073206,-0.00254576,0.00119813,0.00024898,0.00087804,-0.0001
 6786,-0.00017576,-0.00011090,0.00030158,0.00029609,0.00018399,0.000111
 76,-0.00014429,-0.00002082,-0.00004852,0.00003033,-0.00004347,0.000111
 39,0.00165899,0.00085979,0.00017112,-0.00008954,-0.00009788,0.00004763
 ,-0.00006506,0.00005730,-0.01364019,0.00312061,-0.00056433,0.00128393,
 0.00014794,-0.00089955,-0.00012322,-0.00020926,0.00009951,0.00007910,0
 .00000472,-0.00013805,0.00000946,0.00000079,-0.00000187,-0.00000145,0.
 00000005,-0.00000150,0.00000232,0.00000868,-0.00000359,0.00001195,-0.0
 0000392,-0.00000658,0.00002795,0.00000369,0.00002517,0.00000763,-0.000
 00148,-0.00000934,0.00001881,0.00000128,0.00002424,0.00003944,0.000163
 77,-0.00026870,0.00172115,-0.00029945,0.00088962,0.00000028,0.00002630
 ,0.00012264,0.00020938,0.00031711,-0.00066198,0.00055714,0.00058881,-0
 .00025080,0.36970054,-0.00000685,-0.00002430,0.00000440,0.00000108,0.0
 0003812,-0.00001005,0.00002329,0.00003151,-0.00000258,-0.00000677,-0.0
 0002797,-0.00001703,0.00000152,0.00000797,-0.00000328,-0.00020332,0.00
 017092,0.00006737,0.00007621,-0.00009330,-0.00020900,-0.00014846,-0.00
 013031,0.00024154,0.00002160,-0.00000516,-0.00002759,-0.00001433,0.000
 00983,0.00002698,0.00000877,-0.00000293,-0.00000453,0.00000117,0.00000
 792,-0.00003406,0.00007327,-0.00010722,0.00011194,-0.00013297,0.000889
 05,0.00034592,-0.00052559,0.00100342,-0.00002309,0.05925653,-0.0537258
 1,0.00233260,0.03224839,-0.00572117,0.00589362,-0.00239531,0.00293867,
 -0.00038687,0.00012214,0.00002265,-0.00005270,0.00110806,0.00124484,-0
 .00206888,-0.00049002,-0.00003205,0.00001813,-0.00001848,-0.00005713,0
 .00003362,-0.00221732,0.00123345,0.00042853,0.00027893,-0.00001469,-0.
 00015075,0.00001916,-0.00005395,0.00005367,-0.02434557,0.00272855,-0.0
 0226594,0.00119005,0.00072097,0.00032300,0.00027718,-0.00086558,-0.000
 00712,-0.00003900,0.00020816,0.00004323,-0.00001300,0.00003017,-0.0000
 0564,0.00000116,0.00000207,0.00000008,-0.00000429,-0.00001940,0.000003
 80,-0.00001095,-0.00000163,0.00000383,-0.00001472,0.00001455,-0.000016
 95,-0.00000333,-0.00000612,0.00000485,-0.00000006,0.00000629,0.0000032
 6,0.00002704,-0.00006122,0.00003019,-0.00003369,0.00016082,-0.00019181
 ,-0.00019346,-0.00001727,-0.00002140,-0.00093186,-0.00004451,0.0006669
 1,0.00192589,-0.00521768,0.00211438,-0.06356582,0.05752001,-0.00001573
 ,-0.00000578,-0.00005086,0.00000736,0.00000087,0.00004202,0.00002906,0
 .00007577,0.00003881,-0.00002767,0.00002048,-0.00004834,0.00000543,0.0
 0000106,-0.00000572,-0.00008256,0.00004675,-0.00030784,-0.00021672,0.0
 0006417,0.00010901,0.00011573,-0.00008947,-0.00007372,-0.00001682,0.00
 006162,-0.00002406,-0.00001124,-0.00004524,-0.00001470,0.00000332,0.00
 000063,-0.00000601,0.00000864,-0.00006906,-0.00001567,-0.00094563,-0.0
 0012691,-0.00032742,0.00748740,-0.00120888,0.00400384,0.03486097,-0.00
 553300,-0.01536816,-0.02824901,0.00453626,-0.04463326,-0.01532583,0.00
 148863,-0.00078542,0.00136267,-0.00031683,0.00102696,0.00012358,0.0004
 5290,-0.00020123,-0.00094585,-0.00062111,0.00136954,0.00036179,-0.0000
 4022,-0.00002173,-0.00002558,0.00001939,-0.00002483,-0.00091668,0.0008
 7764,0.00045427,0.00018086,-0.00009026,0.00003817,-0.00002885,-0.00000
 932,0.00005491,-0.01798934,0.00317883,0.00047055,0.00126448,0.00020013
 ,0.00098968,-0.00038196,0.00016303,0.00000071,0.00014205,-0.00002549,-
 0.00025777,0.00001633,0.00000091,0.00001260,-0.00000049,0.00000453,0.0
 0000618,-0.00001006,-0.00001084,0.00000043,0.00000171,0.00001211,0.000
 00350,-0.00004291,-0.00001607,-0.00007403,-0.00000791,0.00000540,0.000
 01210,-0.00003973,0.00000050,-0.00004684,-0.00024163,-0.00008789,0.000
 10273,-0.00140685,0.00023243,-0.00048570,0.00016533,-0.00003744,0.0000
 6005,0.00064919,-0.00009593,-0.00022408,-0.00079785,0.00311256,-0.0009
 1615,0.02162434,-0.00405475,0.05718752,0.00001054,0.00000651,0.0000114
 9,-0.00000658,-0.00000869,-0.00000412,-0.00000650,-0.00000041,-0.00001
 001,0.00001516,0.00000332,0.00000163,-0.00000364,0.00000126,-0.0000000
 3,-0.00005957,-0.00003416,-0.00001423,0.00011047,0.00003664,0.00001022
 ,-0.00014568,-0.00000752,-0.00005402,-0.00001153,-0.00000748,0.0000041
 4,0.00001214,0.00000722,0.00000181,-0.00000613,-0.00000079,0.00000131,
 -0.00003377,0.00001272,0.00000988,0.00010597,0.00000421,0.00003324,0.0
 0011411,0.00014192,-0.00026231,0.00167179,0.00037163,0.00030874,-0.015
 77399,0.00244169,0.00180863,-0.00110125,0.00152900,-0.00016726,0.00078
 427,0.00004470,0.00016852,-0.00014322,-0.00001564,-0.00009207,0.000301
 05,0.00007480,0.00020821,-0.00000977,-0.00016098,-0.00000473,0.0000067
 3,0.00003889,0.00000137,-0.01057052,-0.00052497,0.00119632,0.00150368,
 -0.00039089,-0.00056243,0.00005327,0.00003507,-0.00010021,-0.35817288,
 0.00481676,0.02419988,-0.00134845,-0.00079812,0.01001067,0.00031738,0.
 00090534,-0.00015447,0.00006064,-0.00028242,0.00016939,-0.00000861,0.0
 0000024,-0.00001809,-0.00000191,-0.00000131,-0.00000215,0.00000100,0.0
 0000525,-0.00000169,0.00000552,-0.00000279,-0.00000185,0.00000935,-0.0
 0000318,0.00000242,0.00000472,-0.00000114,-0.00000463,0.00001024,-0.00
 000072,0.00000871,0.00001850,0.00000512,-0.00004680,0.00016750,-0.0000
 4695,0.00021007,-0.00016828,-0.00090780,0.00063924,0.00006057,0.000103
 57,-0.00022317,0.00138298,-0.00046643,0.00026150,-0.00034384,-0.002050
 97,-0.00129655,0.38010364,-0.00000255,-0.00000090,-0.00001251,-0.00000
 017,0.00000130,0.00000956,0.00000751,0.00000757,0.00002150,-0.00000478
 ,0.00000699,-0.00001460,0.00000114,-0.00000067,-0.00000080,0.00003250,
 -0.00006062,-0.00003997,-0.00002890,0.00004000,0.00004256,0.00002562,-
 0.00002642,-0.00006607,0.00000236,0.00000367,0.00001761,-0.00000101,-0
 .00000501,-0.00001094,-0.00000108,0.00000208,0.00000185,0.00000680,0.0
 0003200,0.00003800,0.00009726,-0.00000747,0.00005570,0.00000942,0.0003
 1099,-0.00009223,0.00103047,0.00053999,0.00146010,-0.02270955,0.000371
 99,0.00084582,-0.00185219,0.00161776,-0.00053652,0.00076523,-0.0004919
 0,-0.00011845,-0.00005412,-0.00005256,0.00002346,-0.00004811,-0.000290
 51,-0.00009038,0.00001339,-0.00011598,0.00005342,0.00000264,-0.0000085
 5,-0.00000014,0.03329154,-0.00135345,-0.00265006,-0.00184737,0.0022967
 1,-0.00091666,0.00000228,0.00017613,-0.00011633,0.00580595,-0.04691881
 ,-0.00235431,-0.00755778,0.00254634,0.00336904,-0.00217709,0.00115241,
 -0.00074716,0.00025859,-0.00023213,0.00048999,-0.00001802,-0.00005868,
 0.00007238,-0.00000061,0.00000144,0.00000144,0.00000257,0.00000299,-0.
 00000041,0.00000002,-0.00000002,-0.00000138,0.00000111,-0.00000005,0.0
 0000130,0.00000012,0.00000141,-0.00000163,-0.00000266,-0.00000352,-0.0
 0000273,-0.00000656,0.00002527,-0.00000820,0.00014939,-0.00005834,0.00
 002927,0.00033911,0.00025328,-0.00014728,0.00016708,0.00002759,0.00001
 891,0.00020276,-0.00086649,0.00002224,-0.00088166,-0.00252289,-0.00180
 356,-0.00639418,0.04754187,0.00000277,-0.00000017,-0.00001741,-0.00000
 686,-0.00000109,0.00001174,0.00000124,-0.00001165,0.00001572,0.0000133
 2,0.00001028,-0.00001931,-0.00000196,-0.00000017,0.00000258,0.00001760
 ,-0.00001700,0.00001057,0.00008348,0.00000720,-0.00005786,-0.00010663,
 0.00000827,0.00006062,0.00000185,0.00000835,0.00002262,0.00000060,-0.0
 0000956,-0.00001775,-0.00000184,0.00000340,0.00000258,0.00000116,0.000
 03473,0.00007414,0.00011285,-0.00003145,0.00001223,-0.00025335,0.00029
 755,-0.00001484,0.00041848,0.00058829,0.00184856,-0.02097092,-0.000238
 38,0.00330424,-0.00060961,0.00145571,-0.00031979,0.00049384,-0.0005401
 7,-0.00016544,-0.00006275,-0.00005730,0.00005775,-0.00018172,0.0001970
 3,-0.00069226,0.00007334,0.00029830,0.00027635,-0.00002528,-0.00011846
 ,-0.00002151,-0.00466318,-0.00083047,0.00113541,-0.00011298,-0.0004612
 2,0.00047735,0.00000295,-0.00008948,0.00002872,0.02356626,-0.00109160,
 -0.04204495,0.03817622,0.00201981,-0.01935957,0.00226274,-0.00437536,0
 .00254463,-0.00032290,0.00084754,-0.00137434,0.00002550,0.00024334,-0.
 00007039,-0.00000247,0.00000124,0.00000161,0.00000349,0.00000597,-0.00
 000107,0.00000061,-0.00000170,-0.00000098,0.00000458,0.00000045,0.0000
 0080,0.00000294,-0.00000156,-0.00000490,0.00001065,-0.00000070,0.00000
 967,0.00001594,0.00001874,-0.00006177,0.00023646,-0.00004528,-0.000020
 71,-0.00079422,0.00054984,-0.00032793,-0.00002626,-0.00004290,-0.00007
 711,0.00037428,-0.00013974,0.00026280,-0.00120034,-0.00282648,-0.00209
 318,-0.03680873,0.00287611,0.05649454,0.00000096,0.00001371,-0.0000035
 6,0.00000905,-0.00001944,0.00002350,-0.00002997,0.00004945,0.00002987,
 0.00000395,0.00001875,-0.00001697,0.00000053,-0.00000212,0.00000013,0.
 00011582,-0.00017242,0.00002455,0.00021332,0.00032842,0.00054199,-0.00
 049390,-0.00039319,-0.00073459,0.00000499,0.00000910,0.00000621,-0.000
 00261,-0.00001033,-0.00001252,0.00000016,0.00000178,0.00000093,0.00000
 145,-0.00000076,0.00004041,0.00003038,-0.00002947,-0.00007967,-0.00012
 409,0.00006647,0.00018996,0.00010515,-0.00027320,-0.00023825,-0.000975
 61,0.00178721,-0.00127792,0.00077312,0.00028274,0.00053041,-0.00006535
 ,0.00034873,0.00000020,0.00001406,0.00001478,-0.00002697,-0.00007710,0
 .00004491,-0.00002869,0.00001431,-0.00004280,0.00002487,0.00000011,0.0
 0000061,-0.00001383,-0.09615369,-0.07078462,-0.09003284,0.00527853,0.0
 0577891,0.01446016,0.00176148,0.00108902,-0.00054191,0.00559251,0.0108
 3845,0.00956194,0.00008767,-0.00148795,0.00115402,-0.00004165,0.000169
 63,0.00012567,-0.00010510,0.00004222,0.00019426,0.00002018,-0.00006051
 ,-0.00000543,0.00000137,0.00000029,0.00000196,-0.00000070,0.00000340,-
 0.00000111,-0.00000070,-0.00000049,-0.00000110,0.00000203,0.00000134,-
 0.00000121,-0.00000011,0.00000122,-0.00000117,0.00000196,-0.00000240,-
 0.00000155,-0.00000509,0.00001846,-0.00000445,0.00004838,0.00000955,0.
 00001783,0.00000484,0.00000685,0.00000709,0.00001815,0.00000365,-0.000
 00681,0.00002850,-0.00013037,0.00005669,0.00060264,0.00021693,0.000113
 22,0.00071246,-0.00078858,0.00052389,0.09307007,0.00000596,0.00004358,
 -0.00002097,-0.00000532,-0.00005768,0.00006017,-0.00001364,0.00010895,
 0.00005237,-0.00000049,0.00005367,-0.00004457,0.00000348,-0.00000360,-
 0.00000453,0.00014132,-0.00049413,-0.00010659,0.00031179,0.00065048,0.
 00119321,-0.00070521,-0.00066326,-0.00161134,0.00000610,0.00002885,0.0
 0003399,-0.00001055,-0.00003340,-0.00005545,0.00000026,0.00000600,0.00
 000587,0.00004300,-0.00001463,0.00010954,-0.00006638,0.00002809,-0.000
 29097,0.00030448,-0.00012246,0.00061122,-0.00004642,0.00047381,-0.0006
 9186,0.00289133,-0.00559113,0.00407027,-0.00122706,-0.00005000,-0.0017
 5907,0.00010937,-0.00140291,-0.00021738,-0.00007909,0.00005434,0.00021
 245,0.00005136,0.00011842,-0.00060055,0.00004724,0.00009308,0.00026861
 ,-0.00000621,-0.00005545,-0.00000531,-0.06853076,-0.15066072,-0.136452
 85,0.00415510,0.00796659,0.02280171,0.00093550,0.00343487,0.00069626,-
 0.01323104,-0.01902702,-0.02222517,0.00058357,0.00104539,-0.00107161,0
 .00002488,0.00011365,0.00019630,0.00000220,0.00011109,0.00019399,-0.00
 002038,-0.00008272,0.00004231,-0.00000069,-0.00000048,0.00000246,0.000
 01195,0.00001351,-0.00000176,-0.00000863,0.00000138,0.00000447,-0.0000
 0970,0.00000176,-0.00001060,-0.00000095,0.00000286,-0.00000123,-0.0000
 0530,-0.00000637,-0.00001068,-0.00003247,0.00004309,0.00000862,-0.0000
 1357,-0.00001931,-0.00000428,-0.00004450,0.00005193,-0.00002921,-0.000
 01170,-0.00002507,0.00001906,0.00011911,0.00004736,0.00000279,0.000284
 39,0.00030542,0.00008062,0.00016661,0.00138946,0.00003019,0.07291460,0
 .16074409,-0.00003640,-0.00006905,-0.00010774,-0.00000462,0.00009771,0
 .00000508,0.00006038,-0.00019586,0.00003695,0.00000969,-0.00000595,-0.
 00007058,-0.00000128,-0.00000564,0.00001317,-0.00033963,0.00068675,0.0
 0015430,-0.00043081,-0.00102238,-0.00187214,0.00118943,0.00121323,0.00
 289616,0.00000251,0.00003976,0.00002502,-0.00001068,-0.00003867,-0.000
 02491,0.00000226,0.00000559,0.00000157,0.00005067,0.00003228,0.0000207
 9,-0.00002693,-0.00022641,0.00001222,0.00002121,0.00022164,-0.00015425
 ,-0.00002617,-0.00030591,0.00013758,0.00044175,0.00129602,-0.00022056,
 0.00000032,0.00007038,0.00029738,-0.00000785,0.00013204,0.00011301,-0.
 00001045,0.00005634,-0.00006536,-0.00004145,-0.00000510,-0.00017951,0.
 00001420,0.00004985,0.00005504,-0.00000950,-0.00001889,0.00000231,-0.0
 8595268,-0.13155268,-0.20504713,-0.00527820,-0.00761853,-0.03764190,-0
 .00013469,-0.00133050,0.00030137,0.00016172,0.00031181,0.00108910,-0.0
 0004762,0.00349984,0.00017761,0.00026725,0.00004351,0.00067039,0.00004
 470,-0.00007739,-0.00009757,0.00000469,0.00003483,0.00000454,-0.000005
 94,0.00000778,0.00001619,-0.00000532,-0.00001200,-0.00000044,0.0000010
 2,-0.00000136,-0.00000394,-0.00000292,0.00000195,-0.00000107,0.0000000
 2,-0.00000604,-0.00000307,0.00001360,0.00000910,0.00000991,0.00005065,
 -0.00006987,-0.00001455,0.00001273,0.00000930,-0.00000559,-0.00000174,
 -0.00000601,0.00000727,0.00001404,-0.00000041,0.00000965,0.00000233,-0
 .00000610,-0.00000243,-0.00006663,0.00005975,-0.00002757,0.00018504,-0
 .00022677,0.00020713,0.08964316,0.13540305,0.23605557,0.00001809,0.000
 02989,0.00003123,-0.00000305,-0.00003955,0.00000409,-0.00003171,0.0000
 5415,-0.00000328,0.00001480,0.00001790,0.00000857,-0.00000232,0.000001
 34,-0.00000315,0.00006820,-0.00029097,-0.00003795,0.00019990,0.0004465
 7,0.00062578,-0.00042699,-0.00051984,-0.00097099,-0.00000472,-0.000009
 72,-0.00000395,0.00000943,0.00000956,0.00000139,-0.00000457,-0.0000015
 3,0.00000089,-0.00002446,-0.00000573,0.00001909,0.00006638,0.00005184,
 -0.00004078,-0.00018389,0.00001869,0.00013309,0.00037196,-0.00010455,-
 0.00023304,0.00026099,-0.00172017,-0.00062015,0.00043078,-0.00002493,0
 .00009820,0.00002516,0.00010218,-0.00005396,-0.00002507,-0.00000598,0.
 00000019,-0.00008773,0.00004894,-0.00003183,0.00004473,-0.00003930,0.0
 0001214,-0.00000878,0.00001483,-0.00000861,-0.36033739,-0.00605142,0.0
 0362446,-0.00179682,-0.00553750,0.01074434,-0.00078121,0.00073204,0.00
 054860,-0.01485943,-0.00030318,0.00039615,0.00171202,-0.00076857,0.000
 20328,0.00035270,0.00016195,-0.00012921,0.00011105,0.00005849,-0.00017
 829,0.00000592,0.00001937,-0.00001258,-0.00000015,-0.00000383,-0.00000
 507,0.00000266,0.00000757,-0.00000120,0.00000191,-0.00000126,0.0000005
 4,0.00000571,-0.00000072,-0.00000007,0.00000339,-0.00000041,-0.0000023
 3,0.00000634,-0.00000233,0.00000368,-0.00000688,0.00002089,-0.00002171
 ,0.00006698,-0.00000387,0.00001747,0.00004004,-0.00021445,0.00013372,0
 .00005989,0.00001861,-0.00001392,0.00016968,-0.00028681,0.00007346,0.0
 0101715,0.00048776,0.00050001,0.00037246,0.00216210,-0.00027505,-0.010
 44245,0.00095645,0.00024812,0.38358931,0.00001415,0.00002182,0.0000408
 0,-0.00000126,-0.00002910,-0.00001193,-0.00001595,0.00004183,-0.000028
 74,0.00000426,-0.00000232,0.00003189,-0.00000180,0.00000374,-0.0000035
 8,0.00004618,-0.00018420,-0.00009340,0.00014780,0.00016111,0.00046763,
 -0.00033805,-0.00012895,-0.00086727,-0.00000087,-0.00001618,-0.0000132
 4,0.00000459,0.00001678,0.00001381,-0.00000047,-0.00000269,-0.00000100
 ,-0.00002153,-0.00001759,-0.00003083,-0.00003056,0.00010176,0.00000041
 ,0.00009249,-0.00019965,0.00000085,-0.00034175,-0.00003577,-0.00038223
 ,0.00260259,0.00207971,0.00048309,0.00050986,-0.00009044,0.00021891,-0
 .00025841,0.00001573,-0.00015457,0.00004036,-0.00003384,0.00004931,0.0
 0002563,0.00004394,0.00000861,-0.00002612,0.00004208,-0.00004503,0.000
 00653,0.00000976,0.00000867,-0.00845488,-0.04589266,-0.00490460,-0.016
 46122,-0.00143136,0.01043767,-0.00171502,0.00002043,0.00048319,0.03429
 459,-0.00409707,-0.00030253,-0.00033045,0.00126486,-0.00190952,-0.0000
 8476,0.00023540,-0.00012293,-0.00009365,-0.00014160,0.00010229,-0.0000
 1639,0.00000072,-0.00000386,0.00000136,-0.00000367,-0.00000639,0.00000
 210,0.00000262,0.00000048,-0.00000057,0.00000068,0.00000225,-0.0000001
 9,-0.00000141,-0.00000158,0.00000072,-0.00000020,0.00000125,-0.0000008
 4,0.00000191,0.00000022,-0.00001350,-0.00000296,-0.00000016,-0.0000541
 3,-0.00000369,-0.00006804,-0.00011309,0.00010761,-0.00007797,-0.000063
 49,-0.00004042,0.00005598,-0.00047322,-0.00004733,-0.00008201,-0.00088
 908,-0.00054307,-0.00034916,0.00135508,-0.00527426,0.00142956,-0.01986
 252,0.00137863,-0.00048096,0.01051548,0.05266929,-0.00000223,-0.000014
 91,0.00001584,0.00000032,0.00001552,-0.00002365,0.00001474,-0.00000944
 ,-0.00003214,-0.00001831,-0.00003179,0.00003101,0.00000039,0.00000234,
 -0.00000098,-0.00003513,0.00016595,0.00005500,-0.00049518,-0.00023695,
 -0.00022680,0.00106146,0.00041525,0.00070929,-0.00000486,-0.00001496,-
 0.00001151,0.00000279,0.00001538,0.00002091,0.00000049,-0.00000250,-0.
 00000173,-0.00000585,0.00000024,-0.00005996,-0.00003398,0.00004720,0.0
 0012080,0.00016962,-0.00005198,-0.00021751,-0.00019916,-0.00014633,0.0
 0018637,0.00126813,-0.00035677,-0.00010287,-0.00009511,-0.00006202,-0.
 00004051,0.00000411,0.00007814,0.00002394,0.00001007,-0.00001792,-0.00
 002303,-0.00003761,-0.00003035,0.00007140,0.00001919,0.00002296,-0.000
 04197,-0.00001086,0.00000791,0.00000631,0.00041461,-0.00511138,-0.0415
 2899,0.03659770,0.01100538,-0.01605842,0.00154635,-0.00058729,-0.00105
 309,-0.00052150,-0.00117474,0.00135129,-0.00077788,0.00103767,0.000308
 83,-0.00027733,-0.00024595,0.00017385,0.00012233,-0.00006414,-0.000091
 28,-0.00001633,0.00000664,0.00001345,0.00000123,0.00000116,-0.00000245
 ,-0.00000179,-0.00000483,0.00000120,0.00000148,0.00000137,-0.00000004,
 -0.00000203,-0.00000368,0.00000257,-0.00000180,0.00000164,0.00000324,-
 0.00001112,-0.00000182,-0.00000926,-0.00001151,0.00001830,0.00004310,-
 0.00006298,-0.00003591,-0.00002175,0.00006675,0.00004248,-0.00006121,0
 .00002620,0.00001946,0.00000848,-0.00002273,0.00000189,-0.00001874,-0.
 00003609,-0.00043109,0.00005069,0.00037710,0.00050881,-0.00009932,-0.0
 2424239,-0.00088359,0.00322096,-0.01478133,-0.00389534,0.05330869\\0.0
 0206535,-0.00167415,-0.00602427,0.01917509,-0.00017202,-0.00252740,-0.
 03342475,0.00112292,0.02744794,0.00864764,-0.00420866,0.01871370,-0.00
 780805,-0.00002566,-0.03235800,0.03131295,-0.02470474,-0.01515929,-0.0
 0626398,0.00125612,-0.00708109,-0.00079397,0.00646471,0.01988735,0.003
 39738,0.01535410,0.01764601,0.00074265,0.02018711,-0.00150981,0.004156
 13,-0.03224129,0.00757328,-0.01131487,0.02679896,0.00635863,-0.0028835
 0,-0.02626339,0.00207297,-0.02029996,0.02561110,-0.01405232,0.00816873
 ,-0.01538972,0.00584041,-0.01465243,0.01440298,-0.01817066,-0.03371085
 ,0.06275940,0.04592631,0.00570004,0.01064500,0.00689382,0.01525593,-0.
 00419592,-0.02969326,0.04261395,-0.02645992,0.03228129,-0.00750224,-0.
 02276929,-0.01568539,-0.01745904,0.00094743,0.02526277,-0.01832891,-0.
 00493407,0.02430430,-0.00843491,-0.03963448,-0.00988132,0.00434393,0.0
 3196467,0.00543383,0.03081923,-0.04092940,-0.00626425,-0.01047669,0.04
 422090,0.02322792,0.03621120,-0.01109511,-0.05484986,-0.01144724,0.014
 60786,-0.01110929,-0.00080423,-0.00349302,-0.00380528,-0.00124440,0.00
 423807,0.00011685,0.00886419,0.00483342,-0.01663428,-0.01916920,0.0005
 6186,-0.00533833,0.01936038,-0.00589388,-0.00161429,-0.01704445,0.0032
 1720,0.00191452,0.01759041,-0.00364073,-0.00411481,-0.01751465,0.00207
 402,0.00315814,0.01819265,-0.00445175,-0.00461684,-0.02011411,0.000873
 48,-0.00310426,0.02132505,-0.00776032,-0.00376095,-0.02803839,-0.00229
 520,0.00104801,0.01639195,-0.00498390,0.00333760,-0.01719264,0.0023552
 7,0.00433616,-0.00554578,-0.00802868,-0.01256513,0.01713439,0.00074869
 ,-0.00286144\\\@


 I DON'T EXACTLY UNDERSTAND WHAT YOU ARE SAYING,
 BUT YOU ARE ABSOLUTELY RIGHT.
     M.S.GORDON, IN A NDSU FACULTY MEETING
 Job cpu time:  1 days  7 hours 32 minutes  3.7 seconds.
 File lengths (MBytes):  RWF=   1769 Int=      0 D2E=      0 Chk=     28 Scr=      1
 Normal termination of Gaussian 09 at Sun Mar 27 03:37:07 2016.
Gaussian '09 finished on node017 at Sun Mar 27 03:37:07 EDT 2016.
