Gaussian '09 started on node010 at Wed Jan 20 15:58:14 EST 2016.
 Entering Gaussian System, Link 0=/usr/local/gaussian/g09/g09
 Initial command:
 /usr/local/gaussian/g09/l1.exe /home/srmcgrat/thesis/gaussian/cellobiose/310/7000/gaussian15697/Gau-15733.inp -scrdir=/home/srmcgrat/thesis/gaussian/cellobiose/310/7000/gaussian15697/
 Entering Link 1 = /usr/local/gaussian/g09/l1.exe PID=     15735.
  
 Copyright (c) 1988,1990,1992,1993,1995,1998,2003,2009,2010,
            Gaussian, Inc.  All Rights Reserved.
  
 This is part of the Gaussian(R) 09 program.  It is based on
 the Gaussian(R) 03 system (copyright 2003, Gaussian, Inc.),
 the Gaussian(R) 98 system (copyright 1998, Gaussian, Inc.),
 the Gaussian(R) 94 system (copyright 1995, Gaussian, Inc.),
 the Gaussian 92(TM) system (copyright 1992, Gaussian, Inc.),
 the Gaussian 90(TM) system (copyright 1990, Gaussian, Inc.),
 the Gaussian 88(TM) system (copyright 1988, Gaussian, Inc.),
 the Gaussian 86(TM) system (copyright 1986, Carnegie Mellon
 University), and the Gaussian 82(TM) system (copyright 1983,
 Carnegie Mellon University). Gaussian is a federally registered
 trademark of Gaussian, Inc.
  
 This software contains proprietary and confidential information,
 including trade secrets, belonging to Gaussian, Inc.
  
 This software is provided under written license and may be
 used, copied, transmitted, or stored only in accord with that
 written license.
  
 The following legend is applicable only to US Government
 contracts under FAR:
  
                    RESTRICTED RIGHTS LEGEND
  
 Use, reproduction and disclosure by the US Government is
 subject to restrictions as set forth in subparagraphs (a)
 and (c) of the Commercial Computer Software - Restricted
 Rights clause in FAR 52.227-19.
  
 Gaussian, Inc.
 340 Quinnipiac St., Bldg. 40, Wallingford CT 06492
  
  
 ---------------------------------------------------------------
 Warning -- This program may not be used in any manner that
 competes with the business of Gaussian, Inc. or will provide
 assistance to any competitor of Gaussian, Inc.  The licensee
 of this program is prohibited from giving any competitor of
 Gaussian, Inc. access to this program.  By using this program,
 the user acknowledges that Gaussian, Inc. is engaged in the
 business of creating and licensing software in the field of
 computational chemistry and represents and warrants to the
 licensee that it is not a competitor of Gaussian, Inc. and that
 it will not use this program in any manner prohibited above.
 ---------------------------------------------------------------
  

 Cite this work as:
 Gaussian 09, Revision B.01,
 M. J. Frisch, G. W. Trucks, H. B. Schlegel, G. E. Scuseria, 
 M. A. Robb, J. R. Cheeseman, G. Scalmani, V. Barone, B. Mennucci, 
 G. A. Petersson, H. Nakatsuji, M. Caricato, X. Li, H. P. Hratchian, 
 A. F. Izmaylov, J. Bloino, G. Zheng, J. L. Sonnenberg, M. Hada, 
 M. Ehara, K. Toyota, R. Fukuda, J. Hasegawa, M. Ishida, T. Nakajima, 
 Y. Honda, O. Kitao, H. Nakai, T. Vreven, J. A. Montgomery, Jr., 
 J. E. Peralta, F. Ogliaro, M. Bearpark, J. J. Heyd, E. Brothers, 
 K. N. Kudin, V. N. Staroverov, T. Keith, R. Kobayashi, J. Normand, 
 K. Raghavachari, A. Rendell, J. C. Burant, S. S. Iyengar, J. Tomasi, 
 M. Cossi, N. Rega, J. M. Millam, M. Klene, J. E. Knox, J. B. Cross, 
 V. Bakken, C. Adamo, J. Jaramillo, R. Gomperts, R. E. Stratmann, 
 O. Yazyev, A. J. Austin, R. Cammi, C. Pomelli, J. W. Ochterski, 
 R. L. Martin, K. Morokuma, V. G. Zakrzewski, G. A. Voth, 
 P. Salvador, J. J. Dannenberg, S. Dapprich, A. D. Daniels, 
 O. Farkas, J. B. Foresman, J. V. Ortiz, J. Cioslowski, 
 and D. J. Fox, Gaussian, Inc., Wallingford CT, 2010.
 
 ******************************************
 Gaussian 09:  EM64L-G09RevB.01 12-Aug-2010
                20-Jan-2016 
 ******************************************
 ------------------------------------------------
 # freq=raman b3lyp/6-31+g(d,p) geom=connectivity
 ------------------------------------------------
 1/10=4,30=1,38=1,57=2/1,3;
 2/12=2,17=6,18=5,40=1/2;
 3/5=1,6=6,7=111,11=2,16=1,25=1,30=1,71=2,74=-5/1,2,3;
 4//1;
 5/5=2,38=5,98=1/2;
 8/6=4,10=90,11=11/1;
 10/13=10,15=4/2;
 11/6=3,8=1,9=11,15=111,16=1/1,2,10;
 10/6=1/2;
 6/7=2,8=2,9=2,10=2,18=1,28=1/1;
 7/8=1,10=1,25=1/1,2,3,16;
 1/10=4,30=1/3;
 99//99;
 ------------
 310 7000.com
 ------------
 Symbolic Z-matrix:
 Charge =  0 Multiplicity = 1
 O                     7.746     7.402     12.188 
 C                     8.392     7.745     13.423 
 C                     7.832     9.069     13.917 
 O                     8.116     10.159    13.028 
 H                     7.934     9.777     12.122 
 C                     8.458     9.41      15.26 
 O                     7.923     10.636    15.78 
 H                     8.205     10.875    16.709 
 C                     8.762     5.29      14.102 
 O                     8.128     4.397     13.175 
 H                     8.417     3.44      13.19 
 C                     8.257     6.67      14.49 
 O                     8.843     7.097     15.728 
 C                     8.221     8.281     16.249 
 O                     8.974     8.619     17.422 
 C                     8.287     8.27      18.632 
 C                     8.813     6.986     19.252 
 O                     8.467     5.977     18.292 
 H                     8.848     6.214     17.398 
 C                     8.346     6.597     20.645 
 O                     8.938     5.444     21.26 
 H                     8.415     5.253     22.091 
 C                     7.875     10.703    19.19 
 O                     8.579     11.435    18.176 
 H                     8.183     12.35     18.109 
 C                     8.438     9.374     19.666 
 O                     7.86      9.003     20.926 
 C                     8.449     7.836     21.52 
 O                     7.654     7.584     22.688 
 H                     8.23029   7.42207   23.43852 
 H                     9.46684   8.02344   21.79161 
 H                     7.3024    6.37795   20.55655 
 H                     9.88032   7.05594   19.28075 
 H                     7.24735   8.14456   18.41225 
 H                     9.48641   9.51424   19.82744 
 H                     7.79198   11.3403   20.04548 
 H                     6.88645   10.51923   18.82407 
 H                     7.18232   8.13591   16.46111 
 H                     9.51268   9.52873   15.12419 
 H                     6.77237   8.97958   14.03573 
 H                     8.41022   7.21652   11.52016 
 H                     9.43432   7.88106   13.22309 
 H                     7.20841   6.56288   14.67408 
 H                     8.85164   4.74412   15.01791 
 H                     9.75564   5.43621   13.73294 
 

 GradGradGradGradGradGradGradGradGradGradGradGradGradGradGradGradGradGrad
 Berny optimization.
 Initialization pass.
 Trust Radius=3.00D-01 FncErr=1.00D-07 GrdErr=1.00D-07
 Number of steps in this run=      2 maximum allowed number of steps=      2.
 GradGradGradGradGradGradGradGradGradGradGradGradGradGradGradGradGradGrad

                          Input orientation:                          
 ---------------------------------------------------------------------
 Center     Atomic      Atomic             Coordinates (Angstroms)
 Number     Number       Type             X           Y           Z
 ---------------------------------------------------------------------
      1          8           0        7.746000    7.402000   12.188000
      2          6           0        8.392000    7.745000   13.423000
      3          6           0        7.832000    9.069000   13.917000
      4          8           0        8.116000   10.159000   13.028000
      5          1           0        7.934000    9.777000   12.122000
      6          6           0        8.458000    9.410000   15.260000
      7          8           0        7.923000   10.636000   15.780000
      8          1           0        8.205000   10.875000   16.709000
      9          6           0        8.762000    5.290000   14.102000
     10          8           0        8.128000    4.397000   13.175000
     11          1           0        8.417000    3.440000   13.190000
     12          6           0        8.257000    6.670000   14.490000
     13          8           0        8.843000    7.097000   15.728000
     14          6           0        8.221000    8.281000   16.249000
     15          8           0        8.974000    8.619000   17.422000
     16          6           0        8.287000    8.270000   18.632000
     17          6           0        8.813000    6.986000   19.252000
     18          8           0        8.467000    5.977000   18.292000
     19          1           0        8.848000    6.214000   17.398000
     20          6           0        8.346000    6.597000   20.645000
     21          8           0        8.938000    5.444000   21.260000
     22          1           0        8.415000    5.253000   22.091000
     23          6           0        7.875000   10.703000   19.190000
     24          8           0        8.579000   11.435000   18.176000
     25          1           0        8.183000   12.350000   18.109000
     26          6           0        8.438000    9.374000   19.666000
     27          8           0        7.860000    9.003000   20.926000
     28          6           0        8.449000    7.836000   21.520000
     29          8           0        7.654000    7.584000   22.688000
     30          1           0        8.230287    7.422074   23.438515
     31          1           0        9.466838    8.023439   21.791610
     32          1           0        7.302404    6.377950   20.556548
     33          1           0        9.880324    7.055943   19.280750
     34          1           0        7.247349    8.144558   18.412247
     35          1           0        9.486413    9.514238   19.827441
     36          1           0        7.791976   11.340301   20.045485
     37          1           0        6.886453   10.519231   18.824073
     38          1           0        7.182318    8.135909   16.461105
     39          1           0        9.512685    9.528732   15.124195
     40          1           0        6.772374    8.979578   14.035732
     41          1           0        8.410224    7.216520   11.520165
     42          1           0        9.434315    7.881064   13.223087
     43          1           0        7.208411    6.562877   14.674078
     44          1           0        8.851644    4.744124   15.017906
     45          1           0        9.755636    5.436214   13.732936
 ---------------------------------------------------------------------
                    Distance matrix (angstroms):
                    1          2          3          4          5
     1  O    0.000000
     2  C    1.435336   0.000000
     3  C    2.403274   1.520070   0.000000
     4  O    2.905779   2.461625   1.434948   0.000000
     5  H    2.383343   2.455889   1.932277   0.999942   0.000000
     6  C    3.738475   2.480151   1.520462   2.379031   3.202547
     7  O    4.836584   3.759427   2.436091   2.799693   3.757521
     8  H    5.719428   4.541989   3.346047   3.751045   4.724364
     9  C    3.025921   2.573901   3.896148   5.027718   4.973847
    10  O    3.185925   3.367537   4.739806   5.763887   5.485512
    11  H    4.141460   4.311373   5.705821   6.727689   6.444492
    12  C    2.469038   1.520638   2.502829   3.785558   3.919847
    13  O    3.718606   2.436458   2.861927   4.146610   4.583876
    14  C    4.182103   2.881460   2.492085   3.729980   4.399149
    15  O    5.512153   4.134562   3.713716   4.734448   5.523818
    16  C    6.524664   5.236443   4.803816   5.916281   6.691469
    17  C    7.156231   5.893264   5.810635   7.020820   7.707089
    18  O    6.309460   5.180599   5.394841   6.732163   7.265878
    19  H    5.456175   4.283984   4.615262   5.932601   6.431683
    20  C    8.516389   7.312818   7.186165   8.411863   9.106244
    21  O    9.357126   8.186042   8.263384   9.522223  10.162969
    22  H   10.155549   9.019136   9.039691  10.310005  10.958052
    23  C    7.742173   6.501949   5.520537   6.190659   7.128645
    24  O    7.267401   6.020139   4.929001   5.323951   6.309985
    25  H    7.728642   6.573302   5.334888   5.533672   6.521234
    26  C    7.764543   6.452194   5.788891   6.692007   7.571549
    27  O    8.884191   7.626310   7.009367   7.986255   8.838267
    28  C    9.368500   8.097712   7.727004   8.810294   9.610157
    29  O   10.501980   9.295740   8.897604  10.007980  10.794814
    30  H   11.260952  10.022025   9.671104  10.764881  11.562741
    31  H    9.776339   8.441945   8.110202   9.120650   9.946152
    32  H    8.442633   7.344627   7.183719   8.463883   9.115594
    33  H    7.414998   6.083021   6.084229   7.199909   7.901900
    34  H    6.288187   5.134439   4.626409   5.814005   6.534797
    35  H    8.114903   6.733855   6.153750   6.966071   7.864659
    36  H    8.789334   7.559334   6.535957   7.123592   8.077481
    37  H    7.381965   6.255767   5.203517   5.935993   6.823931
    38  H    4.372161   3.293361   2.786614   4.092782   4.699578
    39  H    4.033039   2.707711   2.119758   2.596536   3.401037
    40  H    2.617406   2.126690   1.070000   2.052289   2.376474
    41  H    0.960000   1.974944   3.083966   3.319386   2.673023
    42  H    2.037478   1.070000   2.111900   2.639130   2.656673
    43  H    2.678379   2.088898   2.691224   4.057757   4.167754
    44  H    4.036721   3.429323   4.577796   5.815649   5.878621
    45  H    3.207768   2.699269   4.114777   5.048767   4.975529
                    6          7          8          9         10
     6  C    0.000000
     7  O    1.435166   0.000000
     8  H    2.076014   0.999843   0.000000
     9  C    4.290429   5.665626   6.188612   0.000000
    10  O    5.439328   6.764109   7.379673   1.434829   0.000000
    11  H    6.318820   7.663847   8.228459   2.091236   0.999797
    12  C    2.853226   4.183875   4.754860   1.519858   2.629143
    13  O    2.391070   3.656997   3.955084   2.432218   3.784050
    14  C    1.519517   2.419667   2.634519   3.721340   4.954148
    15  O    2.359276   2.805183   2.487824   4.706335   6.047976
    16  C    3.563597   3.723487   3.238932   5.443062   6.693598
    17  C    4.683787   5.115602   4.686239   5.422317   6.640939
    18  O    4.580240   5.320936   5.154118   4.256183   5.366098
    19  H    3.864914   4.798712   4.755322   3.424148   4.653345
    20  C    6.076491   6.337245   5.814917   6.685219   7.790278
    21  O    7.208298   7.616921   7.123528   7.161819   8.192651
    22  H    7.996565   8.309481   7.785686   7.996618   8.961594
    23  C    4.178114   3.410996   2.508754   7.481650   8.718364
    24  O    3.552228   2.609512   1.614176   7.375093   8.645626
    25  H    4.103173   2.903384   2.033743   8.138482   9.359358
    26  C    4.406192   4.118114   3.324325   6.909568   8.185335
    27  O    5.711988   5.399257   4.626716   7.820930   9.020258
    28  C    6.454855   6.408141   5.695681   7.849001   9.031544
    29  O    7.691286   7.556952   6.847096   8.955975  10.043845
    30  H    8.419728   8.311233   7.563710   9.591610  10.700527
    31  H    6.752943   6.734120   5.962933   8.191373   9.444020
    32  H    6.211453   6.428961   5.986799   6.706358   7.687198
    33  H    4.871449   5.376167   4.899572   5.584681   6.886276
    34  H    3.606062   3.686802   3.357597   5.387105   6.499885
    35  H    4.682950   4.481561   3.635708   7.151897   8.502140
    36  H    5.202933   4.325225   3.393998   8.536516   9.773735
    37  H    4.050033   3.217832   2.517672   7.291125   8.422302
    38  H    2.166408   2.694989   2.934271   4.019947   5.066779
    39  H    1.070000   2.045292   2.456437   4.424393   5.661394
    40  H    2.127305   2.666485   3.576507   4.192373   4.855780
    41  H    4.335897   5.484198   6.352212   3.240540   3.281436
    42  H    2.727609   4.051117   4.756727   2.817465   3.721220
    43  H    3.163999   4.280658   4.871191   2.088332   2.789965
    44  H    4.688706   6.013100   6.392620   1.070000   2.010089
    45  H    4.450478   5.881054   6.390761   1.070000   2.010089
                   11         12         13         14         15
    11  H    0.000000
    12  C    3.485470   0.000000
    13  O    4.471752   1.434702   0.000000
    14  C    5.729850   2.385518   1.435333   0.000000
    15  O    6.711342   3.592953   2.281070   1.434288   0.000000
    16  C    7.277442   4.440390   3.180925   2.383939   1.434528
    17  C    7.034115   4.804751   3.525875   3.323477   2.457948
    18  O    5.698182   3.870343   2.823096   3.089139   2.827386
    19  H    5.058468   3.002279   1.889078   2.446593   2.408418
    20  C    8.096216   6.156076   4.967283   4.709172   3.856241
    21  O    8.331408   6.913735   5.774466   5.802825   4.981181
    22  H    9.083764   7.733567   6.638621   6.582962   5.782906
    23  C    9.436362   6.204918   5.091729   3.825609   2.945621
    24  O    9.423718   6.032869   4.988050   3.713382   2.941836
    25  H   10.180345   6.735357   5.805064   4.474126   3.875308
    26  C    8.783585   5.842547   4.566902   3.594110   2.427521
    27  O    9.544785   6.857302   5.623018   4.746149   3.696819
    28  C    9.418850   7.128627   5.852232   5.294662   4.205035
    29  O   10.390713   8.270805   7.077605   6.501386   5.526697
    30  H   10.996537   8.980103   7.741649   7.240647   6.179336
    31  H    9.802947   7.523896   6.165617   5.686737   4.437463
    32  H    8.008739   6.148134   5.119115   4.797956   4.200230
    33  H    7.232814   5.073009   3.701319   3.666828   2.592204
    34  H    7.125505   4.310190   3.293731   2.376184   2.046218
    35  H    9.060664   6.171663   4.802337   3.990913   2.617282
    36  H   10.478697   7.272645   6.144179   4.894556   3.960471
    37  H    9.176103   5.956439   5.012525   3.663563   3.151911
    38  H    5.854582   2.681247   2.091564   1.070000   2.089694
    39  H    6.481843   3.186110   2.593526   2.119073   2.529368
    40  H    5.840118   2.782916   3.270376   2.735888   4.055118
    41  H    4.129225   3.023588   4.231720   4.850856   6.092327
    42  H    4.556213   2.111354   2.690539   3.284544   4.288042
    43  H    3.662723   1.070000   2.016909   2.541193   3.859536
    44  H    2.287115   2.083575   2.457709   3.797736   4.561721
    45  H    2.464061   2.083575   2.751617   4.096156   4.934600
                   16         17         18         19         20
    16  C    0.000000
    17  C    1.519780   0.000000
    18  O    2.325048   1.435060   0.000000
    19  H    2.462643   2.008613   1.000283   0.000000
    20  C    2.618125   1.519822   2.436319   3.307824   0.000000
    21  O    3.913625   2.534848   3.052041   3.939041   1.434607
    22  H    4.591661   3.349868   3.867723   4.809913   1.975351
    23  C    2.529940   3.834029   4.846849   4.930427   4.381564
    24  O    3.210985   4.583245   5.460381   5.285498   5.436588
    25  H    4.114699   5.520493   6.381949   6.212748   6.289267
    26  C    1.520123   2.452461   3.664468   3.911205   2.945952
    27  O    2.445824   2.789045   4.057472   4.604503   2.470626
    28  C    2.924918   2.449249   3.725076   4.447580   1.520314
    29  O    4.162021   3.675184   4.750604   5.593446   2.372105
    30  H    4.881064   4.249309   5.350784   6.191029   2.915109
    31  H    3.381708   2.820178   4.175507   4.791747   2.146094
    32  H    2.872833   2.086497   2.577833   3.520251   1.070000
    33  H    2.105586   1.070000   2.034510   2.306363   2.103796
    34  H    1.070000   2.121015   2.490043   2.705150   2.930385
    35  H    2.101380   2.678918   3.988588   4.147448   3.237162
    36  H    3.416100   4.542251   5.682901   5.865435   4.813031
    37  H    2.656589   4.047027   4.838708   4.941292   4.563984
    38  H    2.439485   3.430818   3.108613   2.710351   4.607317
    39  H    3.923188   4.898349   4.872704   4.074241   6.358891
    40  H    4.891142   5.945415   5.477504   4.823016   7.199680
    41  H    7.190494   7.745750   6.884576   5.978766   9.146067
    42  H    5.542918   6.126578   5.500458   4.533516   7.610390
    43  H    4.443283   4.869405   3.875133   3.198393   6.078419
    44  H    5.080581   4.791143   3.519606   2.797391   5.945840
    45  H    5.847056   5.809515   4.768448   3.855055   7.149205
                   21         22         23         24         25
    21  O    0.000000
    22  H    1.000285   0.000000
    23  C    5.750822   6.197572   0.000000
    24  O    6.747742   7.319238   1.435143   0.000000
    25  H    7.628346   8.141103   1.993999   0.999265   0.000000
    26  C    4.270332   4.781610   1.519798   2.547097   3.368360
    27  O    3.733647   3.965823   2.429799   3.740867   4.386596
    28  C    2.455277   2.645579   3.738725   4.914472   5.664086
    29  O    2.875316   2.523706   4.691802   6.003663   6.630372
    30  H    3.026477   2.560234   5.379646   6.627160   7.258817
    31  H    2.686221   2.978477   4.059849   5.049717   5.824860
    32  H    2.010543   2.204070   4.571802   5.733277   6.513933
    33  H    2.720986   3.646270   4.163002   4.700006   5.681632
    34  H    4.273290   4.822628   2.746719   3.557543   4.318928
    35  H    4.349691   4.942648   2.101461   2.690722   3.562790
    36  H    6.128196   6.451940   1.070000   2.030603   2.218640
    37  H    5.991708   6.382982   1.070000   2.030603   2.354587
    38  H    5.775655   6.444097   3.810069   3.971849   4.634165
    39  H    7.393470   8.247616   4.537807   3.717410   4.317022
    40  H    8.329483   9.026236   5.545488   5.141479   5.471848
    41  H    9.913867  10.751651   8.442060   7.881891   8.355657
    42  H    8.412941   9.305139   6.782244   6.155759   6.738644
    43  H    6.900560   7.627736   6.162670   6.154637   6.799949
    44  H    6.281801   7.104806   7.339510   7.403763   8.237190
    45  H    7.571346   8.466883   7.813794   7.557164   8.332080
                   26         27         28         29         30
    26  C    0.000000
    27  O    1.435035   0.000000
    28  C    2.408917   1.435843   0.000000
    29  O    3.598783   2.271704   1.435184   0.000000
    30  H    4.252650   2.991517   1.974809   0.960000   0.000000
    31  H    2.720431   2.071413   1.070000   2.069542   2.145459
    32  H    3.325503   2.708929   2.090176   2.474119   3.202639
    33  H    2.757191   3.252628   2.769733   4.104232   4.488172
    34  H    2.121573   2.726025   3.346236   4.331472   5.172187
    35  H    1.070000   2.028156   2.599512   3.907218   4.358309
    36  H    2.104209   2.498582   3.858238   4.594749   5.201661
    37  H    2.104209   2.768547   4.112093   4.912702   5.717635
    38  H    3.657999   4.598520   5.223681   6.269075   7.091689
    39  H    4.669784   6.055469   6.700977   8.027941   8.672397
    40  H    5.884708   6.975620   7.754554   8.808328   9.641766
    41  H    8.426750   9.589786  10.019080  11.199440  11.921481
    42  H    6.688245   7.941793   8.355336   9.635473  10.296374
    43  H    5.859487   6.742796   7.072945   8.090994   8.865540
    44  H    6.573555   7.350303   7.211036   8.266172   8.858000
    45  H    7.241794   8.249580   8.252554   9.445795  10.023403
                   31         32         33         34         35
    31  H    0.000000
    32  H    2.986267   0.000000
    33  H    2.722395   2.955167   0.000000
    34  H    4.044860   2.778841   2.978580   0.000000
    35  H    2.465933   3.890732   2.548970   2.981979   0.000000
    36  H    4.105569   5.012564   4.827188   3.629994   2.500633
    37  H    4.657644   4.508292   4.600672   2.436989   2.962525
    38  H    5.800514   4.458418   4.049193   1.952245   4.305910
    39  H    6.835381   6.657569   4.850443   4.225987   4.703342
    40  H    8.266074   7.040627   6.392960   4.480708   6.418392
    41  H   10.357130   9.142575   7.900232   7.050839   8.686111
    42  H    8.569767   7.783575   6.129847   5.637343   6.803489
    43  H    7.608744   5.886126   5.348239   4.059204   6.360580
    44  H    7.550857   5.978803   4.957271   5.065399   6.803568
    45  H    8.468729   7.312106   5.780771   5.960083   7.337966
                   36         37         38         39         40
    36  H    0.000000
    37  H    1.727998   0.000000
    38  H    4.846399   3.369180   0.000000
    39  H    5.519213   4.644059   3.026201   0.000000
    40  H    6.536798   5.031078   2.600435   2.999270   0.000000
    41  H    9.490463   8.159464   5.173579   4.421626   3.481236
    42  H    7.823599   6.694966   3.952366   2.516974   2.992165
    43  H    7.212235   5.742721   2.380877   3.782668   2.537333
    44  H    8.361160   7.190323   4.046441   4.831226   4.819450
    45  H    8.863548   7.745253   4.620955   4.329356   4.641871
                   41         42         43         44         45
    41  H    0.000000
    42  H    2.095311   0.000000
    43  H    3.437845   2.966083   0.000000
    44  H    4.306018   3.660775   2.475136   0.000000
    45  H    3.142607   2.518032   2.939979   1.716781   0.000000
 Stoichiometry    C12H22O11
 Framework group  C1[X(C12H22O11)]
 Deg. of freedom   129
 Full point group                 C1      NOp   1
 Largest Abelian subgroup         C1      NOp   1
 Largest concise Abelian subgroup C1      NOp   1
                         Standard orientation:                         
 ---------------------------------------------------------------------
 Center     Atomic      Atomic             Coordinates (Angstroms)
 Number     Number       Type             X           Y           Z
 ---------------------------------------------------------------------
      1          8           0        5.000163   -0.302023   -0.541733
      2          6           0        3.742706   -0.066840    0.109176
      3          6           0        3.189513    1.268072   -0.362630
      4          8           0        4.020040    2.377126    0.010601
      5          1           0        4.945845    2.053846   -0.185001
      6          6           0        1.824513    1.497414    0.266641
      7          8           0        1.249960    2.731636   -0.187546
      8          1           0        0.307221    2.904181    0.097333
      9          6           0        3.182765   -2.572249    0.294529
     10          8           0        4.159863   -3.371276   -0.387796
     11          1           0        4.189384   -4.346072   -0.167574
     12          6           0        2.732052   -1.180299   -0.116934
     13          8           0        1.468068   -0.857289    0.480041
     14          6           0        0.895548    0.341260   -0.063910
     15          8           0       -0.300897    0.566844    0.694254
     16          6           0       -1.484526    0.209124   -0.033022
     17          6           0       -2.045510   -1.137950    0.391738
     18          8           0       -1.032797   -2.071514   -0.011086
     19          1           0       -0.155874   -1.818945    0.398525
     20          6           0       -3.412290   -1.560188   -0.121570
     21          8           0       -3.975514   -2.781226    0.378371
     22          1           0       -4.790272   -2.974739   -0.168706
     23          6           0       -2.158430    2.635164   -0.279556
     24          8           0       -1.189792    3.363652    0.489003
     25          1           0       -1.164132    4.306794    0.159830
     26          6           0       -2.573761    1.247652    0.180983
     27          8           0       -3.807409    0.857781   -0.439853
     28          6           0       -4.348931   -0.375965    0.056405
     29          8           0       -5.494273   -0.627277   -0.771114
     30          1           0       -6.241990   -0.866464   -0.218566
     31          1           0       -4.640528   -0.275254    1.080967
     32          1           0       -3.301761   -1.699501   -1.176689
     33          1           0       -2.089250   -1.145961    1.460814
     34          1           0       -1.247568    0.169202   -1.075690
     35          1           0       -2.753314    1.304538    1.234276
     36          1           0       -3.043623    3.234198   -0.329471
     37          1           0       -1.773137    2.540625   -1.273292
     38          1           0        0.702176    0.260588   -1.113195
     39          1           0        1.942823    1.546953    1.328926
     40          1           0        3.086849    1.248920   -1.427521
     41          1           0        5.669176   -0.501644    0.117184
     42          1           0        3.924312    0.003984    1.161271
     43          1           0        2.564888   -1.221068   -1.173009
     44          1           0        2.294245   -3.167243    0.332132
     45          1           0        3.533324   -2.479567    1.301216
 ---------------------------------------------------------------------
 Rotational constants (GHZ):      0.3989477      0.1465500      0.1101768
 Standard basis: 6-31+G(d,p) (6D, 7F)
 There are   547 symmetry adapted basis functions of A   symmetry.
 Integral buffers will be    131072 words long.
 Raffenetti 2 integral format.
 Two-electron integral symmetry is turned on.
   547 basis functions,   890 primitive gaussians,   547 cartesian basis functions
    91 alpha electrons       91 beta electrons
       nuclear repulsion energy      2286.5348457209 Hartrees.
 NAtoms=   45 NActive=   45 NUniq=   45 SFac= 1.00D+00 NAtFMM=   50 NAOKFM=F Big=F
 One-electron integrals computed using PRISM.
 NBasis=   547 RedAO= T  NBF=   547
 NBsUse=   547 1.00D-06 NBFU=   547
 Harris functional with IExCor=  402 diagonalized for initial guess.
 ExpMin= 4.38D-02 ExpMax= 5.48D+03 ExpMxC= 8.25D+02 IAcc=2 IRadAn=         0 AccDes= 0.00D+00
 HarFok:  IExCor=  402 AccDes= 0.00D+00 IRadAn=         0 IDoV= 1
 ScaDFX=  1.000000  1.000000  1.000000  1.000000
 FoFCou: FMM=F IPFlag=           0 FMFlag=      100000 FMFlg1=           0
         NFxFlg=           0 DoJE=T BraDBF=F KetDBF=T FulRan=T
         Omega=  0.000000  0.000000  1.000000  0.000000  0.000000 ICntrl=     500 IOpCl=  0
         NMat0=    1 NMatS0=    1 NMatT0=    0 NMatD0=    1 NMtDS0=    0 NMtDT0=    0
         I1Cent=           4 NGrid=           0.
 Petite list used in FoFCou.
 Initial guess orbital symmetries:
       Occupied  (A) (A) (A) (A) (A) (A) (A) (A) (A) (A) (A) (A)
                 (A) (A) (A) (A) (A) (A) (A) (A) (A) (A) (A) (A)
                 (A) (A) (A) (A) (A) (A) (A) (A) (A) (A) (A) (A)
                 (A) (A) (A) (A) (A) (A) (A) (A) (A) (A) (A) (A)
                 (A) (A) (A) (A) (A) (A) (A) (A) (A) (A) (A) (A)
                 (A) (A) (A) (A) (A) (A) (A) (A) (A) (A) (A) (A)
                 (A) (A) (A) (A) (A) (A) (A) (A) (A) (A) (A) (A)
                 (A) (A) (A) (A) (A) (A) (A)
       Virtual   (A) (A) (A) (A) (A) (A) (A) (A) (A) (A) (A) (A)
                 (A) (A) (A) (A) (A) (A) (A) (A) (A) (A) (A) (A)
                 (A) (A) (A) (A) (A) (A) (A) (A) (A) (A) (A) (A)
                 (A) (A) (A) (A) (A) (A) (A) (A) (A) (A) (A) (A)
                 (A) (A) (A) (A) (A) (A) (A) (A) (A) (A) (A) (A)
                 (A) (A) (A) (A) (A) (A) (A) (A) (A) (A) (A) (A)
                 (A) (A) (A) (A) (A) (A) (A) (A) (A) (A) (A) (A)
                 (A) (A) (A) (A) (A) (A) (A) (A) (A) (A) (A) (A)
                 (A) (A) (A) (A) (A) (A) (A) (A) (A) (A) (A) (A)
                 (A) (A) (A) (A) (A) (A) (A) (A) (A) (A) (A) (A)
                 (A) (A) (A) (A) (A) (A) (A) (A) (A) (A) (A) (A)
                 (A) (A) (A) (A) (A) (A) (A) (A) (A) (A) (A) (A)
                 (A) (A) (A) (A) (A) (A) (A) (A) (A) (A) (A) (A)
                 (A) (A) (A) (A) (A) (A) (A) (A) (A) (A) (A) (A)
                 (A) (A) (A) (A) (A) (A) (A) (A) (A) (A) (A) (A)
                 (A) (A) (A) (A) (A) (A) (A) (A) (A) (A) (A) (A)
                 (A) (A) (A) (A) (A) (A) (A) (A) (A) (A) (A) (A)
                 (A) (A) (A) (A) (A) (A) (A) (A) (A) (A) (A) (A)
                 (A) (A) (A) (A) (A) (A) (A) (A) (A) (A) (A) (A)
                 (A) (A) (A) (A) (A) (A) (A) (A) (A) (A) (A) (A)
                 (A) (A) (A) (A) (A) (A) (A) (A) (A) (A) (A) (A)
                 (A) (A) (A) (A) (A) (A) (A) (A) (A) (A) (A) (A)
                 (A) (A) (A) (A) (A) (A) (A) (A) (A) (A) (A) (A)
                 (A) (A) (A) (A) (A) (A) (A) (A) (A) (A) (A) (A)
                 (A) (A) (A) (A) (A) (A) (A) (A) (A) (A) (A) (A)
                 (A) (A) (A) (A) (A) (A) (A) (A) (A) (A) (A) (A)
                 (A) (A) (A) (A) (A) (A) (A) (A) (A) (A) (A) (A)
                 (A) (A) (A) (A) (A) (A) (A) (A) (A) (A) (A) (A)
                 (A) (A) (A) (A) (A) (A) (A) (A) (A) (A) (A) (A)
                 (A) (A) (A) (A) (A) (A) (A) (A) (A) (A) (A) (A)
                 (A) (A) (A) (A) (A) (A) (A) (A) (A) (A) (A) (A)
                 (A) (A) (A) (A) (A) (A) (A) (A) (A) (A) (A) (A)
                 (A) (A) (A) (A) (A) (A) (A) (A) (A) (A) (A) (A)
                 (A) (A) (A) (A) (A) (A) (A) (A) (A) (A) (A) (A)
                 (A) (A) (A) (A) (A) (A) (A) (A) (A) (A) (A) (A)
                 (A) (A) (A) (A) (A) (A) (A) (A) (A) (A) (A) (A)
                 (A) (A) (A) (A) (A) (A) (A) (A) (A) (A) (A) (A)
                 (A) (A) (A) (A) (A) (A) (A) (A) (A) (A) (A) (A)
 The electronic state of the initial guess is 1-A.
 Requested convergence on RMS density matrix=1.00D-08 within 128 cycles.
 Requested convergence on MAX density matrix=1.00D-06.
 Requested convergence on             energy=1.00D-06.
 No special actions if energy rises.
 SCF Done:  E(RB3LYP) =  -1297.93633604     A.U. after   13 cycles
             Convg  =    0.7873D-08             -V/T =  2.0087
 Range of M.O.s used for correlation:     1   547
 NBasis=   547 NAE=    91 NBE=    91 NFC=     0 NFV=     0
 NROrb=    547 NOA=    91 NOB=    91 NVA=   456 NVB=   456

 **** Warning!!: The largest alpha MO coefficient is  0.70342138D+02

          Differentiating once with respect to electric field.
                with respect to dipole field.
          Electric field/nuclear overlap derivatives assumed to be zero.
          There are     3 degrees of freedom in the 1st order CPHF.  IDoFFX=0.
      3 vectors produced by pass  0 Test12= 1.38D-12 3.33D-08 XBig12= 1.19D+02 1.28D+00.
 AX will form     3 AO Fock derivatives at one time.
      3 vectors produced by pass  1 Test12= 1.38D-12 3.33D-08 XBig12= 2.36D+01 4.65D-01.
      3 vectors produced by pass  2 Test12= 1.38D-12 3.33D-08 XBig12= 1.01D+01 2.08D-01.
      3 vectors produced by pass  3 Test12= 1.38D-12 3.33D-08 XBig12= 8.54D-01 8.24D-02.
      3 vectors produced by pass  4 Test12= 1.38D-12 3.33D-08 XBig12= 2.54D-01 4.69D-02.
      3 vectors produced by pass  5 Test12= 1.38D-12 3.33D-08 XBig12= 4.55D-02 1.77D-02.
      3 vectors produced by pass  6 Test12= 1.38D-12 3.33D-08 XBig12= 1.45D-02 1.28D-02.
      3 vectors produced by pass  7 Test12= 1.38D-12 3.33D-08 XBig12= 2.22D-03 6.89D-03.
      3 vectors produced by pass  8 Test12= 1.38D-12 3.33D-08 XBig12= 3.33D-04 2.24D-03.
      3 vectors produced by pass  9 Test12= 1.38D-12 3.33D-08 XBig12= 8.87D-05 1.18D-03.
      3 vectors produced by pass 10 Test12= 1.38D-12 3.33D-08 XBig12= 2.09D-05 5.64D-04.
      3 vectors produced by pass 11 Test12= 1.38D-12 3.33D-08 XBig12= 5.95D-06 2.82D-04.
      3 vectors produced by pass 12 Test12= 1.38D-12 3.33D-08 XBig12= 6.58D-07 9.43D-05.
      3 vectors produced by pass 13 Test12= 1.38D-12 3.33D-08 XBig12= 1.57D-07 3.60D-05.
      3 vectors produced by pass 14 Test12= 1.38D-12 3.33D-08 XBig12= 3.69D-08 2.11D-05.
      3 vectors produced by pass 15 Test12= 1.38D-12 3.33D-08 XBig12= 1.09D-08 9.80D-06.
      3 vectors produced by pass 16 Test12= 1.38D-12 3.33D-08 XBig12= 1.01D-09 5.02D-06.
      3 vectors produced by pass 17 Test12= 1.38D-12 3.33D-08 XBig12= 9.11D-11 8.85D-07.
      3 vectors produced by pass 18 Test12= 1.38D-12 3.33D-08 XBig12= 2.99D-11 3.34D-07.
      3 vectors produced by pass 19 Test12= 1.38D-12 3.33D-08 XBig12= 9.94D-12 2.73D-07.
      2 vectors produced by pass 20 Test12= 1.38D-12 3.33D-08 XBig12= 1.63D-11 5.17D-07.
      2 vectors produced by pass 21 Test12= 1.38D-12 3.33D-08 XBig12= 2.16D-12 8.96D-08.
      1 vectors produced by pass 22 Test12= 1.38D-12 3.33D-08 XBig12= 7.60D-13 8.08D-08.
 Inverted reduced A of dimension    65 with in-core refinement.
 End of Minotr Frequency-dependent properties file   721 does not exist.
 End of Minotr Frequency-dependent properties file   722 does not exist.
 Symmetrizing basis deriv contribution to polar:
 IMax=3 JMax=2 DiffMx= 0.00D+00
 G2DrvN: will do    23 centers at a time, making    2 passes doing MaxLOS=2.
 Calling FoFCou, ICntrl=  3107 FMM=F I1Cent=   0 AccDes= 0.00D+00.
 Calling FoFCou, ICntrl=  3107 FMM=F I1Cent=   0 AccDes= 0.00D+00.
 FoFDir/FoFCou used for L=0 through L=2.
 End of G2Drv Frequency-dependent properties file   721 does not exist.
 End of G2Drv Frequency-dependent properties file   722 does not exist.
          IDoAtm=111111111111111111111111111111111111111111111
          Differentiating once with respect to electric field.
                with respect to dipole field.
          Differentiating once with respect to nuclear coordinates.
          There are   138 degrees of freedom in the 1st order CPHF.  IDoFFX=5.
 Will reuse    3 saved solutions.
    135 vectors produced by pass  0 Test12= 4.15D-14 1.00D-09 XBig12= 2.25D-01 8.33D-02.
 AX will form    68 AO Fock derivatives at one time.
    135 vectors produced by pass  1 Test12= 4.15D-14 1.00D-09 XBig12= 4.24D-02 1.68D-02.
    132 vectors produced by pass  2 Test12= 4.15D-14 1.00D-09 XBig12= 2.41D-04 1.67D-03.
    132 vectors produced by pass  3 Test12= 4.15D-14 1.00D-09 XBig12= 6.73D-07 7.56D-05.
    132 vectors produced by pass  4 Test12= 4.15D-14 1.00D-09 XBig12= 1.21D-09 2.24D-06.
    131 vectors produced by pass  5 Test12= 4.15D-14 1.00D-09 XBig12= 4.15D-12 1.46D-07.
     78 vectors produced by pass  6 Test12= 4.15D-14 1.00D-09 XBig12= 1.51D-13 2.48D-08.
 Inverted reduced A of dimension   875 with in-core refinement.
 Isotropic polarizability for W=    0.000000      187.83 Bohr**3.
 End of Minotr Frequency-dependent properties file   721 does not exist.
 End of Minotr Frequency-dependent properties file   722 does not exist.

 **********************************************************************

            Population analysis using the SCF density.

 **********************************************************************

 Orbital symmetries:
       Occupied  (A) (A) (A) (A) (A) (A) (A) (A) (A) (A) (A) (A)
                 (A) (A) (A) (A) (A) (A) (A) (A) (A) (A) (A) (A)
                 (A) (A) (A) (A) (A) (A) (A) (A) (A) (A) (A) (A)
                 (A) (A) (A) (A) (A) (A) (A) (A) (A) (A) (A) (A)
                 (A) (A) (A) (A) (A) (A) (A) (A) (A) (A) (A) (A)
                 (A) (A) (A) (A) (A) (A) (A) (A) (A) (A) (A) (A)
                 (A) (A) (A) (A) (A) (A) (A) (A) (A) (A) (A) (A)
                 (A) (A) (A) (A) (A) (A) (A)
       Virtual   (A) (A) (A) (A) (A) (A) (A) (A) (A) (A) (A) (A)
                 (A) (A) (A) (A) (A) (A) (A) (A) (A) (A) (A) (A)
                 (A) (A) (A) (A) (A) (A) (A) (A) (A) (A) (A) (A)
                 (A) (A) (A) (A) (A) (A) (A) (A) (A) (A) (A) (A)
                 (A) (A) (A) (A) (A) (A) (A) (A) (A) (A) (A) (A)
                 (A) (A) (A) (A) (A) (A) (A) (A) (A) (A) (A) (A)
                 (A) (A) (A) (A) (A) (A) (A) (A) (A) (A) (A) (A)
                 (A) (A) (A) (A) (A) (A) (A) (A) (A) (A) (A) (A)
                 (A) (A) (A) (A) (A) (A) (A) (A) (A) (A) (A) (A)
                 (A) (A) (A) (A) (A) (A) (A) (A) (A) (A) (A) (A)
                 (A) (A) (A) (A) (A) (A) (A) (A) (A) (A) (A) (A)
                 (A) (A) (A) (A) (A) (A) (A) (A) (A) (A) (A) (A)
                 (A) (A) (A) (A) (A) (A) (A) (A) (A) (A) (A) (A)
                 (A) (A) (A) (A) (A) (A) (A) (A) (A) (A) (A) (A)
                 (A) (A) (A) (A) (A) (A) (A) (A) (A) (A) (A) (A)
                 (A) (A) (A) (A) (A) (A) (A) (A) (A) (A) (A) (A)
                 (A) (A) (A) (A) (A) (A) (A) (A) (A) (A) (A) (A)
                 (A) (A) (A) (A) (A) (A) (A) (A) (A) (A) (A) (A)
                 (A) (A) (A) (A) (A) (A) (A) (A) (A) (A) (A) (A)
                 (A) (A) (A) (A) (A) (A) (A) (A) (A) (A) (A) (A)
                 (A) (A) (A) (A) (A) (A) (A) (A) (A) (A) (A) (A)
                 (A) (A) (A) (A) (A) (A) (A) (A) (A) (A) (A) (A)
                 (A) (A) (A) (A) (A) (A) (A) (A) (A) (A) (A) (A)
                 (A) (A) (A) (A) (A) (A) (A) (A) (A) (A) (A) (A)
                 (A) (A) (A) (A) (A) (A) (A) (A) (A) (A) (A) (A)
                 (A) (A) (A) (A) (A) (A) (A) (A) (A) (A) (A) (A)
                 (A) (A) (A) (A) (A) (A) (A) (A) (A) (A) (A) (A)
                 (A) (A) (A) (A) (A) (A) (A) (A) (A) (A) (A) (A)
                 (A) (A) (A) (A) (A) (A) (A) (A) (A) (A) (A) (A)
                 (A) (A) (A) (A) (A) (A) (A) (A) (A) (A) (A) (A)
                 (A) (A) (A) (A) (A) (A) (A) (A) (A) (A) (A) (A)
                 (A) (A) (A) (A) (A) (A) (A) (A) (A) (A) (A) (A)
                 (A) (A) (A) (A) (A) (A) (A) (A) (A) (A) (A) (A)
                 (A) (A) (A) (A) (A) (A) (A) (A) (A) (A) (A) (A)
                 (A) (A) (A) (A) (A) (A) (A) (A) (A) (A) (A) (A)
                 (A) (A) (A) (A) (A) (A) (A) (A) (A) (A) (A) (A)
                 (A) (A) (A) (A) (A) (A) (A) (A) (A) (A) (A) (A)
                 (A) (A) (A) (A) (A) (A) (A) (A) (A) (A) (A) (A)
 The electronic state is 1-A.
 Alpha  occ. eigenvalues --  -19.20363 -19.19860 -19.19793 -19.19300 -19.18931
 Alpha  occ. eigenvalues --  -19.18186 -19.17852 -19.16949 -19.15945 -19.14589
 Alpha  occ. eigenvalues --  -19.12994 -10.31382 -10.31082 -10.26614 -10.26562
 Alpha  occ. eigenvalues --  -10.25977 -10.25967 -10.25692 -10.25460 -10.25086
 Alpha  occ. eigenvalues --  -10.24898 -10.24314 -10.24035  -1.10609  -1.09335
 Alpha  occ. eigenvalues --   -1.06407  -1.05701  -1.04708  -1.04044  -1.03015
 Alpha  occ. eigenvalues --   -1.02389  -1.01989  -1.00973  -0.99055  -0.82372
 Alpha  occ. eigenvalues --   -0.80592  -0.79748  -0.78586  -0.72462  -0.70403
 Alpha  occ. eigenvalues --   -0.67413  -0.65298  -0.63674  -0.63043  -0.61699
 Alpha  occ. eigenvalues --   -0.60356  -0.56937  -0.56073  -0.55297  -0.54977
 Alpha  occ. eigenvalues --   -0.54386  -0.54113  -0.53119  -0.52466  -0.51297
 Alpha  occ. eigenvalues --   -0.50901  -0.50753  -0.50227  -0.48355  -0.46820
 Alpha  occ. eigenvalues --   -0.46594  -0.45385  -0.44705  -0.44038  -0.43763
 Alpha  occ. eigenvalues --   -0.43051  -0.42141  -0.40830  -0.40372  -0.39626
 Alpha  occ. eigenvalues --   -0.39190  -0.38308  -0.37529  -0.36654  -0.35827
 Alpha  occ. eigenvalues --   -0.35465  -0.34765  -0.34562  -0.33798  -0.33314
 Alpha  occ. eigenvalues --   -0.32753  -0.31788  -0.31298  -0.30743  -0.29954
 Alpha  occ. eigenvalues --   -0.29560  -0.28617  -0.28480  -0.27393  -0.26621
 Alpha  occ. eigenvalues --   -0.26303
 Alpha virt. eigenvalues --   -0.02183  -0.02038  -0.01871  -0.00421   0.00191
 Alpha virt. eigenvalues --    0.00782   0.01799   0.02349   0.02764   0.03535
 Alpha virt. eigenvalues --    0.03741   0.04477   0.05028   0.05167   0.05477
 Alpha virt. eigenvalues --    0.06247   0.06340   0.07463   0.07630   0.07971
 Alpha virt. eigenvalues --    0.08456   0.08564   0.09262   0.09592   0.09928
 Alpha virt. eigenvalues --    0.10313   0.10705   0.11182   0.11878   0.12228
 Alpha virt. eigenvalues --    0.12567   0.12906   0.13205   0.13339   0.13460
 Alpha virt. eigenvalues --    0.13797   0.13977   0.14720   0.14903   0.15133
 Alpha virt. eigenvalues --    0.15858   0.16414   0.16858   0.16946   0.17188
 Alpha virt. eigenvalues --    0.17285   0.17636   0.17893   0.18041   0.18707
 Alpha virt. eigenvalues --    0.18992   0.19121   0.19609   0.19681   0.19977
 Alpha virt. eigenvalues --    0.20934   0.21220   0.21257   0.21442   0.21638
 Alpha virt. eigenvalues --    0.22040   0.22363   0.22750   0.22992   0.23141
 Alpha virt. eigenvalues --    0.23713   0.23836   0.24200   0.24370   0.24594
 Alpha virt. eigenvalues --    0.24918   0.25160   0.25304   0.25664   0.26031
 Alpha virt. eigenvalues --    0.26082   0.26491   0.26673   0.27139   0.27615
 Alpha virt. eigenvalues --    0.27705   0.28116   0.28343   0.28763   0.29042
 Alpha virt. eigenvalues --    0.29078   0.29370   0.29947   0.30244   0.30893
 Alpha virt. eigenvalues --    0.31185   0.31233   0.31597   0.32022   0.32424
 Alpha virt. eigenvalues --    0.32571   0.32977   0.33364   0.33568   0.33883
 Alpha virt. eigenvalues --    0.34396   0.34750   0.35230   0.35488   0.35789
 Alpha virt. eigenvalues --    0.36117   0.36389   0.36775   0.37098   0.37380
 Alpha virt. eigenvalues --    0.37800   0.38489   0.39051   0.39407   0.39840
 Alpha virt. eigenvalues --    0.40404   0.40831   0.41035   0.41160   0.41365
 Alpha virt. eigenvalues --    0.41821   0.42367   0.42634   0.42787   0.43158
 Alpha virt. eigenvalues --    0.43762   0.44886   0.45533   0.46167   0.47170
 Alpha virt. eigenvalues --    0.47388   0.48094   0.48899   0.49429   0.49758
 Alpha virt. eigenvalues --    0.51107   0.52713   0.54333   0.62999   0.64351
 Alpha virt. eigenvalues --    0.64785   0.66808   0.67834   0.68304   0.69487
 Alpha virt. eigenvalues --    0.71789   0.72285   0.72722   0.73597   0.73963
 Alpha virt. eigenvalues --    0.74997   0.76000   0.76615   0.78019   0.78988
 Alpha virt. eigenvalues --    0.79277   0.80870   0.81671   0.82986   0.83393
 Alpha virt. eigenvalues --    0.84024   0.86541   0.87577   0.89450   0.89953
 Alpha virt. eigenvalues --    0.90549   0.91145   0.92755   0.93490   0.94446
 Alpha virt. eigenvalues --    0.95207   0.95510   0.98669   0.99069   1.00797
 Alpha virt. eigenvalues --    1.01363   1.02410   1.02799   1.03656   1.04092
 Alpha virt. eigenvalues --    1.05118   1.05282   1.05860   1.07137   1.07909
 Alpha virt. eigenvalues --    1.08143   1.08680   1.08879   1.09530   1.10151
 Alpha virt. eigenvalues --    1.11364   1.11798   1.12816   1.13228   1.13753
 Alpha virt. eigenvalues --    1.15670   1.18397   1.19013   1.20251   1.21279
 Alpha virt. eigenvalues --    1.21995   1.22771   1.23286   1.23614   1.25347
 Alpha virt. eigenvalues --    1.25956   1.27097   1.27244   1.27744   1.28536
 Alpha virt. eigenvalues --    1.29116   1.29563   1.30052   1.30523   1.31122
 Alpha virt. eigenvalues --    1.31521   1.32580   1.33907   1.34571   1.34784
 Alpha virt. eigenvalues --    1.35032   1.36171   1.36818   1.37434   1.38061
 Alpha virt. eigenvalues --    1.38579   1.40096   1.41587   1.43141   1.43827
 Alpha virt. eigenvalues --    1.44734   1.45135   1.45832   1.45993   1.47291
 Alpha virt. eigenvalues --    1.48327   1.49419   1.50634   1.51298   1.52997
 Alpha virt. eigenvalues --    1.53308   1.55840   1.56474   1.57574   1.57595
 Alpha virt. eigenvalues --    1.58288   1.59089   1.59414   1.60580   1.60895
 Alpha virt. eigenvalues --    1.62982   1.64144   1.64701   1.65206   1.65454
 Alpha virt. eigenvalues --    1.66773   1.66981   1.67654   1.68323   1.69407
 Alpha virt. eigenvalues --    1.69962   1.71675   1.72047   1.73209   1.73820
 Alpha virt. eigenvalues --    1.74184   1.75345   1.75865   1.76503   1.77479
 Alpha virt. eigenvalues --    1.78245   1.78438   1.79203   1.80451   1.81433
 Alpha virt. eigenvalues --    1.82317   1.84078   1.84422   1.84920   1.87045
 Alpha virt. eigenvalues --    1.88154   1.89034   1.90062   1.90950   1.91780
 Alpha virt. eigenvalues --    1.92310   1.92925   1.93882   1.94447   1.94862
 Alpha virt. eigenvalues --    1.95099   1.96061   1.97072   1.97366   1.98497
 Alpha virt. eigenvalues --    1.99052   1.99714   2.00400   2.00951   2.01228
 Alpha virt. eigenvalues --    2.02207   2.03246   2.04220   2.04741   2.05692
 Alpha virt. eigenvalues --    2.07866   2.08164   2.08942   2.11007   2.11740
 Alpha virt. eigenvalues --    2.12328   2.12774   2.14495   2.15501   2.15598
 Alpha virt. eigenvalues --    2.16640   2.18216   2.18925   2.19722   2.20524
 Alpha virt. eigenvalues --    2.21362   2.21964   2.23400   2.24730   2.28110
 Alpha virt. eigenvalues --    2.28619   2.30422   2.32025   2.33524   2.33846
 Alpha virt. eigenvalues --    2.35339   2.36535   2.37521   2.38361   2.38941
 Alpha virt. eigenvalues --    2.39984   2.41931   2.42797   2.44110   2.44910
 Alpha virt. eigenvalues --    2.45590   2.45696   2.46579   2.47392   2.48365
 Alpha virt. eigenvalues --    2.50202   2.51312   2.52921   2.54281   2.56063
 Alpha virt. eigenvalues --    2.57329   2.57848   2.58793   2.59498   2.60072
 Alpha virt. eigenvalues --    2.61398   2.62354   2.62921   2.63091   2.64786
 Alpha virt. eigenvalues --    2.65839   2.67219   2.67377   2.67912   2.69468
 Alpha virt. eigenvalues --    2.70156   2.72262   2.72939   2.74129   2.75730
 Alpha virt. eigenvalues --    2.76372   2.77025   2.78025   2.79185   2.79717
 Alpha virt. eigenvalues --    2.82317   2.82956   2.83798   2.84524   2.85105
 Alpha virt. eigenvalues --    2.86064   2.87815   2.88747   2.89634   2.90238
 Alpha virt. eigenvalues --    2.90980   2.91220   2.92436   2.93506   2.93776
 Alpha virt. eigenvalues --    2.96160   2.96282   2.98527   2.99291   2.99888
 Alpha virt. eigenvalues --    3.01907   3.03057   3.03990   3.05257   3.06176
 Alpha virt. eigenvalues --    3.06673   3.08118   3.08524   3.09889   3.12742
 Alpha virt. eigenvalues --    3.17203   3.19283   3.23523   3.26124   3.29965
 Alpha virt. eigenvalues --    3.32506   3.36385   3.37823   3.38582   3.41199
 Alpha virt. eigenvalues --    3.42534   3.43904   3.45763   3.46280   3.47552
 Alpha virt. eigenvalues --    3.49080   3.50514   3.52419   3.53570   3.54331
 Alpha virt. eigenvalues --    3.55693   3.56759   3.59764   3.61953   3.65646
 Alpha virt. eigenvalues --    3.65919   3.68023   3.75268   4.30961   4.31601
 Alpha virt. eigenvalues --    4.33845   4.36221   4.40187   4.41411   4.44745
 Alpha virt. eigenvalues --    4.46166   4.48905   4.51179   4.53947   4.55324
 Alpha virt. eigenvalues --    4.58292   4.60638   4.63431   4.67316   4.71597
 Alpha virt. eigenvalues --    4.76397   4.80146   4.83584   4.86186   4.89325
 Alpha virt. eigenvalues --    4.93600
          Condensed to atoms (all electrons):
              1          2          3          4          5          6
     1  O    8.257973   0.296567  -0.128268  -0.019856   0.029087   0.042256
     2  C    0.296567  10.283825  -2.093710   0.074628  -0.087149  -3.473098
     3  C   -0.128268  -2.093710   8.755029   0.150845   0.062038   1.322098
     4  O   -0.019856   0.074628   0.150845   8.235938   0.181313  -0.131017
     5  H    0.029087  -0.087149   0.062038   0.181313   0.442465   0.008087
     6  C    0.042256  -3.473098   1.322098  -0.131017   0.008087  12.587460
     7  O   -0.001591   0.045117  -0.169668   0.012342  -0.000865   0.332563
     8  H    0.000017  -0.007230   0.029318  -0.000819   0.000009   0.021257
     9  C    0.012095   0.115024  -0.222396   0.013084  -0.007622   0.135432
    10  O    0.001201  -0.005305   0.001272   0.000026  -0.000045  -0.002971
    11  H   -0.000075  -0.000033   0.000654   0.000000   0.000000  -0.000296
    12  C   -0.198357  -2.174019   0.400469  -0.019434   0.016808   1.103565
    13  O    0.006138   0.033443  -0.056756   0.001218  -0.000295  -0.108029
    14  C    0.032198   2.149232  -1.511765   0.017725   0.013232  -4.080534
    15  O    0.000385  -0.034760   0.021070  -0.000972   0.000057   0.131273
    16  C    0.005411   0.225167  -0.339411  -0.002011   0.001466  -0.915636
    17  C    0.000263   0.041225  -0.070463   0.001322   0.000073  -0.088870
    18  O    0.000034   0.002593  -0.001196  -0.000005   0.000000   0.001185
    19  H   -0.000017   0.001862   0.004716  -0.000006   0.000000   0.015341
    20  C    0.000081   0.009229  -0.015016   0.000026   0.000003   0.025354
    21  O    0.000000  -0.000012  -0.000048   0.000000   0.000000  -0.000210
    22  H    0.000000   0.000000   0.000001   0.000000   0.000000  -0.000043
    23  C    0.000128   0.034512  -0.021646   0.000745  -0.000033  -0.427661
    24  O    0.000000   0.007253  -0.006977  -0.000081  -0.000003  -0.015793
    25  H    0.000000  -0.000143   0.001053  -0.000006   0.000000  -0.006071
    26  C   -0.000181  -0.001640  -0.038085   0.000072   0.000049  -0.043502
    27  O    0.000000  -0.000088   0.000684   0.000001   0.000000   0.005315
    28  C    0.000002  -0.001224   0.000089   0.000003   0.000000   0.015760
    29  O    0.000000   0.000001   0.000045   0.000000   0.000000  -0.000410
    30  H    0.000000   0.000000   0.000000   0.000000   0.000000  -0.000002
    31  H    0.000000  -0.000001   0.000005   0.000000   0.000000   0.000223
    32  H    0.000000   0.000020   0.000074   0.000000   0.000000   0.000687
    33  H    0.000000  -0.000794   0.001003   0.000000   0.000000   0.005699
    34  H   -0.000003  -0.001984   0.004330   0.000007   0.000000   0.019265
    35  H    0.000000  -0.000001   0.000597   0.000000   0.000000   0.001318
    36  H    0.000000  -0.000002   0.000106   0.000000   0.000000   0.000793
    37  H    0.000000  -0.000025   0.000924   0.000005   0.000000  -0.000201
    38  H    0.000074   0.028819  -0.047025   0.000042   0.000001  -0.131989
    39  H   -0.000780   0.108842  -0.220498   0.009627  -0.000136   0.217944
    40  H   -0.005880   0.200991   0.205867  -0.035546  -0.004133  -0.355862
    41  H    0.230529   0.064388  -0.017089   0.001501  -0.003259   0.004773
    42  H   -0.048076   0.491351  -0.113888   0.002113  -0.001416  -0.051337
    43  H    0.007337   0.021181  -0.072839   0.000334  -0.000009  -0.038692
    44  H    0.000662  -0.027034  -0.010570   0.000032   0.000000  -0.000296
    45  H    0.001039  -0.024488   0.004130  -0.000045   0.000001   0.012115
              7          8          9         10         11         12
     1  O   -0.001591   0.000017   0.012095   0.001201  -0.000075  -0.198357
     2  C    0.045117  -0.007230   0.115024  -0.005305  -0.000033  -2.174019
     3  C   -0.169668   0.029318  -0.222396   0.001272   0.000654   0.400469
     4  O    0.012342  -0.000819   0.013084   0.000026   0.000000  -0.019434
     5  H   -0.000865   0.000009  -0.007622  -0.000045   0.000000   0.016808
     6  C    0.332563   0.021257   0.135432  -0.002971  -0.000296   1.103565
     7  O    8.284972   0.204680   0.008615   0.000030   0.000000   0.050009
     8  H    0.204680   0.333812  -0.000014   0.000000   0.000000  -0.001509
     9  C    0.008615  -0.000014   8.137913   0.066842  -0.016871  -2.222433
    10  O    0.000030   0.000000   0.066842   8.319154   0.213703   0.089782
    11  H    0.000000   0.000000  -0.016871   0.213703   0.418891   0.029000
    12  C    0.050009  -0.001509  -2.222433   0.089782   0.029000  11.567160
    13  O    0.012102   0.000538  -0.000278  -0.001627  -0.000609  -0.153285
    14  C   -0.159753  -0.060102  -0.855969   0.012023  -0.003720  -1.713765
    15  O    0.003609   0.023716  -0.014370   0.000024   0.000002   0.034659
    16  C    0.013591   0.014027  -0.271598  -0.005606  -0.000225  -0.489407
    17  C    0.005388  -0.001739  -0.018663   0.000360   0.000035  -0.205169
    18  O   -0.000041  -0.000026   0.011542  -0.000130  -0.000001  -0.006938
    19  H   -0.000177  -0.000007  -0.012901  -0.000017  -0.000002   0.003120
    20  C    0.004406   0.001360  -0.007038  -0.000029   0.000004  -0.038688
    21  O   -0.000005   0.000000   0.000358   0.000000   0.000000  -0.000169
    22  H    0.000000   0.000000   0.000001   0.000000   0.000000   0.000039
    23  C    0.008562   0.019414  -0.001748  -0.000048  -0.000001  -0.039735
    24  O   -0.026634  -0.018272   0.000265   0.000000   0.000000  -0.002156
    25  H    0.002048  -0.003930  -0.000014   0.000000   0.000000  -0.000460
    26  C   -0.011882  -0.032065  -0.004614  -0.000164  -0.000001   0.085895
    27  O   -0.000043   0.000059  -0.000052   0.000000   0.000000  -0.000163
    28  C   -0.000248  -0.000317  -0.001325   0.000007   0.000000   0.000747
    29  O   -0.000006   0.000000  -0.000002   0.000000   0.000000   0.000171
    30  H    0.000000   0.000000   0.000000   0.000000   0.000000  -0.000001
    31  H    0.000000   0.000000   0.000004   0.000000   0.000000   0.000030
    32  H    0.000000   0.000000  -0.000100   0.000000   0.000000   0.000294
    33  H   -0.000007   0.000008   0.000335   0.000000   0.000000   0.002067
    34  H   -0.000974   0.000227  -0.000606   0.000002   0.000000   0.004399
    35  H   -0.000058   0.000088   0.000077   0.000000   0.000000   0.001012
    36  H   -0.000822   0.000522  -0.000006   0.000000   0.000000  -0.000137
    37  H    0.001938   0.001417   0.000013   0.000000   0.000000   0.001160
    38  H    0.005502  -0.000560   0.013101   0.000063   0.000000   0.002165
    39  H   -0.041147  -0.004367   0.021838   0.000020   0.000000   0.013363
    40  H    0.012950  -0.000059   0.027236   0.000074   0.000000  -0.050182
    41  H   -0.000004   0.000000  -0.003528   0.000783   0.000012  -0.033511
    42  H    0.000460   0.000004   0.014600  -0.000430  -0.000002  -0.171648
    43  H    0.000144   0.000003   0.064424   0.001746  -0.000081   0.129433
    44  H   -0.000013   0.000000   0.477141  -0.049959  -0.009050  -0.078202
    45  H   -0.000001   0.000000   0.616443  -0.077460  -0.001549  -0.249644
             13         14         15         16         17         18
     1  O    0.006138   0.032198   0.000385   0.005411   0.000263   0.000034
     2  C    0.033443   2.149232  -0.034760   0.225167   0.041225   0.002593
     3  C   -0.056756  -1.511765   0.021070  -0.339411  -0.070463  -0.001196
     4  O    0.001218   0.017725  -0.000972  -0.002011   0.001322  -0.000005
     5  H   -0.000295   0.013232   0.000057   0.001466   0.000073   0.000000
     6  C   -0.108029  -4.080534   0.131273  -0.915636  -0.088870   0.001185
     7  O    0.012102  -0.159753   0.003609   0.013591   0.005388  -0.000041
     8  H    0.000538  -0.060102   0.023716   0.014027  -0.001739  -0.000026
     9  C   -0.000278  -0.855969  -0.014370  -0.271598  -0.018663   0.011542
    10  O   -0.001627   0.012023   0.000024  -0.005606   0.000360  -0.000130
    11  H   -0.000609  -0.003720   0.000002  -0.000225   0.000035  -0.000001
    12  C   -0.153285  -1.713765   0.034659  -0.489407  -0.205169  -0.006938
    13  O    8.440844   0.301964  -0.010031   0.006614  -0.022428   0.017270
    14  C    0.301964  13.588591   0.075922  -1.435920  -0.085883  -0.051873
    15  O   -0.010031   0.075922   8.286852   0.068165  -0.081034  -0.008949
    16  C    0.006614  -1.435920   0.068165  14.958287  -2.952111  -0.168419
    17  C   -0.022428  -0.085883  -0.081034  -2.952111   9.747068   0.326035
    18  O    0.017270  -0.051873  -0.008949  -0.168419   0.326035   8.234469
    19  H    0.014300  -0.023107   0.023671  -0.075573   0.066203   0.189679
    20  C   -0.005822  -0.651343   0.019888  -0.958638  -0.841355  -0.066778
    21  O   -0.000038  -0.001332   0.000468   0.020463  -0.163275   0.008523
    22  H   -0.000001   0.000311   0.000030  -0.012223   0.044937  -0.000685
    23  C    0.021717  -0.159687  -0.007384   0.276550  -0.381638   0.002150
    24  O   -0.003199   0.112753  -0.030538  -0.000647   0.005244   0.000161
    25  H    0.000025  -0.010234   0.001253  -0.003701  -0.000645   0.000002
    26  C   -0.022949  -0.874507  -0.052899  -3.361250   0.157577   0.101598
    27  O    0.000062   0.017713   0.009359  -0.072939   0.008029   0.000129
    28  C   -0.000919   0.090823   0.014818   0.687430   0.257075  -0.010245
    29  O    0.000017   0.001217   0.000221   0.013539  -0.004892  -0.000381
    30  H    0.000000   0.000048   0.000001  -0.009816   0.014589  -0.000052
    31  H    0.000001   0.007863   0.000033   0.125641  -0.038636  -0.000812
    32  H    0.000202   0.008638  -0.000955   0.128084  -0.185569   0.001052
    33  H    0.002546   0.078482  -0.011332   0.048145   0.324031  -0.046941
    34  H    0.001274   0.030384  -0.070715   0.320921   0.034355  -0.008311
    35  H   -0.000146   0.076082   0.004560   0.007646  -0.017021  -0.000823
    36  H    0.000002  -0.001453   0.000107   0.025041  -0.001198   0.000048
    37  H    0.000263   0.020868   0.004103  -0.057500  -0.002459  -0.000148
    38  H   -0.059517   0.339899  -0.059630   0.044318   0.053977  -0.001529
    39  H    0.017770   0.086705  -0.015013   0.024981   0.011134   0.000140
    40  H    0.007764   0.203925  -0.001375   0.010468   0.002836   0.000072
    41  H   -0.000473   0.000400   0.000003   0.000401  -0.000070   0.000000
    42  H    0.010783   0.098801  -0.000561   0.000148   0.001377   0.000044
    43  H   -0.043364   0.136750   0.000431   0.014661   0.008116   0.000253
    44  H    0.001624   0.002545  -0.000043   0.008441   0.000411  -0.000038
    45  H    0.003832  -0.003604  -0.000203  -0.004190   0.000786   0.000001
             19         20         21         22         23         24
     1  O   -0.000017   0.000081   0.000000   0.000000   0.000128   0.000000
     2  C    0.001862   0.009229  -0.000012   0.000000   0.034512   0.007253
     3  C    0.004716  -0.015016  -0.000048   0.000001  -0.021646  -0.006977
     4  O   -0.000006   0.000026   0.000000   0.000000   0.000745  -0.000081
     5  H    0.000000   0.000003   0.000000   0.000000  -0.000033  -0.000003
     6  C    0.015341   0.025354  -0.000210  -0.000043  -0.427661  -0.015793
     7  O   -0.000177   0.004406  -0.000005   0.000000   0.008562  -0.026634
     8  H   -0.000007   0.001360   0.000000   0.000000   0.019414  -0.018272
     9  C   -0.012901  -0.007038   0.000358   0.000001  -0.001748   0.000265
    10  O   -0.000017  -0.000029   0.000000   0.000000  -0.000048   0.000000
    11  H   -0.000002   0.000004   0.000000   0.000000  -0.000001   0.000000
    12  C    0.003120  -0.038688  -0.000169   0.000039  -0.039735  -0.002156
    13  O    0.014300  -0.005822  -0.000038  -0.000001   0.021717  -0.003199
    14  C   -0.023107  -0.651343  -0.001332   0.000311  -0.159687   0.112753
    15  O    0.023671   0.019888   0.000468   0.000030  -0.007384  -0.030538
    16  C   -0.075573  -0.958638   0.020463  -0.012223   0.276550  -0.000647
    17  C    0.066203  -0.841355  -0.163275   0.044937  -0.381638   0.005244
    18  O    0.189679  -0.066778   0.008523  -0.000685   0.002150   0.000161
    19  H    0.379137   0.018229  -0.000535   0.000014  -0.006124   0.000031
    20  C    0.018229   8.697952   0.270210  -0.025349   0.201469  -0.009346
    21  O   -0.000535   0.270210   8.223807   0.215109   0.002738   0.000013
    22  H    0.000014  -0.025349   0.215109   0.422111  -0.000431   0.000000
    23  C   -0.006124   0.201469   0.002738  -0.000431   6.883930  -0.241232
    24  O    0.000031  -0.009346   0.000013   0.000000  -0.241232   8.560870
    25  H    0.000000   0.000850   0.000000   0.000000   0.054380   0.203838
    26  C    0.009638   0.693432   0.029481  -0.001516  -0.914919   0.197847
    27  O    0.000199  -0.179586   0.007985   0.000020  -0.100605   0.001958
    28  C    0.000022  -1.090979  -0.068600  -0.005463  -0.252214   0.013547
    29  O    0.000047  -0.178086   0.008264   0.019721  -0.009429   0.000090
    30  H    0.000000  -0.029721  -0.001622  -0.001896   0.000903   0.000000
    31  H    0.000010  -0.113504   0.003827  -0.000128   0.002143   0.000002
    32  H   -0.000012   0.408303  -0.046059  -0.008958   0.014004  -0.000005
    33  H   -0.007906  -0.100692  -0.001190  -0.000152   0.018563  -0.000016
    34  H   -0.001015   0.001704  -0.000517   0.000006   0.003751  -0.000760
    35  H    0.000027  -0.037418   0.000195   0.000004   0.017199   0.002550
    36  H    0.000000   0.001023  -0.000007   0.000000   0.449743  -0.040304
    37  H    0.000002  -0.003259   0.000004   0.000000   0.497729  -0.090312
    38  H    0.000085   0.013298   0.000006   0.000000   0.010332   0.000514
    39  H   -0.000034   0.000799   0.000000   0.000000   0.006203   0.001327
    40  H   -0.000005   0.000108   0.000000   0.000000   0.001347   0.000148
    41  H    0.000000   0.000001   0.000000   0.000000   0.000008   0.000000
    42  H   -0.000009   0.000049   0.000000   0.000000   0.000129   0.000007
    43  H    0.000173   0.000802   0.000000   0.000000   0.000417   0.000004
    44  H    0.001056  -0.000428   0.000001   0.000000   0.000066   0.000000
    45  H    0.000008   0.000016   0.000000   0.000000  -0.000024   0.000000
             25         26         27         28         29         30
     1  O    0.000000  -0.000181   0.000000   0.000002   0.000000   0.000000
     2  C   -0.000143  -0.001640  -0.000088  -0.001224   0.000001   0.000000
     3  C    0.001053  -0.038085   0.000684   0.000089   0.000045   0.000000
     4  O   -0.000006   0.000072   0.000001   0.000003   0.000000   0.000000
     5  H    0.000000   0.000049   0.000000   0.000000   0.000000   0.000000
     6  C   -0.006071  -0.043502   0.005315   0.015760  -0.000410  -0.000002
     7  O    0.002048  -0.011882  -0.000043  -0.000248  -0.000006   0.000000
     8  H   -0.003930  -0.032065   0.000059  -0.000317   0.000000   0.000000
     9  C   -0.000014  -0.004614  -0.000052  -0.001325  -0.000002   0.000000
    10  O    0.000000  -0.000164   0.000000   0.000007   0.000000   0.000000
    11  H    0.000000  -0.000001   0.000000   0.000000   0.000000   0.000000
    12  C   -0.000460   0.085895  -0.000163   0.000747   0.000171  -0.000001
    13  O    0.000025  -0.022949   0.000062  -0.000919   0.000017   0.000000
    14  C   -0.010234  -0.874507   0.017713   0.090823   0.001217   0.000048
    15  O    0.001253  -0.052899   0.009359   0.014818   0.000221   0.000001
    16  C   -0.003701  -3.361250  -0.072939   0.687430   0.013539  -0.009816
    17  C   -0.000645   0.157577   0.008029   0.257075  -0.004892   0.014589
    18  O    0.000002   0.101598   0.000129  -0.010245  -0.000381  -0.000052
    19  H    0.000000   0.009638   0.000199   0.000022   0.000047   0.000000
    20  C    0.000850   0.693432  -0.179586  -1.090979  -0.178086  -0.029721
    21  O    0.000000   0.029481   0.007985  -0.068600   0.008264  -0.001622
    22  H    0.000000  -0.001516   0.000020  -0.005463   0.019721  -0.001896
    23  C    0.054380  -0.914919  -0.100605  -0.252214  -0.009429   0.000903
    24  O    0.203838   0.197847   0.001958   0.013547   0.000090   0.000000
    25  H    0.401023  -0.017820  -0.000404  -0.002777   0.000002   0.000000
    26  C   -0.017820  11.209708   0.329091  -0.916560  -0.050213   0.012551
    27  O   -0.000404   0.329091   8.320065   0.101621  -0.043952   0.002129
    28  C   -0.002777  -0.916560   0.101621   6.055048   0.394715   0.019773
    29  O    0.000002  -0.050213  -0.043952   0.394715   8.251018   0.229451
    30  H    0.000000   0.012551   0.002129   0.019773   0.229451   0.405331
    31  H    0.000000  -0.084138  -0.058550   0.439413  -0.052941  -0.007543
    32  H    0.000000  -0.015111   0.001782  -0.058622  -0.006681   0.000384
    33  H    0.000000  -0.067691   0.000903  -0.019835  -0.000309   0.000013
    34  H    0.000006  -0.119802   0.004793   0.006041  -0.000387   0.000001
    35  H   -0.000092   0.188513  -0.042934   0.034999  -0.000756   0.000019
    36  H   -0.009630  -0.097482  -0.003465   0.003677  -0.000355   0.000000
    37  H   -0.001512  -0.108687   0.005891   0.006287  -0.000006   0.000000
    38  H    0.000011   0.008646   0.000251  -0.001263  -0.000003   0.000000
    39  H   -0.000025  -0.003023   0.000000  -0.000050   0.000000   0.000000
    40  H    0.000000   0.000186   0.000000  -0.000019   0.000000   0.000000
    41  H    0.000000  -0.000014   0.000000   0.000000   0.000000   0.000000
    42  H    0.000000  -0.000009   0.000000  -0.000004   0.000000   0.000000
    43  H    0.000000  -0.000458   0.000001  -0.000018   0.000000   0.000000
    44  H    0.000000   0.000432   0.000000   0.000005   0.000000   0.000000
    45  H    0.000000  -0.000128   0.000000   0.000004   0.000000   0.000000
             31         32         33         34         35         36
     1  O    0.000000   0.000000   0.000000  -0.000003   0.000000   0.000000
     2  C   -0.000001   0.000020  -0.000794  -0.001984  -0.000001  -0.000002
     3  C    0.000005   0.000074   0.001003   0.004330   0.000597   0.000106
     4  O    0.000000   0.000000   0.000000   0.000007   0.000000   0.000000
     5  H    0.000000   0.000000   0.000000   0.000000   0.000000   0.000000
     6  C    0.000223   0.000687   0.005699   0.019265   0.001318   0.000793
     7  O    0.000000   0.000000  -0.000007  -0.000974  -0.000058  -0.000822
     8  H    0.000000   0.000000   0.000008   0.000227   0.000088   0.000522
     9  C    0.000004  -0.000100   0.000335  -0.000606   0.000077  -0.000006
    10  O    0.000000   0.000000   0.000000   0.000002   0.000000   0.000000
    11  H    0.000000   0.000000   0.000000   0.000000   0.000000   0.000000
    12  C    0.000030   0.000294   0.002067   0.004399   0.001012  -0.000137
    13  O    0.000001   0.000202   0.002546   0.001274  -0.000146   0.000002
    14  C    0.007863   0.008638   0.078482   0.030384   0.076082  -0.001453
    15  O    0.000033  -0.000955  -0.011332  -0.070715   0.004560   0.000107
    16  C    0.125641   0.128084   0.048145   0.320921   0.007646   0.025041
    17  C   -0.038636  -0.185569   0.324031   0.034355  -0.017021  -0.001198
    18  O   -0.000812   0.001052  -0.046941  -0.008311  -0.000823   0.000048
    19  H    0.000010  -0.000012  -0.007906  -0.001015   0.000027   0.000000
    20  C   -0.113504   0.408303  -0.100692   0.001704  -0.037418   0.001023
    21  O    0.003827  -0.046059  -0.001190  -0.000517   0.000195  -0.000007
    22  H   -0.000128  -0.008958  -0.000152   0.000006   0.000004   0.000000
    23  C    0.002143   0.014004   0.018563   0.003751   0.017199   0.449743
    24  O    0.000002  -0.000005  -0.000016  -0.000760   0.002550  -0.040304
    25  H    0.000000   0.000000   0.000000   0.000006  -0.000092  -0.009630
    26  C   -0.084138  -0.015111  -0.067691  -0.119802   0.188513  -0.097482
    27  O   -0.058550   0.001782   0.000903   0.004793  -0.042934  -0.003465
    28  C    0.439413  -0.058622  -0.019835   0.006041   0.034999   0.003677
    29  O   -0.052941  -0.006681  -0.000309  -0.000387  -0.000756  -0.000355
    30  H   -0.007543   0.000384   0.000013   0.000001   0.000019   0.000000
    31  H    0.630633   0.005834   0.002576   0.000027   0.006548  -0.000045
    32  H    0.005834   0.590549   0.007097   0.002270   0.000070   0.000001
    33  H    0.002576   0.007097   0.614996   0.006062   0.002650   0.000007
    34  H    0.000027   0.002270   0.006062   0.614670   0.006668   0.000095
    35  H    0.006548   0.000070   0.002650   0.006668   0.607904  -0.005405
    36  H   -0.000045   0.000001   0.000007   0.000095  -0.005405   0.577442
    37  H   -0.000002   0.000003   0.000005   0.005889   0.006677  -0.044359
    38  H    0.000000  -0.000021  -0.000081   0.012390  -0.000017   0.000003
    39  H    0.000000   0.000000  -0.000006  -0.000017  -0.000008   0.000001
    40  H    0.000000   0.000000   0.000000  -0.000010   0.000000   0.000000
    41  H    0.000000   0.000000   0.000000   0.000000   0.000000   0.000000
    42  H    0.000000   0.000000   0.000000   0.000000   0.000000   0.000000
    43  H    0.000000   0.000000  -0.000001  -0.000032   0.000000   0.000000
    44  H    0.000000   0.000000  -0.000001   0.000000   0.000000   0.000000
    45  H    0.000000   0.000000   0.000000   0.000000   0.000000   0.000000
             37         38         39         40         41         42
     1  O    0.000000   0.000074  -0.000780  -0.005880   0.230529  -0.048076
     2  C   -0.000025   0.028819   0.108842   0.200991   0.064388   0.491351
     3  C    0.000924  -0.047025  -0.220498   0.205867  -0.017089  -0.113888
     4  O    0.000005   0.000042   0.009627  -0.035546   0.001501   0.002113
     5  H    0.000000   0.000001  -0.000136  -0.004133  -0.003259  -0.001416
     6  C   -0.000201  -0.131989   0.217944  -0.355862   0.004773  -0.051337
     7  O    0.001938   0.005502  -0.041147   0.012950  -0.000004   0.000460
     8  H    0.001417  -0.000560  -0.004367  -0.000059   0.000000   0.000004
     9  C    0.000013   0.013101   0.021838   0.027236  -0.003528   0.014600
    10  O    0.000000   0.000063   0.000020   0.000074   0.000783  -0.000430
    11  H    0.000000   0.000000   0.000000   0.000000   0.000012  -0.000002
    12  C    0.001160   0.002165   0.013363  -0.050182  -0.033511  -0.171648
    13  O    0.000263  -0.059517   0.017770   0.007764  -0.000473   0.010783
    14  C    0.020868   0.339899   0.086705   0.203925   0.000400   0.098801
    15  O    0.004103  -0.059630  -0.015013  -0.001375   0.000003  -0.000561
    16  C   -0.057500   0.044318   0.024981   0.010468   0.000401   0.000148
    17  C   -0.002459   0.053977   0.011134   0.002836  -0.000070   0.001377
    18  O   -0.000148  -0.001529   0.000140   0.000072   0.000000   0.000044
    19  H    0.000002   0.000085  -0.000034  -0.000005   0.000000  -0.000009
    20  C   -0.003259   0.013298   0.000799   0.000108   0.000001   0.000049
    21  O    0.000004   0.000006   0.000000   0.000000   0.000000   0.000000
    22  H    0.000000   0.000000   0.000000   0.000000   0.000000   0.000000
    23  C    0.497729   0.010332   0.006203   0.001347   0.000008   0.000129
    24  O   -0.090312   0.000514   0.001327   0.000148   0.000000   0.000007
    25  H   -0.001512   0.000011  -0.000025   0.000000   0.000000   0.000000
    26  C   -0.108687   0.008646  -0.003023   0.000186  -0.000014  -0.000009
    27  O    0.005891   0.000251   0.000000   0.000000   0.000000   0.000000
    28  C    0.006287  -0.001263  -0.000050  -0.000019   0.000000  -0.000004
    29  O   -0.000006  -0.000003   0.000000   0.000000   0.000000   0.000000
    30  H    0.000000   0.000000   0.000000   0.000000   0.000000   0.000000
    31  H   -0.000002   0.000000   0.000000   0.000000   0.000000   0.000000
    32  H    0.000003  -0.000021   0.000000   0.000000   0.000000   0.000000
    33  H    0.000005  -0.000081  -0.000006   0.000000   0.000000   0.000000
    34  H    0.005889   0.012390  -0.000017  -0.000010   0.000000   0.000000
    35  H    0.006677  -0.000017  -0.000008   0.000000   0.000000   0.000000
    36  H   -0.044359   0.000003   0.000001   0.000000   0.000000   0.000000
    37  H    0.608558  -0.000063  -0.000016  -0.000001   0.000000   0.000000
    38  H   -0.000063   0.624629   0.005155   0.003134   0.000003   0.000034
    39  H   -0.000016   0.005155   0.606051   0.006822   0.000017   0.003374
    40  H   -0.000001   0.003134   0.006822   0.620494   0.000038   0.006177
    41  H    0.000000   0.000003   0.000017   0.000038   0.398740  -0.011378
    42  H    0.000000   0.000034   0.003374   0.006177  -0.011378   0.620099
    43  H    0.000000   0.006749   0.000051   0.003502  -0.000057   0.007034
    44  H    0.000000   0.000001   0.000003   0.000006  -0.000012   0.000086
    45  H    0.000000  -0.000010  -0.000012   0.000004  -0.000068   0.005261
             43         44         45
     1  O    0.007337   0.000662   0.001039
     2  C    0.021181  -0.027034  -0.024488
     3  C   -0.072839  -0.010570   0.004130
     4  O    0.000334   0.000032  -0.000045
     5  H   -0.000009   0.000000   0.000001
     6  C   -0.038692  -0.000296   0.012115
     7  O    0.000144  -0.000013  -0.000001
     8  H    0.000003   0.000000   0.000000
     9  C    0.064424   0.477141   0.616443
    10  O    0.001746  -0.049959  -0.077460
    11  H   -0.000081  -0.009050  -0.001549
    12  C    0.129433  -0.078202  -0.249644
    13  O   -0.043364   0.001624   0.003832
    14  C    0.136750   0.002545  -0.003604
    15  O    0.000431  -0.000043  -0.000203
    16  C    0.014661   0.008441  -0.004190
    17  C    0.008116   0.000411   0.000786
    18  O    0.000253  -0.000038   0.000001
    19  H    0.000173   0.001056   0.000008
    20  C    0.000802  -0.000428   0.000016
    21  O    0.000000   0.000001   0.000000
    22  H    0.000000   0.000000   0.000000
    23  C    0.000417   0.000066  -0.000024
    24  O    0.000004   0.000000   0.000000
    25  H    0.000000   0.000000   0.000000
    26  C   -0.000458   0.000432  -0.000128
    27  O    0.000001   0.000000   0.000000
    28  C   -0.000018   0.000005   0.000004
    29  O    0.000000   0.000000   0.000000
    30  H    0.000000   0.000000   0.000000
    31  H    0.000000   0.000000   0.000000
    32  H    0.000000   0.000000   0.000000
    33  H   -0.000001  -0.000001   0.000000
    34  H   -0.000032   0.000000   0.000000
    35  H    0.000000   0.000000   0.000000
    36  H    0.000000   0.000000   0.000000
    37  H    0.000000   0.000000   0.000000
    38  H    0.006749   0.000001  -0.000010
    39  H    0.000051   0.000003  -0.000012
    40  H    0.003502   0.000006   0.000004
    41  H   -0.000057  -0.000012  -0.000068
    42  H    0.007034   0.000086   0.005261
    43  H    0.614345  -0.006425   0.007766
    44  H   -0.006425   0.599935  -0.049521
    45  H    0.007766  -0.049521   0.635186
 Mulliken atomic charges:
              1
     1  O   -0.520393
     2  C   -0.302530
     3  C    0.190897
     4  O   -0.493150
     5  H    0.350276
     6  C   -0.137244
     7  O   -0.595089
     8  H    0.480540
     9  C   -0.074233
    10  O   -0.563322
    11  H    0.370215
    12  C    0.313667
    13  O   -0.412552
    14  C    0.179459
    15  O   -0.323916
    16  C    0.087215
    17  C    0.050675
    18  O   -0.522656
    19  H    0.399880
    20  C   -0.015520
    21  O   -0.507834
    22  H    0.354540
    23  C    0.035730
    24  O   -0.622148
    25  H    0.392973
    26  C   -0.183404
    27  O   -0.315259
    28  C    0.288777
    29  O   -0.569709
    30  H    0.365461
    31  H    0.131493
    32  H    0.152745
    33  H    0.141766
    34  H    0.125596
    35  H    0.139274
    36  H    0.146059
    37  H    0.146816
    38  H    0.128509
    39  H    0.142965
    40  H    0.138920
    41  H    0.367866
    42  H    0.136824
    43  H    0.136318
    44  H    0.139145
    45  H    0.124358
 Sum of Mulliken atomic charges =   0.00000
 Mulliken charges with hydrogens summed into heavy atoms:
              1
     1  O   -0.152527
     2  C   -0.165705
     3  C    0.329817
     4  O   -0.142874
     6  C    0.005721
     7  O   -0.114549
     9  C    0.189270
    10  O   -0.193107
    12  C    0.449986
    13  O   -0.412552
    14  C    0.307967
    15  O   -0.323916
    16  C    0.212811
    17  C    0.192441
    18  O   -0.122776
    20  C    0.137225
    21  O   -0.153294
    23  C    0.328605
    24  O   -0.229176
    26  C   -0.044130
    27  O   -0.315259
    28  C    0.420270
    29  O   -0.204248
 Sum of Mulliken charges with hydrogens summed into heavy atoms =   0.00000
 APT atomic charges:
              1
     1  O   -0.639656
     2  C    0.401163
     3  C    0.406056
     4  O   -0.607310
     5  H    0.255034
     6  C    0.400030
     7  O   -0.813235
     8  H    0.528301
     9  C    0.493631
    10  O   -0.662775
    11  H    0.280086
    12  C    0.455247
    13  O   -0.879351
    14  C    0.905020
    15  O   -0.829594
    16  C    0.448993
    17  C    0.353280
    18  O   -0.715632
    19  H    0.386797
    20  C    0.394878
    21  O   -0.615596
    22  H    0.263359
    23  C    0.435573
    24  O   -0.693437
    25  H    0.279965
    26  C    0.454290
    27  O   -0.781555
    28  C    0.900278
    29  O   -0.672331
    30  H    0.266935
    31  H   -0.080248
    32  H   -0.034183
    33  H   -0.051172
    34  H   -0.030200
    35  H   -0.052839
    36  H   -0.035183
    37  H   -0.034641
    38  H   -0.044329
    39  H   -0.038144
    40  H   -0.050612
    41  H    0.262001
    42  H   -0.050750
    43  H   -0.048253
    44  H   -0.041818
    45  H   -0.068072
 Sum of APT charges=   0.00000
 APT Atomic charges with hydrogens summed into heavy atoms:
              1
[...]
 0015526,0.00013419,0.00010488,0.00003660,-0.00003612,0.00002481,-0.005
 19492,-0.00076351,0.00171317,0.00145926,0.00064429,0.00110305,0.000002
 92,-0.00023128,-0.00009922,0.00010091,0.00003216,0.00013607,0.00000006
 ,0.00000743,-0.00001360,-0.00002158,-0.00000833,-0.00000897,0.00002346
 ,-0.00001763,0.00003729,-0.00002339,0.00003746,-0.00003486,-0.00000450
 ,0.00000400,-0.00000286,0.00000857,-0.00000359,0.00000665,-0.00000242,
 -0.00000090,-0.00000203,-0.00002178,-0.00001244,0.00000719,0.00003005,
 0.00002437,0.00002411,-0.00001071,-0.00000589,-0.00000114,-0.00001221,
 -0.00000790,-0.00000265,0.00001151,0.00000209,0.00000655,-0.00001047,0
 .00000068,-0.00000624,0.00000392,0.00000101,0.00000279,-0.00000151,-0.
 00000061,-0.00000058,0.00000305,0.00000096,0.00000189,0.00000403,0.000
 00080,-0.00000281,0.00000808,0.00000267,0.00000792,0.00000922,-0.00000
 068,-0.00000880,0.00000642,0.00000053,0.00000542,0.00000069,0.00000092
 ,-0.00000046,0.00000732,0.00000190,-0.00000124,0.00000643,0.00002160,-
 0.00019051,0.00101944,0.00007265,0.00037899,0.00003612,0.00201025,0.00
 096443,0.00109385,0.00014000,-0.00053777,0.36640188,-0.01094736,-0.000
 65172,-0.00434880,-0.03552542,-0.04945288,0.00905090,0.03205565,0.0015
 9146,-0.00794032,-0.00203990,0.00348356,-0.00021271,0.00063162,-0.0002
 8822,0.00043659,0.00114630,0.00095300,0.00085904,-0.00045446,-0.000292
 27,-0.00005064,-0.00010454,0.00003434,0.00009385,-0.00244376,0.0019166
 5,-0.00008001,0.00052720,0.00016746,0.00004229,-0.00000657,-0.00005839
 ,0.00002400,-0.02765487,-0.00554946,0.00885590,0.00151449,0.00138760,-
 0.00155342,0.00022511,-0.00051237,-0.00003942,0.00002380,0.00010692,-0
 .00002236,-0.00003179,0.00001113,-0.00001795,0.00001009,-0.00001264,-0
 .00002394,0.00002902,0.00000807,0.00000291,-0.00003772,-0.00000086,0.0
 0001176,-0.00000600,0.00000168,-0.00000099,0.00000457,0.00000208,0.000
 00210,-0.00000177,-0.00000088,-0.00000154,0.00000443,-0.00000666,0.000
 01077,-0.00001384,-0.00001352,-0.00005779,0.00000717,0.00000752,0.0000
 0598,0.00000030,-0.00000611,0.00000348,-0.00000164,0.00000775,-0.00000
 443,0.00000101,-0.00000721,0.00000278,0.00000094,0.00000200,-0.0000014
 8,-0.00000016,-0.00000006,0.00000024,0.,0.00000119,0.00000053,0.000001
 74,-0.00000103,-0.00000207,0.00000475,0.00000770,0.00000568,0.00000171
 ,-0.00000805,0.00000401,-0.00000081,0.00000205,-0.00000028,-0.00000024
 ,0.00000209,-0.00000399,-0.00000285,-0.00000086,0.00000263,-0.00007268
 ,-0.00015702,-0.00002294,-0.00049989,-0.00020114,-0.00041373,0.0016581
 1,-0.00485253,-0.00184236,-0.00095591,0.00128570,0.00019829,0.04191271
 ,0.05424415,-0.04176293,-0.00943171,-0.01179977,0.07042739,0.00852202,
 -0.05674941,0.01295810,0.00221763,-0.00183686,-0.00169563,0.00036600,0
 .00074981,-0.00030678,-0.00025808,0.00000205,0.00136910,0.00002397,0.0
 0023259,-0.00039978,-0.00007467,-0.00005232,0.00001776,0.00004924,0.00
 002732,0.00028982,-0.00155502,0.00033513,-0.00015412,-0.00003881,0.000
 15603,-0.00000478,-0.00001603,0.00003213,0.02535074,0.00584537,-0.0056
 8744,-0.00109460,-0.00090591,0.00242026,0.00038655,-0.00013544,-0.0001
 9106,-0.00009618,0.00000951,-0.00016061,0.00000260,-0.00003300,0.00000
 987,0.00001581,0.00001784,0.00002987,-0.00005599,-0.00001809,-0.000023
 29,0.00006103,0.00002163,-0.00001670,0.00000423,-0.00000947,0.00001114
 ,-0.00000986,0.00000992,-0.00001692,0.00000272,-0.00000065,0.00000402,
 0.00001738,0.00001157,-0.00000153,-0.00002339,-0.00002533,-0.00002524,
 0.00000725,0.00000786,0.00000542,0.00000510,0.00001190,0.00001349,-0.0
 0000910,0.00000183,-0.00002343,0.00000883,-0.00000372,0.00002395,0.000
 00263,-0.00000092,-0.00001719,0.00000071,0.00000115,0.00000333,-0.0000
 0303,-0.00000096,-0.00000290,-0.00000428,0.00000025,0.00000452,-0.0000
 1184,-0.00000777,-0.00001406,-0.00001143,0.00000348,0.00001331,-0.0000
 0555,-0.00000191,-0.00000635,-0.00000162,-0.00000358,-0.00000183,-0.00
 000689,0.00000080,0.00000290,-0.00021039,0.00001681,0.00015492,-0.0003
 5374,-0.00033552,-0.00025347,0.00034274,-0.00215207,-0.00061761,-0.003
 03048,0.00037789,0.00332254,-0.06107404,-0.00596164,0.07304053,0.00129
 495,0.00019750,0.00122082,-0.00632717,-0.00168494,0.00255043,-0.000141
 00,0.00103357,-0.00012959,0.00048212,0.00015595,0.00003367,-0.00010811
 ,0.00002698,0.00002885,0.00002252,0.00000688,-0.00016710,0.00013375,-0
 .00029326,-0.00002545,-0.00000185,0.00004138,0.00005580,-0.01569876,0.
 00145946,0.00522984,0.00176672,0.00030585,0.00034447,0.00008533,-0.000
 14738,0.00004356,-0.33462946,-0.02741872,0.06242659,-0.01819816,-0.007
 03509,-0.01354912,-0.00005834,0.00273495,0.00172548,0.00069124,0.00003
 061,-0.00035319,-0.00020237,-0.00009463,0.00011486,0.00002923,0.000063
 69,-0.00002360,0.00024523,0.00008718,-0.00026890,-0.00036389,-0.000348
 43,0.00063848,-0.00003750,-0.00004204,0.00001792,0.00002132,0.00002896
 ,-0.00001808,-0.00000960,-0.00000804,-0.00000573,-0.00004042,-0.000005
 74,0.00002065,0.00001549,-0.00001577,-0.00004398,-0.00000352,0.0000041
 3,-0.00000071,0.00002575,0.00002437,0.00001895,0.00001706,0.00000765,-
 0.00006719,-0.00000471,-0.00000802,0.00003766,0.00002248,0.00000345,-0
 .00004159,-0.00000138,-0.00000027,0.00000473,0.00000278,0.00000356,0.0
 0000067,0.00001106,0.00000184,-0.00001244,0.00002598,0.00001959,0.0000
 3902,0.00003967,-0.00001681,-0.00003814,0.00000724,0.00000410,0.000009
 80,0.00000279,-0.00000539,-0.00000586,0.00000583,0.00000372,0.00000633
 ,0.00062428,-0.00152497,-0.00097383,0.00009117,0.00017366,0.00005395,0
 .00070640,-0.00041968,-0.00032645,0.00017275,0.00007019,-0.00003877,0.
 00073898,-0.00049026,-0.00000177,0.36840023,0.00146620,0.00062309,-0.0
 0115810,-0.02762961,-0.00494627,0.00949561,-0.00169636,0.00093420,0.00
 045778,0.00077740,0.00004770,-0.00032320,-0.00016436,0.00010811,-0.000
 02871,0.00003349,-0.00023247,-0.00005033,0.00014625,-0.00004680,-0.000
 01325,-0.00001311,-0.00001772,-0.00004063,0.03591377,0.00083532,-0.007
 94315,-0.00284430,0.00220325,0.00081517,-0.00004002,0.00034217,0.00022
 253,-0.02444160,-0.04871922,0.00809889,-0.01248282,-0.00107413,-0.0068
 3907,-0.00370558,0.00077852,0.00013579,0.00044205,-0.00012157,0.000052
 47,0.00002108,0.00002014,-0.00006557,0.00001327,0.00013963,0.00010175,
 -0.00003235,-0.00009646,-0.00023888,0.00009569,-0.00005843,0.00027373,
 0.00000251,-0.00002117,-0.00000871,-0.00000686,-0.00001444,-0.00000597
 ,0.00000399,0.00000282,0.00000441,-0.00001394,0.00000139,-0.00001972,0
 .00001003,0.00000214,0.00002783,-0.00000531,-0.00000541,-0.00000480,0.
 00002616,-0.00000327,-0.00000674,0.00000286,-0.00002650,0.00002132,-0.
 00000992,0.00004465,-0.00001158,0.00000243,-0.00001297,-0.00000665,0.0
 0000062,0.00000103,0.00000131,0.00000049,-0.00000393,-0.00000108,-0.00
 000342,0.00000456,0.00000419,-0.00001207,-0.00003011,-0.00000957,0.000
 02408,0.00001418,-0.00003733,0.00000051,0.00000426,0.00000806,0.000004
 03,-0.00000133,0.00000390,0.00000716,-0.00000248,-0.00000302,0.0005821
 6,0.00014179,-0.00021071,0.00018268,0.00015823,0.00004311,0.00065072,-
 0.00035895,0.00009768,0.00009372,0.00005938,-0.00031190,-0.00034131,-0
 .00323940,0.00328912,0.03064681,0.05738393,-0.00141560,-0.00105190,0.0
 0209570,0.02728833,0.00624819,-0.00530577,0.00079469,-0.00125416,0.000
 24609,-0.00073907,0.00008831,0.00006107,0.00024234,-0.00007199,0.00004
 081,0.00037997,-0.00009088,-0.00044732,0.00003104,-0.00022383,0.000272
 14,-0.00000493,0.00006137,-0.00001346,0.01003561,0.00075606,-0.0002971
 2,-0.00086787,0.00055161,0.00031669,-0.00016894,0.00007908,-0.00003490
 ,0.06836360,0.00728587,-0.05348772,-0.04327453,-0.01166850,-0.01135981
 ,-0.00450712,0.00258987,0.00225019,0.00055067,-0.00004207,-0.00044795,
 -0.00006031,-0.00010540,0.00020224,0.00001329,-0.00001808,-0.00004181,
 0.00020719,0.00008333,-0.00000854,-0.00041269,-0.00030737,0.00046849,-
 0.00000615,-0.00002694,0.00002305,0.00000269,0.00002800,-0.00001830,-0
 .00000318,-0.00000295,-0.00000139,-0.00000464,0.00001929,0.00000171,0.
 00000063,-0.00002216,0.00000943,0.00000468,0.00000324,-0.00000363,0.00
 002233,0.00003172,0.00002327,0.00000059,0.00000713,-0.00005508,0.00000
 739,-0.00001667,0.00003085,0.00000762,0.00000426,-0.00002475,0.0000008
 0,0.00000017,0.00000333,-0.00000176,0.00000185,-0.00000090,0.00000425,
 0.00000138,-0.00001119,0.00002144,0.00001739,0.00003707,0.00003252,-0.
 00000738,-0.00006599,0.00000030,0.00000271,0.00000423,-0.00000015,-0.0
 0000507,-0.00000104,-0.00000172,0.00000096,0.00000274,0.00110581,0.000
 12008,-0.00004048,-0.00001442,0.00002340,-0.00017258,-0.00057918,0.000
 38247,0.00027920,0.00005354,-0.00016334,0.00050969,0.00022961,0.003636
 35,-0.00348498,-0.05766735,-0.00465199,0.06790103,0.00008154,-0.000373
 57,-0.00007086,-0.00106486,0.00181945,0.00232024,0.00069782,0.00016942
 ,-0.00074999,-0.00011190,0.00050657,-0.00001863,0.00000972,-0.00002426
 ,0.00006194,0.00001793,-0.00006819,-0.00013936,0.00000874,-0.00004967,
 0.00007591,0.00000049,0.00001697,-0.00001736,-0.04904068,0.01097059,-0
 .01137017,-0.00362319,0.00242604,-0.02734774,0.00151671,0.00102212,0.0
 0052236,-0.00095584,0.01397069,-0.01530173,0.00096262,-0.00284858,-0.0
 0066891,-0.00036229,0.00013184,-0.00000815,-0.00006452,-0.00011225,-0.
 00013956,0.00000773,-0.00003325,0.00002635,0.00001132,0.00005895,0.000
 07429,-0.00018346,-0.00005562,-0.00014544,0.00037746,0.00002809,0.0000
 8082,0.00001077,-0.00002340,0.00001486,-0.00002186,0.00000869,-0.00002
 203,0.00000461,0.00000281,0.00000776,0.00000722,0.00001427,-0.00001144
 ,-0.00000554,-0.00001603,0.00001653,0.00000245,0.00000355,-0.00000233,
 0.00000663,0.00001577,0.00001740,-0.00000746,-0.00000488,-0.00002013,0
 .00000749,0.00000867,0.00002233,0.00000298,-0.00000391,-0.00002106,0.0
 0000152,0.00000086,0.00000391,-0.00000380,-0.00000354,-0.00000393,-0.0
 0000857,0.00000501,0.00000829,-0.00002239,-0.00003827,-0.00003345,-0.0
 0000826,0.00001431,0.00000032,-0.00000329,-0.00000295,-0.00000344,-0.0
 0000023,-0.00000550,0.00000019,-0.00000327,0.00000135,0.00000113,-0.00
 000200,0.00004253,-0.00000049,0.00001317,0.00000418,0.00001639,-0.0000
 2032,-0.00010266,-0.00001904,-0.00020312,0.00012101,-0.00018841,0.0002
 7315,0.00035329,-0.00014416,0.00046381,-0.00067907,-0.00037555,0.04709
 326,-0.00008398,0.00047517,-0.00009651,0.00307926,-0.00446022,-0.00407
 340,-0.00063773,0.00012626,0.00177130,0.00022639,-0.00119616,0.0000714
 1,-0.00010202,0.00012471,-0.00018781,-0.00002187,0.00022950,0.00059498
 ,-0.00002174,0.00005386,-0.00040051,0.00002821,-0.00000732,0.00015719,
 0.01513849,-0.13165716,0.14670590,-0.00955887,0.00468133,-0.03145255,-
 0.00005129,0.00235289,-0.00081860,0.00153369,-0.01999640,0.02636312,-0
 .00053997,0.00264032,0.00067310,0.00014615,-0.00028479,-0.00029145,-0.
 00001370,0.00008790,-0.00019811,-0.00001043,-0.00004399,0.00007659,-0.
 00010471,-0.00033564,-0.00027056,0.00002781,0.00046971,0.00044623,-0.0
 0001649,-0.00068655,-0.00069555,0.00002321,0.00010234,-0.00001460,0.00
 000596,-0.00001003,0.00004877,-0.00000133,0.00000593,-0.00001058,-0.00
 002034,-0.00005126,0.00007802,-0.00001059,0.00002647,-0.00013757,0.000
 00565,-0.00000033,0.00002024,0.00000264,-0.00000630,-0.00003759,-0.000
 01135,0.00005684,-0.00001169,0.00002062,-0.00010496,-0.00002806,-0.000
 02757,0.00002966,0.00006807,-0.00000011,-0.00000300,-0.00001238,-0.000
 00033,0.00000841,0.00000390,0.00000312,-0.00000796,-0.00000992,0.00003
 617,0.00004139,0.00002188,0.00000726,-0.00001391,-0.00000569,-0.000000
 85,0.00000105,0.00000228,0.00000085,0.00001812,-0.00000941,0.00000170,
 0.00000201,-0.00000223,-0.00006223,0.00006393,0.00005130,-0.00001451,-
 0.00001164,-0.00002705,0.00010891,-0.00003946,-0.00010276,0.00000096,-
 0.00007790,-0.00015908,-0.00000782,0.00026431,-0.00017391,0.00007145,0
 .00094884,-0.00015710,-0.00981817,0.14681934,0.00008525,0.00040022,0.0
 0010930,-0.00024895,-0.00131612,-0.00043255,-0.00009372,-0.00020790,0.
 00020174,0.00002936,-0.00013723,0.00006866,0.00000471,-0.00005425,-0.0
 0002746,0.00007666,-0.00008482,-0.00017358,-0.00000526,-0.00004946,0.0
 0009248,-0.00000482,0.00001277,-0.00002366,-0.01386633,0.14349247,-0.2
 6417203,-0.01255929,-0.00507782,-0.03135569,-0.00030005,0.00024490,0.0
 0068660,0.00170819,-0.00314147,0.00428037,0.00049543,-0.00153776,0.001
 00832,-0.00008325,-0.00013988,0.00042712,-0.00001627,0.00001953,0.0000
 1355,0.00000043,0.00003646,0.00000626,0.00000179,0.00007591,0.00001573
 ,0.00003515,-0.00020944,-0.00008924,-0.00005479,0.00011199,-0.00004644
 ,-0.00001412,-0.00000485,-0.00000675,0.00000368,-0.00001988,-0.0000144
 2,0.00000186,0.00000266,0.00000687,0.00000312,0.00001511,-0.00001870,0
 .00000105,-0.00001382,0.00002571,-0.00000120,0.00000356,-0.00000433,-0
 .00000573,0.00000352,0.00000670,0.00000669,-0.00002712,0.00000609,-0.0
 0001187,0.00003602,0.00001183,0.00001254,-0.00001458,-0.00002382,-0.00
 000152,0.00000414,0.00000662,0.00000131,-0.00000160,-0.00000075,0.0000
 0082,0.00000213,0.00000196,-0.00000371,-0.00000082,0.00000080,0.000000
 65,-0.00000257,0.00000046,0.00000133,0.00000020,0.00000016,-0.00000074
 ,-0.00000495,0.00000083,0.00000003,-0.00000008,0.00000172,0.00000645,-
 0.00000531,-0.00000869,-0.00001221,0.00000740,0.00000778,0.00000398,0.
 00002750,0.00001014,0.00000130,-0.00024628,0.00007331,-0.00005218,-0.0
 0017307,0.00003824,-0.00033219,0.00030142,0.00041550,0.02497981,-0.140
 47901,0.29821486,0.00032330,-0.00020750,-0.00043186,0.00085309,-0.0018
 9273,0.00069866,0.00053437,0.00007740,0.00006182,0.00008878,0.00009463
 ,-0.00006880,-0.00006786,0.00003496,0.00000976,-0.00013395,-0.00006277
 ,0.00013677,0.00005661,0.00005925,-0.00008968,-0.00001553,-0.00002608,
 0.00001429,-0.30144662,-0.02918808,0.10837098,-0.01876141,-0.01772679,
 -0.00893745,-0.00136950,0.00030301,0.00007460,-0.01841281,0.00067484,0
 .00890970,0.00071171,0.00112787,0.00111972,0.00034333,-0.00026001,-0.0
 0000975,0.00011581,0.00022604,0.00028632,0.00001605,0.00005128,-0.0000
 8901,-0.00003980,-0.00002875,-0.00002566,0.00008523,-0.00002215,0.0000
 9913,-0.00011857,0.00008023,-0.00010215,-0.00000595,0.00001570,-0.0000
 1186,0.00001833,-0.00000868,0.00001853,-0.00000447,-0.00000327,-0.0000
 0497,-0.00001471,-0.00002212,0.00001127,0.00001747,0.00002577,-0.00001
 612,-0.00000771,-0.00000521,0.00000233,-0.00002044,-0.00002900,-0.0000
 1122,0.00001232,0.00000569,0.00003061,-0.00001657,0.00000106,-0.000022
 24,0.00000163,0.00000281,0.00001516,-0.00000238,-0.00000177,-0.0000023
 2,0.00000527,0.00000247,0.00000405,0.00000763,-0.00000093,-0.00000556,
 0.00001659,0.00001495,0.00001819,0.00000783,-0.00001005,-0.00000169,0.
 00000648,0.00000267,0.00000581,0.00000096,0.00000564,-0.00000032,0.000
 00704,-0.00000081,-0.00000121,0.00005503,-0.00015361,-0.00014067,0.000
 05280,0.00005092,0.00000094,0.00014947,-0.00029405,-0.00009031,-0.0003
 8924,0.00029505,-0.00034989,0.00046379,0.00117843,-0.00079812,-0.00031
 994,0.00297182,0.00070423,0.00413771,0.00066950,0.00020664,0.33305883,
 -0.00018335,0.00029541,0.00042029,0.00139698,0.00252237,-0.00130503,0.
 00017084,0.00001155,-0.00033896,-0.00017929,0.00001205,0.00014228,0.00
 002917,-0.00006686,0.00000239,0.00000689,0.00010880,-0.00002740,-0.000
 02578,-0.00001818,0.00004301,0.00000527,0.00001687,0.00000410,-0.03086
 695,-0.04577478,0.02080150,-0.02789368,-0.01279376,-0.00834303,-0.0018
 0035,-0.00004430,0.00042556,0.03486487,-0.00236537,-0.01264406,-0.0011
 1756,0.00148798,0.00120972,0.00022411,0.00004103,0.00003131,-0.0001369
 7,-0.00010030,-0.00015744,-0.00003186,-0.00002584,0.00010245,-0.000019
 66,-0.00003251,-0.00003618,0.00002334,0.00010390,0.00003992,-0.0000454
 5,-0.00016088,-0.00001442,-0.00000261,-0.00000032,0.00001477,0.0000058
 4,0.00001891,-0.00000680,-0.00000377,-0.00000486,-0.00000248,0.0000041
 4,0.00000858,0.00000506,-0.00000123,-0.00000839,0.00000008,0.00000174,
 0.00000367,-0.00000129,-0.00001227,0.00001247,0.00000902,0.00000203,0.
 00000913,-0.00002942,0.00000311,-0.00002068,0.00002104,0.00000626,0.00
 000614,-0.00001216,-0.00000146,-0.00000033,0.00000202,0.00000019,0.000
 00260,-0.00000027,0.00000187,-0.00000217,-0.00000286,0.00000678,0.0000
 1203,0.00000953,0.00000194,0.00000256,0.00001118,0.00000126,-0.0000013
 0,-0.00000209,-0.00000177,-0.00000264,-0.00000226,-0.00000243,0.000001
 41,0.00000222,-0.00020559,0.00007704,0.00009123,-0.00002826,-0.0000413
 4,-0.00001110,-0.00026653,0.00003291,0.00010298,0.00005724,-0.00022177
 ,0.00020899,-0.00085810,-0.00017511,0.00033837,0.00235194,-0.00576631,
 -0.00213630,-0.01745327,-0.00063535,0.00815222,0.04197239,0.06347593,0
 .00013960,-0.00007635,0.00027163,-0.00100840,0.00032592,-0.00020114,-0
 .00020217,0.00006190,0.00011932,0.00001514,-0.00020501,0.00001798,-0.0
 0000240,0.00005060,-0.00002174,0.00009312,0.00005317,0.00005771,-0.000
 03745,-0.00006296,-0.00006984,0.00002514,0.00001887,0.00004516,0.11038
 562,0.02084257,-0.08954762,-0.03265940,-0.01550899,0.00314029,-0.00143
 616,0.00010139,0.00118238,0.00732491,0.00035972,0.00062533,-0.00079239
 ,0.00016455,0.00070079,0.00002470,-0.00004367,0.00010288,-0.00008742,-
 0.00002586,-0.00008442,0.00000435,-0.00001655,-0.00000532,0.00006816,0
 .00009717,0.00010601,-0.00014087,-0.00012571,-0.00022742,0.00026152,0.
 00015827,0.00016096,-0.00000244,-0.00003879,0.00001467,-0.00002075,0.0
 0001482,-0.00002984,0.00000361,-0.00000054,0.00000727,0.00000805,0.000
 00389,-0.00000357,-0.00002165,-0.00001862,-0.00002911,0.00000707,0.000
 00908,0.00000611,0.00000791,0.00000117,0.00002851,-0.00001140,0.000001
 27,-0.00002309,0.00001276,0.00001422,0.00003217,0.00000652,-0.00000518
 ,-0.00003282,0.00000215,0.00000077,0.00000527,-0.00000484,-0.00000374,
 -0.00000488,-0.00000855,0.00000333,0.00000962,-0.00002919,-0.00003373,
 -0.00003573,-0.00001442,0.00000958,0.00000509,-0.00000599,-0.00000331,
 -0.00000785,0.00000083,-0.00000610,-0.00000250,-0.00000526,0.00000179,
 0.00000259,-0.00012175,0.00007350,0.00003195,-0.00002412,-0.00003348,-
 0.00000149,-0.00003072,0.00010325,-0.00000274,-0.00006043,0.00008568,-
 0.00003536,-0.00011531,-0.00047418,0.00034964,-0.00053152,-0.00146540,
 0.00013018,0.02857250,0.00270939,-0.00934156,-0.10958865,-0.00711770,0
 .09255453\\0.00650811,-0.00311620,-0.00795255,-0.00255279,-0.00456724,
 0.00798829,-0.01514883,-0.01926913,-0.00198551,0.00446966,0.02495089,0
 .02663105,-0.00294187,-0.01461095,-0.02196453,0.01966600,-0.02281680,-
 0.01793240,0.01048656,0.00662014,0.00888180,-0.00744350,0.01387331,0.0
 1646651,-0.03403147,0.03073875,-0.00757169,0.02384394,-0.00029315,0.01
 549810,0.00034869,-0.03664314,-0.01294801,0.03793648,0.00607165,0.0157
 2906,-0.00477638,0.01240633,0.00532729,-0.05090360,-0.01370173,0.00418
 382,0.02386866,0.01390218,0.00011209,-0.00428664,-0.00942316,-0.033897
 86,-0.01084405,0.03480289,0.03603966,-0.00680458,0.01148130,0.00950220
 ,0.00747279,0.00554816,-0.02250258,0.01958481,-0.00882635,0.00637630,-
 0.00009613,-0.00766313,-0.01059394,-0.01254522,-0.00737154,0.02694702,
 0.01745589,-0.01077114,-0.01129355,-0.00380064,-0.01634590,-0.00090915
 ,-0.01121762,0.02659689,-0.00622003,-0.01734913,-0.00651745,0.01370573
 ,0.00456022,0.00394608,0.00710635,0.03033695,0.00121616,-0.01422092,-0
 .00589450,-0.00301712,0.01059599,-0.00369096,-0.00404416,-0.00475754,-
 0.01970689,-0.00624612,-0.00516057,0.02143222,-0.00016182,0.00169063,-
 0.02361239,-0.00381548,-0.00101783,0.01762163,0.00321288,0.00104451,-0
 .02335621,-0.00391278,-0.00181766,0.00230373,-0.00842581,-0.01660950,0
 .02017603,0.00283025,0.00460698,0.01643541,0.00545810,-0.00454148,-0.0
 2000336,0.00142679,0.00188939,0.02144186,0.00213970,-0.00148099,-0.002
 21976,0.00481173,0.00169710,-0.02063190,-0.00394501,0.00191311,0.02431
 684,0.00268097,-0.00269725,-0.00359891,0.00421183,-0.02012726,-0.02280
 914,-0.00342167,0.00426982\\\@


 FESTINA LENTE!
     - IMPERATOR AUGUSTUS 
 Job cpu time:  0 days 13 hours  4 minutes  7.0 seconds.
 File lengths (MBytes):  RWF=   1324 Int=      0 D2E=      0 Chk=     19 Scr=      1
 Normal termination of Gaussian 09 at Thu Jan 21 05:03:32 2016.
Gaussian '09 finished on node010 at Thu Jan 21 05:03:32 EST 2016.
