Gaussian '09 started on node013 at Tue Mar  1 03:19:38 EST 2016.
 Entering Gaussian System, Link 0=/usr/local/gaussian/g09/g09
 Initial command:
 /usr/local/gaussian/g09/l1.exe /home/srmcgrat/thesis/gaussian/cellobiose/400/7000/2/gdp/gaussian22637/Gau-22673.inp -scrdir=/home/srmcgrat/thesis/gaussian/cellobiose/400/7000/2/gdp/gaussian22637/
 Entering Link 1 = /usr/local/gaussian/g09/l1.exe PID=     22675.
  
 Copyright (c) 1988,1990,1992,1993,1995,1998,2003,2009,2010,
            Gaussian, Inc.  All Rights Reserved.
  
 This is part of the Gaussian(R) 09 program.  It is based on
 the Gaussian(R) 03 system (copyright 2003, Gaussian, Inc.),
 the Gaussian(R) 98 system (copyright 1998, Gaussian, Inc.),
 the Gaussian(R) 94 system (copyright 1995, Gaussian, Inc.),
 the Gaussian 92(TM) system (copyright 1992, Gaussian, Inc.),
 the Gaussian 90(TM) system (copyright 1990, Gaussian, Inc.),
 the Gaussian 88(TM) system (copyright 1988, Gaussian, Inc.),
 the Gaussian 86(TM) system (copyright 1986, Carnegie Mellon
 University), and the Gaussian 82(TM) system (copyright 1983,
 Carnegie Mellon University). Gaussian is a federally registered
 trademark of Gaussian, Inc.
  
 This software contains proprietary and confidential information,
 including trade secrets, belonging to Gaussian, Inc.
  
 This software is provided under written license and may be
 used, copied, transmitted, or stored only in accord with that
 written license.
  
 The following legend is applicable only to US Government
 contracts under FAR:
  
                    RESTRICTED RIGHTS LEGEND
  
 Use, reproduction and disclosure by the US Government is
 subject to restrictions as set forth in subparagraphs (a)
 and (c) of the Commercial Computer Software - Restricted
 Rights clause in FAR 52.227-19.
  
 Gaussian, Inc.
 340 Quinnipiac St., Bldg. 40, Wallingford CT 06492
  
  
 ---------------------------------------------------------------
 Warning -- This program may not be used in any manner that
 competes with the business of Gaussian, Inc. or will provide
 assistance to any competitor of Gaussian, Inc.  The licensee
 of this program is prohibited from giving any competitor of
 Gaussian, Inc. access to this program.  By using this program,
 the user acknowledges that Gaussian, Inc. is engaged in the
 business of creating and licensing software in the field of
 computational chemistry and represents and warrants to the
 licensee that it is not a competitor of Gaussian, Inc. and that
 it will not use this program in any manner prohibited above.
 ---------------------------------------------------------------
  

 Cite this work as:
 Gaussian 09, Revision B.01,
 M. J. Frisch, G. W. Trucks, H. B. Schlegel, G. E. Scuseria, 
 M. A. Robb, J. R. Cheeseman, G. Scalmani, V. Barone, B. Mennucci, 
 G. A. Petersson, H. Nakatsuji, M. Caricato, X. Li, H. P. Hratchian, 
 A. F. Izmaylov, J. Bloino, G. Zheng, J. L. Sonnenberg, M. Hada, 
 M. Ehara, K. Toyota, R. Fukuda, J. Hasegawa, M. Ishida, T. Nakajima, 
 Y. Honda, O. Kitao, H. Nakai, T. Vreven, J. A. Montgomery, Jr., 
 J. E. Peralta, F. Ogliaro, M. Bearpark, J. J. Heyd, E. Brothers, 
 K. N. Kudin, V. N. Staroverov, T. Keith, R. Kobayashi, J. Normand, 
 K. Raghavachari, A. Rendell, J. C. Burant, S. S. Iyengar, J. Tomasi, 
 M. Cossi, N. Rega, J. M. Millam, M. Klene, J. E. Knox, J. B. Cross, 
 V. Bakken, C. Adamo, J. Jaramillo, R. Gomperts, R. E. Stratmann, 
 O. Yazyev, A. J. Austin, R. Cammi, C. Pomelli, J. W. Ochterski, 
 R. L. Martin, K. Morokuma, V. G. Zakrzewski, G. A. Voth, 
 P. Salvador, J. J. Dannenberg, S. Dapprich, A. D. Daniels, 
 O. Farkas, J. B. Foresman, J. V. Ortiz, J. Cioslowski, 
 and D. J. Fox, Gaussian, Inc., Wallingford CT, 2010.
 
 ******************************************
 Gaussian 09:  EM64L-G09RevB.01 12-Aug-2010
                 1-Mar-2016 
 ******************************************
 ------------------------------------------------
 # freq=raman b3lyp/6-31+g(d,p) geom=connectivity
 ------------------------------------------------
 1/10=4,30=1,38=1,57=2/1,3;
 2/12=2,17=6,18=5,40=1/2;
 3/5=1,6=6,7=111,11=2,16=1,25=1,30=1,71=2,74=-5/1,2,3;
 4//1;
 5/5=2,38=5,98=1/2;
 8/6=4,10=90,11=11/1;
 10/13=10,15=4/2;
 11/6=3,8=1,9=11,15=111,16=1/1,2,10;
 10/6=1/2;
 6/7=2,8=2,9=2,10=2,18=1,28=1/1;
 7/8=1,10=1,25=1/1,2,3,16;
 1/10=4,30=1/3;
 99//99;
 ------------
 400 7000.com
 ------------
 Symbolic Z-matrix:
 Charge =  0 Multiplicity = 1
 O                     9.169     7.753     22.306 
 C                     9.869     8.012     23.532 
 C                     9.446     9.352     24.11 
 O                     9.598     10.409    23.151 
 H                     9.671     9.982     22.249 
 C                     10.107    9.833     25.391 
 O                     9.688     11.138    25.814 
 H                     9.97      11.172    26.773 
 C                     10.183    5.673     24.53 
 O                     9.562     4.749     23.624 
 H                     9.522     3.875     24.109 
 C                     9.61      7.071     24.697 
 O                     10.198    7.417     25.959 
 C                     9.772     8.723     26.375 
 O                     10.596    8.881     27.539 
 C                     10.092    8.52      28.833 
 C                     10.454    7.104     29.249 
 O                     10.286    6.079     28.26 
 H                     10.289    6.491     27.349 
 C                     9.719     6.898     30.564 
 O                     9.967     5.597     31.117 
 H                     9.627     5.318     32.015 
 C                     10.51     10.9      29.636 
 O                     11.315    11.432    28.574 
 H                     11.45     12.386    28.841 
 C                     10.719    9.416     29.889 
 O                     10.044    9.266     31.146 
 C                     10.307    7.91      31.534 
 O                     9.57      7.709     32.749 
 H                     10.18232   7.58832   33.47845 
 H                     9.8031    7.60402   21.60079 
 H                     10.18642   5.2146    25.49683 
 H                     11.20157   5.78305   24.22127 
 H                     8.55151   6.98829   24.82992 
 H                     10.9199   8.03552   23.33211 
 H                     8.39961   9.27304   24.31911 
 H                     11.16656   9.84886   25.24273 
 H                     8.73376   8.72899   26.63368 
 H                     10.73804   11.43338   30.53511 
 H                     9.48004   11.06191   29.39546 
 H                     11.76102   9.19802   29.9966 
 H                     9.02858   8.63742   28.84902 
 H                     11.49752   7.11661   29.48525 
 H                     8.66898   7.06196   30.43959 
 H                     11.35316   7.74324   31.68449 
 

 GradGradGradGradGradGradGradGradGradGradGradGradGradGradGradGradGradGrad
 Berny optimization.
 Initialization pass.
 Trust Radius=3.00D-01 FncErr=1.00D-07 GrdErr=1.00D-07
 Number of steps in this run=      2 maximum allowed number of steps=      2.
 GradGradGradGradGradGradGradGradGradGradGradGradGradGradGradGradGradGrad

                          Input orientation:                          
 ---------------------------------------------------------------------
 Center     Atomic      Atomic             Coordinates (Angstroms)
 Number     Number       Type             X           Y           Z
 ---------------------------------------------------------------------
      1          8           0        9.169000    7.753000   22.306000
      2          6           0        9.869000    8.012000   23.532000
      3          6           0        9.446000    9.352000   24.110000
      4          8           0        9.598000   10.409000   23.151000
      5          1           0        9.671000    9.982000   22.249000
      6          6           0       10.107000    9.833000   25.391000
      7          8           0        9.688000   11.138000   25.814000
      8          1           0        9.970000   11.172000   26.773000
      9          6           0       10.183000    5.673000   24.530000
     10          8           0        9.562000    4.749000   23.624000
     11          1           0        9.522000    3.875000   24.109000
     12          6           0        9.610000    7.071000   24.697000
     13          8           0       10.198000    7.417000   25.959000
     14          6           0        9.772000    8.723000   26.375000
     15          8           0       10.596000    8.881000   27.539000
     16          6           0       10.092000    8.520000   28.833000
     17          6           0       10.454000    7.104000   29.249000
     18          8           0       10.286000    6.079000   28.260000
     19          1           0       10.289000    6.491000   27.349000
     20          6           0        9.719000    6.898000   30.564000
     21          8           0        9.967000    5.597000   31.117000
     22          1           0        9.627000    5.318000   32.015000
     23          6           0       10.510000   10.900000   29.636000
     24          8           0       11.315000   11.432000   28.574000
     25          1           0       11.450000   12.386000   28.841000
     26          6           0       10.719000    9.416000   29.889000
     27          8           0       10.044000    9.266000   31.146000
     28          6           0       10.307000    7.910000   31.534000
     29          8           0        9.570000    7.709000   32.749000
     30          1           0       10.182319    7.588325   33.478454
     31          1           0        9.803100    7.604020   21.600789
     32          1           0       10.186422    5.214603   25.496830
     33          1           0       11.201566    5.783054   24.221274
     34          1           0        8.551515    6.988289   24.829919
     35          1           0       10.919901    8.035524   23.332113
     36          1           0        8.399608    9.273038   24.319115
     37          1           0       11.166559    9.848862   25.242732
     38          1           0        8.733756    8.728989   26.633678
     39          1           0       10.738042   11.433378   30.535113
     40          1           0        9.480037   11.061912   29.395458
     41          1           0       11.761022    9.198025   29.996597
     42          1           0        9.028582    8.637416   28.849018
     43          1           0       11.497518    7.116611   29.485246
     44          1           0        8.668981    7.061960   30.439589
     45          1           0       11.353157    7.743239   31.684485
 ---------------------------------------------------------------------
                    Distance matrix (angstroms):
                    1          2          3          4          5
     1  O    0.000000
     2  C    1.435325   0.000000
     3  C    2.426509   1.519412   0.000000
     4  O    2.820000   2.442173   1.435282   0.000000
     5  H    2.285540   2.359278   1.977586   1.000631   0.000000
     6  C    3.837117   2.613153   1.519619   2.368218   3.175604
     7  O    4.902413   3.874553   2.480318   2.762446   3.747779
     8  H    5.682011   4.527680   3.267804   3.720139   4.687438
     9  C    3.209482   2.562327   3.775528   4.967249   4.902304
    10  O    3.303875   3.278701   4.630039   5.679844   5.411728
    11  H    4.291189   4.191433   5.477527   6.604294   6.385707
    12  C    2.525170   1.519798   2.361022   3.678655   3.803991
    13  O    3.810006   2.520435   2.780023   4.146918   4.541041
    14  C    4.226260   2.932163   2.373213   3.642396   4.314992
    15  O    5.540127   4.164101   3.647243   4.752403   5.481964
    16  C    6.636411   5.329953   4.839036   6.008118   6.757495
    17  C    7.090675   5.818142   5.699025   6.988660   7.608940
    18  O    6.284909   5.124877   5.351694   6.732319   7.193313
    19  H    5.317790   4.130294   4.403077   5.783719   6.211200
    20  C    8.320342   7.121272   6.910193   8.203312   8.868629
    21  O    9.105979   7.960782   7.966776   9.313896   9.897336
    22  H   10.020163   8.903791   8.876652  10.222016  10.822642
    23  C    8.088930   6.783085   5.836529   6.567195   7.490955
    24  O    7.578138   6.261715   5.267529   5.779580   6.694091
    25  H    8.329098   7.058110   5.966870   6.301947   7.238682
    26  C    7.916436   6.565452   5.917894   6.902415   7.732287
    27  O    9.011126   7.718558   7.061890   8.088596   8.933554
    28  C    9.299230   8.014627   7.611600   8.776239   9.534616
    29  O   10.450789   9.226825   8.794723   9.970576  10.743683
    30  H   11.219522   9.960403   9.561415  10.721658  11.493118
    31  H    0.960000   1.974934   3.078813   3.211407   2.468282
    32  H    4.202381   3.433183   4.426011   5.729827   5.791557
    33  H    3.417643   2.686825   3.978915   5.011615   4.885042
    34  H    2.708549   2.113846   2.627835   3.951603   4.108126
    35  H    2.048995   1.070000   2.123817   2.722795   2.553753
    36  H    2.637254   2.090186   1.070000   2.022633   2.530699
    37  H    4.123988   2.825655   2.119027   2.673850   3.349157
    38  H    4.457667   3.379831   2.695253   3.962121   4.655520
    39  H    9.150157   7.842491   6.876306   7.541497   8.479667
    40  H    7.829818   6.620679   5.555269   6.279607   7.230113
    41  H    8.243298   6.839402   6.327327   7.280613   8.062758
    42  H    6.604014   5.419237   4.810734   5.994177   6.766155
    43  H    7.574203   6.236579   6.172435   7.387195   7.994365
    44  H    8.178192   7.075126   6.775820   8.073988   8.753081
    45  H    9.629467   8.290837   7.974847   9.110830   9.842260
                    6          7          8          9         10
     6  C    0.000000
     7  O    1.434404   0.000000
     8  H    1.929149   1.000180   0.000000
     9  C    4.248847   5.635593   5.942678   0.000000
    10  O    5.409840   6.755094   7.165026   1.435358   0.000000
    11  H    6.122378   7.462289   7.780990   1.961368   1.000350
    12  C    2.890898   4.218325   4.610594   1.520073   2.558382
    13  O    2.483538   3.758586   3.848975   2.254729   3.602075
    14  C    1.520717   2.480726   2.489018   3.588237   4.837848
    15  O    2.399860   2.982304   2.495458   4.417682   5.785309
    16  C    3.683960   4.016404   3.360296   5.160378   6.452521
    17  C    4.738356   5.353423   4.786800   4.938640   6.162979
    18  O    4.728183   5.651018   5.315042   3.753444   4.877045
    19  H    3.877609   4.930724   4.727081   2.937196   4.175969
    20  C    5.960260   6.367186   5.718545   6.174551   7.266805
    21  O    7.123930   7.674785   7.067600   6.590979   7.551700
    22  H    8.030753   8.504618   7.865464   7.514013   8.410521
    23  C    4.395557   3.916633   2.926150   7.314349   8.653187
    24  O    3.761323   3.217323   2.262792   7.127513   8.499294
    25  H    4.497106   3.718182   2.817946   8.078018   9.439566
    26  C    4.558556   4.542452   3.654312   6.558676   7.897453
    27  O    5.783207   5.662274   4.770895   7.529969   8.787269
    28  C    6.440060   6.597086   5.781119   7.353609   8.550734
    29  O    7.677233   7.737324   6.918450   8.489583   9.593085
    30  H    8.393519   8.460993   7.605979   9.151137  10.274085
    31  H    4.407539   5.500310   6.285706   3.528943   3.507513
    32  H    4.620292   5.952786   6.096395   1.070000   2.028344
    33  H    4.355272   5.788186   6.088415   1.070000   2.028344
    34  H    3.290399   4.413629   4.826086   2.116998   2.736738
    35  H    2.851446   4.159651   4.751789   2.749450   3.567959
    36  H    2.092291   2.715275   3.477606   4.023087   4.722421
    37  H    1.070000   2.043125   2.350354   4.348931   5.586009
    38  H    2.156128   2.717681   2.741535   3.983069   5.058108
    39  H    5.424143   4.845487   3.848598   8.339749   9.686458
    40  H    4.235444   3.588297   2.670106   7.294327   8.553905
    41  H    4.934623   5.055200   4.182812   6.693253   8.077098
    42  H    3.814485   3.987366   3.408847   5.364173   6.534916
    43  H    5.106384   5.737941   5.112315   5.326014   6.611052
    44  H    5.935892   6.248886   5.659413   6.256573   7.252553
    45  H    6.747441   6.982818   6.147537   7.539352   8.783231
                   11         12         13         14         15
    11  H    0.000000
    12  C    3.250831   0.000000
    13  O    4.052806   1.434609   0.000000
    14  C    5.357272   2.360303   1.435329   0.000000
    15  O    6.162663   3.510735   2.190457   1.434864   0.000000
    16  C    6.649594   4.408902   3.080214   2.487041   1.434843
    17  C    6.141227   4.629701   3.314756   3.368406   2.470221
    18  O    4.761524   3.759788   2.663192   3.287576   2.909836
    19  H    4.234306   2.798311   1.672680   2.489536   2.417116
    20  C    7.130523   5.870562   4.658844   4.569590   3.721833
    21  O    7.230171   6.596706   5.474552   5.682998   4.897181
    22  H    8.037295   7.525053   6.434825   6.589738   5.802457
    23  C    8.993025   6.313871   5.074344   3.989749   2.912244
    24  O    8.958757   6.079184   4.919973   3.815119   2.845310
    25  H    9.927040   6.986241   5.879149   4.723813   3.835302
    26  C    8.095918   5.803944   4.439858   3.704761   2.413266
    27  O    8.880019   6.826125   5.508855   4.809498   3.669248
    28  C    8.486936   6.923460   5.597817   5.249998   4.121454
    29  O    9.452590   8.077335   6.825229   6.457312   5.437864
    30  H   10.100073   8.815277   7.521422   7.205200   6.092557
    31  H    4.502858   3.147685   4.380060   4.903689   6.125497
    32  H    2.040114   2.101952   2.250397   3.640299   4.216714
    33  H    2.544449   2.101952   2.587782   3.914776   4.579441
    34  H    3.339780   1.070000   2.041943   2.624135   3.886052
    35  H    4.457313   2.123455   2.793608   3.324073   4.303212
    36  H    5.517493   2.541027   3.060770   2.532324   3.917332
    37  H    6.298964   3.230668   2.713872   2.119998   2.556392
    38  H    5.527797   2.695821   2.078585   1.070000   2.076214
    39  H    9.995137   7.374713   6.112589   5.058254   3.938465
    40  H    8.921888   6.166017   5.060642   3.831307   3.073790
    41  H    8.246915   6.102201   4.681589   4.159065   2.738168
    42  H    6.737346   4.475596   3.348008   2.584717   2.057250
    43  H    6.581393   5.147048   3.770065   3.902758   2.777350
    44  H    7.138678   5.819186   4.747592   4.527316   3.928832
    45  H    8.700827   7.232942   5.849958   5.625889   4.364955
                   16         17         18         19         20
    16  C    0.000000
    17  C    1.519591   0.000000
    18  O    2.514845   1.434214   0.000000
    19  H    2.521489   2.003246   0.999837   0.000000
    20  C    2.401328   1.520489   2.510113   3.290406   0.000000
    21  O    3.711632   2.449008   2.914881   3.885968   1.435240
    22  H    4.538078   3.394773   3.887599   4.856514   2.147153
    23  C    2.546357   3.816087   5.018525   4.971769   4.183643
    24  O    3.168999   4.464138   5.460041   5.192955   5.202353
    25  H    4.097583   5.390548   6.439775   6.190720   6.006932
    26  C    1.520224   2.413539   3.738542   3.897708   2.792123
    27  O    2.430800   2.905332   4.306336   4.709337   2.460035
    28  C    2.777360   2.427441   3.751277   4.419062   1.520128
    29  O    4.033021   3.660257   4.829149   5.582158   2.335412
    30  H    4.738821   4.265755   5.433330   6.227817   3.030719
    31  H    7.295708   7.692127   6.848647   5.875103   8.991367
    32  H    4.697297   4.209537   2.896931   2.251721   5.359899
    33  H    5.476315   5.251836   4.151765   3.334162   6.608425
    34  H    4.554546   4.812600   3.949773   3.100310   5.852424
    35  H    5.583896   6.007857   5.339839   4.349594   7.418646
    36  H    4.879182   5.764462   5.412110   4.526560   6.810300
    37  H    3.976251   4.908380   4.908274   4.059768   6.254511
    38  H    2.593360   3.527001   3.475172   2.817634   4.446420
    39  H    3.435452   4.525293   5.835225   5.897462   4.648541
    40  H    2.674354   4.078617   5.173804   5.073031   4.331369
    41  H    2.144600   2.579176   3.862613   4.062586   3.127605
    42  H    1.070000   2.131470   2.910933   2.906167   2.538386
    43  H    2.090551   1.070000   2.011377   2.532874   2.091561
    44  H    2.594608   2.146057   2.886446   3.535845   1.070000
    45  H    3.213230   2.673705   3.954190   4.636482   2.154156
                   21         22         23         24         25
    21  O    0.000000
    22  H    0.999922   0.000000
    23  C    5.532632   6.131725   0.000000
    24  O    6.506241   7.216011   1.434884   0.000000
    25  H    7.312317   7.959537   1.929720   0.999815   0.000000
    26  C    4.081452   4.744043   1.519851   2.479657   3.233197
    27  O    3.669922   4.063958   2.273150   3.594744   4.126047
    28  C    2.374754   2.722540   3.547353   4.709793   5.347268
    29  O    2.698440   2.501777   4.555969   5.859725   6.378181
    30  H    3.096482   2.757617   5.083210   6.333283   6.791957
    31  H    9.726935  10.663615   8.713656   8.097218   8.831776
    32  H    5.637436   6.542949   7.039970   7.028420   8.013054
    33  H    7.007839   7.964779   7.482022   7.132298   8.062411
    34  H    6.592926   7.454658   6.498890   6.434405   7.322928
    35  H    8.213335   9.189616   6.936298   6.258556   7.039565
    36  H    7.885507   8.739306   5.947271   5.591482   6.280356
    37  H    7.350122   8.292320   4.564730   3.691301   4.411909
    38  H    5.606284   6.433611   4.108804   4.211168   5.062013
    39  H    5.915776   6.389235   1.070000   2.044223   2.069878
    40  H    5.750313   6.314754   1.070000   2.044223   2.437496
    41  H    4.176266   4.866476   2.142850   2.685771   3.405191
    42  H    3.907492   4.626020   2.816598   3.621194   4.462646
    43  H    2.704501   3.624017   3.913048   4.414324   5.308838
    44  H    2.071194   2.537935   4.331934   5.438666   6.215702
    45  H    2.617215   2.995103   3.856468   4.825301   5.445183
                   26         27         28         29         30
    26  C    0.000000
    27  O    1.434634   0.000000
    28  C    2.267996   1.434730   0.000000
    29  O    3.523301   2.284411   1.435199   0.000000
    30  H    4.063570   2.876468   1.974822   0.960000   0.000000
    31  H    8.533263   9.691814   9.950689  11.151141  11.883727
    32  H    6.101355   6.953217   6.612649   7.693891   8.327118
    33  H    6.749391   7.837263   7.668123   8.893446   9.486477
    34  H    6.015486   6.878107   6.991136   8.016769   8.821379
    35  H    6.703644   7.958524   8.225713   9.518750  10.182939
    36  H    6.035200   7.022139   7.586210   8.653265   9.482079
    37  H    4.687801   6.037254   6.639132   7.966936   8.596852
    38  H    3.874312   4.729288   5.211429   6.255944   7.088752
    39  H    2.118405   2.356354   3.687515   4.487383   4.874066
    40  H    2.118405   2.570555   3.897663   4.743032   5.406465
    41  H    1.070000   2.067344   2.477256   3.820143   4.148104
    42  H    2.131963   2.588883   3.061472   4.045361   4.885015
    43  H    2.460954   3.080696   2.498838   3.836449   4.230600
    44  H    3.169736   2.692115   2.144764   2.562005   3.435396
    45  H    2.534571   2.079101   1.070000   2.077020   2.147833
                   31         32         33         34         35
    31  H    0.000000
    32  H    4.586435   0.000000
    33  H    3.484044   1.726470   0.000000
    34  H    3.517509   2.502729   2.974191   0.000000
    35  H    2.104975   3.630645   2.437942   2.991551   0.000000
    36  H    3.484925   4.588095   4.476664   2.346077   2.976153
    37  H    4.490221   4.743585   4.192302   3.897660   2.645657
    38  H    5.266785   3.969077   4.537434   2.513324   4.020006
    39  H    9.765257   8.022577   8.485610   7.555724   7.966285
    40  H    8.533360   7.063236   7.589609   6.188756   6.927942
    41  H    8.767206   6.212481   6.732709   6.471355   6.817202
    42  H    7.362378   4.928834   5.855361   4.370397   5.863071
    43  H    8.079187   4.609129   5.438323   5.510669   6.248126
    44  H    8.927734   5.490558   6.834986   5.611384   7.518689
    45  H   10.203087   6.785452   7.717826   7.443402   8.368707
                   36         37         38         39         40
    36  H    0.000000
    37  H    2.973325   0.000000
    38  H    2.401010   3.017843   0.000000
    39  H    6.983837   5.541084   5.152871   0.000000
    40  H    5.489686   4.643379   3.691462   1.737636   0.000000
    41  H    6.598374   4.834895   4.549017   2.516603   3.006382
    42  H    4.617321   4.363925   2.236747   3.685455   2.525983
    43  H    6.398135   5.057039   4.285974   4.507050   4.432119
    44  H    6.513189   6.404064   4.155495   4.837295   4.212794
    45  H    8.081610   6.779724   5.774393   3.913636   4.445426
                   41         42         43         44         45
    41  H    0.000000
    42  H    3.016197   0.000000
    43  H    2.159444   2.968715   0.000000
    44  H    3.784142   2.267441   2.985695   0.000000
    45  H    2.265330   3.774000   2.291322   3.036232   0.000000
 Stoichiometry    C12H22O11
 Framework group  C1[X(C12H22O11)]
 Deg. of freedom   129
 Full point group                 C1      NOp   1
 Largest Abelian subgroup         C1      NOp   1
 Largest concise Abelian subgroup C1      NOp   1
                         Standard orientation:                         
 ---------------------------------------------------------------------
 Center     Atomic      Atomic             Coordinates (Angstroms)
 Number     Number       Type             X           Y           Z
 ---------------------------------------------------------------------
      1          8           0        5.074885   -0.423685   -0.484498
      2          6           0        3.797894   -0.142560    0.107464
      3          6           0        3.222131    1.143076   -0.461965
      4          8           0        4.145360    2.234379   -0.332580
      5          1           0        5.049041    1.839132   -0.164053
      6          6           0        1.888241    1.640790    0.069317
      7          8           0        1.467539    2.896059   -0.482792
      8          1           0        0.490738    2.926663   -0.269991
      9          6           0        2.830830   -2.474921    0.543811
     10          8           0        3.797427   -3.420963    0.063241
     11          1           0        3.335228   -4.308134    0.062271
     12          6           0        2.674168   -1.132429   -0.151741
     13          8           0        1.367199   -0.774575    0.319295
     14          6           0        0.953944    0.481318   -0.239382
     15          8           0       -0.267673    0.673430    0.488342
     16          6           0       -1.515445    0.238336   -0.070702
     17          6           0       -1.925174   -1.154768    0.377112
     18          8           0       -0.905143   -2.162857    0.360862
     19          1           0       -0.005598   -1.727490    0.391675
     20          6           0       -3.181144   -1.454522   -0.425741
     21          8           0       -3.722044   -2.745887   -0.109961
     22          1           0       -4.588032   -3.075421   -0.485883
     23          6           0       -2.396401    2.621643    0.095723
     24          8           0       -1.404616    3.245010    0.924378
     25          1           0       -1.700745    4.199206    0.962430
     26          6           0       -2.631462    1.152908    0.407989
     27          8           0       -3.834960    0.915335   -0.335870
     28          6           0       -4.211162   -0.425173    0.010483
     29          8           0       -5.367366   -0.717404   -0.788009
     30          1           0       -6.134891   -0.808215   -0.218573
     31          1           0        5.737310   -0.502203    0.205884
     32          1           0        1.876151   -2.957511    0.519410
     33          1           0        3.065527   -2.275194    1.568470
     34          1           0        2.617003   -1.303366   -1.206451
     35          1           0        3.923645   -0.029397    1.164006
     36          1           0        3.088050    0.974787   -1.510107
     37          1           0        1.962072    1.745619    1.131607
     38          1           0        0.768043    0.396990   -1.289730
     39          1           0       -3.320423    3.147120    0.218017
     40          1           0       -2.088322    2.706826   -0.925420
     41          1           0       -2.806585    1.016422    1.454700
     42          1           0       -1.459966    0.269569   -1.138807
     43          1           0       -2.233650   -1.064851    1.397728
     44          1           0       -2.987538   -1.372043   -1.474843
     45          1           0       -4.430445   -0.511455    1.054212
 ---------------------------------------------------------------------
 Rotational constants (GHZ):      0.3978386      0.1505889      0.1130395
 Standard basis: 6-31+G(d,p) (6D, 7F)
 There are   547 symmetry adapted basis functions of A   symmetry.
 Integral buffers will be    131072 words long.
 Raffenetti 2 integral format.
 Two-electron integral symmetry is turned on.
   547 basis functions,   890 primitive gaussians,   547 cartesian basis functions
    91 alpha electrons       91 beta electrons
       nuclear repulsion energy      2296.2858213410 Hartrees.
 NAtoms=   45 NActive=   45 NUniq=   45 SFac= 1.00D+00 NAtFMM=   50 NAOKFM=F Big=F
 One-electron integrals computed using PRISM.
 NBasis=   547 RedAO= T  NBF=   547
 NBsUse=   547 1.00D-06 NBFU=   547
 Harris functional with IExCor=  402 diagonalized for initial guess.
 ExpMin= 4.38D-02 ExpMax= 5.48D+03 ExpMxC= 8.25D+02 IAcc=2 IRadAn=         0 AccDes= 0.00D+00
 HarFok:  IExCor=  402 AccDes= 0.00D+00 IRadAn=         0 IDoV= 1
 ScaDFX=  1.000000  1.000000  1.000000  1.000000
 FoFCou: FMM=F IPFlag=           0 FMFlag=      100000 FMFlg1=           0
         NFxFlg=           0 DoJE=T BraDBF=F KetDBF=T FulRan=T
         Omega=  0.000000  0.000000  1.000000  0.000000  0.000000 ICntrl=     500 IOpCl=  0
         NMat0=    1 NMatS0=    1 NMatT0=    0 NMatD0=    1 NMtDS0=    0 NMtDT0=    0
         I1Cent=           4 NGrid=           0.
 Petite list used in FoFCou.
 Initial guess orbital symmetries:
       Occupied  (A) (A) (A) (A) (A) (A) (A) (A) (A) (A) (A) (A)
                 (A) (A) (A) (A) (A) (A) (A) (A) (A) (A) (A) (A)
                 (A) (A) (A) (A) (A) (A) (A) (A) (A) (A) (A) (A)
                 (A) (A) (A) (A) (A) (A) (A) (A) (A) (A) (A) (A)
                 (A) (A) (A) (A) (A) (A) (A) (A) (A) (A) (A) (A)
                 (A) (A) (A) (A) (A) (A) (A) (A) (A) (A) (A) (A)
                 (A) (A) (A) (A) (A) (A) (A) (A) (A) (A) (A) (A)
                 (A) (A) (A) (A) (A) (A) (A)
       Virtual   (A) (A) (A) (A) (A) (A) (A) (A) (A) (A) (A) (A)
                 (A) (A) (A) (A) (A) (A) (A) (A) (A) (A) (A) (A)
                 (A) (A) (A) (A) (A) (A) (A) (A) (A) (A) (A) (A)
                 (A) (A) (A) (A) (A) (A) (A) (A) (A) (A) (A) (A)
                 (A) (A) (A) (A) (A) (A) (A) (A) (A) (A) (A) (A)
                 (A) (A) (A) (A) (A) (A) (A) (A) (A) (A) (A) (A)
                 (A) (A) (A) (A) (A) (A) (A) (A) (A) (A) (A) (A)
                 (A) (A) (A) (A) (A) (A) (A) (A) (A) (A) (A) (A)
                 (A) (A) (A) (A) (A) (A) (A) (A) (A) (A) (A) (A)
                 (A) (A) (A) (A) (A) (A) (A) (A) (A) (A) (A) (A)
                 (A) (A) (A) (A) (A) (A) (A) (A) (A) (A) (A) (A)
                 (A) (A) (A) (A) (A) (A) (A) (A) (A) (A) (A) (A)
                 (A) (A) (A) (A) (A) (A) (A) (A) (A) (A) (A) (A)
                 (A) (A) (A) (A) (A) (A) (A) (A) (A) (A) (A) (A)
                 (A) (A) (A) (A) (A) (A) (A) (A) (A) (A) (A) (A)
                 (A) (A) (A) (A) (A) (A) (A) (A) (A) (A) (A) (A)
                 (A) (A) (A) (A) (A) (A) (A) (A) (A) (A) (A) (A)
                 (A) (A) (A) (A) (A) (A) (A) (A) (A) (A) (A) (A)
                 (A) (A) (A) (A) (A) (A) (A) (A) (A) (A) (A) (A)
                 (A) (A) (A) (A) (A) (A) (A) (A) (A) (A) (A) (A)
                 (A) (A) (A) (A) (A) (A) (A) (A) (A) (A) (A) (A)
                 (A) (A) (A) (A) (A) (A) (A) (A) (A) (A) (A) (A)
                 (A) (A) (A) (A) (A) (A) (A) (A) (A) (A) (A) (A)
                 (A) (A) (A) (A) (A) (A) (A) (A) (A) (A) (A) (A)
                 (A) (A) (A) (A) (A) (A) (A) (A) (A) (A) (A) (A)
                 (A) (A) (A) (A) (A) (A) (A) (A) (A) (A) (A) (A)
                 (A) (A) (A) (A) (A) (A) (A) (A) (A) (A) (A) (A)
                 (A) (A) (A) (A) (A) (A) (A) (A) (A) (A) (A) (A)
                 (A) (A) (A) (A) (A) (A) (A) (A) (A) (A) (A) (A)
                 (A) (A) (A) (A) (A) (A) (A) (A) (A) (A) (A) (A)
                 (A) (A) (A) (A) (A) (A) (A) (A) (A) (A) (A) (A)
                 (A) (A) (A) (A) (A) (A) (A) (A) (A) (A) (A) (A)
                 (A) (A) (A) (A) (A) (A) (A) (A) (A) (A) (A) (A)
                 (A) (A) (A) (A) (A) (A) (A) (A) (A) (A) (A) (A)
                 (A) (A) (A) (A) (A) (A) (A) (A) (A) (A) (A) (A)
                 (A) (A) (A) (A) (A) (A) (A) (A) (A) (A) (A) (A)
                 (A) (A) (A) (A) (A) (A) (A) (A) (A) (A) (A) (A)
                 (A) (A) (A) (A) (A) (A) (A) (A) (A) (A) (A) (A)
 The electronic state of the initial guess is 1-A.
 Requested convergence on RMS density matrix=1.00D-08 within 128 cycles.
 Requested convergence on MAX density matrix=1.00D-06.
 Requested convergence on             energy=1.00D-06.
 No special actions if energy rises.
 SCF Done:  E(RB3LYP) =  -1297.92381585     A.U. after   14 cycles
             Convg  =    0.2691D-08             -V/T =  2.0086
 Range of M.O.s used for correlation:     1   547
 NBasis=   547 NAE=    91 NBE=    91 NFC=     0 NFV=     0
 NROrb=    547 NOA=    91 NOB=    91 NVA=   456 NVB=   456

 **** Warning!!: The largest alpha MO coefficient is  0.71358914D+02

          Differentiating once with respect to electric field.
                with respect to dipole field.
          Electric field/nuclear overlap derivatives assumed to be zero.
          There are     3 degrees of freedom in the 1st order CPHF.  IDoFFX=0.
      3 vectors produced by pass  0 Test12= 1.38D-12 3.33D-08 XBig12= 1.20D+02 1.18D+00.
 AX will form     3 AO Fock derivatives at one time.
      3 vectors produced by pass  1 Test12= 1.38D-12 3.33D-08 XBig12= 2.23D+01 3.58D-01.
      3 vectors produced by pass  2 Test12= 1.38D-12 3.33D-08 XBig12= 9.07D+00 2.67D-01.
      3 vectors produced by pass  3 Test12= 1.38D-12 3.33D-08 XBig12= 1.01D+00 8.65D-02.
      3 vectors produced by pass  4 Test12= 1.38D-12 3.33D-08 XBig12= 3.15D-01 5.21D-02.
      3 vectors produced by pass  5 Test12= 1.38D-12 3.33D-08 XBig12= 5.94D-02 1.95D-02.
      3 vectors produced by pass  6 Test12= 1.38D-12 3.33D-08 XBig12= 2.10D-02 1.52D-02.
      3 vectors produced by pass  7 Test12= 1.38D-12 3.33D-08 XBig12= 2.58D-03 5.63D-03.
      3 vectors produced by pass  8 Test12= 1.38D-12 3.33D-08 XBig12= 4.81D-04 1.84D-03.
      3 vectors produced by pass  9 Test12= 1.38D-12 3.33D-08 XBig12= 1.31D-04 1.14D-03.
      3 vectors produced by pass 10 Test12= 1.38D-12 3.33D-08 XBig12= 4.01D-05 4.18D-04.
      3 vectors produced by pass 11 Test12= 1.38D-12 3.33D-08 XBig12= 7.82D-06 2.24D-04.
      3 vectors produced by pass 12 Test12= 1.38D-12 3.33D-08 XBig12= 7.79D-07 6.10D-05.
      3 vectors produced by pass 13 Test12= 1.38D-12 3.33D-08 XBig12= 2.03D-07 3.95D-05.
      3 vectors produced by pass 14 Test12= 1.38D-12 3.33D-08 XBig12= 4.90D-08 2.02D-05.
      3 vectors produced by pass 15 Test12= 1.38D-12 3.33D-08 XBig12= 8.55D-09 8.69D-06.
      3 vectors produced by pass 16 Test12= 1.38D-12 3.33D-08 XBig12= 1.74D-09 3.77D-06.
      3 vectors produced by pass 17 Test12= 1.38D-12 3.33D-08 XBig12= 6.65D-11 7.94D-07.
      3 vectors produced by pass 18 Test12= 1.38D-12 3.33D-08 XBig12= 2.09D-11 2.55D-07.
      3 vectors produced by pass 19 Test12= 1.38D-12 3.33D-08 XBig12= 3.14D-11 6.27D-07.
      2 vectors produced by pass 20 Test12= 1.38D-12 3.33D-08 XBig12= 1.06D-11 2.72D-07.
      2 vectors produced by pass 21 Test12= 1.38D-12 3.33D-08 XBig12= 3.62D-12 1.63D-07.
      2 vectors produced by pass 22 Test12= 1.38D-12 3.33D-08 XBig12= 6.55D-13 7.77D-08.
      1 vectors produced by pass 23 Test12= 1.38D-12 3.33D-08 XBig12= 1.51D-13 3.71D-08.
 Inverted reduced A of dimension    67 with in-core refinement.
 End of Minotr Frequency-dependent properties file   721 does not exist.
 End of Minotr Frequency-dependent properties file   722 does not exist.
 Symmetrizing basis deriv contribution to polar:
 IMax=3 JMax=2 DiffMx= 0.00D+00
 G2DrvN: will do    23 centers at a time, making    2 passes doing MaxLOS=2.
 Calling FoFCou, ICntrl=  3107 FMM=F I1Cent=   0 AccDes= 0.00D+00.
 Calling FoFCou, ICntrl=  3107 FMM=F I1Cent=   0 AccDes= 0.00D+00.
 FoFDir/FoFCou used for L=0 through L=2.
 End of G2Drv Frequency-dependent properties file   721 does not exist.
 End of G2Drv Frequency-dependent properties file   722 does not exist.
          IDoAtm=111111111111111111111111111111111111111111111
          Differentiating once with respect to electric field.
                with respect to dipole field.
          Differentiating once with respect to nuclear coordinates.
          There are   138 degrees of freedom in the 1st order CPHF.  IDoFFX=5.
 Will reuse    3 saved solutions.
    135 vectors produced by pass  0 Test12= 4.15D-14 1.00D-09 XBig12= 2.45D-01 1.17D-01.
 AX will form    68 AO Fock derivatives at one time.
    135 vectors produced by pass  1 Test12= 4.15D-14 1.00D-09 XBig12= 3.83D-02 2.21D-02.
    132 vectors produced by pass  2 Test12= 4.15D-14 1.00D-09 XBig12= 2.04D-04 1.44D-03.
    132 vectors produced by pass  3 Test12= 4.15D-14 1.00D-09 XBig12= 6.74D-07 6.85D-05.
    132 vectors produced by pass  4 Test12= 4.15D-14 1.00D-09 XBig12= 1.41D-09 2.24D-06.
    132 vectors produced by pass  5 Test12= 4.15D-14 1.00D-09 XBig12= 4.46D-12 2.60D-07.
     79 vectors produced by pass  6 Test12= 4.15D-14 1.00D-09 XBig12= 1.57D-13 2.71D-08.
 Inverted reduced A of dimension   877 with in-core refinement.
 Isotropic polarizability for W=    0.000000      186.79 Bohr**3.
 End of Minotr Frequency-dependent properties file   721 does not exist.
 End of Minotr Frequency-dependent properties file   722 does not exist.

 **********************************************************************

            Population analysis using the SCF density.

 **********************************************************************

 Orbital symmetries:
       Occupied  (A) (A) (A) (A) (A) (A) (A) (A) (A) (A) (A) (A)
                 (A) (A) (A) (A) (A) (A) (A) (A) (A) (A) (A) (A)
                 (A) (A) (A) (A) (A) (A) (A) (A) (A) (A) (A) (A)
                 (A) (A) (A) (A) (A) (A) (A) (A) (A) (A) (A) (A)
                 (A) (A) (A) (A) (A) (A) (A) (A) (A) (A) (A) (A)
                 (A) (A) (A) (A) (A) (A) (A) (A) (A) (A) (A) (A)
                 (A) (A) (A) (A) (A) (A) (A) (A) (A) (A) (A) (A)
                 (A) (A) (A) (A) (A) (A) (A)
       Virtual   (A) (A) (A) (A) (A) (A) (A) (A) (A) (A) (A) (A)
                 (A) (A) (A) (A) (A) (A) (A) (A) (A) (A) (A) (A)
                 (A) (A) (A) (A) (A) (A) (A) (A) (A) (A) (A) (A)
                 (A) (A) (A) (A) (A) (A) (A) (A) (A) (A) (A) (A)
                 (A) (A) (A) (A) (A) (A) (A) (A) (A) (A) (A) (A)
                 (A) (A) (A) (A) (A) (A) (A) (A) (A) (A) (A) (A)
                 (A) (A) (A) (A) (A) (A) (A) (A) (A) (A) (A) (A)
                 (A) (A) (A) (A) (A) (A) (A) (A) (A) (A) (A) (A)
                 (A) (A) (A) (A) (A) (A) (A) (A) (A) (A) (A) (A)
                 (A) (A) (A) (A) (A) (A) (A) (A) (A) (A) (A) (A)
                 (A) (A) (A) (A) (A) (A) (A) (A) (A) (A) (A) (A)
                 (A) (A) (A) (A) (A) (A) (A) (A) (A) (A) (A) (A)
                 (A) (A) (A) (A) (A) (A) (A) (A) (A) (A) (A) (A)
                 (A) (A) (A) (A) (A) (A) (A) (A) (A) (A) (A) (A)
                 (A) (A) (A) (A) (A) (A) (A) (A) (A) (A) (A) (A)
                 (A) (A) (A) (A) (A) (A) (A) (A) (A) (A) (A) (A)
                 (A) (A) (A) (A) (A) (A) (A) (A) (A) (A) (A) (A)
                 (A) (A) (A) (A) (A) (A) (A) (A) (A) (A) (A) (A)
                 (A) (A) (A) (A) (A) (A) (A) (A) (A) (A) (A) (A)
                 (A) (A) (A) (A) (A) (A) (A) (A) (A) (A) (A) (A)
                 (A) (A) (A) (A) (A) (A) (A) (A) (A) (A) (A) (A)
                 (A) (A) (A) (A) (A) (A) (A) (A) (A) (A) (A) (A)
                 (A) (A) (A) (A) (A) (A) (A) (A) (A) (A) (A) (A)
                 (A) (A) (A) (A) (A) (A) (A) (A) (A) (A) (A) (A)
                 (A) (A) (A) (A) (A) (A) (A) (A) (A) (A) (A) (A)
                 (A) (A) (A) (A) (A) (A) (A) (A) (A) (A) (A) (A)
                 (A) (A) (A) (A) (A) (A) (A) (A) (A) (A) (A) (A)
                 (A) (A) (A) (A) (A) (A) (A) (A) (A) (A) (A) (A)
                 (A) (A) (A) (A) (A) (A) (A) (A) (A) (A) (A) (A)
                 (A) (A) (A) (A) (A) (A) (A) (A) (A) (A) (A) (A)
                 (A) (A) (A) (A) (A) (A) (A) (A) (A) (A) (A) (A)
                 (A) (A) (A) (A) (A) (A) (A) (A) (A) (A) (A) (A)
                 (A) (A) (A) (A) (A) (A) (A) (A) (A) (A) (A) (A)
                 (A) (A) (A) (A) (A) (A) (A) (A) (A) (A) (A) (A)
                 (A) (A) (A) (A) (A) (A) (A) (A) (A) (A) (A) (A)
                 (A) (A) (A) (A) (A) (A) (A) (A) (A) (A) (A) (A)
                 (A) (A) (A) (A) (A) (A) (A) (A) (A) (A) (A) (A)
                 (A) (A) (A) (A) (A) (A) (A) (A) (A) (A) (A) (A)
 The electronic state is 1-A.
 Alpha  occ. eigenvalues --  -19.21259 -19.19653 -19.19003 -19.18823 -19.18365
 Alpha  occ. eigenvalues --  -19.18304 -19.17197 -19.16787 -19.15981 -19.15782
 Alpha  occ. eigenvalues --  -19.14213 -10.31864 -10.30722 -10.27207 -10.26563
 Alpha  occ. eigenvalues --  -10.26272 -10.26128 -10.25543 -10.25353 -10.24935
 Alpha  occ. eigenvalues --  -10.24918 -10.24488 -10.24423  -1.11513  -1.09527
 Alpha  occ. eigenvalues --   -1.06637  -1.05035  -1.04124  -1.03481  -1.03157
 Alpha  occ. eigenvalues --   -1.02818  -1.01716  -1.01120  -0.99966  -0.83216
 Alpha  occ. eigenvalues --   -0.81915  -0.79898  -0.78739  -0.71717  -0.70427
 Alpha  occ. eigenvalues --   -0.67768  -0.64801  -0.63449  -0.63091  -0.61997
 Alpha  occ. eigenvalues --   -0.61508  -0.56867  -0.56375  -0.55614  -0.55476
 Alpha  occ. eigenvalues --   -0.54472  -0.53960  -0.52883  -0.51569  -0.51521
 Alpha  occ. eigenvalues --   -0.50557  -0.50207  -0.49709  -0.49111  -0.47022
 Alpha  occ. eigenvalues --   -0.45899  -0.45195  -0.44807  -0.43974  -0.43186
 Alpha  occ. eigenvalues --   -0.43039  -0.41793  -0.41646  -0.40874  -0.40426
 Alpha  occ. eigenvalues --   -0.39299  -0.37672  -0.37361  -0.37021  -0.36157
 Alpha  occ. eigenvalues --   -0.36034  -0.35492  -0.34826  -0.34225  -0.33716
 Alpha  occ. eigenvalues --   -0.32378  -0.32008  -0.31270  -0.30697  -0.30037
 Alpha  occ. eigenvalues --   -0.29533  -0.29081  -0.28486  -0.27940  -0.27358
 Alpha  occ. eigenvalues --   -0.26614
 Alpha virt. eigenvalues --   -0.02589  -0.01860  -0.01716  -0.00723  -0.00049
 Alpha virt. eigenvalues --    0.00846   0.01559   0.02031   0.02450   0.03439
 Alpha virt. eigenvalues --    0.03985   0.04301   0.04569   0.05255   0.05476
 Alpha virt. eigenvalues --    0.06102   0.06594   0.06783   0.07485   0.08089
 Alpha virt. eigenvalues --    0.08445   0.08458   0.09082   0.09769   0.09985
 Alpha virt. eigenvalues --    0.10683   0.10818   0.11047   0.11414   0.11913
 Alpha virt. eigenvalues --    0.12279   0.12519   0.13301   0.13670   0.14001
 Alpha virt. eigenvalues --    0.14088   0.14291   0.14717   0.14995   0.15190
 Alpha virt. eigenvalues --    0.15475   0.15814   0.16301   0.16317   0.16677
 Alpha virt. eigenvalues --    0.17069   0.17422   0.17709   0.18128   0.18383
 Alpha virt. eigenvalues --    0.18811   0.19201   0.19491   0.19771   0.20236
 Alpha virt. eigenvalues --    0.20426   0.20669   0.20992   0.21269   0.21354
 Alpha virt. eigenvalues --    0.21804   0.22541   0.22699   0.23041   0.23134
 Alpha virt. eigenvalues --    0.23331   0.23792   0.24201   0.24522   0.24705
 Alpha virt. eigenvalues --    0.24859   0.25100   0.25200   0.25522   0.25831
 Alpha virt. eigenvalues --    0.26047   0.26490   0.26523   0.27047   0.27359
 Alpha virt. eigenvalues --    0.27493   0.27824   0.27959   0.28517   0.28704
 Alpha virt. eigenvalues --    0.29445   0.29647   0.29849   0.29938   0.30288
 Alpha virt. eigenvalues --    0.30889   0.31308   0.31416   0.31743   0.32324
 Alpha virt. eigenvalues --    0.32372   0.32791   0.33063   0.33439   0.33936
 Alpha virt. eigenvalues --    0.34585   0.34887   0.35245   0.35415   0.36163
 Alpha virt. eigenvalues --    0.36415   0.36601   0.36896   0.37172   0.37620
 Alpha virt. eigenvalues --    0.38034   0.38315   0.38857   0.39376   0.40086
 Alpha virt. eigenvalues --    0.40253   0.40780   0.41094   0.41243   0.42028
 Alpha virt. eigenvalues --    0.42182   0.42945   0.43376   0.43889   0.44175
 Alpha virt. eigenvalues --    0.45225   0.45829   0.46241   0.46631   0.47081
 Alpha virt. eigenvalues --    0.48124   0.49140   0.49345   0.49919   0.50746
 Alpha virt. eigenvalues --    0.51437   0.51833   0.56966   0.61729   0.64799
 Alpha virt. eigenvalues --    0.65546   0.65889   0.67146   0.67925   0.69249
 Alpha virt. eigenvalues --    0.70902   0.71115   0.72062   0.73657   0.74414
 Alpha virt. eigenvalues --    0.74915   0.75905   0.76485   0.76624   0.78529
 Alpha virt. eigenvalues --    0.79304   0.79834   0.81063   0.82149   0.82578
 Alpha virt. eigenvalues --    0.85210   0.86614   0.87664   0.88506   0.89767
 Alpha virt. eigenvalues --    0.90944   0.92812   0.93770   0.94655   0.95110
 Alpha virt. eigenvalues --    0.96789   0.97535   0.98674   0.99338   0.99876
 Alpha virt. eigenvalues --    1.00802   1.02608   1.02911   1.03833   1.04138
 Alpha virt. eigenvalues --    1.04802   1.04951   1.05623   1.06566   1.07130
 Alpha virt. eigenvalues --    1.08084   1.08431   1.09567   1.09780   1.10359
 Alpha virt. eigenvalues --    1.10883   1.12167   1.13077   1.13867   1.14837
 Alpha virt. eigenvalues --    1.15821   1.18504   1.18817   1.19305   1.20094
 Alpha virt. eigenvalues --    1.21392   1.23315   1.23828   1.24737   1.25868
 Alpha virt. eigenvalues --    1.26644   1.27113   1.27554   1.28040   1.28908
 Alpha virt. eigenvalues --    1.29145   1.29718   1.30341   1.30639   1.31234
 Alpha virt. eigenvalues --    1.31758   1.32611   1.33083   1.33950   1.34647
 Alpha virt. eigenvalues --    1.35568   1.36291   1.36675   1.37042   1.38487
 Alpha virt. eigenvalues --    1.39203   1.40310   1.41110   1.41888   1.42215
 Alpha virt. eigenvalues --    1.43666   1.44382   1.45618   1.46815   1.47654
 Alpha virt. eigenvalues --    1.48641   1.49047   1.50772   1.51352   1.52341
 Alpha virt. eigenvalues --    1.54338   1.54973   1.56010   1.56286   1.57271
 Alpha virt. eigenvalues --    1.58263   1.58543   1.59536   1.60459   1.61797
 Alpha virt. eigenvalues --    1.62280   1.62884   1.63830   1.64173   1.65238
 Alpha virt. eigenvalues --    1.66439   1.67484   1.68114   1.69221   1.69829
 Alpha virt. eigenvalues --    1.70475   1.71517   1.71655   1.71732   1.73057
 Alpha virt. eigenvalues --    1.74414   1.74590   1.76330   1.77304   1.77464
 Alpha virt. eigenvalues --    1.78076   1.79511   1.79620   1.80542   1.82165
 Alpha virt. eigenvalues --    1.82874   1.84085   1.84435   1.85135   1.85505
 Alpha virt. eigenvalues --    1.86959   1.87712   1.88064   1.89035   1.89658
 Alpha virt. eigenvalues --    1.90341   1.91016   1.91602   1.92326   1.94922
 Alpha virt. eigenvalues --    1.95494   1.96656   1.97172   1.97847   1.98970
 Alpha virt. eigenvalues --    1.99931   2.00611   2.00934   2.02675   2.03157
 Alpha virt. eigenvalues --    2.03839   2.04508   2.05212   2.06695   2.07081
 Alpha virt. eigenvalues --    2.08602   2.09285   2.09878   2.10635   2.11442
 Alpha virt. eigenvalues --    2.12054   2.12307   2.13636   2.15289   2.16595
 Alpha virt. eigenvalues --    2.17646   2.18535   2.18846   2.19567   2.20380
 Alpha virt. eigenvalues --    2.21321   2.24002   2.25624   2.27211   2.28039
 Alpha virt. eigenvalues --    2.28767   2.30174   2.32174   2.33364   2.34830
 Alpha virt. eigenvalues --    2.36218   2.37259   2.37649   2.38787   2.39914
 Alpha virt. eigenvalues --    2.41039   2.41543   2.41672   2.42891   2.44381
 Alpha virt. eigenvalues --    2.45743   2.47255   2.47550   2.48449   2.49161
 Alpha virt. eigenvalues --    2.50451   2.52756   2.53851   2.54153   2.55785
 Alpha virt. eigenvalues --    2.56780   2.57818   2.59095   2.59873   2.60852
 Alpha virt. eigenvalues --    2.62149   2.63180   2.63728   2.64430   2.64857
 Alpha virt. eigenvalues --    2.65483   2.66612   2.67106   2.68329   2.69661
 Alpha virt. eigenvalues --    2.71101   2.72819   2.73302   2.73382   2.73696
 Alpha virt. eigenvalues --    2.75157   2.76971   2.78633   2.79640   2.80834
 Alpha virt. eigenvalues --    2.81841   2.82348   2.83143   2.84445   2.85734
 Alpha virt. eigenvalues --    2.87088   2.87729   2.88118   2.89224   2.89980
 Alpha virt. eigenvalues --    2.91444   2.91833   2.92409   2.92856   2.93937
 Alpha virt. eigenvalues --    2.94475   2.95203   2.97557   2.98870   2.99559
 Alpha virt. eigenvalues --    3.01443   3.03459   3.04066   3.04783   3.05186
 Alpha virt. eigenvalues --    3.06680   3.09000   3.09352   3.11256   3.12906
 Alpha virt. eigenvalues --    3.18350   3.19512   3.23132   3.23994   3.29577
 Alpha virt. eigenvalues --    3.33008   3.35884   3.37118   3.39216   3.40422
 Alpha virt. eigenvalues --    3.41423   3.43451   3.45343   3.48085   3.49143
 Alpha virt. eigenvalues --    3.49749   3.50953   3.51448   3.53403   3.53649
 Alpha virt. eigenvalues --    3.56377   3.57374   3.60273   3.60371   3.63875
 Alpha virt. eigenvalues --    3.64707   3.66116   3.74711   4.29140   4.33078
 Alpha virt. eigenvalues --    4.35600   4.36742   4.42340   4.44371   4.45053
 Alpha virt. eigenvalues --    4.47513   4.50061   4.52097   4.53492   4.56056
 Alpha virt. eigenvalues --    4.57599   4.58244   4.60112   4.66648   4.73291
 Alpha virt. eigenvalues --    4.80637   4.83500   4.87277   4.89685   4.94343
 Alpha virt. eigenvalues --    4.96402
          Condensed to atoms (all electrons):
              1          2          3          4          5          6
     1  O    8.260634   0.111154  -0.120250  -0.021970   0.030435   0.225589
     2  C    0.111154  11.937367  -2.553120   0.083823  -0.062922  -4.946921
     3  C   -0.120250  -2.553120  11.470814   0.343687   0.021453  -0.191800
     4  O   -0.021970   0.083823   0.343687   8.228211   0.189036  -0.323019
     5  H    0.030435  -0.062922   0.021453   0.189036   0.445148  -0.014030
     6  C    0.225589  -4.946921  -0.191800  -0.323019  -0.014030  16.415285
     7  O   -0.001926   0.061156  -0.241855   0.021350  -0.001024   0.296863
     8  H    0.000017  -0.019110   0.031800  -0.001457   0.000000   0.061728
     9  C   -0.030213   0.827339  -0.689235   0.010849  -0.003867  -0.075173
    10  O    0.014002   0.028657   0.007969   0.000094  -0.000048   0.000025
    11  H   -0.000382  -0.009164  -0.001390   0.000003   0.000000  -0.000332
    12  C   -0.107532  -2.911141   0.470918  -0.014550   0.019050   0.852423
    13  O    0.006318   0.058606  -0.062765   0.000311  -0.000476  -0.085834
    14  C   -0.033614   2.321087  -1.302474  -0.003210   0.035001  -5.083693
    15  O    0.000772  -0.072743   0.004296  -0.001482   0.000143   0.278071
    16  C    0.003454   0.184780  -0.609912   0.000028   0.001816  -0.515458
    17  C    0.000173   0.011925  -0.044123   0.001337   0.000073  -0.095104
    18  O    0.000009   0.009896  -0.001587  -0.000014   0.000000   0.004710
    19  H   -0.000004  -0.006351   0.011113  -0.000019   0.000000   0.010982
    20  C    0.000129  -0.000913  -0.018842  -0.000136   0.000005   0.117112
    21  O    0.000000   0.000111  -0.000111   0.000000   0.000000  -0.000594
    22  H    0.000000   0.000004  -0.000002   0.000000   0.000000  -0.000074
    23  C    0.000104   0.012584  -0.060946  -0.000020  -0.000010  -0.176140
    24  O    0.000008   0.000020  -0.007949  -0.000058  -0.000001   0.023990
    25  H    0.000000   0.000107   0.000402   0.000002   0.000000  -0.006230
    26  C   -0.000139   0.048144  -0.085844   0.001156   0.000063  -0.395317
    27  O    0.000000  -0.000144   0.000799   0.000001   0.000000   0.007780
    28  C   -0.000003  -0.003301   0.003627   0.000007   0.000000   0.022642
    29  O    0.000000   0.000021   0.000040   0.000000   0.000000  -0.000697
    30  H    0.000000   0.000000   0.000001   0.000000   0.000000   0.000010
    31  H    0.229467   0.094857  -0.036804   0.002002  -0.003887  -0.008100
    32  H    0.000480  -0.010687  -0.004656   0.000023   0.000000   0.001253
    33  H    0.000298  -0.002833  -0.012047  -0.000013   0.000001   0.016786
    34  H    0.006465   0.081519  -0.126701   0.000701  -0.000024   0.012479
    35  H   -0.047218   0.542327  -0.198554   0.005041  -0.001444  -0.009189
    36  H   -0.015034   0.299057   0.183322  -0.039184   0.001078  -0.490537
    37  H   -0.001406   0.146696  -0.240401   0.012076   0.000073   0.160585
    38  H   -0.000119   0.058919  -0.087697   0.000369  -0.000005  -0.156743
    39  H    0.000000   0.000013  -0.000120   0.000000   0.000000  -0.000133
    40  H    0.000000  -0.000126   0.001638   0.000002   0.000000   0.007677
    41  H    0.000000  -0.000214   0.001175   0.000000   0.000000   0.003781
    42  H   -0.000001  -0.000582   0.003532   0.000005   0.000000   0.002524
    43  H    0.000000  -0.000582   0.001112   0.000000   0.000000   0.003473
    44  H    0.000000  -0.000028   0.000189   0.000000   0.000000   0.000614
    45  H    0.000000  -0.000010   0.000041   0.000000   0.000000   0.000277
              7          8          9         10         11         12
     1  O   -0.001926   0.000017  -0.030213   0.014002  -0.000382  -0.107532
     2  C    0.061156  -0.019110   0.827339   0.028657  -0.009164  -2.911141
     3  C   -0.241855   0.031800  -0.689235   0.007969  -0.001390   0.470918
     4  O    0.021350  -0.001457   0.010849   0.000094   0.000003  -0.014550
     5  H   -0.001024   0.000000  -0.003867  -0.000048   0.000000   0.019050
     6  C    0.296863   0.061728  -0.075173   0.000025  -0.000332   0.852423
     7  O    8.154597   0.196351   0.001772   0.000022   0.000000   0.029778
     8  H    0.196351   0.391585   0.000064   0.000000   0.000000   0.003281
     9  C    0.001772   0.000064   8.120900   0.215877   0.011581  -3.204655
    10  O    0.000022   0.000000   0.215877   8.294613   0.207824  -0.143084
    11  H    0.000000   0.000000   0.011581   0.207824   0.437982   0.022050
    12  C    0.029778   0.003281  -3.204655  -0.143084   0.022050  12.812996
    13  O    0.008619   0.001901   0.107555  -0.002067  -0.001199  -0.295438
    14  C   -0.027171  -0.056748  -0.296295  -0.003153  -0.003344  -1.066010
    15  O   -0.025663   0.020611  -0.015944  -0.000318   0.000003  -0.021923
    16  C    0.023437  -0.002863  -0.052223  -0.001692   0.000063  -0.011720
    17  C    0.001883  -0.001419  -0.065193  -0.000768  -0.000436  -0.151180
    18  O    0.000026  -0.000019  -0.002225   0.000005  -0.000019  -0.027070
    19  H   -0.000014  -0.000008  -0.005446  -0.000086  -0.000025   0.009609
    20  C    0.002612   0.001104   0.015143   0.000394   0.000095  -0.059169
    21  O   -0.000005   0.000000  -0.000098   0.000001   0.000000  -0.000285
    22  H    0.000000   0.000000   0.000000   0.000000   0.000000   0.000055
    23  C    0.020878   0.008057   0.004655   0.000001   0.000000  -0.000119
    24  O   -0.010353   0.005981   0.000100   0.000000   0.000000  -0.002183
    25  H    0.001030  -0.001292  -0.000013   0.000000   0.000000  -0.000092
    26  C   -0.010656  -0.022950   0.017083  -0.000046   0.000008  -0.027853
    27  O    0.000229  -0.000064  -0.000124   0.000000   0.000000  -0.001019
    28  C   -0.000373   0.000031  -0.003846  -0.000018   0.000000   0.010682
    29  O    0.000000  -0.000001  -0.000009   0.000000   0.000000   0.000123
    30  H    0.000000   0.000000   0.000000   0.000000   0.000000  -0.000003
    31  H    0.000008   0.000000  -0.001449  -0.000888   0.000013  -0.029761
    32  H   -0.000013   0.000000   0.404532  -0.034251  -0.016587  -0.026934
    33  H   -0.000005   0.000000   0.690817  -0.068569   0.002768  -0.328831
    34  H   -0.000089   0.000002   0.127195   0.008073   0.000006   0.081012
    35  H    0.000136   0.000001   0.053518   0.000137  -0.000001  -0.195150
    36  H    0.009040  -0.000236   0.032180   0.000083   0.000001  -0.054691
    37  H   -0.038937  -0.004097   0.015604   0.000025   0.000000   0.007058
    38  H    0.005859  -0.001073   0.011869   0.000123   0.000000  -0.007594
    39  H   -0.000209   0.000120  -0.000002   0.000000   0.000000  -0.000042
    40  H    0.000620   0.000319   0.000019   0.000000   0.000000   0.000542
    41  H   -0.000019   0.000009   0.000052   0.000000   0.000000   0.000148
    42  H   -0.000101  -0.000068  -0.000497   0.000001   0.000000   0.002415
    43  H   -0.000006   0.000001  -0.000341  -0.000001   0.000000   0.001579
    44  H    0.000000   0.000000  -0.000144   0.000000   0.000000   0.000715
    45  H    0.000000   0.000000  -0.000005   0.000000   0.000000   0.000022
             13         14         15         16         17         18
     1  O    0.006318  -0.033614   0.000772   0.003454   0.000173   0.000009
     2  C    0.058606   2.321087  -0.072743   0.184780   0.011925   0.009896
     3  C   -0.062765  -1.302474   0.004296  -0.609912  -0.044123  -0.001587
     4  O    0.000311  -0.003210  -0.001482   0.000028   0.001337  -0.000014
     5  H   -0.000476   0.035001   0.000143   0.001816   0.000073   0.000000
     6  C   -0.085834  -5.083693   0.278071  -0.515458  -0.095104   0.004710
     7  O    0.008619  -0.027171  -0.025663   0.023437   0.001883   0.000026
     8  H    0.001901  -0.056748   0.020611  -0.002863  -0.001419  -0.000019
     9  C    0.107555  -0.296295  -0.015944  -0.052223  -0.065193  -0.002225
    10  O   -0.002067  -0.003153  -0.000318  -0.001692  -0.000768   0.000005
    11  H   -0.001199  -0.003344   0.000003   0.000063  -0.000436  -0.000019
    12  C   -0.295438  -1.066010  -0.021923  -0.011720  -0.151180  -0.027070
    13  O    8.627553   0.169752  -0.090014   0.167693  -0.106161   0.028266
    14  C    0.169752  12.315474  -0.011017  -0.463054  -0.220097  -0.021954
    15  O   -0.090014  -0.011017   8.397604  -0.230364   0.119059   0.003516
    16  C    0.167693  -0.463054  -0.230364  16.631232  -3.035637  -0.055200
    17  C   -0.106161  -0.220097   0.119059  -3.035637   8.883092   0.383014
    18  O    0.028266  -0.021954   0.003516  -0.055200   0.383014   8.237138
    19  H    0.009674   0.003979   0.019512  -0.094317  -0.001645   0.184150
    20  C   -0.024027  -0.398930   0.094925  -3.033155   0.116131  -0.176689
    21  O    0.000247  -0.001058  -0.000917  -0.048790  -0.126269   0.013630
    22  H   -0.000003  -0.001062   0.000031  -0.010538   0.021136  -0.000514
    23  C    0.028057   0.046962  -0.056470   0.625087  -0.521528   0.009035
    24  O   -0.006400   0.033293  -0.023763   0.013268  -0.000800   0.000163
    25  H    0.000076  -0.003139   0.002836  -0.015714   0.000492   0.000000
    26  C   -0.076176  -1.165527   0.041628  -5.266045   1.181796   0.008158
    27  O    0.000565  -0.013535   0.008811  -0.035813  -0.101266   0.002623
    28  C    0.010064  -0.020810   0.005412   1.186693  -0.337100  -0.000990
    29  O    0.000053  -0.004255   0.000117  -0.054936   0.021857  -0.000776
    30  H    0.000000   0.000461  -0.000005   0.004336   0.007235  -0.000011
    31  H   -0.000519   0.001559  -0.000018   0.000256  -0.000055   0.000000
    32  H   -0.002506   0.004102  -0.000543   0.000734   0.007650  -0.002911
    33  H    0.003649  -0.007685  -0.000672  -0.001832  -0.000849   0.000423
    34  H   -0.031746   0.079121  -0.000312   0.003700   0.005680   0.000464
    35  H    0.012902   0.069088  -0.000483  -0.000041   0.000914   0.000076
    36  H    0.006408   0.255537  -0.000507   0.013994   0.001677   0.000094
    37  H    0.016725   0.128169  -0.014594   0.035790   0.001226   0.000161
    38  H   -0.063717   0.404370  -0.053706   0.057192   0.021561  -0.000250
    39  H   -0.000021   0.000899  -0.000393   0.000389  -0.006243   0.000028
    40  H    0.000255   0.004764   0.009003   0.032463  -0.003457   0.000060
    41  H   -0.000610   0.050521   0.007565   0.075842  -0.029792   0.000189
    42  H    0.000017   0.025387  -0.054609   0.341057  -0.031676   0.000264
    43  H   -0.000432   0.061040  -0.011354   0.123209   0.325769  -0.054689
    44  H    0.000828   0.005138  -0.002097   0.159462  -0.195075   0.006033
    45  H    0.000042   0.007337   0.000109   0.135164  -0.008720  -0.000466
             19         20         21         22         23         24
     1  O   -0.000004   0.000129   0.000000   0.000000   0.000104   0.000008
     2  C   -0.006351  -0.000913   0.000111   0.000004   0.012584   0.000020
     3  C    0.011113  -0.018842  -0.000111  -0.000002  -0.060946  -0.007949
     4  O   -0.000019  -0.000136   0.000000   0.000000  -0.000020  -0.000058
     5  H    0.000000   0.000005   0.000000   0.000000  -0.000010  -0.000001
     6  C    0.010982   0.117112  -0.000594  -0.000074  -0.176140   0.023990
     7  O   -0.000014   0.002612  -0.000005   0.000000   0.020878  -0.010353
     8  H   -0.000008   0.001104   0.000000   0.000000   0.008057   0.005981
     9  C   -0.005446   0.015143  -0.000098   0.000000   0.004655   0.000100
    10  O   -0.000086   0.000394   0.000001   0.000000   0.000001   0.000000
    11  H   -0.000025   0.000095   0.000000   0.000000   0.000000   0.000000
    12  C    0.009609  -0.059169  -0.000285   0.000055  -0.000119  -0.002183
    13  O    0.009674  -0.024027   0.000247  -0.000003   0.028057  -0.006400
    14  C    0.003979  -0.398930  -0.001058  -0.001062   0.046962   0.033293
    15  O    0.019512   0.094925  -0.000917   0.000031  -0.056470  -0.023763
    16  C   -0.094317  -3.033155  -0.048790  -0.010538   0.625087   0.013268
    17  C   -0.001645   0.116131  -0.126269   0.021136  -0.521528  -0.000800
    18  O    0.184150  -0.176689   0.013630  -0.000514   0.009035   0.000163
    19  H    0.356718   0.037096  -0.001312   0.000007  -0.003701   0.000068
    20  C    0.037096   9.703753   0.277203   0.022406  -0.068433  -0.001403
    21  O   -0.001312   0.277203   8.255619   0.209551   0.007623  -0.000004
    22  H    0.000007   0.022406   0.209551   0.405821   0.000054   0.000000
    23  C   -0.003701  -0.068433   0.007623   0.000054   6.891364  -0.142608
    24  O    0.000068  -0.001403  -0.000004   0.000000  -0.142608   8.492038
    25  H    0.000000   0.000366   0.000000   0.000000   0.050941   0.182348
    26  C    0.020009   0.951571   0.038867   0.011193  -1.511655   0.092331
    27  O    0.000017  -0.169790   0.007422  -0.000373  -0.045917   0.005978
    28  C    0.000130  -1.280953  -0.066267  -0.038336  -0.119233   0.013123
    29  O    0.000006  -0.162670  -0.002771   0.017590  -0.001629   0.000119
    30  H    0.000000   0.012441  -0.004993  -0.002089   0.000017  -0.000002
    31  H    0.000000   0.000001   0.000000   0.000000   0.000004   0.000000
    32  H    0.002048  -0.002863  -0.000015   0.000000   0.000001  -0.000001
    33  H   -0.000020   0.000209   0.000000   0.000000   0.000016   0.000000
    34  H    0.000336   0.001180   0.000000   0.000000   0.000309   0.000004
    35  H   -0.000015   0.000021   0.000000   0.000000   0.000103   0.000006
    36  H   -0.000011  -0.000025   0.000000   0.000000   0.000501   0.000026
    37  H   -0.000041   0.000744   0.000000   0.000000   0.008024  -0.000425
    38  H   -0.000306   0.010492   0.000015   0.000000   0.008895   0.000294
    39  H    0.000000   0.001964  -0.000007   0.000000   0.421957  -0.040052
    40  H    0.000001  -0.002419   0.000004   0.000000   0.549898  -0.074656
    41  H    0.000037  -0.031884  -0.000127   0.000004   0.037166   0.008256
    42  H    0.000002   0.014014  -0.000167   0.000000   0.002410  -0.000110
    43  H    0.000754  -0.185844   0.005889  -0.000149   0.020317  -0.000249
    44  H    0.000016   0.290651  -0.036277  -0.004034   0.015244  -0.000036
    45  H   -0.000003  -0.177450   0.007026  -0.000470  -0.001156  -0.000018
             25         26         27         28         29         30
     1  O    0.000000  -0.000139   0.000000  -0.000003   0.000000   0.000000
     2  C    0.000107   0.048144  -0.000144  -0.003301   0.000021   0.000000
     3  C    0.000402  -0.085844   0.000799   0.003627   0.000040   0.000001
     4  O    0.000002   0.001156   0.000001   0.000007   0.000000   0.000000
     5  H    0.000000   0.000063   0.000000   0.000000   0.000000   0.000000
     6  C   -0.006230  -0.395317   0.007780   0.022642  -0.000697   0.000010
     7  O    0.001030  -0.010656   0.000229  -0.000373   0.000000   0.000000
     8  H   -0.001292  -0.022950  -0.000064   0.000031  -0.000001   0.000000
     9  C   -0.000013   0.017083  -0.000124  -0.003846  -0.000009   0.000000
    10  O    0.000000  -0.000046   0.000000  -0.000018   0.000000   0.000000
    11  H    0.000000   0.000008   0.000000   0.000000   0.000000   0.000000
    12  C   -0.000092  -0.027853  -0.001019   0.010682   0.000123  -0.000003
    13  O    0.000076  -0.076176   0.000565   0.010064   0.000053   0.000000
    14  C   -0.003139  -1.165527  -0.013535  -0.020810  -0.004255   0.000461
    15  O    0.002836   0.041628   0.008811   0.005412   0.000117  -0.000005
    16  C   -0.015714  -5.266045  -0.035813   1.186693  -0.054936   0.004336
    17  C    0.000492   1.181796  -0.101266  -0.337100   0.021857   0.007235
    18  O    0.000000   0.008158   0.002623  -0.000990  -0.000776  -0.000011
    19  H    0.000000   0.020009   0.000017   0.000130   0.000006   0.000000
    20  C    0.000366   0.951571  -0.169790  -1.280953  -0.162670   0.012441
    21  O    0.000000   0.038867   0.007422  -0.066267  -0.002771  -0.004993
    22  H    0.000000   0.011193  -0.000373  -0.038336   0.017590  -0.002089
    23  C    0.050941  -1.511655  -0.045917  -0.119233  -0.001629   0.000017
    24  O    0.182348   0.092331   0.005978   0.013123   0.000119  -0.000002
    25  H    0.433384   0.003801  -0.000389  -0.002328   0.000001   0.000000
    26  C    0.003801  13.292810   0.221826  -0.974407  -0.023635   0.000550
    27  O   -0.000389   0.221826   8.364352   0.149874  -0.051239  -0.003469
    28  C   -0.002328  -0.974407   0.149874   6.258864   0.380873  -0.010951
    29  O    0.000001  -0.023635  -0.051239   0.380873   8.285977   0.233719
    30  H    0.000000   0.000550  -0.003469  -0.010951   0.233719   0.409815
    31  H    0.000000  -0.000007   0.000000   0.000000   0.000000   0.000000
    32  H    0.000000  -0.000198   0.000000   0.000203   0.000000   0.000000
    33  H    0.000000  -0.000244   0.000000  -0.000011   0.000000   0.000000
    34  H    0.000000   0.000535   0.000000  -0.000156   0.000000   0.000000
    35  H    0.000000   0.000031   0.000000  -0.000007   0.000000   0.000000
    36  H    0.000000   0.001035   0.000000  -0.000040   0.000000   0.000000
    37  H    0.000010  -0.001354   0.000001  -0.000176   0.000000   0.000000
    38  H    0.000004   0.020299   0.000122  -0.001882  -0.000001   0.000000
    39  H   -0.014391  -0.028700  -0.011227   0.000272  -0.000360  -0.000002
    40  H   -0.001145  -0.271847   0.012577   0.011030   0.000000   0.000000
    41  H   -0.000084   0.113182  -0.031246   0.035932  -0.000338   0.000007
    42  H   -0.000006  -0.093925   0.008639   0.003989  -0.000853   0.000003
    43  H    0.000000  -0.108131   0.008381   0.014169  -0.000601   0.000017
    44  H    0.000000  -0.051752   0.009028   0.043579  -0.003271   0.000125
    45  H    0.000000  -0.104179  -0.055980   0.480519  -0.050362  -0.008207
             31         32         33         34         35         36
     1  O    0.229467   0.000480   0.000298   0.006465  -0.047218  -0.015034
     2  C    0.094857  -0.010687  -0.002833   0.081519   0.542327   0.299057
     3  C   -0.036804  -0.004656  -0.012047  -0.126701  -0.198554   0.183322
     4  O    0.002002   0.000023  -0.000013   0.000701   0.005041  -0.039184
     5  H   -0.003887   0.000000   0.000001  -0.000024  -0.001444   0.001078
     6  C   -0.008100   0.001253   0.016786   0.012479  -0.009189  -0.490537
     7  O    0.000008  -0.000013  -0.000005  -0.000089   0.000136   0.009040
     8  H    0.000000   0.000000   0.000000   0.000002   0.000001  -0.000236
     9  C   -0.001449   0.404532   0.690817   0.127195   0.053518   0.032180
    10  O   -0.000888  -0.034251  -0.068569   0.008073   0.000137   0.000083
    11  H    0.000013  -0.016587   0.002768   0.000006  -0.000001   0.000001
    12  C   -0.029761  -0.026934  -0.328831   0.081012  -0.195150  -0.054691
    13  O   -0.000519  -0.002506   0.003649  -0.031746   0.012902   0.006408
    14  C    0.001559   0.004102  -0.007685   0.079121   0.069088   0.255537
    15  O   -0.000018  -0.000543  -0.000672  -0.000312  -0.000483  -0.000507
    16  C    0.000256   0.000734  -0.001832   0.003700  -0.000041   0.013994
    17  C   -0.000055   0.007650  -0.000849   0.005680   0.000914   0.001677
    18  O    0.000000  -0.002911   0.000423   0.000464   0.000076   0.000094
    19  H    0.000000   0.002048  -0.000020   0.000336  -0.000015  -0.000011
    20  C    0.000001  -0.002863   0.000209   0.001180   0.000021  -0.000025
    21  O    0.000000  -0.000015   0.000000   0.000000   0.000000   0.000000
    22  H    0.000000   0.000000   0.000000   0.000000   0.000000   0.000000
    23  C    0.000004   0.000001   0.000016   0.000309   0.000103   0.000501
    24  O    0.000000  -0.000001   0.000000   0.000004   0.000006   0.000026
    25  H    0.000000   0.000000   0.000000   0.000000   0.000000   0.000000
    26  C   -0.000007  -0.000198  -0.000244   0.000535   0.000031   0.001035
    27  O    0.000000   0.000000   0.000000   0.000000   0.000000   0.000000
    28  C    0.000000   0.000203  -0.000011  -0.000156  -0.000007  -0.000040
    29  O    0.000000   0.000000   0.000000   0.000000   0.000000   0.000000
    30  H    0.000000   0.000000   0.000000   0.000000   0.000000   0.000000
    31  H    0.393825  -0.000015   0.000136  -0.000129  -0.011674   0.000246
    32  H   -0.000015   0.598577  -0.044674  -0.005634   0.000102   0.000006
    33  H    0.000136  -0.044674   0.605852   0.006121   0.005717  -0.000006
    34  H   -0.000129  -0.005634   0.006121   0.592131   0.006366   0.003871
    35  H   -0.011674   0.000102   0.005717   0.006366   0.621225   0.006995
    36  H    0.000246   0.000006  -0.000006   0.003871   0.006995   0.641337
    37  H    0.000021   0.000004  -0.000032  -0.000030   0.003214   0.007857
    38  H    0.000002  -0.000018  -0.000023   0.004193   0.000002   0.004347
    39  H    0.000000   0.000000   0.000000   0.000000   0.000000   0.000000
    40  H    0.000000   0.000000   0.000000   0.000000   0.000000   0.000000
    41  H    0.000000   0.000000   0.000000   0.000000   0.000000   0.000000
    42  H    0.000000   0.000000   0.000000  -0.000006   0.000000  -0.000003
    43  H    0.000000  -0.000003   0.000000   0.000000   0.000000   0.000000
    44  H    0.000000   0.000000   0.000000   0.000000   0.000000   0.000000
    45  H    0.000000   0.000000   0.000000   0.000000   0.000000   0.000000
             37         38         39         40         41         42
     1  O   -0.001406  -0.000119   0.000000   0.000000   0.000000  -0.000001
     2  C    0.146696   0.058919   0.000013  -0.000126  -0.000214  -0.000582
     3  C   -0.240401  -0.087697  -0.000120   0.001638   0.001175   0.003532
     4  O    0.012076   0.000369   0.000000   0.000002   0.000000   0.000005
     5  H    0.000073  -0.000005   0.000000   0.000000   0.000000   0.000000
     6  C    0.160585  -0.156743  -0.000133   0.007677   0.003781   0.002524
     7  O   -0.038937   0.005859  -0.000209   0.000620  -0.000019  -0.000101
     8  H   -0.004097  -0.001073   0.000120   0.000319   0.000009  -0.000068
     9  C    0.015604   0.011869  -0.000002   0.000019   0.000052  -0.000497
    10  O    0.000025   0.000123   0.000000   0.000000   0.000000   0.000001
    11  H    0.000000   0.000000   0.000000   0.000000   0.000000   0.000000
    12  C    0.007058  -0.007594  -0.000042   0.000542   0.000148   0.002415
    13  O    0.016725  -0.063717  -0.000021   0.000255  -0.000610   0.000017
    14  C    0.128169   0.404370   0.000899   0.004764   0.050521   0.025387
    15  O   -0.014594  -0.053706  -0.000393   0.009003   0.007565  -0.054609
    16  C    0.035790   0.057192   0.000389   0.032463   0.075842   0.341057
    17  C    0.001226   0.021561  -0.006243  -0.003457  -0.029792  -0.031676
    18  O    0.000161  -0.000250   0.000028   0.000060   0.000189   0.000264
    19  H   -0.000041  -0.000306   0.000000   0.000001   0.000037   0.000002
    20  C    0.000744   0.010492   0.001964  -0.002419  -0.031884   0.014014
    21  O    0.000000   0.000015  -0.000007   0.000004  -0.000127  -0.000167
    22  H    0.000000   0.000000   0.000000   0.000000   0.000004   0.000000
    23  C    0.008024   0.008895   0.421957   0.549898   0.037166   0.002410
    24  O   -0.000425   0.000294  -0.040052  -0.074656   0.008256  -0.000110
    25  H    0.000010   0.000004  -0.014391  -0.001145  -0.000084  -0.000006
    26  C   -0.001354   0.020299  -0.028700  -0.271847   0.113182  -0.093925
    27  O    0.000001   0.000122  -0.011227   0.012577  -0.031246   0.008639
    28  C   -0.000176  -0.001882   0.000272   0.011030   0.035932   0.003989
    29  O    0.000000  -0.000001  -0.000360   0.000000  -0.000338  -0.000853
    30  H    0.000000   0.000000  -0.000002   0.000000   0.000007   0.000003
    31  H    0.000021   0.000002   0.000000   0.000000   0.000000   0.000000
    32  H    0.000004  -0.000018   0.000000   0.000000   0.000000   0.000000
    33  H   -0.000032  -0.000023   0.000000   0.000000   0.000000   0.000000
    34  H   -0.000030   0.004193   0.000000   0.000000   0.000000  -0.000006
    35  H    0.003214   0.000002   0.000000   0.000000   0.000000   0.000000
    36  H    0.007857   0.004347   0.000000   0.000000   0.000000  -0.000003
    37  H    0.603676   0.005251   0.000000  -0.000014  -0.000004   0.000010
    38  H    0.005251   0.614862   0.000000  -0.000017  -0.000009   0.009574
    39  H    0.000000   0.000000   0.586952  -0.045806  -0.005555   0.000025
    40  H   -0.000014  -0.000017  -0.045806   0.620384   0.005843   0.004041
    41  H   -0.000004  -0.000009  -0.005555   0.005843   0.596244   0.005532
    42  H    0.000010   0.009574   0.000025   0.004041   0.005532   0.617910
    43  H   -0.000003  -0.000021  -0.000002   0.000006   0.004620   0.007137
    44  H    0.000000  -0.000035   0.000003  -0.000014   0.000000   0.004614
    45  H    0.000000   0.000000  -0.000023  -0.000025   0.006968   0.000018
             43         44         45
     1  O    0.000000   0.000000   0.000000
     2  C   -0.000582  -0.000028  -0.000010
     3  C    0.001112   0.000189   0.000041
     4  O    0.000000   0.000000   0.000000
     5  H    0.000000   0.000000   0.000000
     6  C    0.003473   0.000614   0.000277
     7  O   -0.000006   0.000000   0.000000
     8  H    0.000001   0.000000   0.000000
     9  C   -0.000341  -0.000144  -0.000005
    10  O   -0.000001   0.000000   0.000000
    11  H    0.000000   0.000000   0.000000
    12  C    0.001579   0.000715   0.000022
    13  O   -0.000432   0.000828   0.000042
    14  C    0.061040   0.005138   0.007337
    15  O   -0.011354  -0.002097   0.000109
    16  C    0.123209   0.159462   0.135164
    17  C    0.325769  -0.195075  -0.008720
    18  O   -0.054689   0.006033  -0.000466
    19  H    0.000754   0.000016  -0.000003
    20  C   -0.185844   0.290651  -0.177450
    21  O    0.005889  -0.036277   0.007026
    22  H   -0.000149  -0.004034  -0.000470
    23  C    0.020317   0.015244  -0.001156
    24  O   -0.000249  -0.000036  -0.000018
    25  H    0.000000   0.000000   0.000000
    26  C   -0.108131  -0.051752  -0.104179
    27  O    0.008381   0.009028  -0.055980
    28  C    0.014169   0.043579   0.480519
    29  O   -0.000601  -0.003271  -0.050362
    30  H    0.000017   0.000125  -0.008207
    31  H    0.000000   0.000000   0.000000
    32  H   -0.000003   0.000000   0.000000
    33  H    0.000000   0.000000   0.000000
    34  H    0.000000   0.000000   0.000000
    35  H    0.000000   0.000000   0.000000
    36  H    0.000000   0.000000   0.000000
    37  H   -0.000003   0.000000   0.000000
    38  H   -0.000021  -0.000035   0.000000
    39  H   -0.000002   0.000003  -0.000023
    40  H    0.000006  -0.000014  -0.000025
    41  H    0.004620   0.000000   0.006968
    42  H    0.007137   0.004614   0.000018
    43  H    0.648483   0.006944   0.004468
    44  H    0.006944   0.603329   0.004862
    45  H    0.004468   0.004862   0.623258
 Mulliken atomic charges:
              1
     1  O   -0.509695
     2  C   -0.319276
     3  C    0.141257
     4  O   -0.494981
     5  H    0.344363
     6  C    0.048460
     7  O   -0.477849
     8  H    0.388440
     9  C   -0.221710
    10  O   -0.522936
    11  H    0.350482
    12  C    0.363570
    13  O   -0.416026
    14  C    0.184794
    15  O   -0.324113
    16  C   -0.281834
    17  C   -0.029090
    18  O   -0.546744
    19  H    0.447061
    20  C    0.123833
    21  O   -0.533141
    22  H    0.369791
    23  C   -0.060699
    24  O   -0.560347
    25  H    0.369019
    26  C    0.154511
    27  O   -0.287427
    28  C    0.229475
    29  O   -0.582095
    30  H    0.360996
    31  H    0.370911
    32  H    0.132794
    33  H    0.135555
    34  H    0.143366
    35  H    0.135855
    36  H    0.131584
    37  H    0.148516
    38  H    0.134600
    39  H    0.140664
    40  H    0.138384
    41  H    0.146807
    42  H    0.129482
    43  H    0.125037
    44  H    0.141389
    45  H    0.136965
 Sum of Mulliken atomic charges =   0.00000
 Mulliken charges with hydrogens summed into heavy atoms:
              1
     1  O   -0.138783
     2  C   -0.183420
     3  C    0.272841
     4  O   -0.150617
     6  C    0.196976
     7  O   -0.089409
     9  C    0.046638
    10  O   -0.172454
    12  C    0.506936
    13  O   -0.416026
    14  C    0.319394
    15  O   -0.324113
    16  C   -0.152352
    17  C    0.095947
    18  O   -0.099683
    20  C    0.265222
    21  O   -0.163350
    23  C    0.218349
    24  O   -0.191327
    26  C    0.301318
    27  O   -0.287427
    28  C    0.366440
    29  O   -0.221099
 Sum of Mulliken charges with hydrogens summed into heavy atoms =   0.00000
 APT atomic charges:
              1
     1  O   -0.624048
     2  C    0.422306
     3  C    0.385786
     4  O   -0.627938
     5  H    0.253001
     6  C    0.362170
     7  O   -0.600933
     8  H    0.323457
     9  C    0.491547
    10  O   -0.620538
    11  H    0.251118
    12  C    0.386216
    13  O   -0.807934
    14  C    0.882537
    15  O   -0.868507
    16  C    0.437658
    17  C    0.401758
    18  O   -0.758544
    19  H    0.452002
    20  C    0.419168
    21  O   -0.684189
    22  H    0.284425
    23  C    0.460173
    24  O   -0.602592
    25  H    0.235411
    26  C    0.408173
    27  O   -0.754787
    28  C    0.887832
    29  O   -0.674554
    30  H    0.257554
    31  H    0.272804
    32  H   -0.030200
    33  H   -0.052990
    34  H   -0.044209
    35  H   -0.048480
    36  H   -0.056744
    37  H   -0.032392
    38  H   -0.059263
    39  H   -0.037505
    40  H   -0.040151
    41  H   -0.040540
    42  H   -0.041459
    43  H   -0.061048
    44  H   -0.040123
    45  H   -0.065429
[...]
 -0.00010571,0.00004296,-0.00000414,0.00011795,0.00001813,0.00014737,0.
 00099951,-0.00031760,-0.00374992,-0.01240662,-0.00187759,0.01104707,-0
 .35307994,0.03718519,-0.00359820,-0.00898708,0.00067464,-0.00303434,0.
 00123727,0.00029259,0.00103045,-0.00038426,0.00009514,0.00006871,-0.00
 057333,-0.00059953,0.00118705,0.00053010,-0.00029063,0.00029905,0.0000
 5901,0.00003630,-0.00010796,-0.00023160,0.00090973,0.00049054,0.000381
 34,0.00005410,-0.00020244,0.00001000,-0.00004278,-0.00004687,-0.014251
 34,0.00247007,-0.00062690,0.00250656,0.00074899,0.00087889,-0.00016618
 ,0.00006511,-0.00014846,0.00007709,-0.00001275,-0.00010769,-0.00000215
 ,0.00000208,-0.00001170,0.00000100,-0.00000293,-0.00000535,-0.00001265
 ,0.00000014,0.00000271,0.00001042,0.00000259,-0.00001526,0.00003575,0.
 00001012,0.00003509,0.00000811,0.00000267,-0.00000920,0.00000941,0.000
 00046,0.00002013,0.00000509,0.00015830,-0.00028947,0.00104756,0.000324
 30,0.00137865,0.00036713,-0.00003137,0.00004630,0.00057530,-0.00073904
 ,0.00017349,-0.00027550,-0.00107079,-0.00129207,0.38050774,0.00000476,
 -0.00000748,0.00002801,-0.00001770,0.00001837,-0.00002777,0.00003851,0
 .00003010,-0.00003853,-0.00000143,-0.00002917,0.00001531,-0.00000251,0
 .00000392,-0.00000583,-0.00019174,0.00012918,-0.00000768,0.00014644,-0
 .00009455,-0.00014629,-0.00017709,-0.00008398,0.00011992,0.00001742,-0
 .00003254,0.00001448,-0.00001386,0.00002617,0.00001230,0.00000824,-0.0
 0000452,-0.00000141,0.00000858,0.00003258,-0.00007838,0.00016914,0.000
 17045,0.00013318,-0.00053646,0.00072272,-0.00103777,-0.01095030,0.0019
 4938,0.00490371,0.03893308,-0.04916137,-0.00161760,0.03465173,-0.00418
 020,0.00470075,-0.00209461,0.00159459,-0.00050256,0.00013346,-0.000125
 94,-0.00024206,0.00283208,-0.00015803,-0.00086769,-0.00071316,0.000160
 87,-0.00028451,-0.00009259,0.00007721,0.00005890,-0.00156458,0.0015791
 1,0.00032462,0.00035220,-0.00007311,-0.00012222,-0.00003455,-0.0000315
 6,-0.00001899,-0.02323730,0.00189384,-0.00208480,0.00124162,0.00081983
 ,0.00235316,0.00014513,-0.00011250,0.00003329,-0.00007087,0.00005811,0
 .00007044,-0.00001072,0.00001563,-0.00000268,0.00000272,-0.00000150,-0
 .00000572,0.00001608,-0.00000283,0.00000023,-0.00000828,0.00000124,0.0
 0000600,-0.00001189,0.00001059,0.00000347,-0.00000318,-0.00000636,0.00
 000441,-0.00000366,0.00000599,0.00001116,0.00005065,-0.00002578,-0.000
 00636,0.00029461,-0.00004928,-0.00006403,0.00034520,0.00010436,0.00010
 956,0.00065011,-0.00038599,0.00010585,-0.00134391,-0.00213790,-0.00283
 930,-0.03889902,0.05300362,-0.00001433,-0.00001174,-0.00006385,-0.0000
 0641,-0.00000318,0.00005813,-0.00002201,0.00002669,0.00002573,-0.00001
 997,0.00001322,-0.00003240,-0.00000112,-0.00000348,0.00000276,0.000050
 71,0.00010767,-0.00015601,-0.00021703,0.00003869,0.00001886,0.00019442
 ,-0.00014512,-0.00003062,-0.00004101,0.00006291,-0.00004493,-0.0000111
 6,-0.00006920,-0.00001510,0.00000430,0.00000059,-0.00001131,0.00000471
 ,-0.00012334,-0.00006132,-0.00089554,-0.00055161,-0.00037178,0.0070385
 5,0.00036951,0.00452792,0.03672384,0.00216735,-0.01998171,-0.00591034,
 -0.00281138,-0.04085517,-0.00730200,0.00050500,0.00070243,0.00042171,0
 .00065319,0.00091380,0.00014489,0.00032307,-0.00030692,-0.00189000,0.0
 0187483,-0.00051599,0.00038426,-0.00022814,-0.00013328,-0.00008884,-0.
 00002235,-0.00004414,0.00003912,0.00128317,0.00022560,0.00016269,-0.00
 001260,0.00019223,-0.00001073,0.00004571,0.00004251,-0.02303733,0.0024
 2051,-0.00054869,0.00038540,0.00024923,0.00178478,-0.00049699,0.000096
 18,-0.00015130,0.00012084,0.00001600,-0.00014984,0.00001763,0.00001716
 ,0.00001625,-0.00000346,0.00000629,0.00000603,-0.00000010,-0.00001245,
 -0.00000284,-0.00000137,0.00000521,0.00000897,-0.00003049,-0.00003010,
 -0.00007740,-0.00000601,0.00000865,0.00000945,-0.00005659,-0.00001780,
 -0.00005699,-0.00025619,-0.00007760,0.00010934,-0.00152963,-0.00013361
 ,-0.00006277,0.00016128,0.00010820,0.00002045,0.00045873,-0.00031196,0
 .00022747,-0.00138472,-0.00225571,-0.00299399,-0.00320647,-0.00598382,
 0.05833508,-0.00000314,0.00002520,-0.00007617,-0.00002532,-0.00003824,
 0.00005488,-0.00000029,-0.00003962,0.00003814,0.00000907,0.00006454,-0
 .00004884,-0.00000515,-0.00001511,0.00000820,0.00001675,-0.00009238,0.
 00001471,0.00004716,0.00013495,0.00003185,-0.00007549,-0.00006406,-0.0
 0007309,-0.00000692,0.00000079,0.00013693,-0.00000250,-0.00005391,-0.0
 0009373,-0.00001074,0.00002795,0.00002929,0.00003922,0.00007990,0.0001
 1557,-0.00002279,0.00036189,-0.00037669,0.00008916,-0.00028945,-0.0001
 2873,0.00122046,0.00014879,-0.00051830,-0.01056623,0.00190077,-0.00027
 629,-0.34089703,0.00685617,-0.05638641,0.00245339,-0.00827453,-0.01099
 431,-0.00092075,-0.00112383,0.00116005,-0.02186643,0.00332547,-0.00051
 265,0.00193382,-0.00006754,-0.00032266,0.00016326,-0.00013722,-0.00004
 483,0.00095348,0.00014885,0.00006217,0.00001387,-0.00002027,0.00010114
 ,0.00000722,0.00002508,-0.00000518,-0.00092440,-0.00242356,-0.00129210
 ,0.00081113,0.00042309,0.00025758,-0.00213705,-0.00128104,-0.00177771,
 0.00109694,-0.00017226,-0.00015914,-0.00001882,0.00006492,0.00024854,-
 0.00000754,-0.00000071,0.00001347,-0.00000536,0.00005939,0.00000441,0.
 00001285,0.00000692,-0.00002771,0.00000313,-0.00000934,0.00001071,0.00
 000773,0.00000109,-0.00001010,0.00001505,-0.00000040,0.00000265,0.0000
 0111,0.00001596,-0.00003222,0.00004400,0.00000212,0.00015786,-0.000001
 50,0.00008858,0.00000316,0.00006043,-0.00045998,0.00002718,0.00162069,
 -0.00012674,0.00065372,0.00018695,0.00121687,-0.00033561,0.36596944,-0
 .00000699,0.00003298,-0.00006623,-0.00002873,-0.00005629,0.00003258,0.
 00002271,-0.00002886,-0.00000835,-0.00000590,0.00004788,-0.00001292,0.
 00000173,-0.00001391,0.00000663,-0.00011081,-0.00001507,-0.00002128,-0
 .00004835,0.00007245,0.00004024,0.00005114,0.00000820,-0.00003471,0.00
 001699,-0.00001191,0.00016745,-0.00000230,-0.00004927,-0.00009646,-0.0
 0001518,0.00003098,0.00003258,0.00008891,0.00011368,0.00012342,0.00007
 287,0.00069695,-0.00052324,0.00009835,-0.00029521,-0.00029310,-0.00148
 896,0.00143604,-0.00097361,0.03337582,-0.00733266,0.00486600,0.0010709
 1,-0.03744979,0.00768802,-0.02523242,-0.01044437,-0.02350001,-0.002265
 98,-0.00165988,0.00079323,-0.01003299,0.00218108,-0.00020922,0.0003242
 9,0.00082401,-0.00096827,0.00013532,0.00001746,-0.00012758,0.00028693,
 -0.00007605,0.00000582,-0.00011649,0.00002586,0.00004972,-0.00000060,0
 .00000230,-0.00000139,0.00389720,-0.00085348,0.00128654,-0.00063885,-0
 .00008176,-0.00019742,0.00105324,-0.00008859,-0.00131075,0.00013707,-0
 .00026966,0.00004718,0.00003405,0.00006110,0.00004726,-0.00000578,-0.0
 0000019,0.00000915,-0.00004116,0.00008082,0.00002205,0.00001162,0.0000
 2044,-0.00004496,-0.00000705,-0.00002672,0.00000984,0.00000112,0.00000
 307,-0.00000310,-0.00000055,-0.00000047,0.00000265,-0.00001299,-0.0000
 1133,0.00002402,-0.00017108,-0.00001453,-0.00009616,-0.00008000,0.0000
 3643,-0.00001307,-0.00026397,0.00002744,-0.00008546,-0.00065687,-0.001
 22886,-0.00034686,0.00137774,-0.00529802,0.00155554,-0.00052138,0.0592
 4052,0.00000012,0.00003083,-0.00007852,-0.00004372,-0.00004941,0.00004
 762,0.00000542,-0.00006443,0.00003219,0.00000616,0.00006152,-0.0000290
 6,-0.00000325,-0.00001663,0.00000917,-0.00001119,-0.00003540,0.0000647
 8,0.00004104,0.00010927,0.00001969,-0.00005603,-0.00002092,-0.00002935
 ,-0.00001280,-0.00003086,0.00018926,0.00001527,-0.00004401,-0.00010376
 ,-0.00001668,0.00003130,0.00004159,0.00005842,0.00011440,0.00009667,0.
 00010004,0.00065070,-0.00064210,-0.00017479,-0.00055244,-0.00051347,0.
 00073856,-0.00103411,0.00138136,-0.01490929,0.00345657,-0.00055109,-0.
 06098333,0.00866997,-0.05130359,-0.02583206,-0.01755013,-0.01887453,-0
 .00222407,-0.00173071,0.00056337,0.03237745,-0.00133114,0.00102725,-0.
 00139531,-0.00105225,0.00162452,-0.00023177,-0.00011620,0.00015754,0.0
 0026935,0.00005659,-0.00015711,0.00002292,0.00000071,0.00002364,0.0000
 0531,0.00000657,-0.00000271,0.00008466,-0.00247704,-0.00007564,-0.0002
 6002,0.00010161,-0.00019862,0.00309794,-0.00029075,-0.00013852,-0.0003
 0357,0.00001211,0.00003585,-0.00010838,-0.00004158,0.00001488,-0.00000
 940,-0.00000050,0.00000972,-0.00004608,0.00008203,0.00001935,0.0000266
 2,0.00001957,-0.00006604,0.00001234,-0.00002284,0.00001864,0.00000865,
 0.00000263,-0.00001462,0.00001281,0.00000013,0.00000479,0.00001005,0.0
 0002082,-0.00003066,0.00013151,0.00001497,0.00007874,0.00005074,0.0000
 0779,0.00001163,0.00006886,-0.00017348,-0.00000278,0.00072979,-0.00048
 383,0.00063191,-0.00039776,0.00224207,-0.00034599,0.06678249,0.0109220
 3,0.07273920,0.00000047,-0.00001292,-0.00002006,0.00000303,0.00001219,
 0.00001767,-0.00001232,-0.00000892,0.00003356,0.00001016,0.00000810,-0
 .00003251,-0.00000402,0.00000132,0.00000203,0.00002475,-0.00002446,0.0
 0001584,0.00002799,0.00000943,-0.00001967,-0.00002917,-0.00002290,0.00
 000662,-0.00001903,0.00002211,-0.00001529,0.00001985,-0.00001722,0.000
 00049,-0.00001119,0.00000439,-0.00000170,-0.00001884,-0.00000653,0.000
 03209,0.00007055,-0.00013061,0.00000059,-0.00015239,0.00010464,0.00025
 052,0.00086292,-0.00005929,-0.00020425,-0.00100668,0.00179345,-0.00064
 798,-0.01650003,-0.00099761,-0.00241548,0.00204157,0.00064690,0.000636
 82,-0.00013190,0.00020120,-0.00013550,-0.35418739,0.03789176,-0.033428
 99,0.00110138,0.00765642,-0.00421222,0.00043547,0.00042248,0.00044137,
 -0.00005280,-0.00001121,-0.00001499,0.00007417,0.00002070,-0.00002261,
 -0.00001744,-0.00000079,0.00000199,-0.00007989,-0.00015365,-0.00013413
 ,0.00189328,-0.00048326,0.00068569,-0.01305981,0.00266746,0.00037542,0
 .00150849,-0.00018560,0.00065123,0.00037580,0.00022182,0.00031427,-0.0
 0000267,0.00000415,0.00000401,-0.00001197,-0.00000572,-0.00000068,0.00
 000846,-0.00000111,-0.00000731,0.00001343,0.00000053,0.00000695,0.0000
 0512,0.00000173,-0.00000685,0.00001004,0.00000063,-0.00000071,0.000005
 79,0.00000977,-0.00001244,0.00004556,-0.00003206,0.00002514,0.00001094
 ,-0.00000828,0.00001446,0.00004306,-0.00007585,0.00001705,0.00020605,0
 .00026975,0.00006285,0.00116972,-0.00105262,0.00015597,-0.00076265,-0.
 00061685,0.00250783,0.37616180,0.00000059,-0.00000064,0.00001512,-0.00
 000175,0.00000351,-0.00001003,0.00000159,0.00000730,-0.00000881,-0.000
 00070,-0.00001042,0.00000995,0.00000073,0.00000241,-0.00000222,-0.0000
 0355,0.00000753,-0.00000450,0.00000611,-0.00000799,0.00000111,-0.00001
 255,0.00000421,-0.00000144,0.00000351,-0.00000493,-0.00001105,-0.00001
 082,0.00001275,0.00001379,0.00001103,-0.00000780,-0.00000459,0.0000096
 2,-0.00000635,-0.00001647,0.00000503,-0.00002701,0.00003721,0.00000694
 ,0.00006646,-0.00004248,-0.00007243,-0.00021088,-0.00009518,-0.0016895
 1,-0.00022682,0.00128993,-0.00145108,0.00130490,-0.00017342,-0.0000655
 2,0.00034815,0.00074051,0.00001621,0.00007004,-0.00003882,0.03972215,-
 0.04368934,0.00015527,0.03315947,-0.02204872,0.01230964,0.00164301,0.0
 0078424,-0.00051445,-0.00005965,0.00006481,-0.00000135,0.00001896,-0.0
 0002708,-0.00000014,-0.00000496,-0.00000221,0.00000489,-0.00026497,-0.
 00009634,0.00004456,0.00114815,0.00196360,0.00036428,-0.02476766,0.002
 91115,-0.00268952,0.00149411,0.00086550,0.00159486,-0.00004445,-0.0000
 8622,0.00040518,0.00000126,-0.00000091,-0.00000363,0.00000885,-0.00000
 759,-0.00000025,-0.00000408,-0.00000257,0.00000564,-0.00000460,0.00000
 537,-0.00000309,-0.00000143,-0.00000149,0.00000232,-0.00000303,0.00000
 178,0.00000036,0.00000107,-0.00000032,-0.00000145,0.00000923,0.0000047
 7,0.00000826,-0.00000012,-0.00000103,-0.00001015,0.00002435,-0.0000509
 5,0.00002320,0.00021639,0.00001515,-0.00000882,-0.00043326,-0.00024934
 ,0.00087936,-0.00020684,0.00017483,0.00072316,-0.04709210,0.06079156,-
 0.00000256,-0.00000575,0.00000011,-0.00000165,0.00000587,-0.00000215,0
 .00000693,0.00000836,0.00000066,-0.00000139,-0.00000749,-0.00000176,0.
 00000072,0.00000283,-0.00000197,-0.00001629,-0.00000357,-0.00000443,-0
 .00000839,-0.00000566,-0.00000781,0.00000789,-0.00000366,0.00000685,0.
 00001001,0.00001179,-0.00000460,-0.00001281,-0.00000822,0.00000290,0.0
 0000561,-0.00000091,-0.00000736,0.00002016,0.00000039,0.00000294,-0.00
 002017,-0.00005524,0.00002406,0.00006111,0.00007464,0.00007204,-0.0005
 4422,-0.00000156,-0.00009093,0.00222826,-0.00160826,0.00043353,0.03174
 494,-0.00066135,0.00298853,-0.00251012,-0.00005359,0.00168554,0.000057
 25,0.00010315,0.00004259,-0.03238213,0.00005004,-0.04820758,-0.0126024
 2,0.01159962,-0.00174959,-0.00118758,-0.00008917,0.00035788,-0.0000082
 9,-0.00001271,0.00006729,-0.00000308,-0.00000545,-0.00000785,-0.000008
 36,0.00000111,0.00000228,0.00033019,0.00011589,-0.00031938,0.00184492,
 0.00080328,0.00087697,-0.02490892,0.00114042,-0.00273903,0.00095413,0.
 00026761,0.00210257,0.00009135,0.00024809,0.00054427,0.00000032,0.0000
 0147,-0.00000100,0.00000560,-0.00000233,0.00000358,-0.00000582,-0.0000
 0097,0.00000641,-0.00001081,0.00000141,-0.00001123,-0.00000218,-0.0000
 0088,0.00000365,-0.00000416,0.00000193,-0.00000103,-0.00000096,-0.0000
 0653,0.00000954,-0.00003962,0.00000885,-0.00005292,-0.00000658,0.00001
 853,0.00000716,-0.00000240,0.00002413,0.00000825,-0.00020090,0.0000659
 1,-0.00017786,-0.00042396,0.00078670,-0.00036435,0.00296014,0.00152020
 ,-0.00472533,0.03593902,-0.01209020,0.05199442,0.00000274,-0.00000583,
 -0.00000676,-0.00000276,0.00000589,0.00000490,-0.00000397,0.00000065,0
 .00001032,0.00000643,0.00000051,-0.00001322,-0.00000328,0.00000104,0.0
 0000029,-0.00001556,0.00000186,0.00000183,0.00001382,-0.00000830,-0.00
 001717,-0.00000544,-0.00000548,0.00001171,-0.00001330,0.00000619,-0.00
 000879,0.00001259,-0.00000614,0.00000159,-0.00000710,0.00000186,-0.000
 00074,-0.00000748,-0.00000621,0.00000682,0.00001592,-0.00005192,-0.000
 00983,-0.00000212,0.00005972,0.00006338,0.00003946,-0.00004487,-0.0002
 3715,0.00026608,0.00034849,0.00022796,-0.00113836,-0.00014818,0.001265
 74,0.00052949,0.00006906,0.00033238,0.00009749,0.00006144,-0.00007806,
 -0.01242470,0.00395076,-0.00297673,0.00222169,-0.00001813,0.00144960,-
 0.00031117,-0.00003197,-0.00002943,0.00068030,-0.00011478,-0.00003669,
 0.00003961,0.00021462,-0.00012106,-0.00000927,0.00001437,-0.00002428,0
 .00050654,-0.00101022,0.00080725,-0.00083971,0.00844177,-0.00207871,-0
 .35047035,0.03759417,-0.04930975,-0.01420962,-0.00051379,0.00626673,0.
 00059176,-0.00009372,0.00054239,-0.00000213,0.00000180,0.00000151,-0.0
 0000543,-0.00000238,0.00000187,0.00000490,0.00000047,-0.00000395,0.000
 00527,0.00000001,0.00000014,0.00000293,0.00000069,-0.00000293,0.000004
 55,0.00000049,0.00000031,0.00000436,0.00000027,-0.00000350,0.00000921,
 -0.00000626,-0.00000281,-0.00001773,-0.00005091,-0.00000807,0.00002624
 ,-0.00030463,0.00012308,0.00059994,0.00007678,-0.00088984,0.00005790,-
 0.00022660,0.00030636,0.00148378,0.00031420,-0.00014483,-0.00006968,-0
 .00131329,-0.00135278,0.37233616,0.00000401,0.00001487,0.00001605,0.00
 000217,-0.00001652,-0.00000948,-0.00001127,0.00000029,-0.00001465,0.00
 000003,0.00000389,0.00002016,0.00000053,-0.00000241,-0.00000097,0.0000
 2189,-0.00003574,-0.00001000,-0.00000255,0.00004670,0.00005324,-0.0000
 1779,-0.00001505,-0.00007028,0.00000073,-0.00001853,0.00000939,0.00000
 788,0.00001498,-0.00000149,-0.00000484,0.00000041,0.00000529,-0.000017
 59,0.00000871,-0.00001022,0.00000117,0.00012902,0.00002546,-0.00010550
 ,-0.00008865,-0.00013057,0.00013090,0.00031195,0.00039663,-0.00069553,
 -0.00065305,0.00015950,-0.00151693,0.00019476,0.00098952,0.00052605,-0
 .00015336,-0.00029001,0.00006863,-0.00008426,0.00011230,-0.02027065,0.
 00402611,-0.00570643,0.00109397,0.00259085,0.00033910,-0.00018227,-0.0
 0005357,0.00008806,0.00020588,0.00031948,-0.00026263,-0.00033677,-0.00
 026127,0.00026160,0.00002400,0.00002113,0.00003529,0.00478388,0.000102
 48,-0.00448211,0.03327617,-0.02227855,0.01474433,0.03848569,-0.0467015
 9,0.00427502,-0.00592447,0.00439156,0.00217068,-0.00027088,0.00021208,
 -0.00067280,0.00000106,-0.00000310,-0.00000268,-0.00000190,0.00000654,
 -0.00000057,0.00000164,0.00000195,-0.00000230,0.00000397,-0.00000291,0
 .00000464,0.00000010,0.00000102,0.00000005,0.00000164,-0.00000042,0.00
 000152,-0.00000322,0.00000485,-0.00000394,0.00000968,0.00000102,0.0000
 0450,0.00008327,0.00002843,-0.00001339,-0.00024663,0.00008674,-0.00002
 282,-0.00134065,0.00043404,0.00035722,-0.00004976,-0.00015592,-0.00002
 871,0.00043912,0.00017236,-0.00021869,-0.00097137,-0.00264305,-0.00223
 873,-0.04720349,0.06004172,-0.00000263,-0.00000242,-0.00002063,-0.0000
 0315,0.00000148,0.00001548,0.00000479,-0.00000281,0.00001504,0.0000025
 1,0.00001019,-0.00002118,-0.00000164,-0.00000132,0.00000203,-0.0000111
 3,-0.00001276,-0.00000011,0.00000695,0.00000752,-0.00001328,-0.0000060
 6,-0.00001221,0.00001442,-0.00000466,0.00001142,0.00001050,0.00000196,
 -0.00001520,-0.00001301,-0.00000269,0.00000456,0.00000355,0.00000589,0
 .00000797,0.00002274,0.00000229,-0.00001582,-0.00005170,0.00002592,0.0
 0003785,0.00006964,0.00005032,0.00005984,-0.00024556,0.00007642,-0.000
 39497,-0.00008557,-0.00276459,-0.00006016,0.00081197,0.00076110,-0.000
 00249,-0.00000447,-0.00001140,0.00001454,0.00007557,-0.02346075,0.0031
 7381,-0.00245691,0.00203271,0.00055679,0.00138987,0.00021780,-0.000410
 06,-0.00013450,-0.00019643,-0.00001844,0.00001635,0.00014827,0.0000637
 6,-0.00010203,-0.00001168,-0.00000474,-0.00000509,-0.00273750,0.001361
 89,0.00215085,-0.00614387,0.00770353,-0.00085502,-0.05517902,0.0021396
 4,-0.05455134,0.03854208,-0.00098804,-0.00933645,0.00213250,-0.0002070
 4,0.00337418,-0.00000117,0.00000119,0.00000375,-0.00000311,0.00000286,
 -0.00000107,0.00000303,0.00000006,-0.00000357,0.00000138,-0.00000163,-
 0.00000003,0.00000175,0.00000046,-0.00000221,0.00000304,-0.00000016,0.
 00000026,0.00000179,0.00000089,-0.00000365,0.00000499,-0.00000496,0.00
 000481,-0.00001008,-0.00004946,0.00001022,0.00011185,-0.00000200,-0.00
 005190,0.00044981,0.00018853,-0.00003838,0.00027995,-0.00005153,0.0001
 5090,0.00061761,-0.00031800,-0.00095987,-0.00086607,-0.00289651,-0.002
 76584,0.04593090,-0.00987605,0.06358126\\0.00601648,-0.00228226,-0.019
 99609,-0.00896729,-0.01766220,-0.02175787,0.00556700,-0.04774532,0.033
 56894,-0.00872358,0.01372313,0.02900460,0.00774794,-0.01380870,-0.0260
 1172,0.00063291,0.01490068,0.00281562,0.00129185,0.02457034,-0.0214610
 0,0.00065402,-0.00553356,0.02230659,-0.00001503,0.01965115,0.00910195,
 0.00891223,0.01715871,-0.01348221,0.00077067,-0.02779108,0.01852585,0.
 00720677,0.05603371,0.01400631,0.01147412,-0.03523466,0.03658877,-0.04
 922473,0.00371231,-0.04741452,0.00870396,-0.01490470,-0.00192969,-0.01
 086612,0.00659132,0.01324424,0.00087055,0.02571182,0.02014313,0.014094
 63,-0.01358544,0.00110779,-0.00216424,0.00716334,-0.02217673,-0.015021
 07,0.02522090,-0.01715973,-0.00770697,0.02013284,0.00094821,-0.0004083
 6,-0.03004851,0.02898268,-0.01179988,0.00003959,0.01522848,-0.00411629
 ,-0.03008964,-0.00870473,0.00009394,0.02762182,0.01535892,0.02116499,-
 0.04217455,0.00316919,-0.01614334,0.03087634,0.00589015,0.05524016,-0.
 00999231,-0.03506271,-0.00938487,-0.00246821,0.00751836,-0.00283745,-0
 .00309507,-0.00462466,-0.00349478,0.00556425,0.00084205,-0.00128231,0.
 00337209,-0.01654043,-0.02072217,-0.00268150,0.00380908,0.02158972,0.0
 0072731,-0.00163731,-0.02000322,0.00022494,0.00308500,0.02371874,0.001
 50129,-0.00214599,-0.02008681,0.00125861,0.00084514,0.02030883,0.00221
 973,-0.00457567,-0.00196381,-0.00431022,-0.01695152,0.02026189,-0.0025
 3524,0.00096407,-0.01923298,0.00263263,-0.00030633,0.01946792,-0.00542
 120,0.00075171,-0.02160411,0.00234920,-0.00304090,0.01849489,-0.003487
 96,-0.00067815,-0.01851481,0.00189430,-0.00214888\\\@



 IN THIS SHORT LIFE

 THAT ONLY LASTS AN HOUR

 HOW MUCH, HOW LITTLE, IS WITHIN OUR POWER....


 EMILY DICKINSON BOLTS OF MELODY NO. 521
 Job cpu time:  0 days 13 hours 10 minutes 55.7 seconds.
 File lengths (MBytes):  RWF=   1326 Int=      0 D2E=      0 Chk=     19 Scr=      1
 Normal termination of Gaussian 09 at Tue Mar  1 16:31:02 2016.
Gaussian '09 finished on node013 at Tue Mar  1 16:31:02 EST 2016.
