Gaussian '09 started on node001 at Thu Jan 21 04:54:59 EST 2016.
 Entering Gaussian System, Link 0=/usr/local/gaussian/g09/g09
 Initial command:
 /usr/local/gaussian/g09/l1.exe /home/srmcgrat/thesis/gaussian/cellobiose/350/9000/gaussian18237/Gau-18273.inp -scrdir=/home/srmcgrat/thesis/gaussian/cellobiose/350/9000/gaussian18237/
 Entering Link 1 = /usr/local/gaussian/g09/l1.exe PID=     18275.
  
 Copyright (c) 1988,1990,1992,1993,1995,1998,2003,2009,2010,
            Gaussian, Inc.  All Rights Reserved.
  
 This is part of the Gaussian(R) 09 program.  It is based on
 the Gaussian(R) 03 system (copyright 2003, Gaussian, Inc.),
 the Gaussian(R) 98 system (copyright 1998, Gaussian, Inc.),
 the Gaussian(R) 94 system (copyright 1995, Gaussian, Inc.),
 the Gaussian 92(TM) system (copyright 1992, Gaussian, Inc.),
 the Gaussian 90(TM) system (copyright 1990, Gaussian, Inc.),
 the Gaussian 88(TM) system (copyright 1988, Gaussian, Inc.),
 the Gaussian 86(TM) system (copyright 1986, Carnegie Mellon
 University), and the Gaussian 82(TM) system (copyright 1983,
 Carnegie Mellon University). Gaussian is a federally registered
 trademark of Gaussian, Inc.
  
 This software contains proprietary and confidential information,
 including trade secrets, belonging to Gaussian, Inc.
  
 This software is provided under written license and may be
 used, copied, transmitted, or stored only in accord with that
 written license.
  
 The following legend is applicable only to US Government
 contracts under FAR:
  
                    RESTRICTED RIGHTS LEGEND
  
 Use, reproduction and disclosure by the US Government is
 subject to restrictions as set forth in subparagraphs (a)
 and (c) of the Commercial Computer Software - Restricted
 Rights clause in FAR 52.227-19.
  
 Gaussian, Inc.
 340 Quinnipiac St., Bldg. 40, Wallingford CT 06492
  
  
 ---------------------------------------------------------------
 Warning -- This program may not be used in any manner that
 competes with the business of Gaussian, Inc. or will provide
 assistance to any competitor of Gaussian, Inc.  The licensee
 of this program is prohibited from giving any competitor of
 Gaussian, Inc. access to this program.  By using this program,
 the user acknowledges that Gaussian, Inc. is engaged in the
 business of creating and licensing software in the field of
 computational chemistry and represents and warrants to the
 licensee that it is not a competitor of Gaussian, Inc. and that
 it will not use this program in any manner prohibited above.
 ---------------------------------------------------------------
  

 Cite this work as:
 Gaussian 09, Revision B.01,
 M. J. Frisch, G. W. Trucks, H. B. Schlegel, G. E. Scuseria, 
 M. A. Robb, J. R. Cheeseman, G. Scalmani, V. Barone, B. Mennucci, 
 G. A. Petersson, H. Nakatsuji, M. Caricato, X. Li, H. P. Hratchian, 
 A. F. Izmaylov, J. Bloino, G. Zheng, J. L. Sonnenberg, M. Hada, 
 M. Ehara, K. Toyota, R. Fukuda, J. Hasegawa, M. Ishida, T. Nakajima, 
 Y. Honda, O. Kitao, H. Nakai, T. Vreven, J. A. Montgomery, Jr., 
 J. E. Peralta, F. Ogliaro, M. Bearpark, J. J. Heyd, E. Brothers, 
 K. N. Kudin, V. N. Staroverov, T. Keith, R. Kobayashi, J. Normand, 
 K. Raghavachari, A. Rendell, J. C. Burant, S. S. Iyengar, J. Tomasi, 
 M. Cossi, N. Rega, J. M. Millam, M. Klene, J. E. Knox, J. B. Cross, 
 V. Bakken, C. Adamo, J. Jaramillo, R. Gomperts, R. E. Stratmann, 
 O. Yazyev, A. J. Austin, R. Cammi, C. Pomelli, J. W. Ochterski, 
 R. L. Martin, K. Morokuma, V. G. Zakrzewski, G. A. Voth, 
 P. Salvador, J. J. Dannenberg, S. Dapprich, A. D. Daniels, 
 O. Farkas, J. B. Foresman, J. V. Ortiz, J. Cioslowski, 
 and D. J. Fox, Gaussian, Inc., Wallingford CT, 2010.
 
 ******************************************
 Gaussian 09:  EM64L-G09RevB.01 12-Aug-2010
                21-Jan-2016 
 ******************************************
 ------------------------------------------------
 # freq=raman b3lyp/6-31+g(d,p) geom=connectivity
 ------------------------------------------------
 1/10=4,30=1,38=1,57=2/1,3;
 2/12=2,17=6,18=5,40=1/2;
 3/5=1,6=6,7=111,11=2,16=1,25=1,30=1,71=2,74=-5/1,2,3;
 4//1;
 5/5=2,38=5,98=1/2;
 8/6=4,10=90,11=11/1;
 10/13=10,15=4/2;
 11/6=3,8=1,9=11,15=111,16=1/1,2,10;
 10/6=1/2;
 6/7=2,8=2,9=2,10=2,18=1,28=1/1;
 7/8=1,10=1,25=1/1,2,3,16;
 1/10=4,30=1/3;
 99//99;
 ------------
 350 9000.com
 ------------
 Symbolic Z-matrix:
 Charge =  0 Multiplicity = 1
 O                     7.255     7.794     12.208 
 C                     7.758     8.134     13.508 
 C                     7.151     9.409     14.07 
 O                     7.595     10.406    13.138 
 H                     7.691     9.914     12.273 
 C                     7.735     9.689     15.445 
 O                     7.165     10.836    16.092 
 H                     7.74      10.981    16.897 
 C                     8.289     5.7       13.937 
 O                     7.764     5.018     12.79 
 H                     7.894     4.031     12.879 
 C                     7.573     6.945     14.436 
 O                     8.164     7.272     15.702 
 C                     7.8       8.488     16.373 
 O                     8.678     8.666     17.494 
 C                     8.103     8.247     18.741 
 C                     8.79      6.959     19.164 
 O                     8.82      5.943     18.151 
 H                     8.769     6.337     17.234 
 C                     8.317     6.54      20.546 
 O                     9.077     5.424     21.035 
 H                     9.061     5.463     22.034 
 C                     8.168     10.76     19.587 
 O                     8.406     11.375    18.313 
 H                     8.275     12.366    18.347 
 C                     8.495     9.287     19.777 
 O                     7.938     8.859     21.029 
 C                     8.552     7.667     21.539 
 O                     7.723     7.379     22.674 
 H                     8.27681   7.18614   23.43406 
 H                     9.5823    7.80004   21.7953 
 H                     7.27714   6.28953   20.51672 
 H                     9.81626   7.22938   19.3003 
 H                     7.04147   8.13073   18.67363 
 H                     9.55879   9.22674   19.8751 
 H                     8.72912   11.30761   20.31513 
 H                     7.13019   10.88799   19.81386 
 H                     7.99047   7.63788   11.61108 
 H                     6.81513   8.34598   16.76639 
 H                     8.75577   9.95228   15.26166 
 H                     6.08297   9.35183   14.1008 
 H                     8.81029   8.30063   13.40894 
 H                     6.53052   6.73996   14.56283 
 H                     8.31503   4.99842   14.74447 
 H                     9.29783   5.97719   13.71266 
 

 GradGradGradGradGradGradGradGradGradGradGradGradGradGradGradGradGradGrad
 Berny optimization.
 Initialization pass.
 Trust Radius=3.00D-01 FncErr=1.00D-07 GrdErr=1.00D-07
 Number of steps in this run=      2 maximum allowed number of steps=      2.
 GradGradGradGradGradGradGradGradGradGradGradGradGradGradGradGradGradGrad

                          Input orientation:                          
 ---------------------------------------------------------------------
 Center     Atomic      Atomic             Coordinates (Angstroms)
 Number     Number       Type             X           Y           Z
 ---------------------------------------------------------------------
      1          8           0        7.255000    7.794000   12.208000
      2          6           0        7.758000    8.134000   13.508000
      3          6           0        7.151000    9.409000   14.070000
      4          8           0        7.595000   10.406000   13.138000
      5          1           0        7.691000    9.914000   12.273000
      6          6           0        7.735000    9.689000   15.445000
      7          8           0        7.165000   10.836000   16.092000
      8          1           0        7.740000   10.981000   16.897000
      9          6           0        8.289000    5.700000   13.937000
     10          8           0        7.764000    5.018000   12.790000
     11          1           0        7.894000    4.031000   12.879000
     12          6           0        7.573000    6.945000   14.436000
     13          8           0        8.164000    7.272000   15.702000
     14          6           0        7.800000    8.488000   16.373000
     15          8           0        8.678000    8.666000   17.494000
     16          6           0        8.103000    8.247000   18.741000
     17          6           0        8.790000    6.959000   19.164000
     18          8           0        8.820000    5.943000   18.151000
     19          1           0        8.769000    6.337000   17.234000
     20          6           0        8.317000    6.540000   20.546000
     21          8           0        9.077000    5.424000   21.035000
     22          1           0        9.061000    5.463000   22.034000
     23          6           0        8.168000   10.760000   19.587000
     24          8           0        8.406000   11.375000   18.313000
     25          1           0        8.275000   12.366000   18.347000
     26          6           0        8.495000    9.287000   19.777000
     27          8           0        7.938000    8.859000   21.029000
     28          6           0        8.552000    7.667000   21.539000
     29          8           0        7.723000    7.379000   22.674000
     30          1           0        8.276810    7.186138   23.434065
     31          1           0        9.582296    7.800040   21.795303
     32          1           0        7.277140    6.289533   20.516725
     33          1           0        9.816264    7.229376   19.300303
     34          1           0        7.041472    8.130727   18.673627
     35          1           0        9.558789    9.226745   19.875098
     36          1           0        8.729122   11.307607   20.315127
     37          1           0        7.130190   10.887993   19.813864
     38          1           0        7.990470    7.637883   11.611082
     39          1           0        6.815126    8.345984   16.766389
     40          1           0        8.755770    9.952279   15.261664
     41          1           0        6.082973    9.351827   14.100803
     42          1           0        8.810293    8.300632   13.408937
     43          1           0        6.530517    6.739957   14.562834
     44          1           0        8.315029    4.998425   14.744474
     45          1           0        9.297831    5.977188   13.712663
 ---------------------------------------------------------------------
                    Distance matrix (angstroms):
                    1          2          3          4          5
     1  O    0.000000
     2  C    1.434785   0.000000
     3  C    2.466999   1.519841   0.000000
     4  O    2.793393   2.307694   1.435190   0.000000
     5  H    2.165345   2.167513   1.943151   0.999752   0.000000
     6  C    3.781480   2.484054   1.519895   2.419905   3.180274
     7  O    4.934300   3.785434   2.474876   3.015944   3.963776
     8  H    5.690247   4.426178   3.287862   3.805487   4.745763
     9  C    2.905759   2.527916   3.881934   4.823533   4.569934
    10  O    2.881663   3.197658   4.614656   5.401871   4.923762
    11  H    3.875401   4.153161   5.558184   6.387261   5.917612
    12  C    2.405392   1.519582   2.526526   3.696459   3.675249
    13  O    3.647849   2.391969   2.873389   4.088987   4.354530
    14  C    4.257451   2.887093   2.563835   3.766427   4.342276
    15  O    5.543204   4.125242   3.821983   4.814065   5.458069
    16  C    6.603363   5.245577   4.906607   6.026023   6.692059
    17  C    7.172126   5.868218   5.885377   7.044325   7.577975
    18  O    6.418308   5.242688   5.608322   6.822695   7.182922
    19  H    5.447543   4.258451   4.697447   5.891711   6.210357
    20  C    8.498388   7.237870   7.178391   8.387235   8.956466
    21  O    9.319470   8.107995   8.252329   9.454060   9.942522
    22  H   10.258922   9.029104   9.090892  10.282083  10.815055
    23  C    8.005021   6.634623   5.770336   6.484076   7.378200
    24  O    7.170731   5.831982   4.841821   5.327035   6.255186
    25  H    7.722105   6.449266   5.319770   5.606932   6.576233
    26  C    7.813860   6.416614   5.864390   6.792531   7.572949
    27  O    8.911271   7.558007   7.024923   8.048524   8.822787
    28  C    9.421566   8.083655   7.796366   8.887900   9.573353
    29  O   10.484675   9.197109   8.858719  10.005719  10.705515
    30  H   11.288849   9.984707   9.689906  10.809317  11.504511
    31  H    9.865735   8.492289   8.257134   9.256850   9.935798
    32  H    8.443863   7.263298   7.162907   8.455289   9.014823
    33  H    7.561721   6.213338   6.261826   7.280036   7.817093
    34  H    6.477910   5.215087   4.779055   6.010527   6.676075
    35  H    8.132932   6.706479   6.287275   7.115869   7.858298
    36  H    8.957900   7.573099   6.715414   7.321904   8.227736
    37  H    8.212037   6.909599   5.931259   6.709362   7.624160
    38  H    0.960000   1.974455   3.144494   3.185961   2.389252
    39  H    4.612709   3.398683   2.917761   4.244652   4.839047
    40  H    4.029310   2.716067   2.071353   2.462356   3.172903
    41  H    2.717200   2.154120   1.070000   2.079542   2.498530
    42  H    2.029252   1.070000   2.102079   2.446000   2.268507
    43  H    2.679762   2.136058   2.784183   4.074695   4.082230
    44  H    3.920791   3.416282   4.611188   5.686921   5.537190
    45  H    3.120573   2.657970   4.063731   4.779566   4.489212
                    6          7          8          9         10
     6  C    0.000000
     7  O    1.434963   0.000000
     8  H    1.943603   0.999837   0.000000
     9  C    4.300361   5.682068   6.078813   0.000000
    10  O    5.372905   6.716482   7.240538   1.434001   0.000000
    11  H    6.214708   7.560611   8.029355   2.015180   0.999495
    12  C    2.928116   4.248374   4.730085   1.520422   2.541481
    13  O    2.468193   3.721854   3.919755   2.366862   3.704087
    14  C    1.519148   2.448528   2.548181   3.734456   4.987994
    15  O    2.476727   2.993939   2.568166   4.647658   6.022534
    16  C    3.616408   3.820990   3.317659   5.440609   6.779068
    17  C    4.732535   5.206624   4.734794   5.399779   6.741516
    18  O    4.746807   5.560571   5.302863   4.254269   5.541758
    19  H    3.937713   4.911006   4.768558   3.392105   4.743303
    20  C    6.022884   6.294508   5.776730   6.662227   7.923246
    21  O    7.158162   7.574875   7.056264   7.146938   8.358758
    22  H    7.939287   8.232333   7.653897   8.137172   9.345147
    23  C    4.300081   3.636868   2.732787   7.585561   8.906907
    24  O    3.393856   2.600662   1.613644   7.167195   8.445540
    25  H    3.984913   2.942452   2.075319   7.992737   9.226834
    26  C    4.416495   4.212781   3.425502   6.856720   8.220516
    27  O    5.648997   5.374014   4.649249   7.771676   9.092012
    28  C    6.472465   6.452607   5.761085   7.856759   9.175137
    29  O    7.589116   7.455531   6.807968   8.914851  10.162158
    30  H    8.389460   8.274269   7.577754   9.612648  10.874737
    31  H    6.878010   6.898408   6.124209   8.236244   9.599033
    32  H    6.122777   6.345165   5.943610   6.683127   7.845770
    33  H    5.024417   5.507281   4.915427   5.782434   7.175376
    34  H    3.651470   3.741465   3.430510   5.468126   6.695386
    35  H    4.813071   4.757285   3.905697   7.022200   8.434063
    36  H    5.227457   4.528100   3.573321   8.504085   9.854854
    37  H    4.570597   3.722390   2.981378   7.924371   9.175686
    38  H    4.355602   5.566685   6.259400   3.042105   2.881826
    39  H    2.096647   2.603342   2.795668   4.144753   5.271386
    40  H    1.070000   2.000243   2.182746   4.478223   5.607124
    41  H    2.156327   2.708952   3.635748   4.269570   4.829712
    42  H    2.688749   4.041522   4.527304   2.704420   3.500498
    43  H    3.305427   4.417973   4.989752   2.136689   2.762165
    44  H    4.777935   6.100465   6.383982   1.070000   2.030760
    45  H    4.384174   5.815348   6.132290   1.070000   2.030760
                   11         12         13         14         15
    11  H    0.000000
    12  C    3.319441   0.000000
    13  O    4.306543   1.434910   0.000000
    14  C    5.664073   2.486835   1.435755   0.000000
    15  O    6.587572   3.678890   2.327809   1.434994   0.000000
    16  C    7.223668   4.528701   3.192157   2.399440   1.435686
    17  C    6.991225   4.882138   3.532038   3.332810   2.390668
    18  O    5.683943   4.044779   2.862547   3.267829   2.804736
    19  H    5.004926   3.103044   1.894010   2.511391   2.345234
    20  C    8.078174   6.168441   4.901384   4.634212   3.736964
    21  O    8.358246   6.937021   5.717479   5.723030   4.817515
    22  H    9.339515   7.882897   6.646150   6.541228   5.569336
    23  C    9.505355   6.437472   5.221052   3.953126   3.004261
    24  O    9.150128   5.945580   4.869342   3.530666   2.843137
    25  H    9.975791   6.721307   5.740835   4.377349   3.818379
    26  C    8.693051   5.904348   4.558005   3.564918   2.373019
    27  O    9.472804   6.874901   5.562964   4.672796   3.616777
    28  C    9.415363   7.206409   5.863202   5.284610   4.168441
    29  O   10.352795   8.250788   6.986753   6.398313   5.422250
    30  H   11.023195   9.028769   7.733364   7.195890   6.134763
    31  H    9.826315   7.676438   6.278434   5.749021   4.479827
    32  H    7.988512   6.123102   4.993329   4.719861   4.092294
    33  H    7.426832   5.364191   3.959744   3.770750   2.573376
    34  H    7.149285   4.432376   3.290600   2.448652   2.087166
    35  H    8.872016   6.223624   4.814687   3.987953   2.599971
    36  H   10.437549   7.411686   6.155195   4.934958   3.865159
    37  H    9.782337   6.683166   5.572396   4.248313   3.565774
    38  H    3.824464   2.938457   4.110911   4.840954   6.011526
    39  H    5.907186   2.822737   2.026284   1.070000   2.025371
    40  H    6.440596   3.335325   2.779925   2.071878   2.577574
    41  H    5.751854   2.850501   3.349655   2.976115   4.326467
    42  H    4.398885   2.103210   2.594979   3.137111   4.103502
    43  H    3.468837   1.070000   2.061319   2.818500   4.112549
    44  H    2.143168   2.105925   2.471601   3.885162   4.598124
    45  H    2.540351   2.105925   2.630508   3.952856   4.681069
                   16         17         18         19         20
    16  C    0.000000
    17  C    1.519816   0.000000
    18  O    2.484070   1.435035   0.000000
    19  H    2.522440   2.027862   0.999363   0.000000
    20  C    2.493526   1.519610   2.519016   3.348859   0.000000
    21  O    3.765693   2.437055   2.941575   3.921229   1.436028
    22  H    4.417269   3.247823   3.919971   4.887652   1.981820
    23  C    2.652378   3.874715   5.068598   5.045864   4.330160
    24  O    3.171652   4.513614   5.450162   5.165022   5.326484
    25  H    4.141374   5.492573   6.449060   6.150744   6.227330
    26  C    1.519395   2.425361   3.732538   3.904411   2.858156
    27  O    2.374176   2.795376   4.190926   4.631746   2.398894
    28  C    2.892543   2.489685   3.810846   4.510988   1.520330
    29  O    4.045530   3.692559   4.870630   5.636797   2.363290
    30  H    4.814613   4.306786   5.454468   6.277268   2.959734
    31  H    3.422989   2.873819   4.160605   4.858747   2.179319
    32  H    2.768920   2.137006   2.845550   3.606131   1.070000
    33  H    2.069699   1.070000   1.992035   2.482479   2.067558
    34  H    1.070000   2.161194   2.867482   2.876515   2.768242
    35  H    2.089354   2.497872   3.781706   3.993719   3.034921
    36  H    3.498174   4.498798   5.785388   5.848236   4.790952
    37  H    3.012017   4.314427   5.483934   5.482056   4.566135
    38  H    7.156774   7.625398   6.806708   5.823711   9.008037
    39  H    2.359556   3.401822   3.422134   2.841179   4.450018
    40  H    3.929360   4.918243   4.942338   4.118316   6.305583
    41  H    5.180018   6.220095   5.959490   5.110856   7.378199
    42  H    5.379036   5.909411   5.295818   4.299844   7.367552
    43  H    4.711789   5.130689   4.330336   3.508320   6.247382
    44  H    5.154650   4.858154   3.570943   2.862798   6.002846
    45  H    5.644807   5.562277   4.464115   3.578958   6.926275
                   21         22         23         24         25
    21  O    0.000000
    22  H    0.999889   0.000000
    23  C    5.603203   5.902836   0.000000
    24  O    6.578292   7.016168   1.434554   0.000000
    25  H    7.487317   7.865315   2.031818   1.000199   0.000000
    26  C    4.104151   4.476313   1.520775   2.551658   3.401991
    27  O    3.618920   3.715369   2.397095   3.731747   4.427837
    28  C    2.358112   2.315539   3.677555   4.917078   5.687371
    29  O    2.888194   2.422994   4.599865   5.954228   6.625542
    30  H    3.082360   2.354642   5.252070   6.617293   7.260110
    31  H    2.545378   2.406342   3.954516   5.127421   5.869225
    32  H    2.063312   2.483433   4.652214   5.656209   6.528926
    33  H    2.610569   3.341199   3.906952   4.488854   5.446943
    34  H    4.128659   4.742084   3.002730   3.537979   4.423326
    35  H    4.004792   4.367428   2.090016   2.895526   3.719962
    36  H    5.937682   6.101155   1.070000   2.029153   2.280339
    37  H    5.927602   6.171514   1.070000   2.029153   2.376297
    38  H    9.741255  10.701092   8.567053   7.684687   8.234600
    39  H    5.645804   6.411184   3.951403   3.754707   4.559615
    40  H    7.344379   8.130887   4.439192   3.384838   3.946706
    41  H    8.513232   9.323478   6.035615   5.218457   5.649815
    42  H    8.154936   9.083321   6.680530   5.802156   6.418584
    43  H    7.078507   7.990763   6.639604   6.250184   7.001106
    44  H    6.350782   7.342308   7.527777   7.307760   8.201278
    45  H    7.346523   8.340571   7.658958   7.148065   7.958655
                   26         27         28         29         30
    26  C    0.000000
    27  O    1.435596   0.000000
    28  C    2.394221   1.434559   0.000000
    29  O    3.553738   2.223207   1.434716   0.000000
    30  H    4.223192   2.949169   1.974393   0.960000   0.000000
    31  H    2.732546   2.100553   1.070000   2.099134   2.183279
    32  H    3.318913   2.702096   2.137225   2.457553   3.211559
    33  H    2.491344   3.028522   2.607996   3.973157   4.411324
    34  H    2.160357   2.623342   3.272170   4.127052   5.008001
    35  H    1.070000   2.023285   2.492990   3.823367   4.298115
    36  H    2.104102   2.670424   3.844900   4.691537   5.188340
    37  H    2.104102   2.499185   3.920770   4.565614   5.303237
    38  H    8.346038   9.496897   9.943828  11.069178  11.835074
    39  H    3.573691   4.437779   5.124019   6.054681   6.923848
    40  H    4.571527   5.926734   6.683485   7.913982   8.641127
    41  H    6.167762   7.189153   8.016328   8.948824   9.829187
    42  H    6.451709   7.690125   8.158807   9.374060  10.100984
    43  H    6.126512   6.948572   7.322069   8.223224   9.052478
    44  H    6.614422   7.385219   7.303631   8.300302   8.960833
    45  H    6.955255   7.980148   8.041348   9.206016   9.849350
                   31         32         33         34         35
    31  H    0.000000
    32  H    3.038114   0.000000
    33  H    2.570102   2.968188   0.000000
    34  H    4.038564   2.615825   2.984062   0.000000
    35  H    2.392327   3.774231   2.094317   2.996943   0.000000
    36  H    3.901519   5.227806   4.340934   3.954143   2.282972
    37  H    4.412978   4.654185   4.567737   2.985051   2.943058
    38  H   10.309149   9.035339   7.913565   7.143041   8.560260
    39  H    5.765870   4.302030   4.083425   1.932648   4.238808
    40  H    6.928472   6.574018   4.984922   4.230646   4.738672
    41  H    8.594105   7.208865   6.743668   4.829134   6.740877
    42  H    8.436688   7.544251   6.071882   5.556488   6.574889
    43  H    7.921221   6.017403   5.786128   4.369661   6.601113
    44  H    7.692152   6.005252   5.290220   5.183774   6.763795
    45  H    8.290524   7.104647   5.749649   5.860039   6.971608
                   36         37         38         39         40
    36  H    0.000000
    37  H    1.727404   0.000000
    38  H    9.474855   8.865040   0.000000
    39  H    5.002812   3.980978   5.334794   0.000000
    40  H    5.232123   4.923475   4.389630   2.934362   0.000000
    41  H    7.031714   6.007957   3.574194   2.941618   2.975229
    42  H    7.532857   7.109168   2.084137   3.905794   2.482640
    43  H    7.667213   6.718566   3.413293   2.741529   3.969776
    44  H    8.426709   7.860635   4.109772   4.188556   5.000241
    45  H    8.504665   8.126459   2.980561   4.593502   4.300533
                   41         42         43         44         45
    41  H    0.000000
    42  H    3.003658   0.000000
    43  H    2.689913   2.994088   0.000000
    44  H    4.934420   3.596320   2.500082   0.000000
    45  H    4.676982   2.393395   2.993766   1.728731   0.000000
 Stoichiometry    C12H22O11
 Framework group  C1[X(C12H22O11)]
 Deg. of freedom   129
 Full point group                 C1      NOp   1
 Largest Abelian subgroup         C1      NOp   1
 Largest concise Abelian subgroup C1      NOp   1
                         Standard orientation:                         
 ---------------------------------------------------------------------
 Center     Atomic      Atomic             Coordinates (Angstroms)
 Number     Number       Type             X           Y           Z
 ---------------------------------------------------------------------
      1          8           0       -5.039618   -0.322776    0.352192
      2          6           0       -3.698654   -0.014696   -0.054638
      3          6           0       -3.208661    1.326730    0.465363
      4          8           0       -4.099203    2.254987   -0.171068
      5          1           0       -4.946905    1.740474   -0.298286
      6          6           0       -1.784617    1.567960   -0.007910
      7          8           0       -1.205464    2.779722    0.497395
      8          1           0       -0.348529    2.877634   -0.008324
      9          6           0       -3.201792   -2.483093   -0.279361
     10          8           0       -4.390247   -3.126221    0.200553
     11          1           0       -4.281760   -4.119698    0.185553
     12          6           0       -2.785068   -1.161149    0.345530
     13          8           0       -1.469128   -0.875841   -0.150319
     14          6           0       -0.846184    0.383300    0.146155
     15          8           0        0.354963    0.487741   -0.632014
     16          6           0        1.541844    0.153506    0.103374
     17          6           0        2.039998   -1.191917   -0.398144
     18          8           0        1.042236   -2.223115   -0.418806
     19          1           0        0.121902   -1.842138   -0.499847
     20          6           0        3.371315   -1.534497    0.249506
     21          8           0        3.941144   -2.715410   -0.336084
     22          1           0        4.933343   -2.657367   -0.226768
     23          6           0        2.372145    2.660256   -0.145452
     24          8           0        1.123619    3.224318   -0.570850
     25          1           0        1.137396    4.224042   -0.543265
     26          6           0        2.604117    1.164620   -0.293845
     27          8           0        3.797821    0.819632    0.425177
     28          6           0        4.374629   -0.421134   -0.005811
     29          8           0        5.423971   -0.600392    0.956041
     30          1           0        6.236508   -0.836982    0.502820
     31          1           0        4.730758   -0.392622   -1.014404
     32          1           0        3.240983   -1.674766    1.302235
     33          1           0        2.275340   -1.028539   -1.429077
     34          1           0        1.370499    0.148273    1.159552
     35          1           0        2.807521    0.994633   -1.330490
     36          1           0        3.148335    3.158588   -0.687757
     37          1           0        2.494186    2.900585    0.890042
     38          1           0       -5.559628   -0.565806   -0.417305
     39          1           0       -0.551269    0.352525    1.174249
     40          1           0       -1.867828    1.719232   -1.063889
     41          1           0       -3.283382    1.382672    1.531283
     42          1           0       -3.694196    0.038651   -1.123298
     43          1           0       -2.760647   -1.253230    1.411281
     44          1           0       -2.390718   -3.169197   -0.151612
     45          1           0       -3.327083   -2.317457   -1.329012
 ---------------------------------------------------------------------
 Rotational constants (GHZ):      0.4126533      0.1443001      0.1102155
 Standard basis: 6-31+G(d,p) (6D, 7F)
 There are   547 symmetry adapted basis functions of A   symmetry.
 Integral buffers will be    131072 words long.
 Raffenetti 2 integral format.
 Two-electron integral symmetry is turned on.
   547 basis functions,   890 primitive gaussians,   547 cartesian basis functions
    91 alpha electrons       91 beta electrons
       nuclear repulsion energy      2288.2284366374 Hartrees.
 NAtoms=   45 NActive=   45 NUniq=   45 SFac= 1.00D+00 NAtFMM=   50 NAOKFM=F Big=F
 One-electron integrals computed using PRISM.
 NBasis=   547 RedAO= T  NBF=   547
 NBsUse=   547 1.00D-06 NBFU=   547
 Harris functional with IExCor=  402 diagonalized for initial guess.
 ExpMin= 4.38D-02 ExpMax= 5.48D+03 ExpMxC= 8.25D+02 IAcc=2 IRadAn=         0 AccDes= 0.00D+00
 HarFok:  IExCor=  402 AccDes= 0.00D+00 IRadAn=         0 IDoV= 1
 ScaDFX=  1.000000  1.000000  1.000000  1.000000
 FoFCou: FMM=F IPFlag=           0 FMFlag=      100000 FMFlg1=           0
         NFxFlg=           0 DoJE=T BraDBF=F KetDBF=T FulRan=T
         Omega=  0.000000  0.000000  1.000000  0.000000  0.000000 ICntrl=     500 IOpCl=  0
         NMat0=    1 NMatS0=    1 NMatT0=    0 NMatD0=    1 NMtDS0=    0 NMtDT0=    0
         I1Cent=           4 NGrid=           0.
 Petite list used in FoFCou.
 Initial guess orbital symmetries:
       Occupied  (A) (A) (A) (A) (A) (A) (A) (A) (A) (A) (A) (A)
                 (A) (A) (A) (A) (A) (A) (A) (A) (A) (A) (A) (A)
                 (A) (A) (A) (A) (A) (A) (A) (A) (A) (A) (A) (A)
                 (A) (A) (A) (A) (A) (A) (A) (A) (A) (A) (A) (A)
                 (A) (A) (A) (A) (A) (A) (A) (A) (A) (A) (A) (A)
                 (A) (A) (A) (A) (A) (A) (A) (A) (A) (A) (A) (A)
                 (A) (A) (A) (A) (A) (A) (A) (A) (A) (A) (A) (A)
                 (A) (A) (A) (A) (A) (A) (A)
       Virtual   (A) (A) (A) (A) (A) (A) (A) (A) (A) (A) (A) (A)
                 (A) (A) (A) (A) (A) (A) (A) (A) (A) (A) (A) (A)
                 (A) (A) (A) (A) (A) (A) (A) (A) (A) (A) (A) (A)
                 (A) (A) (A) (A) (A) (A) (A) (A) (A) (A) (A) (A)
                 (A) (A) (A) (A) (A) (A) (A) (A) (A) (A) (A) (A)
                 (A) (A) (A) (A) (A) (A) (A) (A) (A) (A) (A) (A)
                 (A) (A) (A) (A) (A) (A) (A) (A) (A) (A) (A) (A)
                 (A) (A) (A) (A) (A) (A) (A) (A) (A) (A) (A) (A)
                 (A) (A) (A) (A) (A) (A) (A) (A) (A) (A) (A) (A)
                 (A) (A) (A) (A) (A) (A) (A) (A) (A) (A) (A) (A)
                 (A) (A) (A) (A) (A) (A) (A) (A) (A) (A) (A) (A)
                 (A) (A) (A) (A) (A) (A) (A) (A) (A) (A) (A) (A)
                 (A) (A) (A) (A) (A) (A) (A) (A) (A) (A) (A) (A)
                 (A) (A) (A) (A) (A) (A) (A) (A) (A) (A) (A) (A)
                 (A) (A) (A) (A) (A) (A) (A) (A) (A) (A) (A) (A)
                 (A) (A) (A) (A) (A) (A) (A) (A) (A) (A) (A) (A)
                 (A) (A) (A) (A) (A) (A) (A) (A) (A) (A) (A) (A)
                 (A) (A) (A) (A) (A) (A) (A) (A) (A) (A) (A) (A)
                 (A) (A) (A) (A) (A) (A) (A) (A) (A) (A) (A) (A)
                 (A) (A) (A) (A) (A) (A) (A) (A) (A) (A) (A) (A)
                 (A) (A) (A) (A) (A) (A) (A) (A) (A) (A) (A) (A)
                 (A) (A) (A) (A) (A) (A) (A) (A) (A) (A) (A) (A)
                 (A) (A) (A) (A) (A) (A) (A) (A) (A) (A) (A) (A)
                 (A) (A) (A) (A) (A) (A) (A) (A) (A) (A) (A) (A)
                 (A) (A) (A) (A) (A) (A) (A) (A) (A) (A) (A) (A)
                 (A) (A) (A) (A) (A) (A) (A) (A) (A) (A) (A) (A)
                 (A) (A) (A) (A) (A) (A) (A) (A) (A) (A) (A) (A)
                 (A) (A) (A) (A) (A) (A) (A) (A) (A) (A) (A) (A)
                 (A) (A) (A) (A) (A) (A) (A) (A) (A) (A) (A) (A)
                 (A) (A) (A) (A) (A) (A) (A) (A) (A) (A) (A) (A)
                 (A) (A) (A) (A) (A) (A) (A) (A) (A) (A) (A) (A)
                 (A) (A) (A) (A) (A) (A) (A) (A) (A) (A) (A) (A)
                 (A) (A) (A) (A) (A) (A) (A) (A) (A) (A) (A) (A)
                 (A) (A) (A) (A) (A) (A) (A) (A) (A) (A) (A) (A)
                 (A) (A) (A) (A) (A) (A) (A) (A) (A) (A) (A) (A)
                 (A) (A) (A) (A) (A) (A) (A) (A) (A) (A) (A) (A)
                 (A) (A) (A) (A) (A) (A) (A) (A) (A) (A) (A) (A)
                 (A) (A) (A) (A) (A) (A) (A) (A) (A) (A) (A) (A)
 The electronic state of the initial guess is 1-A.
 Requested convergence on RMS density matrix=1.00D-08 within 128 cycles.
 Requested convergence on MAX density matrix=1.00D-06.
 Requested convergence on             energy=1.00D-06.
 No special actions if energy rises.
 SCF Done:  E(RB3LYP) =  -1297.93161048     A.U. after   14 cycles
             Convg  =    0.2475D-08             -V/T =  2.0087
 Range of M.O.s used for correlation:     1   547
 NBasis=   547 NAE=    91 NBE=    91 NFC=     0 NFV=     0
 NROrb=    547 NOA=    91 NOB=    91 NVA=   456 NVB=   456

 **** Warning!!: The largest alpha MO coefficient is  0.64929237D+02

          Differentiating once with respect to electric field.
                with respect to dipole field.
          Electric field/nuclear overlap derivatives assumed to be zero.
          There are     3 degrees of freedom in the 1st order CPHF.  IDoFFX=0.
      3 vectors produced by pass  0 Test12= 1.38D-12 3.33D-08 XBig12= 1.20D+02 1.10D+00.
 AX will form     3 AO Fock derivatives at one time.
      3 vectors produced by pass  1 Test12= 1.38D-12 3.33D-08 XBig12= 2.18D+01 4.35D-01.
      3 vectors produced by pass  2 Test12= 1.38D-12 3.33D-08 XBig12= 9.32D+00 2.27D-01.
      3 vectors produced by pass  3 Test12= 1.38D-12 3.33D-08 XBig12= 9.19D-01 1.05D-01.
      3 vectors produced by pass  4 Test12= 1.38D-12 3.33D-08 XBig12= 2.75D-01 4.63D-02.
      3 vectors produced by pass  5 Test12= 1.38D-12 3.33D-08 XBig12= 5.11D-02 2.53D-02.
      3 vectors produced by pass  6 Test12= 1.38D-12 3.33D-08 XBig12= 1.74D-02 1.84D-02.
      3 vectors produced by pass  7 Test12= 1.38D-12 3.33D-08 XBig12= 2.23D-03 8.02D-03.
      3 vectors produced by pass  8 Test12= 1.38D-12 3.33D-08 XBig12= 4.37D-04 2.49D-03.
      3 vectors produced by pass  9 Test12= 1.38D-12 3.33D-08 XBig12= 1.16D-04 1.54D-03.
      3 vectors produced by pass 10 Test12= 1.38D-12 3.33D-08 XBig12= 2.71D-05 4.62D-04.
      3 vectors produced by pass 11 Test12= 1.38D-12 3.33D-08 XBig12= 7.59D-06 3.00D-04.
      3 vectors produced by pass 12 Test12= 1.38D-12 3.33D-08 XBig12= 8.43D-07 9.13D-05.
      3 vectors produced by pass 13 Test12= 1.38D-12 3.33D-08 XBig12= 2.90D-07 4.31D-05.
      3 vectors produced by pass 14 Test12= 1.38D-12 3.33D-08 XBig12= 2.39D-08 1.36D-05.
      3 vectors produced by pass 15 Test12= 1.38D-12 3.33D-08 XBig12= 2.28D-09 4.13D-06.
      3 vectors produced by pass 16 Test12= 1.38D-12 3.33D-08 XBig12= 5.21D-10 2.35D-06.
      3 vectors produced by pass 17 Test12= 1.38D-12 3.33D-08 XBig12= 8.78D-11 5.86D-07.
      3 vectors produced by pass 18 Test12= 1.38D-12 3.33D-08 XBig12= 2.87D-11 4.71D-07.
      3 vectors produced by pass 19 Test12= 1.38D-12 3.33D-08 XBig12= 8.69D-12 2.47D-07.
      3 vectors produced by pass 20 Test12= 1.38D-12 3.33D-08 XBig12= 6.30D-12 2.12D-07.
      3 vectors produced by pass 21 Test12= 1.38D-12 3.33D-08 XBig12= 4.10D-13 4.42D-08.
 Inverted reduced A of dimension    66 with in-core refinement.
 End of Minotr Frequency-dependent properties file   721 does not exist.
 End of Minotr Frequency-dependent properties file   722 does not exist.
 Symmetrizing basis deriv contribution to polar:
 IMax=3 JMax=2 DiffMx= 0.00D+00
 G2DrvN: will do    23 centers at a time, making    2 passes doing MaxLOS=2.
 Calling FoFCou, ICntrl=  3107 FMM=F I1Cent=   0 AccDes= 0.00D+00.
 Calling FoFCou, ICntrl=  3107 FMM=F I1Cent=   0 AccDes= 0.00D+00.
 FoFDir/FoFCou used for L=0 through L=2.
 End of G2Drv Frequency-dependent properties file   721 does not exist.
 End of G2Drv Frequency-dependent properties file   722 does not exist.
          IDoAtm=111111111111111111111111111111111111111111111
          Differentiating once with respect to electric field.
                with respect to dipole field.
          Differentiating once with respect to nuclear coordinates.
          There are   138 degrees of freedom in the 1st order CPHF.  IDoFFX=5.
 Will reuse    3 saved solutions.
    135 vectors produced by pass  0 Test12= 4.15D-14 1.00D-09 XBig12= 2.56D-01 1.13D-01.
 AX will form    68 AO Fock derivatives at one time.
    135 vectors produced by pass  1 Test12= 4.15D-14 1.00D-09 XBig12= 4.04D-02 1.49D-02.
    132 vectors produced by pass  2 Test12= 4.15D-14 1.00D-09 XBig12= 1.85D-04 2.21D-03.
    132 vectors produced by pass  3 Test12= 4.15D-14 1.00D-09 XBig12= 5.74D-07 9.52D-05.
    132 vectors produced by pass  4 Test12= 4.15D-14 1.00D-09 XBig12= 1.05D-09 2.63D-06.
    132 vectors produced by pass  5 Test12= 4.15D-14 1.00D-09 XBig12= 4.18D-12 2.12D-07.
     79 vectors produced by pass  6 Test12= 4.15D-14 1.00D-09 XBig12= 1.38D-13 2.11D-08.
      1 vectors produced by pass  7 Test12= 4.15D-14 1.00D-09 XBig12= 1.72D-16 1.45D-09.
 Inverted reduced A of dimension   878 with in-core refinement.
 Isotropic polarizability for W=    0.000000      187.13 Bohr**3.
 End of Minotr Frequency-dependent properties file   721 does not exist.
 End of Minotr Frequency-dependent properties file   722 does not exist.

 **********************************************************************

            Population analysis using the SCF density.

 **********************************************************************

 Orbital symmetries:
       Occupied  (A) (A) (A) (A) (A) (A) (A) (A) (A) (A) (A) (A)
                 (A) (A) (A) (A) (A) (A) (A) (A) (A) (A) (A) (A)
                 (A) (A) (A) (A) (A) (A) (A) (A) (A) (A) (A) (A)
                 (A) (A) (A) (A) (A) (A) (A) (A) (A) (A) (A) (A)
                 (A) (A) (A) (A) (A) (A) (A) (A) (A) (A) (A) (A)
                 (A) (A) (A) (A) (A) (A) (A) (A) (A) (A) (A) (A)
                 (A) (A) (A) (A) (A) (A) (A) (A) (A) (A) (A) (A)
                 (A) (A) (A) (A) (A) (A) (A)
       Virtual   (A) (A) (A) (A) (A) (A) (A) (A) (A) (A) (A) (A)
                 (A) (A) (A) (A) (A) (A) (A) (A) (A) (A) (A) (A)
                 (A) (A) (A) (A) (A) (A) (A) (A) (A) (A) (A) (A)
                 (A) (A) (A) (A) (A) (A) (A) (A) (A) (A) (A) (A)
                 (A) (A) (A) (A) (A) (A) (A) (A) (A) (A) (A) (A)
                 (A) (A) (A) (A) (A) (A) (A) (A) (A) (A) (A) (A)
                 (A) (A) (A) (A) (A) (A) (A) (A) (A) (A) (A) (A)
                 (A) (A) (A) (A) (A) (A) (A) (A) (A) (A) (A) (A)
                 (A) (A) (A) (A) (A) (A) (A) (A) (A) (A) (A) (A)
                 (A) (A) (A) (A) (A) (A) (A) (A) (A) (A) (A) (A)
                 (A) (A) (A) (A) (A) (A) (A) (A) (A) (A) (A) (A)
                 (A) (A) (A) (A) (A) (A) (A) (A) (A) (A) (A) (A)
                 (A) (A) (A) (A) (A) (A) (A) (A) (A) (A) (A) (A)
                 (A) (A) (A) (A) (A) (A) (A) (A) (A) (A) (A) (A)
                 (A) (A) (A) (A) (A) (A) (A) (A) (A) (A) (A) (A)
                 (A) (A) (A) (A) (A) (A) (A) (A) (A) (A) (A) (A)
                 (A) (A) (A) (A) (A) (A) (A) (A) (A) (A) (A) (A)
                 (A) (A) (A) (A) (A) (A) (A) (A) (A) (A) (A) (A)
                 (A) (A) (A) (A) (A) (A) (A) (A) (A) (A) (A) (A)
                 (A) (A) (A) (A) (A) (A) (A) (A) (A) (A) (A) (A)
                 (A) (A) (A) (A) (A) (A) (A) (A) (A) (A) (A) (A)
                 (A) (A) (A) (A) (A) (A) (A) (A) (A) (A) (A) (A)
                 (A) (A) (A) (A) (A) (A) (A) (A) (A) (A) (A) (A)
                 (A) (A) (A) (A) (A) (A) (A) (A) (A) (A) (A) (A)
                 (A) (A) (A) (A) (A) (A) (A) (A) (A) (A) (A) (A)
                 (A) (A) (A) (A) (A) (A) (A) (A) (A) (A) (A) (A)
                 (A) (A) (A) (A) (A) (A) (A) (A) (A) (A) (A) (A)
                 (A) (A) (A) (A) (A) (A) (A) (A) (A) (A) (A) (A)
                 (A) (A) (A) (A) (A) (A) (A) (A) (A) (A) (A) (A)
                 (A) (A) (A) (A) (A) (A) (A) (A) (A) (A) (A) (A)
                 (A) (A) (A) (A) (A) (A) (A) (A) (A) (A) (A) (A)
                 (A) (A) (A) (A) (A) (A) (A) (A) (A) (A) (A) (A)
                 (A) (A) (A) (A) (A) (A) (A) (A) (A) (A) (A) (A)
                 (A) (A) (A) (A) (A) (A) (A) (A) (A) (A) (A) (A)
                 (A) (A) (A) (A) (A) (A) (A) (A) (A) (A) (A) (A)
                 (A) (A) (A) (A) (A) (A) (A) (A) (A) (A) (A) (A)
                 (A) (A) (A) (A) (A) (A) (A) (A) (A) (A) (A) (A)
                 (A) (A) (A) (A) (A) (A) (A) (A) (A) (A) (A) (A)
 The electronic state is 1-A.
 Alpha  occ. eigenvalues --  -19.20226 -19.19606 -19.19409 -19.19080 -19.19010
 Alpha  occ. eigenvalues --  -19.18095 -19.17262 -19.17127 -19.15603 -19.14594
 Alpha  occ. eigenvalues --  -19.13880 -10.31984 -10.30919 -10.26907 -10.26399
 Alpha  occ. eigenvalues --  -10.26207 -10.26066 -10.25544 -10.25189 -10.24802
 Alpha  occ. eigenvalues --  -10.24748 -10.24583 -10.24283  -1.10266  -1.09566
 Alpha  occ. eigenvalues --   -1.06230  -1.05913  -1.04499  -1.04003  -1.03020
 Alpha  occ. eigenvalues --   -1.02803  -1.02006  -1.00426  -1.00027  -0.82529
 Alpha  occ. eigenvalues --   -0.80213  -0.79796  -0.78537  -0.72583  -0.70352
 Alpha  occ. eigenvalues --   -0.67581  -0.65276  -0.63538  -0.63125  -0.62259
 Alpha  occ. eigenvalues --   -0.60325  -0.57283  -0.55958  -0.55585  -0.54969
 Alpha  occ. eigenvalues --   -0.54556  -0.53686  -0.53010  -0.51839  -0.51282
 Alpha  occ. eigenvalues --   -0.50819  -0.50113  -0.49887  -0.48980  -0.47286
 Alpha  occ. eigenvalues --   -0.46544  -0.45482  -0.45047  -0.43867  -0.43339
 Alpha  occ. eigenvalues --   -0.42920  -0.41928  -0.41556  -0.40174  -0.39649
 Alpha  occ. eigenvalues --   -0.38783  -0.38519  -0.38060  -0.36428  -0.35701
 Alpha  occ. eigenvalues --   -0.35619  -0.35314  -0.34333  -0.33934  -0.33746
 Alpha  occ. eigenvalues --   -0.33142  -0.31503  -0.31196  -0.30390  -0.30179
 Alpha  occ. eigenvalues --   -0.29549  -0.29171  -0.28011  -0.27673  -0.26695
 Alpha  occ. eigenvalues --   -0.26085
 Alpha virt. eigenvalues --   -0.02990  -0.02281  -0.02052  -0.00339   0.00058
 Alpha virt. eigenvalues --    0.01034   0.01581   0.02396   0.03431   0.03701
 Alpha virt. eigenvalues --    0.04125   0.04303   0.04779   0.05240   0.05543
 Alpha virt. eigenvalues --    0.05888   0.06646   0.07450   0.07544   0.07907
 Alpha virt. eigenvalues --    0.08368   0.08735   0.09163   0.09504   0.09851
 Alpha virt. eigenvalues --    0.10349   0.11126   0.11442   0.11562   0.11885
 Alpha virt. eigenvalues --    0.12132   0.12575   0.13114   0.13616   0.13729
 Alpha virt. eigenvalues --    0.13919   0.14278   0.14627   0.14868   0.14984
 Alpha virt. eigenvalues --    0.15529   0.16333   0.16549   0.16852   0.17150
 Alpha virt. eigenvalues --    0.17321   0.17538   0.17837   0.18228   0.18624
 Alpha virt. eigenvalues --    0.18866   0.19054   0.19547   0.19895   0.20251
 Alpha virt. eigenvalues --    0.20282   0.20354   0.20881   0.21416   0.21572
 Alpha virt. eigenvalues --    0.21952   0.22321   0.22641   0.22947   0.23095
 Alpha virt. eigenvalues --    0.23388   0.23488   0.23948   0.24020   0.24693
 Alpha virt. eigenvalues --    0.24837   0.25354   0.25545   0.25888   0.26019
 Alpha virt. eigenvalues --    0.26231   0.26599   0.26978   0.27279   0.27568
 Alpha virt. eigenvalues --    0.27808   0.27841   0.28393   0.28636   0.28769
 Alpha virt. eigenvalues --    0.29307   0.29818   0.30391   0.30695   0.30908
 Alpha virt. eigenvalues --    0.31297   0.31432   0.31732   0.32252   0.32449
 Alpha virt. eigenvalues --    0.32881   0.33229   0.33376   0.33895   0.33982
 Alpha virt. eigenvalues --    0.34493   0.34955   0.35165   0.35564   0.35929
 Alpha virt. eigenvalues --    0.36256   0.36383   0.37299   0.37598   0.37978
 Alpha virt. eigenvalues --    0.38054   0.38210   0.38899   0.39043   0.39606
 Alpha virt. eigenvalues --    0.39810   0.40328   0.40888   0.41324   0.41755
 Alpha virt. eigenvalues --    0.42599   0.43043   0.43244   0.44047   0.44790
 Alpha virt. eigenvalues --    0.44965   0.45555   0.45982   0.46603   0.47664
 Alpha virt. eigenvalues --    0.47899   0.48358   0.49227   0.50179   0.50479
 Alpha virt. eigenvalues --    0.51374   0.52110   0.56609   0.62928   0.63525
 Alpha virt. eigenvalues --    0.64635   0.66060   0.66709   0.68561   0.69213
 Alpha virt. eigenvalues --    0.69847   0.70913   0.72068   0.72689   0.73955
 Alpha virt. eigenvalues --    0.74641   0.75150   0.76122   0.77050   0.79322
 Alpha virt. eigenvalues --    0.79384   0.80438   0.81080   0.81926   0.83372
 Alpha virt. eigenvalues --    0.85549   0.86741   0.87115   0.87807   0.89449
 Alpha virt. eigenvalues --    0.90706   0.91908   0.92135   0.93109   0.93999
 Alpha virt. eigenvalues --    0.95152   0.97141   0.97400   0.98924   1.00553
 Alpha virt. eigenvalues --    1.01067   1.01698   1.02253   1.02987   1.04741
 Alpha virt. eigenvalues --    1.04877   1.05393   1.05825   1.06998   1.07443
 Alpha virt. eigenvalues --    1.08259   1.08871   1.09529   1.10187   1.11352
 Alpha virt. eigenvalues --    1.11731   1.12559   1.12953   1.14433   1.14661
 Alpha virt. eigenvalues --    1.16204   1.17549   1.19666   1.20775   1.21063
 Alpha virt. eigenvalues --    1.22154   1.23218   1.24015   1.24646   1.24911
 Alpha virt. eigenvalues --    1.25952   1.26459   1.27254   1.27783   1.28803
 Alpha virt. eigenvalues --    1.29419   1.29699   1.30337   1.30509   1.32485
 Alpha virt. eigenvalues --    1.32745   1.33367   1.33613   1.34179   1.34912
 Alpha virt. eigenvalues --    1.36010   1.36752   1.37436   1.38321   1.38758
 Alpha virt. eigenvalues --    1.39629   1.40032   1.41425   1.42297   1.42895
 Alpha virt. eigenvalues --    1.43081   1.45070   1.46323   1.46821   1.48322
 Alpha virt. eigenvalues --    1.49195   1.49900   1.51571   1.52274   1.52866
 Alpha virt. eigenvalues --    1.54151   1.55947   1.56318   1.57338   1.57555
 Alpha virt. eigenvalues --    1.58204   1.59289   1.59332   1.60380   1.60855
 Alpha virt. eigenvalues --    1.62381   1.62761   1.64032   1.64897   1.64992
 Alpha virt. eigenvalues --    1.66280   1.67479   1.68153   1.69282   1.69373
 Alpha virt. eigenvalues --    1.70463   1.71155   1.71459   1.72516   1.72745
 Alpha virt. eigenvalues --    1.74802   1.75251   1.76367   1.76628   1.77171
 Alpha virt. eigenvalues --    1.78295   1.78683   1.80560   1.80683   1.81889
 Alpha virt. eigenvalues --    1.82627   1.84352   1.85073   1.86224   1.86453
 Alpha virt. eigenvalues --    1.87492   1.87740   1.89060   1.90322   1.90751
 Alpha virt. eigenvalues --    1.91716   1.92068   1.92450   1.93522   1.94951
 Alpha virt. eigenvalues --    1.95419   1.96217   1.96271   1.96996   1.97309
 Alpha virt. eigenvalues --    1.97958   1.99987   2.00387   2.01117   2.02559
 Alpha virt. eigenvalues --    2.03643   2.04131   2.04789   2.05887   2.07121
 Alpha virt. eigenvalues --    2.07718   2.08579   2.09795   2.10432   2.11263
 Alpha virt. eigenvalues --    2.13466   2.14122   2.15493   2.15770   2.16567
 Alpha virt. eigenvalues --    2.17107   2.17698   2.18357   2.18818   2.19170
 Alpha virt. eigenvalues --    2.21274   2.22740   2.24821   2.25307   2.27642
 Alpha virt. eigenvalues --    2.29286   2.31057   2.31576   2.33804   2.35156
 Alpha virt. eigenvalues --    2.36325   2.37238   2.37961   2.38967   2.39298
 Alpha virt. eigenvalues --    2.39883   2.41519   2.42903   2.45231   2.45827
 Alpha virt. eigenvalues --    2.46733   2.47287   2.48194   2.49611   2.50560
 Alpha virt. eigenvalues --    2.51242   2.51916   2.52765   2.54037   2.56349
 Alpha virt. eigenvalues --    2.57379   2.57612   2.59278   2.59774   2.60973
 Alpha virt. eigenvalues --    2.61286   2.62221   2.63466   2.64146   2.64880
 Alpha virt. eigenvalues --    2.66117   2.66618   2.67075   2.69428   2.70039
 Alpha virt. eigenvalues --    2.71123   2.72376   2.73195   2.73531   2.74301
 Alpha virt. eigenvalues --    2.75545   2.75998   2.78047   2.79669   2.79741
 Alpha virt. eigenvalues --    2.81583   2.82943   2.83807   2.84676   2.85781
 Alpha virt. eigenvalues --    2.86586   2.87713   2.88277   2.89336   2.89934
 Alpha virt. eigenvalues --    2.90954   2.91700   2.92508   2.92773   2.94579
 Alpha virt. eigenvalues --    2.95065   2.95957   2.98116   2.99335   3.00114
 Alpha virt. eigenvalues --    3.01726   3.02234   3.04437   3.04834   3.05128
 Alpha virt. eigenvalues --    3.06537   3.07682   3.09384   3.11950   3.13663
 Alpha virt. eigenvalues --    3.17901   3.20126   3.23848   3.26560   3.29607
 Alpha virt. eigenvalues --    3.30525   3.36525   3.37711   3.38250   3.41392
 Alpha virt. eigenvalues --    3.42735   3.44490   3.45505   3.46063   3.48939
 Alpha virt. eigenvalues --    3.50010   3.50349   3.52575   3.53297   3.55278
 Alpha virt. eigenvalues --    3.55740   3.57270   3.60355   3.62730   3.64935
 Alpha virt. eigenvalues --    3.66180   3.71047   3.74913   4.29482   4.34461
 Alpha virt. eigenvalues --    4.35581   4.36735   4.39777   4.41412   4.45587
 Alpha virt. eigenvalues --    4.48625   4.50473   4.53558   4.54435   4.55814
 Alpha virt. eigenvalues --    4.56798   4.59749   4.60544   4.66887   4.73170
 Alpha virt. eigenvalues --    4.79328   4.81175   4.84917   4.85265   4.91739
 Alpha virt. eigenvalues --    4.92607
          Condensed to atoms (all electrons):
              1          2          3          4          5          6
     1  O    8.268338   0.141524  -0.015337  -0.036311   0.041602   0.106239
     2  C    0.141524  11.104286  -1.775113   0.128789  -0.057581  -4.092742
     3  C   -0.015337  -1.775113   8.506349   0.241116  -0.002719  -0.313711
     4  O   -0.036311   0.128789   0.241116   8.219485   0.200172  -0.318951
     5  H    0.041602  -0.057581  -0.002719   0.200172   0.432368   0.016352
     6  C    0.106239  -4.092742  -0.313711  -0.318951   0.016352  16.971014
     7  O   -0.001182   0.028601  -0.174825   0.010966  -0.000758   0.350695
     8  H    0.000034  -0.010175   0.044585  -0.000579   0.000014   0.024355
     9  C    0.039421   0.554389  -0.324509   0.014669  -0.004417   0.375174
    10  O   -0.000454   0.021145   0.011022   0.000118  -0.000057  -0.003953
    11  H    0.001730  -0.009349  -0.000682   0.000004   0.000000   0.000763
    12  C   -0.216949  -2.462144   0.304392  -0.073416   0.044031   0.980625
    13  O    0.006825  -0.018079  -0.053909   0.000911   0.000423  -0.127198
    14  C   -0.006025   1.966993  -0.484535   0.139999  -0.012800  -6.107907
    15  O    0.000337  -0.065064   0.063799  -0.001205   0.000138   0.167066
    16  C    0.004306   0.006716  -0.092011  -0.000349   0.001107  -0.661706
    17  C   -0.000037   0.002695   0.023008   0.001741  -0.000002  -0.295565
    18  O    0.000049   0.010267  -0.002938  -0.000003   0.000000  -0.004467
    19  H   -0.000040  -0.006937   0.006628  -0.000012   0.000000   0.025196
    20  C    0.000044   0.009051  -0.003444   0.000062   0.000002   0.009530
    21  O    0.000000  -0.000022  -0.000043   0.000000   0.000000  -0.000184
    22  H    0.000000  -0.000002   0.000000   0.000000   0.000000  -0.000134
    23  C    0.000120   0.008366  -0.029502   0.000471  -0.000053  -0.265250
    24  O    0.000005   0.002066  -0.021607  -0.000139  -0.000004  -0.004126
    25  H    0.000000   0.000079   0.002235   0.000006   0.000000  -0.001699
    26  C   -0.000384   0.006363  -0.024994   0.000346   0.000073  -0.407212
    27  O    0.000000  -0.000299   0.000865   0.000000   0.000000   0.004586
    28  C    0.000008  -0.002298   0.000211  -0.000003   0.000000   0.027630
    29  O    0.000000  -0.000018   0.000033   0.000000   0.000000  -0.000331
    30  H    0.000000   0.000000   0.000000   0.000000   0.000000  -0.000004
    31  H    0.000000  -0.000001   0.000003   0.000000   0.000000   0.000371
    32  H    0.000000   0.000097  -0.000052   0.000000   0.000000   0.000182
    33  H    0.000000   0.001037  -0.000424   0.000000   0.000000  -0.001236
    34  H   -0.000002   0.000015   0.000960   0.000004   0.000000  -0.002705
    35  H    0.000000   0.000095   0.000124   0.000000   0.000000   0.004324
    36  H    0.000000  -0.000005  -0.000218   0.000000   0.000000  -0.001634
    37  H    0.000000  -0.000035   0.000752   0.000001   0.000000   0.000396
    38  H    0.244866   0.062143  -0.015864   0.002338  -0.005521  -0.004130
    39  H    0.000001   0.018927  -0.040690  -0.000108   0.000007  -0.144129
    40  H   -0.001207   0.099977  -0.215433   0.001996   0.000169   0.262633
    41  H   -0.011069   0.255491   0.273975  -0.038114  -0.000410  -0.397279
    42  H   -0.050621   0.476352  -0.100847  -0.000128  -0.004165  -0.025953
    43  H    0.007330   0.050956  -0.049184   0.000099  -0.000029  -0.040976
    44  H    0.000603  -0.010027  -0.004033   0.000043   0.000000  -0.003116
    45  H    0.001819   0.014126  -0.007992  -0.000190   0.000003   0.022416
              7          8          9         10         11         12
     1  O   -0.001182   0.000034   0.039421  -0.000454   0.001730  -0.216949
     2  C    0.028601  -0.010175   0.554389   0.021145  -0.009349  -2.462144
     3  C   -0.174825   0.044585  -0.324509   0.011022  -0.000682   0.304392
     4  O    0.010966  -0.000579   0.014669   0.000118   0.000004  -0.073416
     5  H   -0.000758   0.000014  -0.004417  -0.000057   0.000000   0.044031
     6  C    0.350695   0.024355   0.375174  -0.003953   0.000763   0.980625
     7  O    8.249743   0.209241   0.002260   0.000017   0.000000   0.020861
     8  H    0.209241   0.344171  -0.000137   0.000000   0.000000  -0.006194
     9  C    0.002260  -0.000137   7.810033   0.135648   0.020830  -3.165046
    10  O    0.000017   0.000000   0.135648   8.352585   0.200672  -0.059825
    11  H    0.000000   0.000000   0.020830   0.200672   0.428865   0.009464
    12  C    0.020861  -0.006194  -3.165046  -0.059825   0.009464  11.834166
    13  O    0.009490  -0.000382   0.115759  -0.000042  -0.000183  -0.295631
    14  C   -0.107685  -0.076579  -0.378734   0.005207  -0.003213  -0.847059
    15  O   -0.003831   0.020129  -0.023810  -0.000101   0.000002   0.048477
    16  C   -0.007076   0.035735  -0.209842  -0.002479  -0.000194  -0.000795
    17  C    0.009846   0.003015   0.025253   0.000443  -0.000018  -0.062987
    18  O   -0.000115  -0.000012   0.005093  -0.000007   0.000002  -0.025457
    19  H   -0.000119  -0.000006  -0.002987  -0.000040  -0.000002   0.013703
    20  C    0.005617   0.000923  -0.011349   0.000037   0.000005  -0.009520
    21  O   -0.000004   0.000000   0.000010   0.000000   0.000000  -0.000180
    22  H    0.000000   0.000000  -0.000005   0.000000   0.000000   0.000037
    23  C    0.016924   0.014198  -0.001503  -0.000005   0.000000  -0.005986
    24  O   -0.027783  -0.018314   0.000185   0.000000   0.000000   0.003323
    25  H    0.001496  -0.002243  -0.000017   0.000000   0.000000  -0.000234
    26  C    0.000343  -0.033201  -0.001820  -0.000027   0.000004   0.078462
    27  O    0.000257   0.000090  -0.000003   0.000000   0.000000  -0.000054
    28  C   -0.000508   0.000122  -0.001968  -0.000004   0.000000  -0.000111
    29  O   -0.000006  -0.000001   0.000014   0.000000   0.000000   0.000102
    30  H    0.000000   0.000000   0.000000   0.000000   0.000000   0.000000
    31  H    0.000001   0.000000   0.000002   0.000000   0.000000  -0.000009
    32  H    0.000003   0.000000  -0.000143   0.000000   0.000000   0.000250
    33  H    0.000019   0.000002  -0.000414   0.000000   0.000000   0.000117
    34  H   -0.000374  -0.000002   0.000171   0.000001   0.000000   0.003351
    35  H    0.000116  -0.000011   0.000080   0.000000   0.000000   0.000345
    36  H   -0.000683   0.000220  -0.000001   0.000000   0.000000   0.000034
    37  H    0.001360   0.000682   0.000003   0.000000   0.000000   0.000053
    38  H    0.000003   0.000000  -0.000473   0.000307  -0.000055  -0.034786
    39  H    0.004549  -0.000829   0.015340   0.000104   0.000000  -0.007431
    40  H   -0.048897  -0.008539   0.016472   0.000031   0.000000  -0.008854
    41  H    0.007249  -0.000124   0.016149   0.000087   0.000000  -0.076756
    42  H    0.000398   0.000001   0.023521   0.000372  -0.000001  -0.167895
    43  H    0.000262   0.000001   0.067868   0.007327  -0.000107   0.141167
    44  H   -0.000009   0.000000   0.396409  -0.036009  -0.014682  -0.014444
    45  H    0.000002   0.000000   0.665179  -0.072762   0.001362  -0.332469
             13         14         15         16         17         18
     1  O    0.006825  -0.006025   0.000337   0.004306  -0.000037   0.000049
     2  C   -0.018079   1.966993  -0.065064   0.006716   0.002695   0.010267
     3  C   -0.053909  -0.484535   0.063799  -0.092011   0.023008  -0.002938
     4  O    0.000911   0.139999  -0.001205  -0.000349   0.001741  -0.000003
     5  H    0.000423  -0.012800   0.000138   0.001107  -0.000002   0.000000
     6  C   -0.127198  -6.107907   0.167066  -0.661706  -0.295565  -0.004467
     7  O    0.009490  -0.107685  -0.003831  -0.007076   0.009846  -0.000115
     8  H   -0.000382  -0.076579   0.020129   0.035735   0.003015  -0.000012
     9  C    0.115759  -0.378734  -0.023810  -0.209842   0.025253   0.005093
    10  O   -0.000042   0.005207  -0.000101  -0.002479   0.000443  -0.000007
    11  H   -0.000183  -0.003213   0.000002  -0.000194  -0.000018   0.000002
    12  C   -0.295631  -0.847059   0.048477  -0.000795  -0.062987  -0.025457
    13  O    8.545997   0.190663  -0.027056   0.179488  -0.077652   0.019208
    14  C    0.190663  12.762134   0.042448  -1.549663   0.467852  -0.050989
    15  O   -0.027056   0.042448   8.301701  -0.048292   0.059876   0.001512
    16  C    0.179488  -1.549663  -0.048292  14.860831  -2.592157  -0.067819
    17  C   -0.077652   0.467852   0.059876  -2.592157  10.144673   0.395852
    18  O    0.019208  -0.050989   0.001512  -0.067819   0.395852   8.238375
    19  H    0.019432   0.009794   0.026090  -0.106643   0.015972   0.187708
    20  C   -0.018696  -0.635325   0.059676  -1.358478  -1.711873  -0.144195
    21  O    0.000267  -0.001256  -0.001711   0.085975  -0.249794   0.020409
    22  H    0.000004  -0.002457   0.000056  -0.037025   0.003823  -0.001545
    23  C    0.020294  -0.021028  -0.073152   0.124076  -0.408240   0.009836
    24  O    0.000189   0.085244  -0.034521  -0.029158  -0.002425   0.000149
    25  H    0.000031  -0.003860   0.002673  -0.003138  -0.000439  -0.000002
    26  C   -0.017012  -0.529356  -0.035646  -3.619385   0.174003   0.030455
    27  O    0.000267  -0.018459   0.004615  -0.085665  -0.049967   0.000053
    28  C    0.004202  -0.108631   0.001670   0.937077  -0.205090  -0.013336
    29  O    0.000012   0.007622   0.000359   0.006984   0.066602  -0.001067
    30  H    0.000000  -0.000077  -0.000007  -0.006390   0.009944  -0.000013
    31  H   -0.000005   0.006390   0.000023   0.116787   0.010417  -0.000609
    32  H    0.000408  -0.009039  -0.001789   0.101941  -0.263807   0.004250
    33  H    0.002755   0.019144  -0.018289   0.022726   0.329146  -0.064563
    34  H    0.000245   0.008344  -0.062225   0.241718   0.017795  -0.002331
    35  H   -0.000194   0.048453   0.001410   0.008878   0.042460  -0.000469
    36  H   -0.000007   0.006279  -0.001154   0.011352  -0.011991   0.000040
    37  H    0.000024  -0.004064   0.002806   0.023949   0.013780   0.000012
    38  H   -0.001447   0.003356  -0.000015   0.000365  -0.000037   0.000000
    39  H   -0.061836   0.371664  -0.088512   0.024469   0.042904   0.000158
    40  H    0.016414   0.068057  -0.015936   0.037078   0.006264   0.000132
    41  H    0.006458   0.193257  -0.001243   0.008275   0.001461   0.000015
    42  H    0.015704   0.066299  -0.000855  -0.001802   0.001222   0.000059
    43  H   -0.032174   0.087284  -0.001604   0.006570   0.003678   0.000178
    44  H   -0.003035   0.002628  -0.000137   0.005422  -0.000064  -0.000422
    45  H    0.009595  -0.010942  -0.000413  -0.005335   0.000113   0.000084
             19         20         21         22         23         24
     1  O   -0.000040   0.000044   0.000000   0.000000   0.000120   0.000005
     2  C   -0.006937   0.009051  -0.000022  -0.000002   0.008366   0.002066
     3  C    0.006628  -0.003444  -0.000043   0.000000  -0.029502  -0.021607
     4  O   -0.000012   0.000062   0.000000   0.000000   0.000471  -0.000139
     5  H    0.000000   0.000002   0.000000   0.000000  -0.000053  -0.000004
     6  C    0.025196   0.009530  -0.000184  -0.000134  -0.265250  -0.004126
     7  O   -0.000119   0.005617  -0.000004   0.000000   0.016924  -0.027783
     8  H   -0.000006   0.000923   0.000000   0.000000   0.014198  -0.018314
     9  C   -0.002987  -0.011349   0.000010  -0.000005  -0.001503   0.000185
    10  O   -0.000040   0.000037   0.000000   0.000000  -0.000005   0.000000
    11  H   -0.000002   0.000005   0.000000   0.000000   0.000000   0.000000
    12  C    0.013703  -0.009520  -0.000180   0.000037  -0.005986   0.003323
    13  O    0.019432  -0.018696   0.000267   0.000004   0.020294   0.000189
    14  C    0.009794  -0.635325  -0.001256  -0.002457  -0.021028   0.085244
    15  O    0.026090   0.059676  -0.001711   0.000056  -0.073152  -0.034521
    16  C   -0.106643  -1.358478   0.085975  -0.037025   0.124076  -0.029158
    17  C    0.015972  -1.711873  -0.249794   0.003823  -0.408240  -0.002425
    18  O    0.187708  -0.144195   0.020409  -0.001545   0.009836   0.000149
    19  H    0.357226   0.028349  -0.001095   0.000006  -0.003837   0.000038
    20  C    0.028349   9.778814   0.249683   0.026470   0.168143  -0.002129
    21  O   -0.001095   0.249683   8.259915   0.164829   0.000223   0.000006
    22  H    0.000006   0.026470   0.164829   0.478050  -0.001746   0.000000
    23  C   -0.003837   0.168143   0.000223  -0.001746   7.302234  -0.106519
    24  O    0.000038  -0.002129   0.000006   0.000000  -0.106519   8.552167
    25  H    0.000000   0.000829   0.000000   0.000000  -0.010715   0.208646
    26  C    0.013195   0.866329  -0.024969   0.008670  -1.359130   0.137847
    27  O    0.000002  -0.180814   0.005809   0.003858  -0.111275   0.000178
    28  C   -0.002889  -1.248000   0.018275   0.020984  -0.253040   0.003975
    29  O    0.000025  -0.075070  -0.024696   0.022651  -0.000055   0.000113
    30  H    0.000000  -0.046519   0.000402  -0.002943   0.002435   0.000000
    31  H    0.000004  -0.182502   0.006268  -0.003517  -0.007904  -0.000019
    32  H   -0.000074   0.425658  -0.041254  -0.002620   0.015124  -0.000016
    33  H   -0.001188  -0.147868   0.006206  -0.000287   0.050642  -0.000260
    34  H    0.000244   0.012945  -0.000611   0.000003   0.010881   0.000973
    35  H    0.000048  -0.075090  -0.000283   0.000017  -0.058439   0.004715
    36  H    0.000000   0.000199   0.000004   0.000000   0.454509  -0.050649
    37  H    0.000000  -0.005618  -0.000012   0.000000   0.554210  -0.068726
    38  H    0.000000   0.000002   0.000000   0.000000   0.000005   0.000000
    39  H   -0.000365   0.016465   0.000004   0.000000   0.006841   0.001477
    40  H   -0.000018   0.001152   0.000000   0.000000   0.009990   0.003043
    41  H   -0.000001   0.000053   0.000000   0.000000   0.000506   0.000063
    42  H    0.000001  -0.000010   0.000000   0.000000   0.000102   0.000018
    43  H    0.000061   0.000396   0.000000   0.000000   0.000122   0.000005
    44  H    0.000475  -0.000589   0.000000   0.000000   0.000008   0.000000
    45  H    0.000013  -0.000082   0.000000   0.000000  -0.000017   0.000000
             25         26         27         28         29         30
     1  O    0.000000  -0.000384   0.000000   0.000008   0.000000   0.000000
     2  C    0.000079   0.006363  -0.000299  -0.002298  -0.000018   0.000000
     3  C    0.002235  -0.024994   0.000865   0.000211   0.000033   0.000000
     4  O    0.000006   0.000346   0.000000  -0.000003   0.000000   0.000000
     5  H    0.000000   0.000073   0.000000   0.000000   0.000000   0.000000
     6  C   -0.001699  -0.407212   0.004586   0.027630  -0.000331  -0.000004
     7  O    0.001496   0.000343   0.000257  -0.000508  -0.000006   0.000000
     8  H   -0.002243  -0.033201   0.000090   0.000122  -0.000001   0.000000
     9  C   -0.000017  -0.001820  -0.000003  -0.001968   0.000014   0.000000
    10  O    0.000000  -0.000027   0.000000  -0.000004   0.000000   0.000000
    11  H    0.000000   0.000004   0.000000   0.000000   0.000000   0.000000
    12  C   -0.000234   0.078462  -0.000054  -0.000111   0.000102   0.000000
    13  O    0.000031  -0.017012   0.000267   0.004202   0.000012   0.000000
    14  C   -0.003860  -0.529356  -0.018459  -0.108631   0.007622  -0.000077
    15  O    0.002673  -0.035646   0.004615   0.001670   0.000359  -0.000007
    16  C   -0.003138  -3.619385  -0.085665   0.937077   0.006984  -0.006390
    17  C   -0.000439   0.174003  -0.049967  -0.205090   0.066602   0.009944
    18  O   -0.000002   0.030455   0.000053  -0.013336  -0.001067  -0.000013
    19  H    0.000000   0.013195   0.000002  -0.002889   0.000025   0.000000
    20  C    0.000829   0.866329  -0.180814  -1.248000  -0.075070  -0.046519
    21  O    0.000000  -0.024969   0.005809   0.018275  -0.024696   0.000402
    22  H    0.000000   0.008670   0.003858   0.020984   0.022651  -0.002943
    23  C   -0.010715  -1.359130  -0.111275  -0.253040  -0.000055   0.002435
    24  O    0.208646   0.137847   0.000178   0.003975   0.000113   0.000000
    25  H    0.392747   0.026293  -0.000186  -0.001762   0.000001   0.000000
    26  C    0.026293  11.386391   0.310213  -0.931550  -0.084240   0.011788
    27  O   -0.000186   0.310213   8.395966   0.198119  -0.076862   0.000819
    28  C   -0.001762  -0.931550   0.198119   6.572942   0.293797   0.038644
    29  O    0.000001  -0.084240  -0.076862   0.293797   8.226106   0.230729
    30  H    0.000000   0.011788   0.000819   0.038644   0.230729   0.412489
    31  H    0.000000  -0.096885  -0.054826   0.484128  -0.046575  -0.007872
    32  H    0.000000  -0.005964   0.006258   0.026584  -0.014440   0.000651
    33  H    0.000001  -0.000438   0.005737  -0.001240  -0.000566   0.000013
    34  H    0.000009  -0.000831   0.004564  -0.000342  -0.000640   0.000002
    35  H   -0.000197   0.220350  -0.045870   0.073336  -0.000968   0.000016
    36  H   -0.006781  -0.067372  -0.000862  -0.000723  -0.000086  -0.000001
    37  H   -0.003709  -0.237870   0.006257   0.013799  -0.000255   0.000000
    38  H    0.000000  -0.000015   0.000000   0.000000   0.000000   0.000000
    39  H    0.000020   0.038771   0.000253  -0.004009  -0.000003   0.000000
    40  H   -0.000005  -0.002182   0.000008  -0.000316   0.000000   0.000000
    41  H    0.000000   0.000499   0.000000  -0.000025   0.000000   0.000000
    42  H    0.000000   0.000185   0.000000  -0.000013   0.000000   0.000000
    43  H    0.000000   0.000115   0.000000  -0.000063   0.000000   0.000000
    44  H    0.000000   0.000051   0.000000   0.000063   0.000000   0.000000
    45  H    0.000000  -0.000275   0.000000  -0.000002   0.000000   0.000000
             31         32         33         34         35         36
     1  O    0.000000   0.000000   0.000000  -0.000002   0.000000   0.000000
     2  C   -0.000001   0.000097   0.001037   0.000015   0.000095  -0.000005
     3  C    0.000003  -0.000052  -0.000424   0.000960   0.000124  -0.000218
     4  O    0.000000   0.000000   0.000000   0.000004   0.000000   0.000000
     5  H    0.000000   0.000000   0.000000   0.000000   0.000000   0.000000
     6  C    0.000371   0.000182  -0.001236  -0.002705   0.004324  -0.001634
     7  O    0.000001   0.000003   0.000019  -0.000374   0.000116  -0.000683
     8  H    0.000000   0.000000   0.000002  -0.000002  -0.000011   0.000220
     9  C    0.000002  -0.000143  -0.000414   0.000171   0.000080  -0.000001
    10  O    0.000000   0.000000   0.000000   0.000001   0.000000   0.000000
    11  H    0.000000   0.000000   0.000000   0.000000   0.000000   0.000000
    12  C   -0.000009   0.000250   0.000117   0.003351   0.000345   0.000034
    13  O   -0.000005   0.000408   0.002755   0.000245  -0.000194  -0.000007
    14  C    0.006390  -0.009039   0.019144   0.008344   0.048453   0.006279
    15  O    0.000023  -0.001789  -0.018289  -0.062225   0.001410  -0.001154
    16  C    0.116787   0.101941   0.022726   0.241718   0.008878   0.011352
    17  C    0.010417  -0.263807   0.329146   0.017795   0.042460  -0.011991
    18  O   -0.000609   0.004250  -0.064563  -0.002331  -0.000469   0.000040
    19  H    0.000004  -0.000074  -0.001188   0.000244   0.000048   0.000000
    20  C   -0.182502   0.425658  -0.147868   0.012945  -0.075090   0.000199
    21  O    0.006268  -0.041254   0.006206  -0.000611  -0.000283   0.000004
    22  H   -0.003517  -0.002620  -0.000287   0.000003   0.000017   0.000000
    23  C   -0.007904   0.015124   0.050642   0.010881  -0.058439   0.454509
    24  O   -0.000019  -0.000016  -0.000260   0.000973   0.004715  -0.050649
    25  H    0.000000   0.000000   0.000001   0.000009  -0.000197  -0.006781
    26  C   -0.096885  -0.005964  -0.000438  -0.000831   0.220350  -0.067372
    27  O   -0.054826   0.006258   0.005737   0.004564  -0.045870  -0.000862
    28  C    0.484128   0.026584  -0.001240  -0.000342   0.073336  -0.000723
    29  O   -0.046575  -0.014440  -0.000566  -0.000640  -0.000968  -0.000086
    30  H   -0.007872   0.000651   0.000013   0.000002   0.000016  -0.000001
    31  H    0.613492   0.004154   0.002914  -0.000031   0.007007   0.000015
    32  H    0.004154   0.589810   0.007670   0.003134   0.000096   0.000002
    33  H    0.002914   0.007670   0.653883   0.006623   0.006248   0.000000
    34  H   -0.000031   0.003134   0.006623   0.598434   0.006031  -0.000093
    35  H    0.007007   0.000096   0.006248   0.006031   0.636358  -0.012570
    36  H    0.000015   0.000002   0.000000  -0.000093  -0.012570   0.588470
    37  H    0.000005  -0.000007  -0.000012   0.001841   0.007124  -0.045895
    38  H    0.000000   0.000000   0.000000   0.000000   0.000000   0.000000
    39  H    0.000000  -0.000034  -0.000051   0.014520  -0.000037   0.000002
    40  H    0.000000   0.000000  -0.000004   0.000005  -0.000006   0.000002
    41  H    0.000000   0.000000   0.000000  -0.000001   0.000000   0.000000
    42  H    0.000000   0.000000   0.000000   0.000000   0.000000   0.000000
    43  H    0.000000   0.000000   0.000000  -0.000001   0.000000   0.000000
    44  H    0.000000   0.000000   0.000000   0.000000   0.000000   0.000000
    45  H    0.000000   0.000000   0.000000   0.000000   0.000000   0.000000
             37         38         39         40         41         42
     1  O    0.000000   0.244866   0.000001  -0.001207  -0.011069  -0.050621
     2  C   -0.000035   0.062143   0.018927   0.099977   0.255491   0.476352
     3  C    0.000752  -0.015864  -0.040690  -0.215433   0.273975  -0.100847
     4  O    0.000001   0.002338  -0.000108   0.001996  -0.038114  -0.000128
     5  H    0.000000  -0.005521   0.000007   0.000169  -0.000410  -0.004165
     6  C    0.000396  -0.004130  -0.144129   0.262633  -0.397279  -0.025953
     7  O    0.001360   0.000003   0.004549  -0.048897   0.007249   0.000398
     8  H    0.000682   0.000000  -0.000829  -0.008539  -0.000124   0.000001
     9  C    0.000003  -0.000473   0.015340   0.016472   0.016149   0.023521
    10  O    0.000000   0.000307   0.000104   0.000031   0.000087   0.000372
    11  H    0.000000  -0.000055   0.000000   0.000000   0.000000  -0.000001
    12  C    0.000053  -0.034786  -0.007431  -0.008854  -0.076756  -0.167895
    13  O    0.000024  -0.001447  -0.061836   0.016414   0.006458   0.015704
    14  C   -0.004064   0.003356   0.371664   0.068057   0.193257   0.066299
    15  O    0.002806  -0.000015  -0.088512  -0.015936  -0.001243  -0.000855
    16  C    0.023949   0.000365   0.024469   0.037078   0.008275  -0.001802
    17  C    0.013780  -0.000037   0.042904   0.006264   0.001461   0.001222
    18  O    0.000012   0.000000   0.000158   0.000132   0.000015   0.000059
    19  H    0.000000   0.000000  -0.000365  -0.000018  -0.000001   0.000001
    20  C   -0.005618   0.000002   0.016465   0.001152   0.000053  -0.000010
    21  O   -0.000012   0.000000   0.000004   0.000000   0.000000   0.000000
    22  H    0.000000   0.000000   0.000000   0.000000   0.000000   0.000000
    23  C    0.554210   0.000005   0.006841   0.009990   0.000506   0.000102
    24  O   -0.068726   0.000000   0.001477   0.003043   0.000063   0.000018
    25  H   -0.003709   0.000000   0.000020  -0.000005   0.000000   0.000000
    26  C   -0.237870  -0.000015   0.038771  -0.002182   0.000499   0.000185
    27  O    0.006257   0.000000   0.000253   0.000008   0.000000   0.000000
    28  C    0.013799   0.000000  -0.004009  -0.000316  -0.000025  -0.000013
    29  O   -0.000255   0.000000  -0.000003   0.000000   0.000000   0.000000
    30  H    0.000000   0.000000   0.000000   0.000000   0.000000   0.000000
    31  H    0.000005   0.000000   0.000000   0.000000   0.000000   0.000000
    32  H   -0.000007   0.000000  -0.000034   0.000000   0.000000   0.000000
    33  H   -0.000012   0.000000  -0.000051  -0.000004   0.000000   0.000000
    34  H    0.001841   0.000000   0.014520   0.000005  -0.000001   0.000000
    35  H    0.007124   0.000000  -0.000037  -0.000006   0.000000   0.000000
    36  H   -0.045895   0.000000   0.000002   0.000002   0.000000   0.000000
    37  H    0.586584   0.000000  -0.000016  -0.000004   0.000000   0.000000
    38  H    0.000000   0.380103   0.000003   0.000030   0.000035  -0.012474
    39  H   -0.000016   0.000003   0.676919   0.007780   0.002263   0.000109
    40  H   -0.000004   0.000030   0.007780   0.615743   0.006690   0.003415
    41  H    0.000000   0.000035   0.002263   0.006690   0.601978   0.005413
    42  H    0.000000  -0.012474   0.000109   0.003415   0.005413   0.610616
    43  H    0.000000  -0.000055   0.004731   0.000049   0.002320   0.005925
    44  H    0.000000  -0.000025  -0.000042   0.000000   0.000003   0.000070
    45  H    0.000000  -0.000079  -0.000001  -0.000007   0.000003   0.005783
             43         44         45
     1  O    0.007330   0.000603   0.001819
     2  C    0.050956  -0.010027   0.014126
     3  C   -0.049184  -0.004033  -0.007992
     4  O    0.000099   0.000043  -0.000190
     5  H   -0.000029   0.000000   0.000003
     6  C   -0.040976  -0.003116   0.022416
     7  O    0.000262  -0.000009   0.000002
     8  H    0.000001   0.000000   0.000000
     9  C    0.067868   0.396409   0.665179
    10  O    0.007327  -0.036009  -0.072762
    11  H   -0.000107  -0.014682   0.001362
    12  C    0.141167  -0.014444  -0.332469
    13  O   -0.032174  -0.003035   0.009595
    14  C    0.087284   0.002628  -0.010942
    15  O   -0.001604  -0.000137  -0.000413
    16  C    0.006570   0.005422  -0.005335
    17  C    0.003678  -0.000064   0.000113
    18  O    0.000178  -0.000422   0.000084
    19  H    0.000061   0.000475   0.000013
    20  C    0.000396  -0.000589  -0.000082
    21  O    0.000000   0.000000   0.000000
    22  H    0.000000   0.000000   0.000000
    23  C    0.000122   0.000008  -0.000017
    24  O    0.000005   0.000000   0.000000
    25  H    0.000000   0.000000   0.000000
    26  C    0.000115   0.000051  -0.000275
    27  O    0.000000   0.000000   0.000000
    28  C   -0.000063   0.000063  -0.000002
    29  O    0.000000   0.000000   0.000000
    30  H    0.000000   0.000000   0.000000
    31  H    0.000000   0.000000   0.000000
    32  H    0.000000   0.000000   0.000000
    33  H    0.000000   0.000000   0.000000
    34  H   -0.000001   0.000000   0.000000
    35  H    0.000000   0.000000   0.000000
    36  H    0.000000   0.000000   0.000000
    37  H    0.000000   0.000000   0.000000
    38  H   -0.000055  -0.000025  -0.000079
    39  H    0.004731  -0.000042  -0.000001
    40  H    0.000049   0.000000  -0.000007
    41  H    0.002320   0.000003   0.000003
    42  H    0.005925   0.000070   0.005783
    43  H    0.598743  -0.006075   0.006477
    44  H   -0.006075   0.593540  -0.046243
    45  H    0.006477  -0.046243   0.617826
 Mulliken atomic charges:
              1
     1  O   -0.525581
     2  C   -0.460656
     3  C    0.274558
     4  O   -0.493828
     5  H    0.352054
     6  C   -0.123250
     7  O   -0.556466
     8  H    0.459811
     9  C   -0.172753
    10  O   -0.559357
    11  H    0.364785
    12  C    0.391274
    13  O   -0.430528
    14  C    0.410567
    15  O   -0.298292
    16  C   -0.366421
    17  C    0.058307
    18  O   -0.543536
    19  H    0.422043
    20  C    0.196738
    21  O   -0.472172
    22  H    0.322822
    23  C   -0.052865
    24  O   -0.638029
    25  H    0.399919
    26  C    0.170012
    27  O   -0.323634
    28  C    0.060359
    29  O   -0.529271
    30  H    0.355894
    31  H    0.148771
    32  H    0.152966
    33  H    0.121961
    34  H    0.137375
    35  H    0.126505
    36  H    0.139598
    37  H    0.152586
    38  H    0.381420
    39  H    0.099814
    40  H    0.144279
    41  H    0.142778
    42  H    0.149199
    43  H    0.138603
    44  H    0.139634
    45  H    0.132008
 Sum of Mulliken atomic charges =   0.00000
 Mulliken charges with hydrogens summed into heavy atoms:
              1
     1  O   -0.144161
     2  C   -0.311457
     3  C    0.417336
     4  O   -0.141774
     6  C    0.021029
     7  O   -0.096655
     9  C    0.098888
    10  O   -0.194573
    12  C    0.529877
    13  O   -0.430528
    14  C    0.510381
    15  O   -0.298292
    16  C   -0.229046
    17  C    0.180269
    18  O   -0.121492
    20  C    0.349704
    21  O   -0.149350
    23  C    0.239319
    24  O   -0.238109
    26  C    0.296517
    27  O   -0.323634
    28  C    0.209130
    29  O   -0.173377
 Sum of Mulliken charges with hydrogens summed into heavy atoms =   0.00000
 APT atomic charges:
              1
     1  O   -0.645225
     2  C    0.427052
     3  C    0.386981
     4  O   -0.628174
     5  H    0.273437
     6  C    0.356738
     7  O   -0.762297
     8  H    0.502003
     9  C    0.480245
    10  O   -0.624573
    11  H    0.253636
    12  C    0.467285
    13  O   -0.924833
    14  C    0.953593
    15  O   -0.857282
    16  C    0.413172
    17  C    0.404857
    18  O   -0.712822
    19  H    0.396370
    20  C    0.369775
    21  O   -0.596379
    22  H    0.235948
    23  C    0.470362
    24  O   -0.692205
    25  H    0.271056
    26  C    0.457359
    27  O   -0.785465
    28  C    0.903235
    29  O   -0.653014
    30  H    0.261788
    31  H   -0.069926
    32  H   -0.036127
    33  H   -0.061704
    34  H   -0.024153
    35  H   -0.051890
    36  H   -0.050780
    37  H   -0.034366
    38  H    0.267735
    39  H   -0.072934
    40  H   -0.037264
    41  H   -0.042146
    42  H   -0.043461
    43  H   -0.056739
    44  H   -0.035639
    45  H   -0.053233
 Sum of APT charges=   0.00000
 APT Atomic charges with hydrogens summed into heavy atoms:
              1
[...]
 ,-0.00022833,0.00000109,0.00034825,0.00009391,-0.00000790,0.00006652,0
 .00000046,-0.00000921,0.00003484,-0.00001600,0.00001155,0.00001720,0.0
 0003287,-0.00000967,-0.00001886,-0.00003074,0.00000827,0.00001790,-0.0
 0001012,-0.00000785,0.00000613,0.00000753,0.00000588,-0.00000522,-0.00
 000292,-0.00000186,0.00000018,-0.00000979,-0.00000363,0.00001924,0.000
 03456,0.00001076,0.00001115,-0.00001399,-0.00000049,0.00000454,-0.0000
 1278,-0.00000667,0.00001117,0.00000898,0.00000796,-0.00001336,-0.00000
 647,-0.00000385,0.00001254,0.00000940,0.00000192,-0.00001324,-0.000001
 30,-0.00000021,0.00000220,0.00000184,0.00000066,0.00000036,0.00000348,
 0.00000150,-0.00000245,0.00000385,0.00000038,0.00000549,0.00000792,0.0
 0000246,-0.00001122,0.00000602,-0.00000134,0.00000356,-0.00000067,-0.0
 0000111,0.00000069,0.00000478,0.00000034,-0.00000462,0.00159700,0.0002
 2163,-0.00075047,0.00003088,0.00003444,-0.00016087,0.00103322,0.000057
 74,0.00025650,0.00010006,0.00231042,0.00109042,0.37227240,-0.00804380,
 -0.00016416,-0.00566953,-0.04576364,-0.05088075,0.00695157,0.03030128,
 -0.00050426,-0.00422191,0.00024798,0.00230983,-0.00169127,0.00095944,-
 0.00039192,0.00099401,0.00083969,0.00096070,0.00060655,-0.00043426,-0.
 00009890,0.00008599,-0.00004286,0.00002860,0.00005083,-0.00302540,0.00
 116278,-0.00009512,0.00053458,0.00009339,0.00016890,-0.00001048,-0.000
 05020,-0.00000069,-0.02943152,-0.00836271,0.00628421,0.00149336,0.0017
 3740,-0.00226652,0.00000651,-0.00027092,0.00008567,0.00002782,0.000089
 84,-0.00000344,-0.00003278,0.00002017,-0.00000261,0.00000221,0.0000259
 1,0.00000936,0.00003052,-0.00000923,-0.00006118,-0.00001938,-0.0000026
 7,0.00006839,-0.00001131,-0.00000566,-0.00000061,0.00000556,0.00000065
 ,-0.00000090,-0.00000081,-0.00000028,-0.00000079,-0.00000143,-0.000001
 97,-0.00000544,-0.00001760,-0.00000949,-0.00002931,0.00000828,0.000002
 59,-0.00000197,0.00000361,-0.00000261,0.00000588,0.00000131,-0.0000004
 3,0.00000084,-0.00000197,0.00000466,0.00000255,0.00000243,-0.00000089,
 -0.00000527,-0.00000047,-0.00000021,0.00000074,0.00000060,0.00000027,0
 .00000010,0.00000241,0.00000016,-0.00000148,0.00000109,-0.00000004,-0.
 00000009,0.00000530,-0.00000572,0.00000364,0.00000039,0.00000143,0.000
 00054,-0.00000016,0.00000052,-0.00000304,-0.00000046,-0.00000086,0.000
 00203,-0.00108425,0.00116401,-0.00033565,-0.00001760,-0.00014269,-0.00
 000812,-0.00031760,-0.00023814,-0.00023402,0.00109399,-0.00441818,-0.0
 0144287,0.05141467,0.06134996,-0.04195233,-0.01177178,-0.01757121,0.04
 189222,0.00578607,-0.04618382,0.01447668,0.00151979,-0.00114408,-0.001
 98341,0.00167435,0.00033841,-0.00103470,0.00022132,-0.00003348,0.00135
 583,0.00003312,0.00011460,-0.00039704,0.00003697,-0.00002078,0.0000344
 6,0.00002094,0.00000818,0.00026358,-0.00139027,0.00018489,-0.00005145,
 -0.00003478,0.00016450,0.00000641,-0.00004944,0.00005236,0.02183134,0.
 00638627,-0.00267716,-0.00044657,-0.00059688,0.00215547,0.00033335,-0.
 00015182,-0.00045892,-0.00007797,0.00000540,-0.00008032,0.00001066,-0.
 00001072,-0.00003403,0.00001329,0.00000485,0.00001259,-0.00004574,-0.0
 0001786,0.00001022,0.00006068,0.00003024,-0.00002519,0.00001077,-0.000
 00228,0.00000009,-0.00000890,0.00000248,-0.00000471,0.00000242,-0.0000
 0073,0.00000073,0.00000797,0.00000173,-0.00000721,-0.00002656,-0.00000
 909,-0.00001883,0.00000963,0.00000283,0.00000159,0.00000761,0.00000432
 ,0.00000029,-0.00000742,-0.00000211,-0.00000149,0.00000335,0.00000225,
 0.00000545,-0.00000237,-0.00000079,-0.00000220,0.00000056,0.00000008,0
 .00000082,-0.00000142,-0.00000080,-0.00000192,-0.00000394,-0.00000115,
 0.00000355,-0.00000601,-0.00000426,-0.00001119,-0.00001075,0.00000148,
 0.00001184,-0.00000515,0.00000073,-0.00000398,-0.00000084,-0.00000026,
 -0.00000206,-0.00000223,0.00000070,0.00000344,-0.00339913,0.00033157,0
 .00280598,-0.00011072,-0.00001243,0.00018119,-0.00019718,-0.00038578,-
 0.00008340,0.00031901,-0.00239912,-0.00069417,-0.02988424,-0.00219687,
 0.06533272,0.00098402,0.00011109,0.00126261,-0.00402176,-0.00065239,0.
 00051496,-0.00013455,0.00036841,0.00005687,0.00035595,0.00011889,0.000
 03418,-0.00005431,0.00002403,-0.00001271,0.00000373,0.00000354,-0.0001
 2165,0.00011559,-0.00024029,0.00002715,0.00000444,0.00006171,0.0000071
 6,-0.01688216,-0.00325984,0.00349802,0.00217375,0.00020753,0.00026560,
 -0.00002908,-0.00006902,0.00013424,-0.34060252,-0.05612560,0.04895183,
 -0.01169624,-0.00539254,-0.01219961,0.00009210,0.00207879,0.00112532,0
 .00012739,-0.00020478,-0.00066853,-0.00022930,-0.00015701,0.00026693,0
 .00000756,0.00010562,0.00007467,0.00011741,0.00010038,-0.00036879,-0.0
 0005559,-0.00038061,0.00061917,-0.00005728,-0.00005692,0.00003941,0.00
 000970,0.00004487,-0.00003902,-0.00000465,-0.00000687,-0.00000080,-0.0
 0002437,0.00001993,0.00002413,0.00000814,-0.00003320,-0.00001696,-0.00
 000340,0.00000443,-0.00000872,0.00003502,0.00004255,0.00004873,0.00000
 498,0.00001897,-0.00011457,0.00000621,-0.00002670,0.00006962,0.0000323
 9,0.00001003,-0.00006824,-0.00000171,-0.00000079,0.00000919,0.00000119
 ,0.00000464,-0.00000214,0.00001166,0.00000262,-0.00001189,0.00000269,-
 0.00000417,0.00000674,0.00003194,-0.00000987,-0.00001677,0.00000803,0.
 00000028,0.00000480,-0.00000130,-0.00001064,-0.00000443,0.00000908,-0.
 00000287,-0.00000206,0.00014557,0.00006975,-0.00001046,-0.00000840,-0.
 00118673,-0.00101947,0.00004928,0.00009948,0.00006224,0.00056213,-0.00
 041839,-0.00013986,0.00074221,-0.00025972,-0.00023183,0.36832032,0.001
 84585,0.00097949,-0.00076076,-0.02880994,-0.00602203,0.00568308,-0.001
 37095,0.00121231,0.00009907,0.00098003,-0.00023997,-0.00009428,-0.0002
 3863,0.00016011,-0.00024803,-0.00007012,-0.00020282,-0.00011591,0.0001
 3773,-0.00010665,-0.00008359,-0.00000282,-0.00000168,0.00000388,0.0304
 7533,0.00533278,-0.00523985,-0.00241508,0.00159033,0.00122240,0.000064
 54,0.00018506,0.00012722,-0.05615344,-0.05841433,0.01125870,-0.0084062
 2,-0.00025202,-0.00568938,-0.00227082,0.00114509,0.00122727,0.00033500
 ,-0.00013404,-0.00030599,-0.00003222,-0.00004912,-0.00000884,0.0000011
 9,0.00009033,0.00008229,-0.00008105,-0.00001438,-0.00015941,0.00014675
 ,-0.00010676,0.00020117,-0.00000107,-0.00001691,0.00000145,-0.00000826
 ,0.00000063,-0.00000993,0.00000290,-0.00000009,0.00000028,-0.00001082,
 0.00000416,-0.00000306,0.00000825,-0.00000552,0.00000127,-0.00000460,-
 0.00000056,-0.00000063,0.00002549,0.00001125,-0.00000118,0.00000240,-0
 .00001117,-0.00001576,-0.00000359,0.00001742,0.00000958,0.00000518,-0.
 00000516,-0.00001476,0.00000048,0.00000108,0.00000263,0.00000011,-0.00
 000208,-0.00000145,-0.00000170,0.00000382,0.00000180,-0.00000498,-0.00
 002060,-0.00001138,0.00001201,0.00001278,-0.00002392,0.00000223,0.0000
 0230,0.00000529,0.00000170,-0.00000263,-0.00000086,0.00000300,-0.00000
 242,-0.00000290,0.00019653,0.00007533,-0.00031499,0.00047989,0.0000793
 2,-0.00013339,0.00015890,0.00013060,0.00005282,0.00064265,-0.00050071,
 -0.00007275,-0.00047667,-0.00361112,0.00298637,0.06238719,0.06208911,-
 0.00119631,-0.00110162,0.00182621,0.02245451,0.00496311,-0.00106795,0.
 00025076,-0.00099109,0.00003286,-0.00075977,0.00037338,-0.00001899,0.0
 0029714,-0.00013063,0.00025959,0.00023429,-0.00002146,-0.00064618,0.00
 009503,-0.00029788,0.00030667,-0.00002529,0.00008760,-0.00003531,0.011
 38918,0.00311997,0.00007266,-0.00099270,0.00061037,0.00071735,-0.00000
 293,0.00005974,-0.00002168,0.05174634,0.01006885,-0.04904272,-0.040177
 14,-0.01245125,-0.01110921,-0.00365178,0.00370358,0.00403221,0.0004505
 8,-0.00034351,-0.00129255,-0.00016732,-0.00027357,0.00023739,0.0000146
 2,0.00008410,0.00006960,0.00012542,0.00012804,-0.00031110,-0.00009433,
 -0.00054309,0.00073751,-0.00003905,-0.00006017,0.00004330,-0.00000872,
 0.00004768,-0.00004196,0.00000045,-0.00000548,-0.00000014,-0.00000875,
 0.00004396,-0.00000482,0.00000599,-0.00004985,0.00003373,0.00000473,0.
 00000200,-0.00001497,0.00007029,0.00007920,0.00003844,-0.00001016,0.00
 000591,-0.00013493,0.00001764,-0.00002929,0.00006667,0.00002399,0.0000
 0864,-0.00006354,0.00000013,0.00000012,0.00000854,-0.00000226,0.000004
 68,-0.00000359,0.00000587,0.00000224,-0.00001010,-0.00000129,-0.000006
 05,-0.00000021,0.00002727,-0.00000466,-0.00006338,0.00000124,0.0000014
 4,0.00000147,-0.00000172,-0.00001443,-0.00000017,0.00000420,-0.0000039
 1,0.00000339,0.00001890,-0.00016938,0.00047058,0.00112267,0.00011487,-
 0.00031587,-0.00005563,0.00001911,-0.00010003,-0.00034502,0.00030088,0
 .00020198,0.00033226,0.00331805,-0.00263614,-0.04175372,-0.00817766,0.
 05772455,0.00015874,-0.00030430,0.00004216,-0.00180249,0.00183800,0.00
 270750,0.00085751,0.00026216,-0.00081053,-0.00006573,0.00069403,-0.000
 10691,-0.00002755,-0.00000863,0.00009916,-0.00000608,-0.00007162,-0.00
 015746,0.00001971,-0.00004729,0.00006648,-0.00000306,0.00001834,-0.000
 00046,-0.04895782,-0.00078280,0.00279642,-0.00083769,0.00676412,-0.020
 32908,0.00178169,0.00098993,0.00055068,-0.00019511,0.01730343,-0.01458
 468,0.00036592,-0.00249149,-0.00112829,-0.00010322,0.00017141,0.000134
 78,-0.00008991,-0.00003482,-0.00013225,0.00002783,-0.00002993,0.000068
 38,-0.00002578,-0.00006256,-0.00004390,-0.00021262,0.00009388,0.000108
 72,0.00035874,-0.00015689,-0.00011360,0.00003633,0.00001795,0.00001284
 ,-0.00002443,0.00000909,-0.00000475,0.00000419,0.00000135,0.00000081,0
 .00000439,0.00000478,0.00000479,0.00000030,-0.00000565,0.00000281,0.00
 000159,0.00000111,-0.00000127,-0.00000148,0.00002192,0.00000150,-0.000
 01110,0.00000732,-0.00001918,0.00000852,-0.00002291,0.00000732,-0.0000
 0672,0.00000420,0.00000528,0.00000077,0.00000037,-0.00000048,-0.000003
 08,-0.00000038,-0.00000207,-0.00001033,0.00000142,0.00000517,0.0000016
 8,-0.00000928,-0.00000962,-0.00000987,0.00001046,0.00000112,-0.0000049
 4,-0.00000311,-0.00000397,-0.00000110,-0.00000036,-0.00000020,-0.00000
 113,0.00000163,0.00000083,-0.00024404,0.00009373,-0.00024354,0.0000085
 0,0.00000631,0.00000256,0.00001204,0.00001393,0.00001543,-0.00002057,-
 0.00011706,-0.00001989,0.00034557,0.00038853,-0.00008186,0.00065185,-0
 .00075152,-0.00055339,0.04566653,-0.00010737,0.00037041,-0.00011784,0.
 00371442,-0.00353921,-0.00407739,-0.00052840,0.00006278,0.00165822,0.0
 0009912,-0.00124292,0.00016814,-0.00005448,0.00011625,-0.00024542,-0.0
 0000643,0.00021534,0.00064100,-0.00007382,0.00006087,-0.00039589,0.000
 07579,-0.00002670,0.00015397,0.00341238,-0.18939050,0.16320381,-0.0046
 0863,0.00900587,-0.02479564,-0.00013575,0.00405366,-0.00141469,-0.0006
 3179,-0.02060289,0.02094651,-0.00028973,0.00247719,0.00062357,-0.00004
 026,-0.00013569,-0.00036623,-0.00002455,0.00009475,-0.00022551,-0.0000
 1840,-0.00003756,0.00011253,0.00000701,-0.00034521,-0.00031465,-0.0000
 0070,0.00044247,0.00049373,-0.00012710,-0.00064311,-0.00058914,0.00001
 578,0.00009579,-0.00000249,0.00001214,-0.00000382,0.00003424,-0.000005
 52,0.00000475,-0.00000369,-0.00000590,-0.00006422,0.00009284,-0.000034
 81,0.00004661,-0.00014402,0.00000713,-0.00000393,0.00001805,-0.0000057
 0,-0.00000329,-0.00003831,-0.00001585,0.00006368,-0.00001844,0.0000237
 0,-0.00011132,-0.00003323,-0.00002443,0.00002878,0.00006359,0.00000010
 ,-0.00000301,-0.00001183,-0.00000202,0.00000822,0.00000492,0.00000014,
 -0.00000708,-0.00000568,0.00003822,0.00006370,0.00005438,0.00000460,-0
 .00000955,-0.00001070,-0.00000479,-0.00000151,0.00000033,-0.00000077,0
 .00001871,-0.00001479,0.00000058,0.00000752,-0.00000571,-0.00001792,-0
 .00008510,-0.00022343,-0.00003428,0.00005402,0.00004291,0.00000802,-0.
 00000429,-0.00002873,0.00009397,-0.00008979,-0.00010157,0.00008697,0.0
 0035358,-0.00017841,0.00009704,0.00100672,-0.00018583,-0.00174186,0.20
 170539,0.00007095,0.00040449,0.00017628,0.00054649,-0.00188008,-0.0012
 9097,-0.00013232,-0.00022640,0.00043845,0.00002388,-0.00036305,0.00014
 625,-0.00000489,-0.00006274,-0.00009010,0.00002935,-0.00002448,0.00003
 119,-0.00000683,-0.00001443,-0.00000089,0.00000058,0.00000577,-0.00000
 125,0.00051475,0.15688188,-0.21301944,-0.00865683,0.00571546,-0.036973
 89,-0.00055606,0.00086365,0.00060715,0.00074922,-0.00638531,0.00716502
 ,0.00042438,-0.00076723,0.00100487,-0.00001809,-0.00008202,0.00029415,
 -0.00000668,0.00002013,0.00000801,0.00000585,0.00001899,-0.00000603,0.
 00001021,0.00000988,-0.00003094,0.00005123,-0.00007866,-0.00001300,-0.
 00015660,-0.00000552,-0.00008178,-0.00000871,0.00000273,-0.00000980,0.
 00000533,-0.00001496,0.00000049,0.00000002,0.00000221,0.00000142,-0.00
 000119,0.00000526,-0.00000490,-0.00000027,-0.00000764,0.00000473,0.000
 00006,0.00000191,-0.00000102,-0.00000333,0.00000094,-0.00000245,0.0000
 0370,-0.00001387,0.00000599,-0.00000670,0.00001667,0.00000292,0.000004
 40,-0.00000692,-0.00000707,-0.00000086,0.00000255,0.00000306,0.0000009
 9,-0.00000060,-0.00000007,0.00000123,-0.00000002,0.00000046,-0.0000023
 1,0.00000649,0.00000556,0.00000159,-0.00000352,-0.00000096,0.00000094,
 0.00000043,0.00000116,-0.00000051,-0.00000051,0.00000036,0.00000059,-0
 .00000054,0.00000044,-0.00001175,-0.00033291,0.00000916,-0.00001284,0.
 00001601,0.00000674,-0.00001320,-0.00000611,-0.00000012,0.00002228,-0.
 00000055,-0.00001030,-0.00004019,-0.00009290,-0.00002351,-0.00031271,0
 .00039380,0.00047754,0.00700095,-0.16060773,0.24509184,0.00043602,-0.0
 0008224,-0.00033631,0.00049875,-0.00231384,0.00075741,0.00062486,0.000
 02405,0.00004156,0.00009482,0.00019444,-0.00006576,-0.00008132,0.00003
 824,-0.00000309,-0.00010786,-0.00003212,0.00010797,0.00005528,0.000025
 22,-0.00006981,-0.00001021,-0.00001211,0.00001511,-0.31696867,-0.06976
 785,0.07488415,-0.00967285,-0.01275570,-0.01174612,-0.00167989,0.00065
 775,-0.00046656,-0.02210558,-0.00316625,0.00651119,0.00178422,0.000311
 23,0.00026451,0.00024504,-0.00011573,0.00003793,0.00011719,0.00014008,
 0.00017279,-0.00001452,0.00003088,-0.00002373,-0.00002014,0.00002479,0
 .00001769,0.00013340,-0.00003946,-0.00001447,-0.00019879,0.00005941,0.
 00002083,-0.00001803,-0.00000812,-0.00000073,0.00001905,0.00000232,0.0
 0000049,-0.00000533,-0.00000282,0.00000015,-0.00001015,-0.00001154,0.0
 0001138,0.00001475,0.00001242,-0.00001830,-0.00000885,0.00000014,0.000
 00383,-0.00001803,-0.00002092,0.00000753,0.00001353,0.00000649,0.00000
 631,-0.00001261,0.00000440,0.00000456,0.00000987,0.00000138,-0.0000098
 7,-0.00000180,-0.00000136,0.00000162,0.00000330,0.00000109,0.00000175,
 0.00000744,0.00000091,-0.00000492,0.00000637,0.00000652,0.00001377,0.0
 0001190,-0.00000598,-0.00000370,0.00000781,0.00000068,0.00000531,0.000
 00002,0.00000193,-0.00000086,0.00000395,-0.00000067,-0.00000305,-0.000
 40231,0.00022837,-0.00046416,0.00001927,-0.00016119,-0.00017858,0.0000
 6087,0.00005801,0.00000284,0.00014435,-0.00030241,-0.00008533,0.000824
 29,0.00114598,-0.00067007,-0.00080772,0.00319916,0.00115381,0.00235345
 ,0.00084416,0.00048391,0.34465488,-0.00021425,0.00028694,0.00039069,0.
 00209920,0.00199432,-0.00095661,0.00018130,0.00009176,-0.00025107,-0.0
 0016004,0.00006760,0.00013076,0.00001042,-0.00010621,0.00002077,0.0000
 1536,0.00007843,-0.00001360,-0.00001445,0.00000054,0.00005027,-0.00000
 771,0.00000672,-0.00001299,-0.07225294,-0.06405415,0.02627921,-0.01882
 262,-0.00827165,-0.01089986,-0.00211380,-0.00038130,-0.00022973,0.0309
 2216,0.00223417,-0.00843071,-0.00044026,0.00132814,0.00183087,-0.00010
 810,0.00004980,-0.00004238,-0.00005099,-0.00007891,-0.00007176,-0.0000
 1408,-0.00001731,0.00004280,0.00001181,-0.00000425,-0.00000959,0.00009
 474,0.00004027,0.00000183,-0.00015452,-0.00007779,0.00000995,-0.000011
 16,-0.00000599,0.00000485,0.00001075,0.00000917,-0.00000371,-0.0000037
 2,-0.00000218,-0.00000043,-0.00000003,0.00000810,-0.00000357,0.0000056
 1,-0.00000749,0.00001160,-0.00000140,0.00000108,-0.00000319,-0.0000079
 0,0.00000914,0.00000843,0.00000358,0.00000179,-0.00001587,-0.00000347,
 -0.00000627,0.00001153,0.00000787,0.00000226,-0.00001139,-0.00000192,-
 0.00000021,0.00000195,0.00000123,0.00000179,0.00000032,0.00000422,-0.0
 0000268,-0.00000276,0.00000249,0.00001412,0.00001513,0.00000494,-0.000
 00044,0.00000349,0.00000241,-0.00000026,0.00000103,-0.00000101,-0.0000
 0195,0.00000165,0.00000116,-0.00000035,0.00000099,-0.00002994,-0.00018
 977,0.00014860,-0.00011733,0.00008125,0.00011776,-0.00002664,-0.000032
 07,-0.00001706,-0.00020484,0.00000250,0.00005333,-0.00083662,-0.000132
 44,0.00016379,0.00251719,-0.00440724,-0.00228670,-0.02207695,-0.004006
 38,0.00660950,0.08178025,0.07547738,0.00010599,-0.00000910,0.00028465,
 -0.00083445,0.00072960,-0.00019147,-0.00012379,0.00002703,0.00004016,0
 .00000158,-0.00016141,0.00000362,-0.00000230,0.00004612,-0.00000982,0.
 00006859,0.00002793,0.00006247,-0.00004223,-0.00002520,-0.00006632,0.0
 0002940,0.00000434,0.00003660,0.07545937,0.02650180,-0.06147965,-0.035
 12127,-0.02013297,-0.00445818,-0.00262529,-0.00046623,-0.00044895,0.00
 968226,0.00191577,0.00024903,-0.00039962,0.00032529,0.00094429,0.00001
 223,-0.00005221,0.00003980,-0.00010490,-0.00000160,-0.00007024,0.00002
 084,-0.00000866,0.00000117,0.00000462,-0.00001210,0.00000958,-0.000185
 17,-0.00001606,-0.00002138,0.00031839,0.00006113,-0.00004868,0.0000178
 2,0.00000263,0.00000471,-0.00002052,0.00000725,-0.00000587,0.00000412,
 -0.00000083,0.00000066,0.00000364,-0.00000497,0.00000610,-0.00002203,0
 .00000012,-0.00002734,0.00000720,0.00000181,0.00000377,0.00000983,0.00
 000287,0.00000794,-0.00001205,0.00000517,-0.00000948,0.00000942,-0.000
 00672,0.00001044,-0.00000339,0.00000014,-0.00000360,0.00000110,0.00000
 049,0.00000066,-0.00000275,-0.00000134,-0.00000304,-0.00000796,0.00000
 117,0.00000650,-0.00000802,-0.00001906,-0.00002726,-0.00001412,0.00000
 415,0.00000740,-0.00000678,-0.00000129,-0.00000671,-0.00000066,-0.0000
 0085,-0.00000354,-0.00000111,0.00000231,0.00000107,-0.00013550,0.00008
 095,-0.00004632,-0.00011147,0.00006490,0.00006421,-0.00002145,-0.00002
 946,0.00000276,-0.00004231,0.00007889,-0.00000175,-0.00027738,-0.00026
 822,0.00033087,0.00002135,-0.00186969,-0.00042666,0.02471171,0.0058442
 4,-0.00391470,-0.07036299,-0.01264812,0.06915251\\0.01058465,-0.017071
 98,-0.00374300,0.00819971,0.02589763,-0.00595260,-0.02065857,-0.000160
 57,0.01891185,0.00330494,0.00188215,0.01597801,0.00850396,-0.01856369,
 -0.02109068,-0.01947911,-0.02294139,-0.00722257,-0.00031514,0.01937306
 ,-0.00015623,0.01311112,0.00022591,0.01020169,-0.00399234,0.01831196,0
 .00081624,0.00829260,0.01638411,0.00164661,0.00276341,-0.03295300,-0.0
 0194132,-0.00005705,-0.00901540,0.00803772,-0.01899654,0.00521607,-0.0
 0631776,0.01018687,0.00790856,-0.00167348,0.02066451,0.00166759,0.0298
 3647,-0.02241165,-0.00727153,0.00473158,-0.01443905,0.01262160,0.01735
 272,0.01814897,-0.00302360,0.00058641,-0.00102244,0.00401930,-0.022873
 44,-0.02412549,0.01708530,0.00108630,-0.00227703,0.00098085,-0.0200364
 8,0.00395392,0.00526412,0.03036819,0.01865609,-0.01215064,-0.00174136,
 -0.01125993,-0.01744496,0.00499952,-0.00315359,0.03114258,-0.00718591,
 -0.00375875,0.00620669,0.00106621,-0.00715707,-0.01388537,-0.00351889,
 0.06627125,-0.01056712,0.00445503,-0.01647377,0.00223858,0.00545091,-0
 .00188501,-0.00367472,-0.00724362,-0.01820369,-0.00384888,-0.00381632,
 0.01901644,0.00244545,-0.00363068,-0.02241269,-0.00650923,-0.00244420,
 0.01750013,-0.00056982,0.00240851,-0.02182626,0.00046151,0.00251182,-0
 .00885011,-0.00588717,-0.01481140,0.01955430,-0.00154633,-0.00661121,-
 0.00216242,0.00567321,0.00175006,0.01957857,0.00346487,-0.00761869,-0.
 02227077,-0.00219761,0.00821664,0.02021775,-0.00056223,0.00046299,-0.0
 1956105,-0.00474026,-0.00300787,0.02063611,0.00421268,-0.00221749,-0.0
 0216640,0.00786955,-0.01750951,-0.02022940,-0.00596783,0.00148922\\\@


 THERE IS NO SUBJECT, HOWEVER COMPLEX,
 WHICH, IF STUDIED WITH PATIENCE AND INTELLIGIENCE
 WILL NOT BECOME
 MORE COMPLEX
                        QUOTED BY D. GORDON ROHMAN
 Job cpu time:  0 days 13 hours  8 minutes 21.7 seconds.
 File lengths (MBytes):  RWF=   1326 Int=      0 D2E=      0 Chk=     19 Scr=      1
 Normal termination of Gaussian 09 at Thu Jan 21 18:03:33 2016.
Gaussian '09 finished on node001 at Thu Jan 21 18:03:33 EST 2016.
