Gaussian '09 started on node011 at Sun Mar 20 15:04:14 EDT 2016.
 Entering Gaussian System, Link 0=/usr/local/gaussian/g09/g09
 Initial command:
 /usr/local/gaussian/g09/l1.exe /home/srmcgrat/thesis/gaussian/cellobiose/280K/9818ps/1/2dp/gaussian30636/Gau-30672.inp -scrdir=/home/srmcgrat/thesis/gaussian/cellobiose/280K/9818ps/1/2dp/gaussian30636/
 Entering Link 1 = /usr/local/gaussian/g09/l1.exe PID=     30674.
  
 Copyright (c) 1988,1990,1992,1993,1995,1998,2003,2009,2010,
            Gaussian, Inc.  All Rights Reserved.
  
 This is part of the Gaussian(R) 09 program.  It is based on
 the Gaussian(R) 03 system (copyright 2003, Gaussian, Inc.),
 the Gaussian(R) 98 system (copyright 1998, Gaussian, Inc.),
 the Gaussian(R) 94 system (copyright 1995, Gaussian, Inc.),
 the Gaussian 92(TM) system (copyright 1992, Gaussian, Inc.),
 the Gaussian 90(TM) system (copyright 1990, Gaussian, Inc.),
 the Gaussian 88(TM) system (copyright 1988, Gaussian, Inc.),
 the Gaussian 86(TM) system (copyright 1986, Carnegie Mellon
 University), and the Gaussian 82(TM) system (copyright 1983,
 Carnegie Mellon University). Gaussian is a federally registered
 trademark of Gaussian, Inc.
  
 This software contains proprietary and confidential information,
 including trade secrets, belonging to Gaussian, Inc.
  
 This software is provided under written license and may be
 used, copied, transmitted, or stored only in accord with that
 written license.
  
 The following legend is applicable only to US Government
 contracts under FAR:
  
                    RESTRICTED RIGHTS LEGEND
  
 Use, reproduction and disclosure by the US Government is
 subject to restrictions as set forth in subparagraphs (a)
 and (c) of the Commercial Computer Software - Restricted
 Rights clause in FAR 52.227-19.
  
 Gaussian, Inc.
 340 Quinnipiac St., Bldg. 40, Wallingford CT 06492
  
  
 ---------------------------------------------------------------
 Warning -- This program may not be used in any manner that
 competes with the business of Gaussian, Inc. or will provide
 assistance to any competitor of Gaussian, Inc.  The licensee
 of this program is prohibited from giving any competitor of
 Gaussian, Inc. access to this program.  By using this program,
 the user acknowledges that Gaussian, Inc. is engaged in the
 business of creating and licensing software in the field of
 computational chemistry and represents and warrants to the
 licensee that it is not a competitor of Gaussian, Inc. and that
 it will not use this program in any manner prohibited above.
 ---------------------------------------------------------------
  

 Cite this work as:
 Gaussian 09, Revision B.01,
 M. J. Frisch, G. W. Trucks, H. B. Schlegel, G. E. Scuseria, 
 M. A. Robb, J. R. Cheeseman, G. Scalmani, V. Barone, B. Mennucci, 
 G. A. Petersson, H. Nakatsuji, M. Caricato, X. Li, H. P. Hratchian, 
 A. F. Izmaylov, J. Bloino, G. Zheng, J. L. Sonnenberg, M. Hada, 
 M. Ehara, K. Toyota, R. Fukuda, J. Hasegawa, M. Ishida, T. Nakajima, 
 Y. Honda, O. Kitao, H. Nakai, T. Vreven, J. A. Montgomery, Jr., 
 J. E. Peralta, F. Ogliaro, M. Bearpark, J. J. Heyd, E. Brothers, 
 K. N. Kudin, V. N. Staroverov, T. Keith, R. Kobayashi, J. Normand, 
 K. Raghavachari, A. Rendell, J. C. Burant, S. S. Iyengar, J. Tomasi, 
 M. Cossi, N. Rega, J. M. Millam, M. Klene, J. E. Knox, J. B. Cross, 
 V. Bakken, C. Adamo, J. Jaramillo, R. Gomperts, R. E. Stratmann, 
 O. Yazyev, A. J. Austin, R. Cammi, C. Pomelli, J. W. Ochterski, 
 R. L. Martin, K. Morokuma, V. G. Zakrzewski, G. A. Voth, 
 P. Salvador, J. J. Dannenberg, S. Dapprich, A. D. Daniels, 
 O. Farkas, J. B. Foresman, J. V. Ortiz, J. Cioslowski, 
 and D. J. Fox, Gaussian, Inc., Wallingford CT, 2010.
 
 ******************************************
 Gaussian 09:  EM64L-G09RevB.01 12-Aug-2010
                20-Mar-2016 
 ******************************************
 -------------------------------------------------
 # freq=raman b3lyp/6-31+g(2d,p) geom=connectivity
 -------------------------------------------------
 1/10=4,30=1,38=1,57=2/1,3;
 2/12=2,17=6,18=5,40=1/2;
 3/5=1,6=6,7=112,11=2,16=1,25=1,30=1,71=2,74=-5/1,2,3;
 4//1;
 5/5=2,38=5,98=1/2;
 8/6=4,10=90,11=11/1;
 10/13=10,15=4/2;
 11/6=3,8=1,9=11,15=111,16=1/1,2,10;
 10/6=1/2;
 6/7=2,8=2,9=2,10=2,18=1,28=1/1;
 7/8=1,10=1,25=1/1,2,3,16;
 1/10=4,30=1/3;
 99//99;
 -----------------
 280 9818/9818.com
 -----------------
 Symbolic Z-matrix:
 Charge =  0 Multiplicity = 1
 O                     7.816     7.393     12.286 
 C                     8.406     7.809     13.526 
 C                     8.046     9.252     13.839 
 O                     8.54      10.188    12.87 
 H                     8.192     9.944     11.964 
 C                     8.459     9.668     15.241 
 O                     7.874     10.92     15.629 
 H                     8.185     11.185    16.542 
 C                     7.984     5.452     14.382 
 O                     7.452     4.698     13.283 
 H                     7.457     3.73      13.536 
 C                     7.82      6.943     14.629 
 O                     8.42      7.412     15.844 
 C                     8.004     8.7       16.321 
 O                     8.747     8.753     17.548 
 C                     8.098     8.379     18.772 
 C                     8.716     7.089     19.287 
 O                     8.394     6.125     18.273 
 H                     8.293     6.536     17.367 
 C                     8.212     6.618     20.641 
 O                     8.921     5.445     21.068 
 H                     8.794     5.226     22.035 
 C                     7.994     10.819    19.577 
 O                     8.465     11.471    18.389 
 H                     8.491     12.467    18.479 
 C                     8.388     9.382     19.877 
 O                     7.959     8.971     21.183 
 C                     8.561     7.739     21.606 
 O                     7.742     7.555     22.771 
 H                     8.50945   7.18185   11.65661 
 H                     8.30292   7.43346   23.54054 
 H                     8.3133    11.41219   20.40831 
 H                     6.92485   10.85244   19.55064 
 H                     9.45589   9.4051    19.94013 
 H                     7.04397   8.26495   18.62736 
 H                     9.77863   7.20572   19.33275 
 H                     7.15637   6.4445    20.61987 
 H                     9.6047    7.82201   21.82668 
 H                     9.04062   5.28592   14.3523 
 H                     7.60112   4.97704   15.26104 
 H                     6.77126   7.14831   14.68282 
 H                     9.46891   7.69181   13.48861 
 H                     6.97828   9.31272   13.80463 
 H                     9.52481   9.75508   15.27786 
 H                     6.94745   8.7403    16.48525 
 

 GradGradGradGradGradGradGradGradGradGradGradGradGradGradGradGradGradGrad
 Berny optimization.
 Initialization pass.
 Trust Radius=3.00D-01 FncErr=1.00D-07 GrdErr=1.00D-07
 Number of steps in this run=      2 maximum allowed number of steps=      2.
 GradGradGradGradGradGradGradGradGradGradGradGradGradGradGradGradGradGrad

                          Input orientation:                          
 ---------------------------------------------------------------------
 Center     Atomic      Atomic             Coordinates (Angstroms)
 Number     Number       Type             X           Y           Z
 ---------------------------------------------------------------------
      1          8           0        7.816000    7.393000   12.286000
      2          6           0        8.406000    7.809000   13.526000
      3          6           0        8.046000    9.252000   13.839000
      4          8           0        8.540000   10.188000   12.870000
      5          1           0        8.192000    9.944000   11.964000
      6          6           0        8.459000    9.668000   15.241000
      7          8           0        7.874000   10.920000   15.629000
      8          1           0        8.185000   11.185000   16.542000
      9          6           0        7.984000    5.452000   14.382000
     10          8           0        7.452000    4.698000   13.283000
     11          1           0        7.457000    3.730000   13.536000
     12          6           0        7.820000    6.943000   14.629000
     13          8           0        8.420000    7.412000   15.844000
     14          6           0        8.004000    8.700000   16.321000
     15          8           0        8.747000    8.753000   17.548000
     16          6           0        8.098000    8.379000   18.772000
     17          6           0        8.716000    7.089000   19.287000
     18          8           0        8.394000    6.125000   18.273000
     19          1           0        8.293000    6.536000   17.367000
     20          6           0        8.212000    6.618000   20.641000
     21          8           0        8.921000    5.445000   21.068000
     22          1           0        8.794000    5.226000   22.035000
     23          6           0        7.994000   10.819000   19.577000
     24          8           0        8.465000   11.471000   18.389000
     25          1           0        8.491000   12.467000   18.479000
     26          6           0        8.388000    9.382000   19.877000
     27          8           0        7.959000    8.971000   21.183000
     28          6           0        8.561000    7.739000   21.606000
     29          8           0        7.742000    7.555000   22.771000
     30          1           0        8.509455    7.181849   11.656607
     31          1           0        8.302918    7.433458   23.540545
     32          1           0        8.313300   11.412189   20.408309
     33          1           0        6.924848   10.852445   19.550637
     34          1           0        9.455886    9.405098   19.940131
     35          1           0        7.043975    8.264946   18.627356
     36          1           0        9.778631    7.205717   19.332752
     37          1           0        7.156372    6.444498   20.619874
     38          1           0        9.604699    7.822010   21.826683
     39          1           0        9.040615    5.285920   14.352303
     40          1           0        7.601119    4.977042   15.261043
     41          1           0        6.771262    7.148307   14.682822
     42          1           0        9.468905    7.691806   13.488614
     43          1           0        6.978278    9.312725   13.804631
     44          1           0        9.524814    9.755076   15.277858
     45          1           0        6.947450    8.740304   16.485249
 ---------------------------------------------------------------------
                    Distance matrix (angstroms):
                    1          2          3          4          5
     1  O    0.000000
     2  C    1.434837   0.000000
     3  C    2.433226   1.519809   0.000000
     4  O    2.945718   2.471423   1.434954   0.000000
     5  H    2.598588   2.654028   2.003947   1.000738   0.000000
     6  C    3.784323   2.529805   1.519615   2.428704   3.299423
     7  O    4.859912   3.792618   2.452735   2.931119   3.806038
     8  H    5.712177   4.532381   3.325961   3.821468   4.743228
     9  C    2.861629   2.542886   3.839101   5.002497   5.105688
    10  O    2.896469   3.263049   4.626109   5.611988   5.459659
    11  H    3.887023   4.187952   5.561584   6.581961   6.451760
    12  C    2.385826   1.519856   2.450848   3.760652   4.030708
    13  O    3.608953   2.351793   2.746908   4.070043   4.638686
    14  C    4.245565   2.960998   2.542989   3.796161   4.535011
    15  O    5.514073   4.145347   3.807504   4.897526   5.736511
    16  C    6.566576   5.285857   5.009922   6.188816   6.986195
    17  C    7.065155   5.814088   5.899845   7.128300   7.877305
    18  O    6.147038   5.036865   5.436873   6.761782   7.377604
    19  H    5.174798   4.048034   4.459198   5.798372   6.388824
    20  C    8.400206   7.216602   7.296075   8.558091   9.292632
    21  O    9.063071   7.920574   8.216892   9.478840  10.181123
    22  H   10.034708   8.900872   9.162019  10.425123  11.137637
    23  C    8.057781   6.770853   5.948347   6.758707   7.665677
    24  O    7.368710   6.087897   5.079569   5.666663   6.609605
    25  H    8.034572   6.799735   5.662495   6.054513   6.992865
    26  C    7.868074   6.542924   6.049075   7.054842   7.935353
    27  O    9.036987   7.757558   7.349889   8.421676   9.273132
    28  C    9.356129   8.081790   7.929734   9.072802   9.897795
    29  O   10.486513   9.272294   9.096859  10.276152  11.077052
    30  H    0.960000   1.974500   3.043543   3.241944   2.797275
    31  H   11.265145  10.022114   9.873858  11.022896  11.846160
    32  H    9.075962   7.769024   6.920526   7.640427   8.571852
    33  H    8.095484   6.910327   6.036655   6.905151   7.745193
    34  H    8.082294   6.692598   6.263786   7.172066   8.093608
    35  H    6.447411   5.299701   4.990659   6.251670   6.966885
    36  H    7.317356   5.997202   6.113149   7.224637   8.019607
    37  H    8.413573   7.331199   7.392818   8.717154   9.393784
    38  H    9.716384   8.386798   8.263020   9.324895  10.186809
    39  H    3.195165   2.729734   4.120987   5.145700   5.303004
    40  H    3.838477   3.417337   4.527183   5.809704   5.990852
    41  H    2.626044   2.108820   2.600484   3.956576   4.150468
    42  H    2.065832   1.070000   2.140476   2.734325   3.004549
    43  H    2.587153   2.092179   1.070000   2.019559   2.293371
    44  H    4.177399   2.847448   2.123744   2.637245   3.576834
    45  H    4.494808   3.428097   2.910546   4.207382   4.841434
                    6          7          8          9         10
     6  C    0.000000
     7  O    1.435365   0.000000
     8  H    2.017168   1.000257   0.000000
     9  C    4.328760   5.609468   6.129706   0.000000
    10  O    5.435873   6.662964   7.296543   1.435040   0.000000
    11  H    6.258664   7.500043   8.071124   1.989655   1.000529
    12  C    2.865046   4.101152   4.667693   1.520193   2.643325
    13  O    2.335523   3.556741   3.844211   2.483775   3.855067
    14  C    1.520016   2.328983   2.501365   3.782806   5.054716
    15  O    2.498483   3.023339   2.691190   4.637060   6.025801
    16  C    3.776215   4.047877   3.585262   5.277540   6.640497
    17  C    4.804936   5.363440   4.959254   5.222511   6.585028
    18  O    4.663700   5.500287   5.351976   3.970001   5.274826
    19  H    3.789044   4.734518   4.722869   3.190731   4.556817
    20  C    6.206731   6.613743   6.136776   6.370763   7.642262
    21  O    7.211179   7.788103   7.346698   6.751342   7.957524
    22  H    8.124163   8.620027   8.127337   7.699064   8.870020
    23  C    4.510202   3.951114   3.062950   7.469459   8.796297
    24  O    3.627775   2.875845   1.889869   7.246777   8.542303
    25  H    4.280195   3.300969   2.342889   8.139575   9.404004
    26  C    4.645356   4.546993   3.796609   6.767802   8.142284
    27  O    6.003597   5.886658   5.147014   7.657518   8.995864
    28  C    6.651667   6.805532   6.136806   7.599307   8.930279
    29  O    7.853646   7.896126   7.223129   8.651965   9.913057
    30  H    4.362495   5.491583   6.324362   3.270512   3.151646
    31  H    8.596510   8.656355   7.941511   9.375864  10.650071
    32  H    5.455685   4.824627   3.875103   8.482257   9.828133
    33  H    4.725410   4.035429   3.278791   7.549928   8.799907
    34  H    4.810897   4.835612   4.041101   6.977553   8.395816
    35  H    3.929155   4.090036   3.765284   5.178741   6.438301
    36  H    4.954462   5.580439   5.114944   5.550330   6.949917
    37  H    6.404692   6.741953   6.337151   6.370329   7.547673
    38  H    6.934805   7.141718   6.422859   7.979155   9.348159
    39  H    4.508956   5.893539   6.350275   1.070000   2.003187
    40  H    4.768799   5.960587   6.365572   1.070000   2.003187
    41  H    3.083646   4.041899   4.663699   2.106819   2.902914
    42  H    2.827739   4.188820   4.813937   2.831927   3.615668
    43  H    2.093303   2.591134   3.529134   4.031133   4.668211
    44  H    1.070000   2.050740   2.331917   4.657589   5.818078
    45  H    2.166463   2.518478   2.740673   4.038692   5.181620
                   11         12         13         14         15
    11  H    0.000000
    12  C    3.413178   0.000000
    13  O    4.450995   1.433941   0.000000
    14  C    5.723315   2.446174   1.435106   0.000000
    15  O    6.556735   3.557526   2.192904   1.435405   0.000000
    16  C    7.031343   4.393612   3.100316   2.473717   1.435010
    17  C    6.778050   4.745640   3.470763   3.449554   2.407068
    18  O    5.390099   3.778536   2.749015   3.254693   2.748930
    19  H    4.821731   2.808206   1.761543   2.420854   2.270235
    20  C    7.706594   6.033526   4.866714   4.800040   3.796195
    21  O    7.862286   6.702009   5.604486   5.828372   4.833585
    22  H    8.732616   7.664568   6.576242   6.733689   5.707461
    23  C    9.329307   6.287794   5.071924   3.884816   2.992024
    24  O    9.191885   5.920845   4.791089   3.488207   2.859078
    25  H   10.091460   6.766633   5.700990   4.368572   3.837459
    26  C    8.545183   5.814882   4.488542   3.641115   2.439009
    27  O    9.284217   6.861998   5.581032   4.869755   3.725814
    28  C    9.078315   7.061248   5.772994   5.400462   4.186903
    29  O    9.999854   8.165341   6.961570   6.556079   5.452060
    30  H    4.068788   3.060640   4.194667   4.931210   6.101922
    31  H   10.701500   8.938086   7.697465   7.335892   6.152153
    32  H   10.343012   7.322391   6.070075   4.915051   3.929472
    33  H    9.337466   6.348824   5.273642   4.028417   3.426144
    34  H    8.787217   6.078335   4.671594   3.962732   2.578767
    35  H    6.830682   4.282126   3.219943   2.535783   2.074488
    36  H    7.146531   5.102013   3.749642   3.801690   2.577535
    37  H    7.592111   6.048097   5.034062   4.928091   4.158808
    38  H    9.491711   7.467560   6.112619   5.800487   4.462008
    39  H    2.365391   2.076626   2.670307   4.075081   4.724334
    40  H    2.133462   2.076626   2.634279   3.891816   4.560819
    41  H    3.670186   1.070000   2.033767   2.571191   3.832470
    42  H    4.443637   2.140112   2.593518   3.344371   4.257452
    43  H    5.609648   2.646446   3.138526   2.785615   4.177857
    44  H    6.603898   3.351892   2.651629   2.124666   2.600518
    45  H    5.836168   2.727142   2.084225   1.070000   2.089971
                   16         17         18         19         20
    16  C    0.000000
    17  C    1.520279   0.000000
    18  O    2.327474   1.435680   0.000000
    19  H    2.325661   2.042336   0.999979   0.000000
    20  C    2.570463   1.519596   2.425613   3.276028   0.000000
    21  O    3.815403   2.432431   2.924407   3.909228   1.435597
    22  H    4.590533   3.320897   3.888553   4.874149   2.054172
    23  C    2.571467   3.810287   4.888154   4.828829   4.339127
    24  O    3.137171   4.480104   5.347730   5.042647   5.356036
    25  H    4.117286   5.443011   6.346086   6.037591   6.242026
    26  C    1.520241   2.390300   3.630551   3.795898   2.873042
    27  O    2.486505   2.776651   4.093536   4.539013   2.427835
    28  C    2.942027   2.413356   3.706990   4.414539   1.519759
    29  O    4.098501   3.647477   4.764662   5.526769   2.373977
    30  H    7.227121   7.633753   6.701262   5.750875   9.006982
    31  H    4.865702   4.287415   5.428387   6.238444   3.013403
    32  H    3.453128   4.484357   5.702668   5.746929   4.800901
    33  H    2.846136   4.176272   5.112680   5.027107   4.558089
    34  H    2.064282   2.517602   3.829618   4.025547   3.131515
    35  H    1.070000   2.147940   2.554898   2.477461   2.851575
    36  H    2.124984   1.070000   2.051396   2.553390   2.123972
    37  H    2.836124   2.150436   2.672381   3.446953   1.070000
    38  H    3.451300   2.788742   4.119988   4.823189   2.189771
    39  H    5.476257   5.263811   4.061284   3.348138   6.481416
    40  H    4.913962   4.680988   3.319390   2.710000   5.657725
    41  H    4.471713   4.998398   4.070604   3.145699   6.152791
    42  H    5.501435   5.878054   5.147879   4.214323   7.340947
    43  H    5.176908   6.166118   5.668526   4.704165   7.451145
    44  H    4.017264   4.882147   4.840152   4.030426   6.350435
    45  H    2.585253   3.701943   3.482581   2.728909   4.834617
                   21         22         23         24         25
    21  O    0.000000
    22  H    0.999589   0.000000
    23  C    5.653520   6.161446   0.000000
    24  O    6.610420   7.238894   1.434674   0.000000
    25  H    7.496419   8.072733   2.041695   1.000396   0.000000
    26  C    4.147594   4.700440   1.519936   2.565929   3.388545
    27  O    3.656685   3.930414   2.448584   3.783183   4.451590
    28  C    2.383586   2.559980   3.731585   4.928096   5.668952
    29  O    2.956747   2.659444   4.573711   5.921124   6.565821
    30  H    9.579161  10.564911   8.730818   7.982726   8.630076
    31  H    3.232564   2.716744   5.221782   6.547246   7.140809
    32  H    6.034222   6.414525   1.070000   2.025853   2.206000
    33  H    5.960493   6.428271   1.070000   2.025853   2.491591
    34  H    4.152176   4.721380   2.065937   2.766914   3.527202
    35  H    4.175172   4.889767   2.885752   3.514955   4.446701
    36  H    2.616628   3.491550   4.037373   4.561681   5.483428
    37  H    2.076951   2.483777   4.574437   5.652878   6.529556
    38  H    2.587126   2.727618   4.078894   5.141177   5.832944
    39  H    6.718646   7.686888   7.681656   7.408203   8.300579
    40  H    5.973426   6.882691   7.273947   7.259607   8.200402
    41  H    6.949326   7.863921   6.238754   5.940554   6.756993
    42  H    7.924357   8.920561   7.001652   6.269284   6.975868
    43  H    8.455176   9.366811   6.051513   5.280619   5.838451
    44  H    7.243417   8.167349   4.685931   3.707668   4.320951
    45  H    5.979593   6.823475   3.869776   3.658405   4.499539
                   26         27         28         29         30
    26  C    0.000000
    27  O    1.434782   0.000000
    28  C    2.391405   1.434976   0.000000
    29  O    3.482884   2.138665   1.435912   0.000000
    30  H    8.510598   9.708564   9.965114  11.147105   0.000000
    31  H    4.150375   2.835548   1.975456   0.960000  11.888395
    32  H    2.099889   2.585552   3.871451   4.559232   9.722476
    33  H    2.099889   2.697020   4.073702   4.680985   8.848727
    34  H    1.070000   1.993448   2.520282   3.791318   8.628750
    35  H    2.148447   2.804836   3.383830   4.261579   7.205003
    36  H    2.639369   3.138582   2.633377   4.011411   7.780397
    37  H    3.270732   2.710080   2.149688   2.490687   9.094760
    38  H    2.777623   2.107803   1.070000   2.105393  10.248893
    39  H    6.908405   7.836334   7.672272   8.815304   3.338181
    40  H    6.428833   7.151877   6.986291   7.941358   4.321829
    41  H    5.880707   6.854578   7.175129   8.156369   3.490045
    42  H    6.696013   7.944793   8.168138   9.442649   2.129988
    43  H    6.234243   7.451102   8.114369   9.168896   3.391038
    44  H    4.752225   6.159322   6.711101   8.010364   4.556963
    45  H    3.740445   4.810958   5.461524   6.445690   5.308901
                   31         32         33         34         35
    31  H    0.000000
    32  H    5.063724   0.000000
    33  H    5.432118   1.725316   0.000000
    34  H    4.263764   2.356503   2.941543   0.000000
    35  H    5.139624   3.832509   2.749871   2.973322   0.000000
    36  H    4.464876   4.582403   4.635750   2.304420   3.016271
    37  H    3.289822   5.105016   4.541681   3.809851   2.701257
    38  H    2.186991   4.070489   4.641716   2.467264   4.121796
    39  H    9.464666   8.644962   7.904767   6.954416   5.580075
    40  H    8.664678   8.271194   7.306046   6.703857   4.738436
    41  H    8.993694   7.303408   6.118811   6.319779   4.108601
    42  H   10.122627   7.940960   7.294518   6.675149   5.710993
    43  H   10.003716   7.056812   5.948965   6.617510   4.935669
    44  H    8.669194   5.525877   5.120614   4.675898   4.426532
    45  H    7.302214   4.939121   3.722668   4.320927   2.196338
                   36         37         38         39         40
    36  H    0.000000
    37  H    3.018672   0.000000
    38  H    2.574833   3.057489   0.000000
    39  H    5.388428   6.646436   7.913046   0.000000
    40  H    5.127120   5.573893   7.430733   1.730134   0.000000
    41  H    5.537997   5.991013   7.714726   2.954267   2.395286
    42  H    5.872492   7.599898   8.340191   2.591849   3.741667
    43  H    6.545348   7.396349   8.571677   4.557230   4.615974
    44  H    4.796438   6.716143   6.828633   4.589603   5.150776
    45  H    4.298699   4.733866   6.036154   4.567665   4.010997
                   41         42         43         44         45
    41  H    0.000000
    42  H    2.999801   0.000000
    43  H    2.344947   2.988390   0.000000
    44  H    3.838146   2.731594   2.975050   0.000000
    45  H    2.411273   4.054246   2.741228   3.021649   0.000000
 Stoichiometry    C12H22O11
 Framework group  C1[X(C12H22O11)]
 Deg. of freedom   129
 Full point group                 C1      NOp   1
 Largest Abelian subgroup         C1      NOp   1
 Largest concise Abelian subgroup C1      NOp   1
                         Standard orientation:                         
 ---------------------------------------------------------------------
 Center     Atomic      Atomic             Coordinates (Angstroms)
 Number     Number       Type             X           Y           Z
 ---------------------------------------------------------------------
      1          8           0        4.981177   -0.619839   -0.222192
      2          6           0        3.713505   -0.219914    0.318015
      3          6           0        3.382565    1.209040   -0.079964
      4          8           0        4.314454    2.174812    0.427933
      5          1           0        5.236609    1.944074    0.115096
      6          6           0        1.958993    1.602173    0.277974
      7          8           0        1.564718    2.834404   -0.343657
      8          1           0        0.636376    3.085295   -0.068431
      9          6           0        2.921969   -2.602324   -0.086780
     10          8           0        4.053901   -3.342089   -0.567216
     11          1           0        3.821281   -4.315082   -0.551997
     12          6           0        2.649354   -1.120323   -0.287629
     13          8           0        1.405211   -0.666692    0.262383
     14          6           0        0.915548    0.602733   -0.194035
     15          8           0       -0.336665    0.642927    0.506489
     16          6           0       -1.529938    0.230528   -0.175625
     17          6           0       -2.038264   -1.058632    0.449611
     18          8           0       -0.993936   -2.006256    0.180233
     19          1           0       -0.093885   -1.577676    0.101589
     20          6           0       -3.364288   -1.568117   -0.090075
     21          8           0       -3.790213   -2.736730    0.626773
     22          1           0       -4.747560   -2.978939    0.471852
     23          6           0       -2.382087    2.650172   -0.353411
     24          8           0       -1.224624    3.336375    0.144277
     25          1           0       -1.336368    4.330503    0.148061
     26          6           0       -2.664935    1.214571    0.057992
     27          8           0       -3.946788    0.767493   -0.406306
     28          6           0       -4.363866   -0.461995    0.204891
     29          8           0       -5.496444   -0.686349   -0.648792
     30          1           0        5.591114   -0.804405    0.495800
     31          1           0       -6.281750   -0.814097   -0.111601
     32          1           0       -3.235982    3.231041   -0.073493
     33          1           0       -2.320374    2.664333   -1.421536
     34          1           0       -2.764532    1.256110    1.122536
     35          1           0       -1.347447    0.100092   -1.221849
     36          1           0       -2.122287   -0.923234    1.507679
     37          1           0       -3.303913   -1.760680   -1.140871
     38          1           0       -4.621334   -0.364429    1.238860
     39          1           0        2.919484   -2.748086    0.973242
     40          1           0        2.066524   -3.103231   -0.489527
     41          1           0        2.626643   -0.935727   -1.341341
     42          1           0        3.717463   -0.316525    1.383637
     43          1           0        3.451655    1.250670   -1.146919
     44          1           0        1.884373    1.708194    1.340091
     45          1           0        0.786229    0.619857   -1.256053
 ---------------------------------------------------------------------
 Rotational constants (GHZ):      0.4038005      0.1449738      0.1095243
 Standard basis: 6-31+G(2d,p) (6D, 7F)
 There are   685 symmetry adapted basis functions of A   symmetry.
 Integral buffers will be    131072 words long.
 Raffenetti 2 integral format.
 Two-electron integral symmetry is turned on.
   685 basis functions,  1028 primitive gaussians,   685 cartesian basis functions
    91 alpha electrons       91 beta electrons
       nuclear repulsion energy      2283.6448906616 Hartrees.
 NAtoms=   45 NActive=   45 NUniq=   45 SFac= 1.00D+00 NAtFMM=   50 NAOKFM=F Big=F
 One-electron integrals computed using PRISM.
 NBasis=   685 RedAO= T  NBF=   685
 NBsUse=   685 1.00D-06 NBFU=   685
 Harris functional with IExCor=  402 diagonalized for initial guess.
 ExpMin= 4.38D-02 ExpMax= 5.48D+03 ExpMxC= 8.25D+02 IAcc=2 IRadAn=         0 AccDes= 0.00D+00
 HarFok:  IExCor=  402 AccDes= 0.00D+00 IRadAn=         0 IDoV= 1
 ScaDFX=  1.000000  1.000000  1.000000  1.000000
 FoFCou: FMM=F IPFlag=           0 FMFlag=      100000 FMFlg1=           0
         NFxFlg=           0 DoJE=T BraDBF=F KetDBF=T FulRan=T
         Omega=  0.000000  0.000000  1.000000  0.000000  0.000000 ICntrl=     500 IOpCl=  0
         NMat0=    1 NMatS0=    1 NMatT0=    0 NMatD0=    1 NMtDS0=    0 NMtDT0=    0
         I1Cent=           4 NGrid=           0.
 Petite list used in FoFCou.
 Initial guess orbital symmetries:
       Occupied  (A) (A) (A) (A) (A) (A) (A) (A) (A) (A) (A) (A)
                 (A) (A) (A) (A) (A) (A) (A) (A) (A) (A) (A) (A)
                 (A) (A) (A) (A) (A) (A) (A) (A) (A) (A) (A) (A)
                 (A) (A) (A) (A) (A) (A) (A) (A) (A) (A) (A) (A)
                 (A) (A) (A) (A) (A) (A) (A) (A) (A) (A) (A) (A)
                 (A) (A) (A) (A) (A) (A) (A) (A) (A) (A) (A) (A)
                 (A) (A) (A) (A) (A) (A) (A) (A) (A) (A) (A) (A)
                 (A) (A) (A) (A) (A) (A) (A)
       Virtual   (A) (A) (A) (A) (A) (A) (A) (A) (A) (A) (A) (A)
                 (A) (A) (A) (A) (A) (A) (A) (A) (A) (A) (A) (A)
                 (A) (A) (A) (A) (A) (A) (A) (A) (A) (A) (A) (A)
                 (A) (A) (A) (A) (A) (A) (A) (A) (A) (A) (A) (A)
                 (A) (A) (A) (A) (A) (A) (A) (A) (A) (A) (A) (A)
                 (A) (A) (A) (A) (A) (A) (A) (A) (A) (A) (A) (A)
                 (A) (A) (A) (A) (A) (A) (A) (A) (A) (A) (A) (A)
                 (A) (A) (A) (A) (A) (A) (A) (A) (A) (A) (A) (A)
                 (A) (A) (A) (A) (A) (A) (A) (A) (A) (A) (A) (A)
                 (A) (A) (A) (A) (A) (A) (A) (A) (A) (A) (A) (A)
                 (A) (A) (A) (A) (A) (A) (A) (A) (A) (A) (A) (A)
                 (A) (A) (A) (A) (A) (A) (A) (A) (A) (A) (A) (A)
                 (A) (A) (A) (A) (A) (A) (A) (A) (A) (A) (A) (A)
                 (A) (A) (A) (A) (A) (A) (A) (A) (A) (A) (A) (A)
                 (A) (A) (A) (A) (A) (A) (A) (A) (A) (A) (A) (A)
                 (A) (A) (A) (A) (A) (A) (A) (A) (A) (A) (A) (A)
                 (A) (A) (A) (A) (A) (A) (A) (A) (A) (A) (A) (A)
                 (A) (A) (A) (A) (A) (A) (A) (A) (A) (A) (A) (A)
                 (A) (A) (A) (A) (A) (A) (A) (A) (A) (A) (A) (A)
                 (A) (A) (A) (A) (A) (A) (A) (A) (A) (A) (A) (A)
                 (A) (A) (A) (A) (A) (A) (A) (A) (A) (A) (A) (A)
                 (A) (A) (A) (A) (A) (A) (A) (A) (A) (A) (A) (A)
                 (A) (A) (A) (A) (A) (A) (A) (A) (A) (A) (A) (A)
                 (A) (A) (A) (A) (A) (A) (A) (A) (A) (A) (A) (A)
                 (A) (A) (A) (A) (A) (A) (A) (A) (A) (A) (A) (A)
                 (A) (A) (A) (A) (A) (A) (A) (A) (A) (A) (A) (A)
                 (A) (A) (A) (A) (A) (A) (A) (A) (A) (A) (A) (A)
                 (A) (A) (A) (A) (A) (A) (A) (A) (A) (A) (A) (A)
                 (A) (A) (A) (A) (A) (A) (A) (A) (A) (A) (A) (A)
                 (A) (A) (A) (A) (A) (A) (A) (A) (A) (A) (A) (A)
                 (A) (A) (A) (A) (A) (A) (A) (A) (A) (A) (A) (A)
                 (A) (A) (A) (A) (A) (A) (A) (A) (A) (A) (A) (A)
                 (A) (A) (A) (A) (A) (A) (A) (A) (A) (A) (A) (A)
                 (A) (A) (A) (A) (A) (A) (A) (A) (A) (A) (A) (A)
                 (A) (A) (A) (A) (A) (A) (A) (A) (A) (A) (A) (A)
                 (A) (A) (A) (A) (A) (A) (A) (A) (A) (A) (A) (A)
                 (A) (A) (A) (A) (A) (A) (A) (A) (A) (A) (A) (A)
                 (A) (A) (A) (A) (A) (A) (A) (A) (A) (A) (A) (A)
                 (A) (A) (A) (A) (A) (A) (A) (A) (A) (A) (A) (A)
                 (A) (A) (A) (A) (A) (A) (A) (A) (A) (A) (A) (A)
                 (A) (A) (A) (A) (A) (A) (A) (A) (A) (A) (A) (A)
                 (A) (A) (A) (A) (A) (A) (A) (A) (A) (A) (A) (A)
                 (A) (A) (A) (A) (A) (A) (A) (A) (A) (A) (A) (A)
                 (A) (A) (A) (A) (A) (A) (A) (A) (A) (A) (A) (A)
                 (A) (A) (A) (A) (A) (A) (A) (A) (A) (A) (A) (A)
                 (A) (A) (A) (A) (A) (A) (A) (A) (A) (A) (A) (A)
                 (A) (A) (A) (A) (A) (A) (A) (A) (A) (A) (A) (A)
                 (A) (A) (A) (A) (A) (A) (A) (A) (A) (A) (A) (A)
                 (A) (A) (A) (A) (A) (A) (A) (A) (A) (A) (A) (A)
                 (A) (A) (A) (A) (A) (A)
 The electronic state of the initial guess is 1-A.
 Requested convergence on RMS density matrix=1.00D-08 within 128 cycles.
 Requested convergence on MAX density matrix=1.00D-06.
 Requested convergence on             energy=1.00D-06.
 No special actions if energy rises.
 SCF Done:  E(RB3LYP) =  -1297.96257713     A.U. after   13 cycles
             Convg  =    0.5472D-08             -V/T =  2.0064
 Range of M.O.s used for correlation:     1   685
 NBasis=   685 NAE=    91 NBE=    91 NFC=     0 NFV=     0
 NROrb=    685 NOA=    91 NOB=    91 NVA=   594 NVB=   594

 **** Warning!!: The largest alpha MO coefficient is  0.63413012D+02

          Differentiating once with respect to electric field.
                with respect to dipole field.
          Electric field/nuclear overlap derivatives assumed to be zero.
          There are     3 degrees of freedom in the 1st order CPHF.  IDoFFX=0.
      3 vectors produced by pass  0 Test12= 1.80D-12 3.33D-08 XBig12= 1.25D+02 9.81D-01.
 AX will form     3 AO Fock derivatives at one time.
      3 vectors produced by pass  1 Test12= 1.80D-12 3.33D-08 XBig12= 2.47D+01 3.97D-01.
      3 vectors produced by pass  2 Test12= 1.80D-12 3.33D-08 XBig12= 1.05D+01 2.22D-01.
      3 vectors produced by pass  3 Test12= 1.80D-12 3.33D-08 XBig12= 1.21D+00 1.00D-01.
      3 vectors produced by pass  4 Test12= 1.80D-12 3.33D-08 XBig12= 3.67D-01 4.55D-02.
      3 vectors produced by pass  5 Test12= 1.80D-12 3.33D-08 XBig12= 6.54D-02 2.43D-02.
      3 vectors produced by pass  6 Test12= 1.80D-12 3.33D-08 XBig12= 2.54D-02 1.85D-02.
      3 vectors produced by pass  7 Test12= 1.80D-12 3.33D-08 XBig12= 3.18D-03 8.65D-03.
      3 vectors produced by pass  8 Test12= 1.80D-12 3.33D-08 XBig12= 7.39D-04 2.98D-03.
      3 vectors produced by pass  9 Test12= 1.80D-12 3.33D-08 XBig12= 1.57D-04 1.41D-03.
      3 vectors produced by pass 10 Test12= 1.80D-12 3.33D-08 XBig12= 4.47D-05 5.67D-04.
      3 vectors produced by pass 11 Test12= 1.80D-12 3.33D-08 XBig12= 8.70D-06 4.15D-04.
      3 vectors produced by pass 12 Test12= 1.80D-12 3.33D-08 XBig12= 1.53D-06 1.02D-04.
      3 vectors produced by pass 13 Test12= 1.80D-12 3.33D-08 XBig12= 5.25D-07 5.73D-05.
      3 vectors produced by pass 14 Test12= 1.80D-12 3.33D-08 XBig12= 7.60D-08 2.51D-05.
      3 vectors produced by pass 15 Test12= 1.80D-12 3.33D-08 XBig12= 1.52D-08 9.50D-06.
      3 vectors produced by pass 16 Test12= 1.80D-12 3.33D-08 XBig12= 2.26D-09 6.40D-06.
      3 vectors produced by pass 17 Test12= 1.80D-12 3.33D-08 XBig12= 1.78D-10 1.18D-06.
      3 vectors produced by pass 18 Test12= 1.80D-12 3.33D-08 XBig12= 3.28D-11 3.81D-07.
      3 vectors produced by pass 19 Test12= 1.80D-12 3.33D-08 XBig12= 1.07D-11 1.91D-07.
      3 vectors produced by pass 20 Test12= 1.80D-12 3.33D-08 XBig12= 4.31D-12 1.27D-07.
      3 vectors produced by pass 21 Test12= 1.80D-12 3.33D-08 XBig12= 1.54D-12 8.99D-08.
 Inverted reduced A of dimension    66 with in-core refinement.
 End of Minotr Frequency-dependent properties file   721 does not exist.
 End of Minotr Frequency-dependent properties file   722 does not exist.
 Symmetrizing basis deriv contribution to polar:
 IMax=3 JMax=2 DiffMx= 0.00D+00
 G2DrvN: will do    16 centers at a time, making    3 passes doing MaxLOS=2.
 Calling FoFCou, ICntrl=  3107 FMM=F I1Cent=   0 AccDes= 0.00D+00.
 Calling FoFCou, ICntrl=  3107 FMM=F I1Cent=   0 AccDes= 0.00D+00.
 Calling FoFCou, ICntrl=  3107 FMM=F I1Cent=   0 AccDes= 0.00D+00.
 FoFDir/FoFCou used for L=0 through L=2.
 End of G2Drv Frequency-dependent properties file   721 does not exist.
 End of G2Drv Frequency-dependent properties file   722 does not exist.
          IDoAtm=111111111111111111111111111111111111111111111
          Differentiating once with respect to electric field.
                with respect to dipole field.
          Differentiating once with respect to nuclear coordinates.
          There are   138 degrees of freedom in the 1st order CPHF.  IDoFFX=5.
 Will reuse    3 saved solutions.
    135 vectors produced by pass  0 Test12= 5.41D-14 1.00D-09 XBig12= 1.55D-01 1.02D-01.
 AX will form    45 AO Fock derivatives at one time.
    135 vectors produced by pass  1 Test12= 5.41D-14 1.00D-09 XBig12= 1.81D-02 1.03D-02.
    132 vectors produced by pass  2 Test12= 5.41D-14 1.00D-09 XBig12= 1.50D-04 1.19D-03.
    132 vectors produced by pass  3 Test12= 5.41D-14 1.00D-09 XBig12= 5.16D-07 5.67D-05.
    132 vectors produced by pass  4 Test12= 5.41D-14 1.00D-09 XBig12= 1.27D-09 2.34D-06.
    132 vectors produced by pass  5 Test12= 5.41D-14 1.00D-09 XBig12= 2.77D-12 1.02D-07.
     82 vectors produced by pass  6 Test12= 5.41D-14 1.00D-09 XBig12= 1.05D-13 1.81D-08.
 Inverted reduced A of dimension   880 with in-core refinement.
 Isotropic polarizability for W=    0.000000      193.14 Bohr**3.
 End of Minotr Frequency-dependent properties file   721 does not exist.
 End of Minotr Frequency-dependent properties file   722 does not exist.

 **********************************************************************

            Population analysis using the SCF density.

 **********************************************************************

 Orbital symmetries:
       Occupied  (A) (A) (A) (A) (A) (A) (A) (A) (A) (A) (A) (A)
                 (A) (A) (A) (A) (A) (A) (A) (A) (A) (A) (A) (A)
                 (A) (A) (A) (A) (A) (A) (A) (A) (A) (A) (A) (A)
                 (A) (A) (A) (A) (A) (A) (A) (A) (A) (A) (A) (A)
                 (A) (A) (A) (A) (A) (A) (A) (A) (A) (A) (A) (A)
                 (A) (A) (A) (A) (A) (A) (A) (A) (A) (A) (A) (A)
                 (A) (A) (A) (A) (A) (A) (A) (A) (A) (A) (A) (A)
                 (A) (A) (A) (A) (A) (A) (A)
       Virtual   (A) (A) (A) (A) (A) (A) (A) (A) (A) (A) (A) (A)
                 (A) (A) (A) (A) (A) (A) (A) (A) (A) (A) (A) (A)
                 (A) (A) (A) (A) (A) (A) (A) (A) (A) (A) (A) (A)
                 (A) (A) (A) (A) (A) (A) (A) (A) (A) (A) (A) (A)
                 (A) (A) (A) (A) (A) (A) (A) (A) (A) (A) (A) (A)
                 (A) (A) (A) (A) (A) (A) (A) (A) (A) (A) (A) (A)
                 (A) (A) (A) (A) (A) (A) (A) (A) (A) (A) (A) (A)
                 (A) (A) (A) (A) (A) (A) (A) (A) (A) (A) (A) (A)
                 (A) (A) (A) (A) (A) (A) (A) (A) (A) (A) (A) (A)
                 (A) (A) (A) (A) (A) (A) (A) (A) (A) (A) (A) (A)
                 (A) (A) (A) (A) (A) (A) (A) (A) (A) (A) (A) (A)
                 (A) (A) (A) (A) (A) (A) (A) (A) (A) (A) (A) (A)
                 (A) (A) (A) (A) (A) (A) (A) (A) (A) (A) (A) (A)
                 (A) (A) (A) (A) (A) (A) (A) (A) (A) (A) (A) (A)
                 (A) (A) (A) (A) (A) (A) (A) (A) (A) (A) (A) (A)
                 (A) (A) (A) (A) (A) (A) (A) (A) (A) (A) (A) (A)
                 (A) (A) (A) (A) (A) (A) (A) (A) (A) (A) (A) (A)
                 (A) (A) (A) (A) (A) (A) (A) (A) (A) (A) (A) (A)
                 (A) (A) (A) (A) (A) (A) (A) (A) (A) (A) (A) (A)
                 (A) (A) (A) (A) (A) (A) (A) (A) (A) (A) (A) (A)
                 (A) (A) (A) (A) (A) (A) (A) (A) (A) (A) (A) (A)
                 (A) (A) (A) (A) (A) (A) (A) (A) (A) (A) (A) (A)
                 (A) (A) (A) (A) (A) (A) (A) (A) (A) (A) (A) (A)
                 (A) (A) (A) (A) (A) (A) (A) (A) (A) (A) (A) (A)
                 (A) (A) (A) (A) (A) (A) (A) (A) (A) (A) (A) (A)
                 (A) (A) (A) (A) (A) (A) (A) (A) (A) (A) (A) (A)
                 (A) (A) (A) (A) (A) (A) (A) (A) (A) (A) (A) (A)
                 (A) (A) (A) (A) (A) (A) (A) (A) (A) (A) (A) (A)
                 (A) (A) (A) (A) (A) (A) (A) (A) (A) (A) (A) (A)
                 (A) (A) (A) (A) (A) (A) (A) (A) (A) (A) (A) (A)
                 (A) (A) (A) (A) (A) (A) (A) (A) (A) (A) (A) (A)
                 (A) (A) (A) (A) (A) (A) (A) (A) (A) (A) (A) (A)
                 (A) (A) (A) (A) (A) (A) (A) (A) (A) (A) (A) (A)
                 (A) (A) (A) (A) (A) (A) (A) (A) (A) (A) (A) (A)
                 (A) (A) (A) (A) (A) (A) (A) (A) (A) (A) (A) (A)
                 (A) (A) (A) (A) (A) (A) (A) (A) (A) (A) (A) (A)
                 (A) (A) (A) (A) (A) (A) (A) (A) (A) (A) (A) (A)
                 (A) (A) (A) (A) (A) (A) (A) (A) (A) (A) (A) (A)
                 (A) (A) (A) (A) (A) (A) (A) (A) (A) (A) (A) (A)
                 (A) (A) (A) (A) (A) (A) (A) (A) (A) (A) (A) (A)
                 (A) (A) (A) (A) (A) (A) (A) (A) (A) (A) (A) (A)
                 (A) (A) (A) (A) (A) (A) (A) (A) (A) (A) (A) (A)
                 (A) (A) (A) (A) (A) (A) (A) (A) (A) (A) (A) (A)
                 (A) (A) (A) (A) (A) (A) (A) (A) (A) (A) (A) (A)
                 (A) (A) (A) (A) (A) (A) (A) (A) (A) (A) (A) (A)
                 (A) (A) (A) (A) (A) (A) (A) (A) (A) (A) (A) (A)
                 (A) (A) (A) (A) (A) (A) (A) (A) (A) (A) (A) (A)
                 (A) (A) (A) (A) (A) (A) (A) (A) (A) (A) (A) (A)
                 (A) (A) (A) (A) (A) (A) (A) (A) (A) (A) (A) (A)
                 (A) (A) (A) (A) (A) (A)
 The electronic state is 1-A.
 Alpha  occ. eigenvalues --  -19.18355 -19.18202 -19.17987 -19.17735 -19.17454
 Alpha  occ. eigenvalues --  -19.16466 -19.16115 -19.16007 -19.15490 -19.13649
 Alpha  occ. eigenvalues --  -19.12235 -10.30945 -10.30476 -10.25560 -10.25553
 Alpha  occ. eigenvalues --  -10.25360 -10.25095 -10.24747 -10.24672 -10.24580
 Alpha  occ. eigenvalues --  -10.24447 -10.24009 -10.23784  -1.10297  -1.09336
 Alpha  occ. eigenvalues --   -1.05083  -1.04680  -1.03619  -1.02986  -1.02477
 Alpha  occ. eigenvalues --   -1.02110  -1.02016  -1.00466  -0.99400  -0.82161
 Alpha  occ. eigenvalues --   -0.80059  -0.79021  -0.78348  -0.72106  -0.70066
 Alpha  occ. eigenvalues --   -0.67319  -0.64884  -0.62843  -0.62369  -0.61655
 Alpha  occ. eigenvalues --   -0.60429  -0.56517  -0.55792  -0.55000  -0.54682
 Alpha  occ. eigenvalues --   -0.53429  -0.53200  -0.52958  -0.51689  -0.51078
 Alpha  occ. eigenvalues --   -0.50530  -0.50134  -0.49173  -0.48725  -0.46652
 Alpha  occ. eigenvalues --   -0.46367  -0.45133  -0.44334  -0.43677  -0.42876
 Alpha  occ. eigenvalues --   -0.42481  -0.41883  -0.41326  -0.40247  -0.38752
 Alpha  occ. eigenvalues --   -0.38273  -0.37975  -0.37029  -0.35809  -0.35646
 Alpha  occ. eigenvalues --   -0.35038  -0.34382  -0.34037  -0.33545  -0.32892
 Alpha  occ. eigenvalues --   -0.32474  -0.30859  -0.30469  -0.30023  -0.29851
 Alpha  occ. eigenvalues --   -0.29016  -0.28435  -0.28187  -0.27476  -0.26309
 Alpha  occ. eigenvalues --   -0.25557
 Alpha virt. eigenvalues --   -0.02071  -0.01994  -0.01718  -0.00178   0.00240
 Alpha virt. eigenvalues --    0.00867   0.01857   0.02169   0.03225   0.03542
 Alpha virt. eigenvalues --    0.03641   0.04087   0.04537   0.05343   0.05654
 Alpha virt. eigenvalues --    0.06353   0.06636   0.07251   0.07799   0.07918
 Alpha virt. eigenvalues --    0.08020   0.08576   0.08965   0.09783   0.09935
 Alpha virt. eigenvalues --    0.10371   0.10920   0.11371   0.11783   0.12023
 Alpha virt. eigenvalues --    0.12079   0.13067   0.13081   0.13233   0.13664
 Alpha virt. eigenvalues --    0.13824   0.14005   0.14521   0.14688   0.15013
 Alpha virt. eigenvalues --    0.15623   0.16077   0.16733   0.16952   0.17185
 Alpha virt. eigenvalues --    0.17223   0.17723   0.17865   0.18180   0.18664
 Alpha virt. eigenvalues --    0.19096   0.19300   0.19405   0.19638   0.19919
 Alpha virt. eigenvalues --    0.20600   0.20990   0.21402   0.21665   0.22006
 Alpha virt. eigenvalues --    0.22016   0.22141   0.22963   0.23043   0.23740
 Alpha virt. eigenvalues --    0.23783   0.24091   0.24388   0.24507   0.24672
 Alpha virt. eigenvalues --    0.25194   0.25280   0.25461   0.25656   0.25716
 Alpha virt. eigenvalues --    0.25906   0.26449   0.26897   0.27137   0.27543
 Alpha virt. eigenvalues --    0.27654   0.27679   0.27964   0.28452   0.28988
 Alpha virt. eigenvalues --    0.29191   0.29682   0.29876   0.30150   0.30622
 Alpha virt. eigenvalues --    0.31333   0.31474   0.31722   0.31980   0.32157
 Alpha virt. eigenvalues --    0.32626   0.33020   0.33063   0.33329   0.34103
 Alpha virt. eigenvalues --    0.34469   0.34833   0.34879   0.35187   0.35470
 Alpha virt. eigenvalues --    0.35890   0.36719   0.37414   0.37550   0.37795
 Alpha virt. eigenvalues --    0.38024   0.38077   0.38695   0.38962   0.39328
 Alpha virt. eigenvalues --    0.39756   0.40487   0.40750   0.41263   0.41381
 Alpha virt. eigenvalues --    0.41642   0.42746   0.43021   0.43282   0.43695
 Alpha virt. eigenvalues --    0.44667   0.45074   0.45594   0.45768   0.46153
 Alpha virt. eigenvalues --    0.46734   0.46934   0.48188   0.49006   0.49690
 Alpha virt. eigenvalues --    0.51479   0.52012   0.53871   0.57926   0.59070
 Alpha virt. eigenvalues --    0.60056   0.60961   0.61574   0.61861   0.62331
 Alpha virt. eigenvalues --    0.63339   0.64765   0.65010   0.65823   0.66406
 Alpha virt. eigenvalues --    0.67722   0.68820   0.69398   0.70520   0.70587
 Alpha virt. eigenvalues --    0.71264   0.71667   0.72335   0.73357   0.74417
 Alpha virt. eigenvalues --    0.74685   0.75389   0.76287   0.77287   0.77804
 Alpha virt. eigenvalues --    0.78294   0.79514   0.79747   0.80921   0.82103
 Alpha virt. eigenvalues --    0.82650   0.83373   0.84251   0.85569   0.85696
 Alpha virt. eigenvalues --    0.87084   0.87977   0.88689   0.89375   0.89502
 Alpha virt. eigenvalues --    0.90236   0.90330   0.91275   0.91493   0.91823
 Alpha virt. eigenvalues --    0.92568   0.93016   0.93487   0.93899   0.94350
 Alpha virt. eigenvalues --    0.95193   0.95387   0.95976   0.96194   0.96428
 Alpha virt. eigenvalues --    0.97147   0.97852   0.98077   0.98737   0.98912
 Alpha virt. eigenvalues --    0.99379   0.99424   1.00727   1.01770   1.02338
 Alpha virt. eigenvalues --    1.03521   1.04053   1.04486   1.04800   1.05591
 Alpha virt. eigenvalues --    1.06090   1.06297   1.06853   1.07676   1.08031
 Alpha virt. eigenvalues --    1.09206   1.09606   1.10412   1.11276   1.11826
 Alpha virt. eigenvalues --    1.12368   1.12631   1.13386   1.14153   1.14590
 Alpha virt. eigenvalues --    1.15270   1.15925   1.16569   1.16978   1.17276
 Alpha virt. eigenvalues --    1.17815   1.17995   1.18353   1.18986   1.19882
 Alpha virt. eigenvalues --    1.20703   1.21108   1.21484   1.21648   1.22598
 Alpha virt. eigenvalues --    1.22724   1.23192   1.23917   1.24943   1.25851
 Alpha virt. eigenvalues --    1.26201   1.26645   1.27067   1.27973   1.28594
 Alpha virt. eigenvalues --    1.29136   1.29632   1.29927   1.30627   1.31411
 Alpha virt. eigenvalues --    1.32557   1.33433   1.33479   1.34195   1.34997
 Alpha virt. eigenvalues --    1.35470   1.35883   1.36250   1.36979   1.37952
 Alpha virt. eigenvalues --    1.38571   1.39160   1.39511   1.40883   1.41120
 Alpha virt. eigenvalues --    1.41790   1.42581   1.43602   1.43842   1.44339
 Alpha virt. eigenvalues --    1.44977   1.45590   1.46773   1.47407   1.48523
 Alpha virt. eigenvalues --    1.49250   1.49905   1.51072   1.52109   1.53506
 Alpha virt. eigenvalues --    1.54597   1.54840   1.55708   1.56154   1.56597
 Alpha virt. eigenvalues --    1.57594   1.58878   1.59486   1.60639   1.61221
 Alpha virt. eigenvalues --    1.62073   1.63155   1.64021   1.64410   1.65400
 Alpha virt. eigenvalues --    1.66048   1.66954   1.68036   1.68769   1.69809
 Alpha virt. eigenvalues --    1.70200   1.71026   1.72796   1.74154   1.75083
 Alpha virt. eigenvalues --    1.76116   1.76370   1.76532   1.78081   1.79411
 Alpha virt. eigenvalues --    1.79673   1.80140   1.81504   1.82404   1.83168
 Alpha virt. eigenvalues --    1.84235   1.86438   1.87026   1.88705   1.89268
 Alpha virt. eigenvalues --    1.90271   1.91520   1.92535   1.93153   1.94757
 Alpha virt. eigenvalues --    1.95959   1.96461   1.96880   1.97918   1.99638
 Alpha virt. eigenvalues --    2.00209   2.00769   2.02508   2.03187   2.04065
 Alpha virt. eigenvalues --    2.05993   2.06696   2.07566   2.09335   2.09407
 Alpha virt. eigenvalues --    2.10968   2.11972   2.13612   2.14502   2.16598
 Alpha virt. eigenvalues --    2.19965   2.21890   2.23404   2.25290   2.26729
 Alpha virt. eigenvalues --    2.27263   2.27828   2.28558   2.29474   2.31395
 Alpha virt. eigenvalues --    2.32059   2.35058   2.36442   2.37307   2.39151
 Alpha virt. eigenvalues --    2.39947   2.41120   2.42914   2.51336   2.52556
 Alpha virt. eigenvalues --    2.53686   2.54100   2.54527   2.57647   2.59601
 Alpha virt. eigenvalues --    2.60881   2.62488   2.63620   2.66719   2.68180
 Alpha virt. eigenvalues --    2.69299   2.69629   2.70376   2.71739   2.73157
 Alpha virt. eigenvalues --    2.73598   2.74824   2.75970   2.78625   2.79745
 Alpha virt. eigenvalues --    2.80954   2.82322   2.83375   2.84302   2.86194
 Alpha virt. eigenvalues --    2.87321   2.89680   2.90574   2.91382   2.92300
 Alpha virt. eigenvalues --    2.93216   2.94309   2.94671   2.95219   2.96123
 Alpha virt. eigenvalues --    2.97622   2.98286   2.99927   3.00171   3.00657
 Alpha virt. eigenvalues --    3.01787   3.02550   3.03035   3.03588   3.04611
 Alpha virt. eigenvalues --    3.05039   3.05980   3.07007   3.07664   3.08347
 Alpha virt. eigenvalues --    3.10128   3.11043   3.11991   3.14517   3.15023
 Alpha virt. eigenvalues --    3.15864   3.16604   3.20964   3.22275   3.23476
 Alpha virt. eigenvalues --    3.26057   3.28546   3.33675   3.75060   3.81219
 Alpha virt. eigenvalues --    3.94852   3.96455   4.07307   4.09125   4.11706
 Alpha virt. eigenvalues --    4.13553   4.14393   4.15352   4.15832   4.17093
 Alpha virt. eigenvalues --    4.17925   4.18000   4.19300   4.19702   4.22538
 Alpha virt. eigenvalues --    4.24589   4.24826   4.25305   4.25700   4.26231
 Alpha virt. eigenvalues --    4.28056   4.28769   4.29210   4.29947   4.30523
 Alpha virt. eigenvalues --    4.30878   4.31229   4.32085   4.32491   4.33341
 Alpha virt. eigenvalues --    4.33466   4.34302   4.35003   4.35247   4.35422
 Alpha virt. eigenvalues --    4.35913   4.36723   4.37863   4.38564   4.39908
 Alpha virt. eigenvalues --    4.40351   4.41598   4.42764   4.43496   4.43792
 Alpha virt. eigenvalues --    4.45182   4.45823   4.46164   4.48924   4.50187
 Alpha virt. eigenvalues --    4.51002   4.51752   4.53713   4.55178   4.55693
 Alpha virt. eigenvalues --    4.56340   4.58717   4.59180   4.59661   4.60552
 Alpha virt. eigenvalues --    4.61453   4.61648   4.62235   4.63427   4.63704
 Alpha virt. eigenvalues --    4.64211   4.65042   4.65630   4.66171   4.67781
 Alpha virt. eigenvalues --    4.68442   4.69017   4.69355   4.69667   4.71187
 Alpha virt. eigenvalues --    4.72218   4.72605   4.73966   4.74190   4.74964
 Alpha virt. eigenvalues --    4.75930   4.76704   4.76903   4.77627   4.78289
 Alpha virt. eigenvalues --    4.78600   4.78907   4.79928   4.80757   4.81030
 Alpha virt. eigenvalues --    4.81782   4.82913   4.84414   4.84865   4.87036
 Alpha virt. eigenvalues --    4.87860   4.88833   4.89063   4.90118   4.91357
 Alpha virt. eigenvalues --    4.93263   4.93775   4.95402   4.96408   4.97450
 Alpha virt. eigenvalues --    4.99296   5.00410   5.01035   5.02685   5.05296
 Alpha virt. eigenvalues --    5.08009   5.08842   5.09967   5.13013   5.17012
 Alpha virt. eigenvalues --    5.22475   5.24107   5.26861   5.30652   5.39942
 Alpha virt. eigenvalues --    5.43884   5.93157   6.08142   6.25412   6.56862
 Alpha virt. eigenvalues --    6.73147   6.74355   6.78118   6.82343   6.87450
 Alpha virt. eigenvalues --    6.89454   6.93308   6.96975   7.02095   7.08978
 Alpha virt. eigenvalues --    7.16176  11.84999  11.98727  12.05771  12.08498
 Alpha virt. eigenvalues --   12.26471  12.35968  12.66405  12.76534  12.85319
 Alpha virt. eigenvalues --   12.88089  13.12137  13.17231  13.22776  13.26048
 Alpha virt. eigenvalues --   13.33062  13.35916  13.43004  13.46558  13.50809
 Alpha virt. eigenvalues --   13.55941  13.72690  13.80679  13.93513
          Condensed to atoms (all electrons):
              1          2          3          4          5          6
     1  O    8.224265   0.284965  -0.095744   0.004609   0.013638   0.005541
     2  C    0.284965   6.554023   0.001239  -0.035287  -0.050601  -0.807181
     3  C   -0.095744   0.001239   6.578424   0.145552   0.015510   0.087538
     4  O    0.004609  -0.035287   0.145552   8.212493   0.237907  -0.016582
     5  H    0.013638  -0.050601   0.015510   0.237907   0.426748   0.011203
     6  C    0.005541  -0.807181   0.087538  -0.016582   0.011203   7.944324
     7  O    0.000378   0.015409  -0.075511   0.000270  -0.000374   0.167203
     8  H    0.000010  -0.003907   0.003242  -0.000456   0.000014   0.050949
     9  C   -0.014372  -0.254849  -0.456952   0.009665  -0.001713   0.496967
    10  O   -0.032112   0.005215   0.008873  -0.000008   0.000007  -0.006391
    11  H    0.001773  -0.010639  -0.001980   0.000000   0.000000   0.000650
    12  C   -0.122657  -0.544090  -0.587510   0.039478   0.006742   0.560415
    13  O    0.000175  -0.009551  -0.071254  -0.003575   0.000077  -0.035042
    14  C    0.014787   0.394690   0.342141  -0.018614   0.005957  -2.150209
    15  O   -0.000176  -0.004403  -0.012864   0.000617  -0.000027   0.056995
    16  C   -0.000085   0.073581  -0.042738  -0.001518   0.000328  -0.466167
    17  C   -0.000019  -0.017120   0.024217   0.000149   0.000006   0.048848
    18  O    0.000064   0.015215  -0.002710  -0.000012   0.000000  -0.011867
    19  H   -0.000094  -0.012153   0.006838   0.000011   0.000000  -0.000348
    20  C    0.000036   0.014810  -0.009518  -0.000016   0.000001   0.029612
    21  O    0.000000   0.000037  -0.000034   0.000000   0.000000   0.000028
    22  H    0.000000   0.000001   0.000000   0.000000   0.000000  -0.000027
    23  C    0.000025   0.015031  -0.004197   0.000013   0.000002  -0.191275
    24  O    0.000003  -0.001627  -0.014189  -0.000107  -0.000001  -0.002296
    25  H    0.000000   0.000140   0.002134   0.000006   0.000000   0.000920
    26  C   -0.000008  -0.031186  -0.023597   0.000125   0.000005   0.043185
    27  O    0.000000  -0.000062   0.000088   0.000000   0.000000   0.003971
    28  C   -0.000002  -0.000552  -0.000260  -0.000003   0.000000   0.011291
    29  O    0.000000   0.000004   0.000012   0.000000   0.000000  -0.000249
    30  H    0.259776   0.038180  -0.031485  -0.000158  -0.001137  -0.001341
    31  H    0.000000   0.000000   0.000000   0.000000   0.000000   0.000001
    32  H    0.000000  -0.000024  -0.000104   0.000000   0.000000   0.000625
    33  H    0.000000   0.000154   0.000009   0.000000   0.000000  -0.006437
    34  H    0.000000  -0.000207   0.000902   0.000000   0.000000   0.001240
    35  H   -0.000001  -0.002359   0.003906   0.000003   0.000000   0.003649
    36  H    0.000000  -0.000320   0.000805   0.000000   0.000000  -0.001514
    37  H    0.000000   0.000104  -0.000026   0.000000   0.000000  -0.000313
    38  H    0.000000   0.000001   0.000002   0.000000   0.000000  -0.000007
    39  H    0.003457  -0.006488  -0.007122   0.000024   0.000000   0.011207
    40  H   -0.000591  -0.014505   0.002025   0.000018   0.000000  -0.002115
    41  H    0.005896   0.028636  -0.037841   0.000658   0.000008  -0.035656
    42  H   -0.011040   0.321659  -0.012303   0.002944  -0.000038  -0.043737
    43  H    0.001939  -0.025158   0.281843  -0.021319  -0.005234  -0.152362
    44  H   -0.000059   0.029809  -0.139662   0.003231  -0.000161   0.373966
    45  H    0.000026   0.004282  -0.048885  -0.000100   0.000004   0.061605
              7          8          9         10         11         12
     1  O    0.000378   0.000010  -0.014372  -0.032112   0.001773  -0.122657
     2  C    0.015409  -0.003907  -0.254849   0.005215  -0.010639  -0.544090
     3  C   -0.075511   0.003242  -0.456952   0.008873  -0.001980  -0.587510
     4  O    0.000270  -0.000456   0.009665  -0.000008   0.000000   0.039478
     5  H   -0.000374   0.000014  -0.001713   0.000007   0.000000   0.006742
     6  C    0.167203   0.050949   0.496967  -0.006391   0.000650   0.560415
     7  O    8.241668   0.248708   0.002072   0.000008   0.000000   0.003379
     8  H    0.248708   0.356610   0.000391   0.000000   0.000000   0.003555
     9  C    0.002072   0.000391   7.970016   0.055218  -0.001381  -1.565776
    10  O    0.000008   0.000000   0.055218   8.244042   0.230405   0.090958
    11  H    0.000000   0.000000  -0.001381   0.230405   0.442397   0.015784
    12  C    0.003379   0.003555  -1.565776   0.090958   0.015784   9.077595
    13  O    0.001667  -0.000514  -0.028443  -0.001019  -0.000337   0.026447
    14  C    0.003616  -0.061217  -0.959072   0.007125  -0.002707  -1.074162
    15  O    0.005651   0.005078   0.008357   0.000088   0.000003   0.002509
    16  C   -0.003165  -0.001191  -0.114746  -0.000831   0.000062   0.077717
    17  C   -0.008460   0.002133  -0.011060   0.000092  -0.000132  -0.122267
    18  O    0.000093  -0.000010   0.002054  -0.000135  -0.000003  -0.027694
    19  H   -0.000120  -0.000004  -0.002585   0.000049  -0.000004   0.011488
    20  C    0.001397   0.000159   0.017862   0.000020   0.000000  -0.026670
    21  O    0.000002   0.000000   0.000283   0.000000   0.000000  -0.000446
    22  H    0.000000   0.000000  -0.000003   0.000000   0.000000   0.000024
    23  C    0.024576  -0.003164  -0.002274  -0.000004   0.000000  -0.015608
    24  O   -0.042750   0.019222  -0.000088   0.000000   0.000000   0.002771
    25  H    0.004018  -0.003053  -0.000015   0.000000   0.000000  -0.000468
    26  C   -0.003220  -0.004740   0.016257  -0.000031  -0.000002   0.051912
    27  O   -0.000133  -0.000036   0.000089   0.000000   0.000000   0.000315
    28  C   -0.000683   0.000141  -0.001199   0.000001   0.000001   0.006121
    29  O    0.000000   0.000000  -0.000023   0.000000   0.000000   0.000058
    30  H   -0.000016   0.000000   0.003304   0.000342  -0.000032  -0.009971
    31  H    0.000000   0.000000   0.000000   0.000000   0.000000  -0.000001
    32  H   -0.000404   0.000174  -0.000001   0.000000   0.000000   0.000086
    33  H    0.000510  -0.000044   0.000009   0.000000   0.000000  -0.000042
    34  H   -0.000118  -0.000006   0.000093   0.000000   0.000000   0.000203
    35  H   -0.000794  -0.000027   0.000178   0.000001   0.000000   0.002549
    36  H   -0.000008   0.000000  -0.001373   0.000000   0.000000   0.002076
    37  H    0.000000   0.000000  -0.000140   0.000000   0.000000   0.000880
    38  H    0.000000   0.000000   0.000005   0.000000   0.000000   0.000043
    39  H    0.000005   0.000000   0.654327  -0.063230  -0.001305  -0.291692
    40  H   -0.000013   0.000000   0.423965  -0.026797  -0.011939  -0.048201
    41  H   -0.000146   0.000005   0.062060  -0.001953  -0.000187   0.110513
    42  H    0.000309   0.000003  -0.064542  -0.001082  -0.000005  -0.033155
    43  H    0.006783  -0.000126   0.010555  -0.000134   0.000000   0.041338
    44  H   -0.024135  -0.005497   0.015628   0.000011   0.000000   0.058719
    45  H   -0.000702  -0.000238   0.026225   0.000042   0.000000   0.064880
             13         14         15         16         17         18
     1  O    0.000175   0.014787  -0.000176  -0.000085  -0.000019   0.000064
     2  C   -0.009551   0.394690  -0.004403   0.073581  -0.017120   0.015215
     3  C   -0.071254   0.342141  -0.012864  -0.042738   0.024217  -0.002710
     4  O   -0.003575  -0.018614   0.000617  -0.001518   0.000149  -0.000012
     5  H    0.000077   0.005957  -0.000027   0.000328   0.000006   0.000000
     6  C   -0.035042  -2.150209   0.056995  -0.466167   0.048848  -0.011867
     7  O    0.001667   0.003616   0.005651  -0.003165  -0.008460   0.000093
     8  H   -0.000514  -0.061217   0.005078  -0.001191   0.002133  -0.000010
     9  C   -0.028443  -0.959072   0.008357  -0.114746  -0.011060   0.002054
    10  O   -0.001019   0.007125   0.000088  -0.000831   0.000092  -0.000135
    11  H   -0.000337  -0.002707   0.000003   0.000062  -0.000132  -0.000003
    12  C    0.026447  -1.074162   0.002509   0.077717  -0.122267  -0.027694
    13  O    8.222307   0.218483  -0.040306   0.000650   0.003776  -0.021942
    14  C    0.218483   9.129794   0.159058  -0.357607   0.125249  -0.010051
    15  O   -0.040306   0.159058   8.034062   0.175659  -0.025184  -0.000384
    16  C    0.000650  -0.357607   0.175659  10.599486  -2.325762   0.006176
    17  C    0.003776   0.125249  -0.025184  -2.325762   7.979159   0.148935
    18  O   -0.021942  -0.010051  -0.000384   0.006176   0.148935   8.289274
    19  H    0.029927   0.003492   0.000324  -0.012402  -0.003037   0.224833
    20  C   -0.002907  -0.231005   0.023687  -1.111384   0.177624  -0.042988
    21  O    0.000052   0.003539  -0.000006   0.084450  -0.089105   0.011226
    22  H    0.000001  -0.000591  -0.000013  -0.009215  -0.015660  -0.000201
    23  C    0.005137   0.004891  -0.028148   0.141713  -0.456299   0.021434
    24  O    0.000373   0.115593  -0.032587   0.008474  -0.005189   0.000064
    25  H   -0.000005  -0.014611   0.003336  -0.007622  -0.000533  -0.000001
    26  C   -0.016807  -0.311962  -0.086778  -2.320845   0.746754   0.043603
    27  O    0.000058   0.013981  -0.000998   0.089216  -0.047172  -0.001553
    28  C    0.000758   0.066461   0.003134   1.096525  -0.469122  -0.014165
    29  O    0.000015  -0.000824  -0.000228  -0.031562  -0.037790   0.000609
    30  H   -0.000526  -0.000505   0.000003   0.000087  -0.000012  -0.000001
    31  H    0.000000   0.000030   0.000005   0.000503   0.014253  -0.000016
    32  H    0.000023   0.009426   0.000862   0.009882   0.007704   0.000007
    33  H   -0.000025  -0.008914   0.000222   0.039635  -0.014131   0.000049
    34  H   -0.000344   0.039304  -0.000301  -0.037610  -0.041808   0.001227
    35  H   -0.003595   0.003536  -0.024152   0.144220   0.020674  -0.003520
    36  H   -0.001492  -0.000614  -0.007634  -0.068930   0.331723  -0.026234
    37  H    0.000173  -0.006058  -0.000237   0.135325  -0.211959   0.009950
    38  H    0.000020   0.002331   0.000142   0.083496  -0.027834   0.000645
    39  H   -0.000199  -0.002168  -0.000285  -0.004331   0.001964   0.000273
    40  H    0.000083  -0.003178  -0.000167   0.001902   0.001269  -0.000980
    41  H   -0.023534   0.141601  -0.001859  -0.009265   0.007512   0.000353
    42  H    0.005076   0.107306  -0.000589  -0.001676   0.001206   0.000092
    43  H    0.005912   0.087033   0.000399   0.000392   0.000440   0.000037
    44  H    0.010858  -0.051919  -0.005965  -0.019294  -0.001285   0.000132
    45  H   -0.023898   0.217727  -0.036675  -0.028156   0.010073  -0.000288
             19         20         21         22         23         24
     1  O   -0.000094   0.000036   0.000000   0.000000   0.000025   0.000003
     2  C   -0.012153   0.014810   0.000037   0.000001   0.015031  -0.001627
     3  C    0.006838  -0.009518  -0.000034   0.000000  -0.004197  -0.014189
     4  O    0.000011  -0.000016   0.000000   0.000000   0.000013  -0.000107
     5  H    0.000000   0.000001   0.000000   0.000000   0.000002  -0.000001
     6  C   -0.000348   0.029612   0.000028  -0.000027  -0.191275  -0.002296
     7  O   -0.000120   0.001397   0.000002   0.000000   0.024576  -0.042750
     8  H   -0.000004   0.000159   0.000000   0.000000  -0.003164   0.019222
     9  C   -0.002585   0.017862   0.000283  -0.000003  -0.002274  -0.000088
    10  O    0.000049   0.000020   0.000000   0.000000  -0.000004   0.000000
    11  H   -0.000004   0.000000   0.000000   0.000000   0.000000   0.000000
    12  C    0.011488  -0.026670  -0.000446   0.000024  -0.015608   0.002771
    13  O    0.029927  -0.002907   0.000052   0.000001   0.005137   0.000373
    14  C    0.003492  -0.231005   0.003539  -0.000591   0.004891   0.115593
    15  O    0.000324   0.023687  -0.000006  -0.000013  -0.028148  -0.032587
    16  C   -0.012402  -1.111384   0.084450  -0.009215   0.141713   0.008474
    17  C   -0.003037   0.177624  -0.089105  -0.015660  -0.456299  -0.005189
    18  O    0.224833  -0.042988   0.011226  -0.000201   0.021434   0.000064
    19  H    0.369168  -0.016051  -0.000488   0.000012  -0.003895  -0.000037
    20  C   -0.016051   6.891069   0.087023   0.016074   0.042419  -0.006115
    21  O   -0.000488   0.087023   8.236093   0.224267   0.002321   0.000020
    22  H    0.000012   0.016074   0.224267   0.441538   0.000058   0.000000
    23  C   -0.003895   0.042419   0.002321   0.000058   7.589909  -0.050920
    24  O   -0.000037  -0.006115   0.000020   0.000000  -0.050920   8.322621
    25  H    0.000000   0.000987   0.000000   0.000000  -0.009164   0.239766
    26  C    0.003690   0.575636  -0.036865   0.008063  -1.563685   0.089712
    27  O    0.000008  -0.111105   0.002388  -0.000561  -0.104253   0.002245
    28  C    0.003515  -0.557456   0.044059  -0.001970  -0.241918   0.005643
    29  O    0.000006   0.033225  -0.003074   0.011364   0.015904   0.000035
    30  H    0.000000   0.000001   0.000000   0.000000   0.000001   0.000000
    31  H    0.000000  -0.036627  -0.001042  -0.001524  -0.001283  -0.000002
    32  H    0.000000  -0.003476  -0.000004   0.000000   0.340536  -0.020274
    33  H   -0.000001   0.002714   0.000003   0.000000   0.708859  -0.065154
    34  H    0.000011  -0.025778  -0.000041   0.000007   0.092014   0.000066
    35  H   -0.000297   0.039588  -0.000326   0.000003  -0.021528   0.000131
    36  H    0.001039  -0.057703   0.001633  -0.000281   0.025323  -0.000098
    37  H   -0.000162   0.312719  -0.020322  -0.002841   0.010866   0.000009
    38  H    0.000000  -0.138814   0.003369   0.000021  -0.000755   0.000027
    39  H   -0.000169   0.000402   0.000001   0.000000   0.000001   0.000000
    40  H    0.001029  -0.000751  -0.000002   0.000000  -0.000011   0.000000
    41  H   -0.000481   0.000726   0.000000   0.000000   0.000161   0.000002
    42  H   -0.000035   0.000006   0.000000   0.000000   0.000075   0.000006
    43  H   -0.000001   0.000013   0.000000   0.000000   0.000271   0.000053
    44  H   -0.000036   0.000501   0.000001   0.000000   0.000501   0.000359
    45  H   -0.001656   0.010207   0.000007   0.000000  -0.003808   0.000084
             25         26         27         28         29         30
     1  O    0.000000  -0.000008   0.000000  -0.000002   0.000000   0.259776
     2  C    0.000140  -0.031186  -0.000062  -0.000552   0.000004   0.038180
     3  C    0.002134  -0.023597   0.000088  -0.000260   0.000012  -0.031485
     4  O    0.000006   0.000125   0.000000  -0.000003   0.000000  -0.000158
     5  H    0.000000   0.000005   0.000000   0.000000   0.000000  -0.001137
     6  C    0.000920   0.043185   0.003971   0.011291  -0.000249  -0.001341
     7  O    0.004018  -0.003220  -0.000133  -0.000683   0.000000  -0.000016
     8  H   -0.003053  -0.004740  -0.000036   0.000141   0.000000   0.000000
     9  C   -0.000015   0.016257   0.000089  -0.001199  -0.000023   0.003304
    10  O    0.000000  -0.000031   0.000000   0.000001   0.000000   0.000342
    11  H    0.000000  -0.000002   0.000000   0.000001   0.000000  -0.000032
    12  C   -0.000468   0.051912   0.000315   0.006121   0.000058  -0.009971
    13  O   -0.000005  -0.016807   0.000058   0.000758   0.000015  -0.000526
    14  C   -0.014611  -0.311962   0.013981   0.066461  -0.000824  -0.000505
    15  O    0.003336  -0.086778  -0.000998   0.003134  -0.000228   0.000003
    16  C   -0.007622  -2.320845   0.089216   1.096525  -0.031562   0.000087
    17  C   -0.000533   0.746754  -0.047172  -0.469122  -0.037790  -0.000012
    18  O   -0.000001   0.043603  -0.001553  -0.014165   0.000609  -0.000001
    19  H    0.000000   0.003690   0.000008   0.003515   0.000006   0.000000
    20  C    0.000987   0.575636  -0.111105  -0.557456   0.033225   0.000001
    21  O    0.000000  -0.036865   0.002388   0.044059  -0.003074   0.000000
    22  H    0.000000   0.008063  -0.000561  -0.001970   0.011364   0.000000
    23  C   -0.009164  -1.563685  -0.104253  -0.241918   0.015904   0.000001
    24  O    0.239766   0.089712   0.002245   0.005643   0.000035   0.000000
    25  H    0.412242   0.018668  -0.000556  -0.001490  -0.000002   0.000000
    26  C    0.018668   9.780913   0.121717  -1.000473   0.011780  -0.000005
    27  O   -0.000556   0.121717   8.225276   0.225098  -0.097233   0.000000
    28  C   -0.001490  -1.000473   0.225098   5.932681   0.220830   0.000000
    29  O   -0.000002   0.011780  -0.097233   0.220830   8.159283   0.000000
    30  H    0.000000  -0.000005   0.000000   0.000000   0.000000   0.420973
    31  H    0.000000  -0.007998   0.005279   0.023082   0.256119   0.000000
    32  H   -0.011785  -0.013480  -0.000820   0.008610  -0.000160   0.000000
    33  H    0.000361  -0.352775   0.000358  -0.002544  -0.000173   0.000000
    34  H   -0.000241   0.191483  -0.040141   0.055626  -0.001834   0.000000
    35  H   -0.000005   0.090356   0.002363   0.002849  -0.000636   0.000000
    36  H    0.000000   0.083390   0.000724  -0.029941   0.000499   0.000000
    37  H    0.000000  -0.005959   0.000893   0.043759  -0.001334   0.000000
    38  H    0.000000  -0.030619  -0.038345   0.448365  -0.019967   0.000000
    39  H    0.000000   0.000052   0.000000  -0.000025   0.000000  -0.000279
    40  H    0.000000   0.000443   0.000000   0.000026   0.000000   0.000026
    41  H    0.000000  -0.000537   0.000000  -0.000047   0.000000  -0.000278
    42  H    0.000000  -0.000090   0.000000  -0.000003   0.000000  -0.013077
    43  H    0.000000   0.000683   0.000000  -0.000003   0.000000  -0.000125
    44  H    0.000003   0.003812  -0.000004  -0.000017   0.000000   0.000013
    45  H    0.000008   0.014821   0.000089  -0.001146  -0.000004   0.000001
             31         32         33         34         35         36
     1  O    0.000000   0.000000   0.000000   0.000000  -0.000001   0.000000
     2  C    0.000000  -0.000024   0.000154  -0.000207  -0.002359  -0.000320
     3  C    0.000000  -0.000104   0.000009   0.000902   0.003906   0.000805
     4  O    0.000000   0.000000   0.000000   0.000000   0.000003   0.000000
     5  H    0.000000   0.000000   0.000000   0.000000   0.000000   0.000000
     6  C    0.000001   0.000625  -0.006437   0.001240   0.003649  -0.001514
     7  O    0.000000  -0.000404   0.000510  -0.000118  -0.000794  -0.000008
     8  H    0.000000   0.000174  -0.000044  -0.000006  -0.000027   0.000000
     9  C    0.000000  -0.000001   0.000009   0.000093   0.000178  -0.001373
    10  O    0.000000   0.000000   0.000000   0.000000   0.000001   0.000000
    11  H    0.000000   0.000000   0.000000   0.000000   0.000000   0.000000
    12  C   -0.000001   0.000086  -0.000042   0.000203   0.002549   0.002076
    13  O    0.000000   0.000023  -0.000025  -0.000344  -0.003595  -0.001492
    14  C    0.000030   0.009426  -0.008914   0.039304   0.003536  -0.000614
    15  O    0.000005   0.000862   0.000222  -0.000301  -0.024152  -0.007634
    16  C    0.000503   0.009882   0.039635  -0.037610   0.144220  -0.068930
    17  C    0.014253   0.007704  -0.014131  -0.041808   0.020674   0.331723
    18  O   -0.000016   0.000007   0.000049   0.001227  -0.003520  -0.026234
    19  H    0.000000   0.000000  -0.000001   0.000011  -0.000297   0.001039
    20  C   -0.036627  -0.003476   0.002714  -0.025778   0.039588  -0.057703
    21  O   -0.001042  -0.000004   0.000003  -0.000041  -0.000326   0.001633
    22  H   -0.001524   0.000000   0.000000   0.000007   0.000003  -0.000281
    23  C   -0.001283   0.340536   0.708859   0.092014  -0.021528   0.025323
    24  O   -0.000002  -0.020274  -0.065154   0.000066   0.000131  -0.000098
    25  H    0.000000  -0.011785   0.000361  -0.000241  -0.000005   0.000000
    26  C   -0.007998  -0.013480  -0.352775   0.191483   0.090356   0.083390
    27  O    0.005279  -0.000820   0.000358  -0.040141   0.002363   0.000724
    28  C    0.023082   0.008610  -0.002544   0.055626   0.002849  -0.029941
    29  O    0.256119  -0.000160  -0.000173  -0.001834  -0.000636   0.000499
    30  H    0.000000   0.000000   0.000000   0.000000   0.000000   0.000000
    31  H    0.432396   0.000000   0.000000   0.000037   0.000003   0.000011
    32  H    0.000000   0.579141  -0.042953  -0.006838  -0.000070   0.000007
    33  H    0.000000  -0.042953   0.580689   0.007104   0.002058  -0.000011
    34  H    0.000037  -0.006838   0.007104   0.643366   0.006791   0.001747
    35  H    0.000003  -0.000070   0.002058   0.006791   0.604625   0.005087
    36  H    0.000011   0.000007  -0.000011   0.001747   0.005087   0.605707
    37  H    0.000063   0.000001  -0.000012  -0.000073   0.000851   0.005755
    38  H   -0.008522  -0.000024  -0.000007   0.003274  -0.000042   0.001672
    39  H    0.000000   0.000000   0.000000   0.000000   0.000000   0.000000
    40  H    0.000000   0.000000   0.000000   0.000000  -0.000001   0.000000
    41  H    0.000000   0.000000   0.000000   0.000000  -0.000010  -0.000001
    42  H    0.000000   0.000000   0.000000   0.000000   0.000000   0.000000
    43  H    0.000000   0.000000   0.000000   0.000000  -0.000001   0.000000
    44  H    0.000000   0.000000   0.000000  -0.000001   0.000009  -0.000003
    45  H    0.000000  -0.000001   0.000036  -0.000003   0.006661  -0.000008
             37         38         39         40         41         42
     1  O    0.000000   0.000000   0.003457  -0.000591   0.005896  -0.011040
     2  C    0.000104   0.000001  -0.006488  -0.014505   0.028636   0.321659
     3  C   -0.000026   0.000002  -0.007122   0.002025  -0.037841  -0.012303
     4  O    0.000000   0.000000   0.000024   0.000018   0.000658   0.002944
     5  H    0.000000   0.000000   0.000000   0.000000   0.000008  -0.000038
     6  C   -0.000313  -0.000007   0.011207  -0.002115  -0.035656  -0.043737
     7  O    0.000000   0.000000   0.000005  -0.000013  -0.000146   0.000309
     8  H    0.000000   0.000000   0.000000   0.000000   0.000005   0.000003
     9  C   -0.000140   0.000005   0.654327   0.423965   0.062060  -0.064542
    10  O    0.000000   0.000000  -0.063230  -0.026797  -0.001953  -0.001082
    11  H    0.000000   0.000000  -0.001305  -0.011939  -0.000187  -0.000005
    12  C    0.000880   0.000043  -0.291692  -0.048201   0.110513  -0.033155
    13  O    0.000173   0.000020  -0.000199   0.000083  -0.023534   0.005076
    14  C   -0.006058   0.002331  -0.002168  -0.003178   0.141601   0.107306
    15  O   -0.000237   0.000142  -0.000285  -0.000167  -0.001859  -0.000589
    16  C    0.135325   0.083496  -0.004331   0.001902  -0.009265  -0.001676
    17  C   -0.211959  -0.027834   0.001964   0.001269   0.007512   0.001206
    18  O    0.009950   0.000645   0.000273  -0.000980   0.000353   0.000092
    19  H   -0.000162   0.000000  -0.000169   0.001029  -0.000481  -0.000035
    20  C    0.312719  -0.138814   0.000402  -0.000751   0.000726   0.000006
    21  O   -0.020322   0.003369   0.000001  -0.000002   0.000000   0.000000
    22  H   -0.002841   0.000021   0.000000   0.000000   0.000000   0.000000
    23  C    0.010866  -0.000755   0.000001  -0.000011   0.000161   0.000075
    24  O    0.000009   0.000027   0.000000   0.000000   0.000002   0.000006
    25  H    0.000000   0.000000   0.000000   0.000000   0.000000   0.000000
    26  C   -0.005959  -0.030619   0.000052   0.000443  -0.000537  -0.000090
    27  O    0.000893  -0.038345   0.000000   0.000000   0.000000   0.000000
    28  C    0.043759   0.448365  -0.000025   0.000026  -0.000047  -0.000003
    29  O   -0.001334  -0.019967   0.000000   0.000000   0.000000   0.000000
    30  H    0.000000   0.000000  -0.000279   0.000026  -0.000278  -0.013077
    31  H    0.000063  -0.008522   0.000000   0.000000   0.000000   0.000000
    32  H    0.000001  -0.000024   0.000000   0.000000   0.000000   0.000000
    33  H   -0.000012  -0.000007   0.000000   0.000000   0.000000   0.000000
    34  H   -0.000073   0.003274   0.000000   0.000000   0.000000   0.000000
    35  H    0.000851  -0.000042   0.000000  -0.000001  -0.000010   0.000000
    36  H    0.005755   0.001672   0.000000   0.000000  -0.000001   0.000000
    37  H    0.585420   0.004313   0.000000   0.000000   0.000000   0.000000
    38  H    0.004313   0.573010   0.000000   0.000000   0.000000   0.000000
    39  H    0.000000   0.000000   0.602180  -0.044174   0.007155   0.002803
    40  H    0.000000   0.000000  -0.044174   0.582778  -0.005818   0.000021
    41  H    0.000000   0.000000   0.007155  -0.005818   0.629096   0.006051
    42  H    0.000000   0.000000   0.002803   0.000021   0.006051   0.604135
    43  H    0.000000   0.000000  -0.000004   0.000006   0.003114   0.006269
    44  H    0.000000   0.000000  -0.000009   0.000000  -0.000101   0.001682
    45  H   -0.000003   0.000000  -0.000010  -0.000015   0.002716  -0.000060
             43         44         45
     1  O    0.001939  -0.000059   0.000026
     2  C   -0.025158   0.029809   0.004282
     3  C    0.281843  -0.139662  -0.048885
     4  O   -0.021319   0.003231  -0.000100
     5  H   -0.005234  -0.000161   0.000004
     6  C   -0.152362   0.373966   0.061605
     7  O    0.006783  -0.024135  -0.000702
     8  H   -0.000126  -0.005497  -0.000238
     9  C    0.010555   0.015628   0.026225
    10  O   -0.000134   0.000011   0.000042
    11  H    0.000000   0.000000   0.000000
    12  C    0.041338   0.058719   0.064880
    13  O    0.005912   0.010858  -0.023898
    14  C    0.087033  -0.051919   0.217727
    15  O    0.000399  -0.005965  -0.036675
    16  C    0.000392  -0.019294  -0.028156
    17  C    0.000440  -0.001285   0.010073
    18  O    0.000037   0.000132  -0.000288
    19  H   -0.000001  -0.000036  -0.001656
    20  C    0.000013   0.000501   0.010207
    21  O    0.000000   0.000001   0.000007
    22  H    0.000000   0.000000   0.000000
    23  C    0.000271   0.000501  -0.003808
    24  O    0.000053   0.000359   0.000084
    25  H    0.000000   0.000003   0.000008
    26  C    0.000683   0.003812   0.014821
[...]
 0155,-0.00000035,0.00001103,-0.00000634,0.00000043,-0.00000255,0.,-0.0
 0000067,-0.00000532,0.00000979,-0.00000617,0.00001895,-0.00000928,0.00
 003278,-0.00001113,0.00000042,-0.00000339,-0.00001201,-0.00000237,0.00
 000086,0.00001213,-0.00001011,0.00000398,-0.00001266,0.00001531,0.0000
 0086,0.00000661,-0.00000384,-0.00000575,0.00123737,-0.00021887,-0.0005
 8806,-0.00000145,0.00000048,0.00000123,-0.00000059,-0.00000219,0.00000
 358,0.00000424,-0.00000133,-0.00000146,0.00000699,0.00000025,0.0000045
 6,0.00000870,0.00000087,-0.00000387,0.00000338,0.00000001,0.00000870,0
 .00000287,0.00000107,-0.00000242,0.00000263,-0.00000021,0.00000118,0.0
 0058680,-0.00095797,0.00002185,0.00035328,-0.00000461,-0.00001679,-0.0
 0005407,-0.00121404,0.00155155,0.37828192,-0.01193308,0.00052551,-0.00
 508023,0.03914071,-0.04910317,-0.00053640,0.03553584,-0.00528125,-0.00
 387618,-0.00238226,0.00362845,-0.00008923,0.00024117,-0.00017970,0.000
 12546,0.00103396,0.00117886,0.00141139,-0.00051543,-0.00026664,-0.0002
 2180,-0.00009326,-0.00003437,0.00003601,-0.00120459,0.00172439,-0.0008
 4248,0.00026208,-0.00006083,0.00016262,-0.00003422,-0.00005160,0.00001
 035,-0.02254730,0.00235041,0.00335917,0.00114496,0.00034709,-0.0020859
 4,0.00027099,-0.00052060,-0.00012005,0.00001454,0.00009403,-0.00006593
 ,-0.00004113,0.00001268,0.00000136,0.00001860,0.00000893,-0.00000441,0
 .00000880,0.00000390,-0.00004588,-0.00002413,-0.00001674,0.00002781,-0
 .00000740,-0.00000149,0.00000251,-0.00000003,0.00000395,-0.00000522,0.
 00000007,-0.00000038,0.00000023,-0.00000510,-0.00001660,0.00001142,-0.
 00001480,0.00001096,-0.00006316,0.00001199,0.00000297,0.00000268,0.000
 00761,-0.00000530,0.00000592,-0.00000610,0.00000650,-0.00000857,0.0000
 0516,-0.00000463,0.00000975,0.00000239,0.00000052,-0.00000901,-0.00078
 409,0.00155393,0.00050917,0.00000032,0.00000053,0.00000134,0.00000150,
 0.00000208,-0.00000823,-0.00000014,0.00000098,0.00000176,-0.00000255,0
 .00000156,-0.00000144,0.00000044,-0.00000666,0.00000278,-0.00000128,0.
 00000097,-0.00000057,0.00000005,-0.00000042,-0.00000024,-0.00000065,0.
 00000076,-0.00000080,0.00071270,-0.00022385,-0.00004337,0.00040236,0.0
 0017098,-0.00007525,-0.00145175,-0.00191788,0.00293765,-0.03856942,0.0
 5197252,-0.03899415,-0.00215005,-0.01473063,0.02286969,-0.00202920,-0.
 04393512,0.00788385,0.00044441,0.00091434,-0.00096127,-0.00029476,0.00
 062447,-0.00023653,-0.00024865,-0.00010165,0.00062948,0.00029326,0.000
 41987,-0.00020910,0.00001718,-0.00001098,-0.00000492,0.00003240,0.0000
 1415,-0.00016748,-0.00146233,0.00067695,-0.00010671,0.00007303,0.00007
 301,0.00000858,-0.00003720,0.00009472,0.02522097,-0.00279026,-0.002125
 48,-0.00061739,-0.00016604,0.00257548,0.00038825,-0.00025577,-0.000176
 07,-0.00008463,0.00002090,-0.00015779,0.00000522,-0.00003355,0.0000223
 8,0.00001584,-0.00001092,0.00000010,-0.00005159,-0.00000712,0.00003263
 ,0.00007255,0.00002354,-0.00003375,0.00000511,-0.00000628,0.00000837,-
 0.00001118,0.00001226,-0.00000872,0.00000196,-0.00000056,0.00000098,0.
 00000616,0.00000026,0.00000282,-0.00001214,-0.00000294,-0.00001355,0.0
 0000608,0.00000132,0.00000162,0.00001190,0.00001101,0.00000976,-0.0000
 1067,0.00000798,-0.00001771,0.00000973,-0.00001292,0.00001440,0.000000
 28,0.00000267,-0.00000901,-0.00268694,0.00095472,0.00313939,0.00000044
 ,0.00000007,0.00000109,-0.00000141,-0.00000193,-0.00000253,-0.00000295
 ,0.00000199,0.00000255,-0.00000644,-0.00000184,-0.00000556,-0.00001193
 ,0.00000021,0.00000871,-0.00000677,-0.00000341,-0.00001331,-0.00000337
 ,-0.00000043,0.00000344,-0.00000211,-0.00000008,-0.00000225,-0.0006408
 5,0.00043570,0.00011574,-0.00021828,-0.00017577,0.00003458,0.00150481,
 0.00245312,-0.00370275,-0.01343466,0.00645654,0.05622301,0.00182434,-0
 .00048869,0.00011261,-0.01309188,0.00291898,-0.00197204,-0.34678563,0.
 02567393,-0.01903240,-0.01251774,-0.00971739,0.01161537,0.00030690,-0.
 00066967,-0.00012357,-0.01283265,0.00203766,-0.00351194,0.00175239,-0.
 00002215,0.00077374,0.00030838,0.00003621,0.00009880,0.00076152,0.0001
 4613,-0.00013941,-0.00001396,-0.00004751,-0.00003070,0.00000424,0.0000
 1463,0.00000553,-0.00072744,-0.00110973,0.00063177,0.00027755,0.000488
 78,-0.00014230,-0.00094775,-0.00082866,0.00051159,0.00045932,0.0000321
 5,-0.00021761,-0.00007772,0.00005588,-0.00005355,0.00000324,-0.0000111
 7,-0.00005215,0.00004077,0.00000962,0.00002714,-0.00003500,-0.00000684
 ,0.00000844,-0.00001690,0.00000791,0.00000144,0.00001372,0.00000009,0.
 00000173,-0.00000486,0.00000052,-0.00000220,-0.00003219,-0.00000215,0.
 00002058,0.00004136,0.00000970,0.00003432,-0.00002382,-0.00000422,0.00
 000557,-0.00000652,0.00000881,-0.00000512,0.00001295,-0.00000208,-0.00
 000515,-0.00000924,-0.00000105,-0.00000310,0.00000433,0.00000208,0.000
 00136,0.00028222,-0.00048289,-0.00014057,-0.00000122,-0.00000076,-0.00
 000037,0.00000338,-0.00000080,0.00000326,0.00001285,0.00000003,-0.0000
 0967,0.00001058,-0.00000205,0.00000869,0.00001451,0.00000841,-0.000026
 57,0.00000768,0.00000122,0.00001008,0.00000385,0.00000042,-0.00000270,
 0.00000276,0.00000044,0.00000179,0.00004233,-0.00038540,0.00002432,-0.
 00000802,0.00012953,-0.00000015,0.00128322,0.00004759,-0.00049699,0.00
 047432,0.00147915,0.00019523,0.37826852,-0.00173075,0.00275170,0.00146
 907,0.03551207,-0.00898404,0.00184388,0.02654846,-0.04078577,-0.002217
 55,-0.03161863,-0.00772429,0.01240192,0.00000500,0.00056047,-0.0010225
 7,-0.01077311,0.00169593,-0.00311366,-0.00010576,0.00096332,0.00126573
 ,0.00005452,0.00000081,-0.00000751,0.00003766,-0.00010647,0.00006493,-
 0.00008054,-0.00000075,-0.00007083,0.00000597,0.00002169,-0.00000714,0
 .00262352,0.00146950,-0.00119925,-0.00045210,-0.00026655,0.00035607,0.
 00022989,-0.00016167,0.00040985,0.00005139,-0.00003647,-0.00017694,0.0
 0000699,0.00001949,0.00000389,0.00000105,-0.00001954,-0.00002971,-0.00
 000841,-0.00000497,0.00005538,0.00001376,0.00001809,-0.00006037,-0.000
 00109,0.00000715,0.00000302,0.00000099,-0.00000191,-0.00000145,-0.0000
 0094,0.00000193,-0.00000059,0.00000968,0.00003496,-0.00002398,0.000036
 62,-0.00003121,0.00012198,-0.00002115,-0.00000264,-0.00001253,-0.00000
 715,0.00003034,0.00000122,0.00000515,-0.00001893,-0.00000130,-0.000003
 09,0.00000635,-0.00000506,-0.00000190,-0.00000212,0.00000589,-0.000038
 52,0.00035720,0.00032984,-0.00000006,0.00000012,-0.00000088,-0.0000027
 9,-0.00000646,0.00001241,0.00000003,-0.00000045,-0.00000232,0.00000229
 ,-0.00000406,0.00000160,0.00000293,0.00000528,-0.00000748,-0.00000002,
 0.00000059,0.00000052,0.00000015,-0.00000009,0.00000024,0.00000034,-0.
 00000057,0.00000025,-0.00029619,0.00011761,0.00003457,-0.00010076,-0.0
 0003763,-0.00001471,-0.00083727,-0.00038800,0.00047105,0.00119902,-0.0
 0574013,-0.00162285,-0.01963196,0.05632761,0.00027524,0.00118656,0.001
 14952,0.00900843,-0.00401886,0.00180002,-0.02065905,-0.00364399,-0.042
 30925,0.03209772,0.01312452,-0.00976370,0.00137718,-0.00010863,0.00104
 754,-0.03614002,0.00095437,-0.00550857,0.00189679,0.00150609,0.0026978
 4,0.00002377,0.00032131,0.00005906,-0.00005623,-0.00008360,0.00004265,
 0.00000045,0.00001813,-0.00000581,-0.00000240,0.00001112,-0.00000879,-
 0.00080542,0.00081757,-0.00024459,0.00027003,0.00055869,-0.00052365,-0
 .00139424,-0.00050310,0.00151873,0.00042055,0.00000458,-0.00018332,0.0
 0003727,0.00001687,0.00004832,0.00000291,-0.00000397,-0.00002043,0.000
 01775,0.00002036,-0.00002927,-0.00002388,-0.00003276,0.00004705,-0.000
 00864,-0.00000637,0.00001161,0.00000093,0.00001336,-0.00001288,-0.0000
 0168,-0.00000054,-0.00000013,-0.00001148,0.00001949,0.00001532,0.00005
 413,-0.00003468,0.00010167,-0.00001417,0.00000543,-0.00001576,-0.00000
 878,0.00002693,0.00002102,0.00000598,-0.00000183,-0.00003050,-0.000000
 95,-0.00000829,0.00001959,0.00000814,0.00000198,-0.00001670,0.00003284
 ,0.00021082,-0.00000025,-0.00000090,0.00000031,0.00000246,-0.00000119,
 -0.00000749,0.00000633,0.00000987,0.00000070,-0.00000708,0.00000879,-0
 .00000339,0.00000908,0.00002618,0.00001604,-0.00004966,0.00000306,-0.0
 0000246,0.00000731,0.00000025,0.00000116,-0.00000184,0.00000052,0.0000
 0071,-0.00000027,-0.00001836,0.00005939,-0.00003582,-0.00004257,-0.000
 04200,-0.00000572,-0.00012778,0.00036761,0.00016517,0.00059269,-0.0014
 6970,-0.00010224,0.01394590,-0.00750432,0.05611155,0.00039156,-0.00012
 641,-0.00006460,-0.00053426,0.00089057,-0.00007543,-0.01133693,-0.0030
 5263,-0.00150226,0.00139766,0.00050391,0.00028982,0.00024951,0.0000494
 0,0.00014224,-0.35060287,-0.03770649,-0.01381100,-0.01243982,0.0122667
 8,0.00503779,0.00024551,0.00034623,-0.00111365,-0.00000659,-0.00002262
 ,-0.00000497,0.00003882,0.00002845,0.00001858,-0.00001042,-0.00000458,
 0.00000513,-0.00001659,-0.00000055,0.00001985,0.00178537,-0.00068380,-
 0.00043085,-0.01211733,-0.00083105,0.00001798,0.00115446,0.00032729,-0
 .00097498,0.00020678,0.00006899,0.00019454,0.00000762,0.00003733,0.000
 00207,0.00005261,-0.00000076,-0.00006500,-0.00004260,-0.00004667,0.000
 03790,-0.00001754,0.00001110,0.00002331,0.00001092,-0.00000088,-0.0000
 2140,-0.00000443,0.00000260,-0.00000031,0.00001234,0.00014249,-0.00007
 882,0.00016934,-0.00017249,0.00048887,-0.00005986,-0.00001184,-0.00008
 356,-0.00003113,0.00009384,0.00002801,0.00003085,-0.00007066,-0.000030
 64,-0.00002344,0.00003494,0.00001306,0.00001186,-0.00001048,-0.0000146
 8,-0.00003893,-0.00009400,-0.00006565,-0.00000210,0.00000154,0.0000031
 9,-0.00000433,-0.00002971,0.00004412,0.00001254,-0.00000836,-0.0000241
 4,0.00002123,-0.00000824,0.00001909,0.00005589,0.00007431,-0.00025048,
 0.00000503,-0.00001314,0.00002051,0.00000368,0.00000293,-0.00000366,0.
 00000442,-0.00000155,0.00000175,0.00002803,-0.00003767,-0.00000575,0.0
 0000182,-0.00000431,-0.00001119,0.00013172,0.00012341,0.00000887,0.000
 48719,-0.00059434,-0.00015943,0.00044514,-0.00071762,-0.00130124,0.380
 14960,0.00021751,-0.00002476,-0.00001272,-0.00072044,0.00048128,0.0004
 2245,-0.01085156,0.00055423,-0.00104624,0.00116856,0.00035629,0.000092
 10,-0.00002607,-0.00013013,0.00009561,-0.03876373,-0.04268995,0.000462
 02,0.04169876,-0.01312112,-0.00541673,0.00063110,0.00154716,0.00159189
 ,-0.00003106,0.00007318,0.00005616,0.00000861,-0.00002093,0.00000315,-
 0.00000109,0.00000638,0.00000024,-0.00020089,-0.00013695,-0.00017800,0
 .00093111,0.00145415,-0.00017745,-0.02512817,-0.00248918,0.00006378,0.
 00126482,0.00084624,-0.00141145,-0.00005032,0.00014172,-0.00005081,0.0
 0006804,0.00001196,-0.00008680,0.00007357,-0.00000127,0.00002263,-0.00
 008505,0.00006505,0.00000188,-0.00001508,0.00002026,0.00000361,0.00000
 732,0.00000775,-0.00000294,-0.00000229,-0.00000102,-0.00000088,-0.0000
 8372,-0.00012697,0.00011032,-0.00025173,0.00004866,-0.00044963,0.00011
 539,0.00001056,0.00001155,0.00007517,-0.00006644,0.00000048,-0.0000210
 8,0.00005253,-0.00001170,0.00001269,-0.00003705,0.00000739,0.00000177,
 0.00001116,-0.00000427,0.00001348,0.00000437,-0.00002153,0.00000010,-0
 .00000013,0.00000049,0.00001475,0.00002478,-0.00004439,0.00000471,-0.0
 0000624,0.00002191,-0.00000238,0.00002306,0.00002021,0.00015390,0.0000
 2512,-0.00010609,0.00001571,-0.00001693,0.00003077,0.00000377,0.000001
 44,-0.00000527,-0.00000142,0.00000370,0.00000055,0.00002860,-0.0000476
 7,-0.00001184,0.00000255,-0.00002585,0.00000320,0.00019482,0.00008756,
 0.00001636,0.00017433,-0.00004925,0.00001325,-0.00008834,-0.00021856,-
 0.00206022,0.02988910,0.05591710,0.00060961,-0.00008506,-0.00036039,-0
 .00080760,0.00150064,0.00095083,-0.03484931,-0.00560937,-0.00379650,0.
 00168422,0.00014752,0.00314040,0.00019813,-0.00014352,0.00051955,-0.01
 587370,0.00144507,-0.04511645,0.00991053,-0.00608739,0.00144447,0.0010
 6717,-0.00009572,0.00064011,-0.00006201,0.00001022,0.00005829,0.000008
 64,-0.00000918,0.00000614,0.00000343,-0.00000170,0.00000428,-0.0002970
 3,-0.00024851,-0.00049010,-0.00132939,-0.00088190,0.00017780,0.0275660
 2,0.00587889,-0.00075444,-0.00067786,-0.00115686,0.00235954,0.00031208
 ,-0.00008651,-0.00022402,-0.00008045,0.00000293,0.00014450,-0.00007967
 ,-0.00003073,-0.00005628,0.00007472,-0.00004300,0.00009306,0.00001685,
 -0.00003186,-0.00002890,-0.00000625,-0.00002295,0.00002418,0.00000430,
 -0.00000133,0.00000149,0.00008979,0.00005616,-0.00008494,-0.00020282,-
 0.00002501,0.00000717,0.00003980,-0.00001419,0.00002883,-0.00003292,-0
 .00001554,-0.00002364,-0.00001194,-0.00002772,0.00007825,-0.00000124,0
 .00004815,-0.00003343,-0.00001308,-0.00001229,0.00002144,0.00003330,-0
 .00018916,-0.00006298,0.00000155,-0.00000098,-0.00000360,-0.00001377,-
 0.00000369,0.00001280,-0.00004348,-0.00000694,0.00003791,-0.00003460,-
 0.00000858,-0.00005940,-0.00028876,-0.00005954,0.00007691,-0.00003292,
 0.00003548,-0.00003281,-0.00000474,-0.00000513,0.00000890,-0.00000036,
 -0.00000356,-0.00000154,0.00000911,-0.00001796,-0.00000159,0.00000287,
 -0.00003962,0.00000979,0.00010036,0.00003308,-0.00012186,0.00046288,-0
 .00038775,0.00007310,-0.00152753,-0.00172136,-0.00562426,0.01297619,0.
 00532960,0.04976659,0.00006906,-0.00001615,0.00022921,0.00011414,0.000
 24583,-0.00011867,-0.00051879,-0.00038046,-0.00037921,0.00034775,0.000
 00817,0.00006558,-0.00003238,-0.00001849,0.00007998,-0.00909969,0.0024
 3348,0.00207606,0.00258964,0.00063387,-0.00178901,-0.00039741,-0.00028
 225,-0.00002297,0.00049456,-0.00022061,0.00013678,-0.00000603,0.000127
 36,0.00001972,-0.00000883,0.00000263,0.00002156,0.00043255,-0.00034043
 ,-0.00023525,-0.00392366,0.00770135,0.00290949,-0.35115242,0.00172402,
 0.05165036,-0.01802080,-0.00046564,-0.00681468,0.00029921,-0.00127230,
 0.00342481,0.00032388,0.00019317,-0.00009881,0.00033588,0.00004933,-0.
 00036683,-0.00052989,-0.00004515,0.00055879,-0.00002743,0.00007219,0.0
 0003968,0.00001875,0.00002056,-0.00004786,-0.00001117,0.00000556,-0.00
 000407,-0.00025402,0.00011116,-0.00006199,0.00016397,-0.00006754,0.000
 11367,-0.00000216,-0.00003596,-0.00000752,0.00052184,0.00024947,-0.000
 06233,0.00001217,-0.00012687,-0.00023368,-0.00001876,-0.00000394,0.000
 04983,0.00002202,0.00000067,-0.00004256,0.00000649,-0.00000133,-0.0000
 0485,-0.00000111,0.00000308,0.00000572,0.00005446,-0.00001264,0.000011
 12,0.00010072,-0.00003121,-0.00001800,0.00010012,0.00013054,0.00026383
 ,0.00123491,0.00041019,-0.00107958,0.00007606,-0.00023169,0.00019180,0
 .00001467,0.00001711,-0.00003369,0.00000455,0.00000512,0.00000013,0.00
 000476,-0.00019227,-0.00007562,-0.00001927,0.00000236,-0.00000795,0.00
 043973,0.00058969,0.00111884,0.00004405,-0.00008231,-0.00019322,0.0004
 7018,0.00008233,0.00050164,0.00017767,-0.00044581,0.00109988,0.3755500
 5,-0.00002599,0.00032445,-0.00041526,-0.00037749,-0.00055927,-0.000114
 27,-0.00084729,-0.00034850,-0.00123438,0.00034032,0.00007151,0.0004651
 3,0.00008227,-0.00011746,0.00010124,-0.02060084,0.00111422,0.00530430,
 0.00022298,0.00267989,-0.00045877,-0.00036886,-0.00015235,-0.00002379,
 -0.00000406,0.00013003,-0.00005402,-0.00015465,-0.00019816,-0.00009358
 ,0.00000547,0.00003512,-0.00002709,0.00419023,0.00198335,0.00453665,0.
 03463987,-0.01600058,-0.01407263,-0.00028417,-0.04094929,0.00216062,-0
 .00553045,0.00459249,-0.00092101,0.00083389,-0.00052001,0.00092176,0.0
 0005788,-0.00020737,-0.00008259,-0.00028638,0.00010017,0.00063949,0.00
 062080,0.00011503,-0.00127119,0.00005403,0.00001449,0.00010106,-0.0000
 3155,0.00006859,-0.00006315,-0.00000120,0.00000041,0.00000331,-0.00011
 006,0.00006104,-0.00012135,0.00010310,-0.00004344,0.00004022,-0.000024
 85,-0.00000956,-0.00000457,-0.00007608,0.00018425,0.00009055,-0.000010
 74,-0.00002376,-0.00012724,0.00001046,-0.00004723,0.00009608,0.0000163
 1,0.00000976,-0.00005121,-0.00001547,0.00001820,-0.00000534,-0.0000016
 3,0.00000116,0.00000805,0.00002646,-0.00002810,0.00001059,0.00003561,0
 .00000273,-0.00001165,-0.00001846,-0.00003802,0.00000055,0.00013465,-0
 .00000106,0.00008304,0.00000559,-0.00001965,0.00002788,-0.00001005,0.0
 0000048,-0.00000251,-0.00000248,0.00000108,-0.00000736,-0.00017254,0.0
 0014883,0.00002214,0.00001538,-0.00002749,0.00001471,-0.00152744,0.000
 41547,-0.00018905,-0.00011566,-0.00012197,0.00005905,0.00039363,0.0001
 5314,0.00027210,-0.00064439,-0.00256532,0.00258688,-0.01054617,0.04975
 272,-0.00008821,-0.00009631,-0.00028395,-0.00002587,0.00038634,-0.0001
 3910,0.00116633,-0.00033169,0.00162837,-0.00046334,0.00012461,-0.00021
 645,-0.00005336,0.00000267,-0.00004797,0.02390197,0.00075776,-0.001087
 57,-0.00201010,-0.00182107,0.00129139,0.00004331,0.00026520,-0.0001612
 6,-0.00014400,-0.00004838,-0.00002383,-0.00006533,-0.00011361,-0.00006
 223,0.00001197,0.00001084,-0.00001070,0.00260272,0.00049713,0.00296282
 ,0.01019045,-0.00801382,-0.00180890,0.05738220,0.00336799,-0.05480622,
 -0.03467290,0.00168380,-0.01156958,-0.00577641,-0.00208550,0.00465655,
 0.00013563,0.00024691,-0.00052695,0.00017009,0.00007602,0.00042659,-0.
 00018716,0.00008208,-0.00067911,0.00003351,0.00008129,0.00011450,0.000
 00094,0.00006434,-0.00006462,-0.00000789,0.00000603,-0.00000331,-0.000
 13373,0.00010526,0.00004219,0.00005021,-0.00015621,0.00006406,0.000028
 04,-0.00002662,-0.00005024,-0.00015603,-0.00002383,-0.00013507,0.00010
 767,0.00004141,-0.00022848,0.00001371,-0.00009231,0.00010219,0.0000249
 8,0.00002236,-0.00006495,-0.00002365,0.00000140,0.00001664,-0.00000231
 ,0.00000304,0.00000840,0.00002913,-0.00001558,0.00000013,0.00005129,-0
 .00005455,-0.00001195,0.00022152,0.00006567,0.00007307,0.00126729,0.00
 032366,-0.00033696,0.00029216,-0.00007698,0.00003631,0.00002257,0.0000
 2120,-0.00005741,-0.00000267,0.00000530,0.00000379,-0.00010652,0.00012
 172,-0.00000170,-0.00000069,0.00000088,-0.00001162,-0.00092860,0.00013
 061,-0.00016973,-0.00018611,-0.00003408,0.00006145,-0.00054349,-0.0000
 2893,-0.00038135,0.00070083,0.00271737,-0.00280916,-0.05287016,0.00180
 658,0.06426192\\-0.00070784,-0.01208504,-0.00110840,0.01535338,0.00298
 727,0.00505482,0.00484496,-0.01231804,0.01413051,0.00038681,0.00941699
 ,0.01664650,-0.00784939,-0.00325039,-0.03186821,0.00784328,-0.03231525
 ,-0.03302083,-0.00375397,-0.01137719,-0.00099297,0.00495240,0.01307650
 ,0.02000963,-0.02054111,0.02774563,-0.02276572,0.01339087,0.00514892,0
 .00628759,-0.00101393,-0.03525054,0.00333264,0.01097179,-0.01872150,0.
 02833671,0.00471796,0.04404380,0.00070733,-0.04189328,0.03568556,0.001
 05635,0.01297201,-0.02212345,0.01116990,-0.00990755,-0.00578603,-0.024
 63234,0.02526461,0.03440006,0.04988725,0.00212875,0.01285665,0.0035388
 9,-0.01161249,0.00618945,-0.02267884,-0.03283079,-0.00468363,-0.008223
 55,-0.00161750,0.00811859,-0.01202453,0.00529166,-0.01423881,0.0310360
 7,0.01958085,-0.01754989,-0.01247536,-0.01452559,-0.01431334,0.0096867
 0,0.00359955,0.03542808,-0.00685202,-0.02895404,-0.01699819,0.01796911
 ,-0.00319902,-0.01146597,0.02998125,0.07642410,-0.01413009,-0.01762317
 ,-0.02113454,0.01601808,-0.00522336,-0.00057233,0.00189295,0.00079998,
 -0.00106907,-0.00196921,-0.00477629,-0.00356879,-0.00725575,-0.0166583
 7,0.02154644,-0.00213681,-0.00142254,-0.02453276,-0.00121501,0.0033137
 7,0.01762369,0.00355216,0.00363112,-0.02033272,-0.00293887,-0.00094913
 ,0.01639540,0.00057909,-0.00164445,-0.01725912,-0.00267959,-0.00220499
 ,-0.02215433,0.00339826,-0.00504569,0.00195706,0.00560398,-0.02031197,
 0.02182014,-0.00460268,0.00078408,-0.01810610,0.00303070,-0.00042323,0
 .02236392,0.00015730,0.00055562,-0.02003532,0.00148137,-0.00102635,0.0
 1774195,-0.00140611,-0.00396351\\\@


      HUMANKIND PERIODICALLY GOES THROUGH A SPEEDUP OF ITS AFFAIRS, 
      THEREBY EXPERIENCING THE RACE BETWEEN THE RENEWABLE VITALITY
      OF THE LIVING, AND THE BECKONING VITIATION OF DECADENCE.
      IN THIS PERIODIC RACE, ANY PAUSE BECOMES A LUXURY.
      ONLY THEN CAN ONE REFLECT THAT ALL IS PERMITTED;
      ALL IS POSSIBLE.

                              -- THE APOCRYPHA OF MUAD'DIB
                                 CHILDREN OF DUNE, BY FRANK HERBERT
 Job cpu time:  1 days  7 hours 56 minutes 24.7 seconds.
 File lengths (MBytes):  RWF=   1769 Int=      0 D2E=      0 Chk=     28 Scr=      1
 Normal termination of Gaussian 09 at Mon Mar 21 23:01:50 2016.
Gaussian '09 finished on node011 at Mon Mar 21 23:01:50 EDT 2016.
