Gaussian '09 started on node017 at Mon Feb  8 13:54:04 EST 2016.
 Entering Gaussian System, Link 0=/usr/local/gaussian/g09/g09
 Initial command:
 /usr/local/gaussian/g09/l1.exe /home/srmcgrat/thesis/gaussian/cellobiose/310/6000/1/2dfp/gaussian28795/Gau-28876.inp -scrdir=/home/srmcgrat/thesis/gaussian/cellobiose/310/6000/1/2dfp/gaussian28795/
 Entering Link 1 = /usr/local/gaussian/g09/l1.exe PID=     28878.
  
 Copyright (c) 1988,1990,1992,1993,1995,1998,2003,2009,2010,
            Gaussian, Inc.  All Rights Reserved.
  
 This is part of the Gaussian(R) 09 program.  It is based on
 the Gaussian(R) 03 system (copyright 2003, Gaussian, Inc.),
 the Gaussian(R) 98 system (copyright 1998, Gaussian, Inc.),
 the Gaussian(R) 94 system (copyright 1995, Gaussian, Inc.),
 the Gaussian 92(TM) system (copyright 1992, Gaussian, Inc.),
 the Gaussian 90(TM) system (copyright 1990, Gaussian, Inc.),
 the Gaussian 88(TM) system (copyright 1988, Gaussian, Inc.),
 the Gaussian 86(TM) system (copyright 1986, Carnegie Mellon
 University), and the Gaussian 82(TM) system (copyright 1983,
 Carnegie Mellon University). Gaussian is a federally registered
 trademark of Gaussian, Inc.
  
 This software contains proprietary and confidential information,
 including trade secrets, belonging to Gaussian, Inc.
  
 This software is provided under written license and may be
 used, copied, transmitted, or stored only in accord with that
 written license.
  
 The following legend is applicable only to US Government
 contracts under FAR:
  
                    RESTRICTED RIGHTS LEGEND
  
 Use, reproduction and disclosure by the US Government is
 subject to restrictions as set forth in subparagraphs (a)
 and (c) of the Commercial Computer Software - Restricted
 Rights clause in FAR 52.227-19.
  
 Gaussian, Inc.
 340 Quinnipiac St., Bldg. 40, Wallingford CT 06492
  
  
 ---------------------------------------------------------------
 Warning -- This program may not be used in any manner that
 competes with the business of Gaussian, Inc. or will provide
 assistance to any competitor of Gaussian, Inc.  The licensee
 of this program is prohibited from giving any competitor of
 Gaussian, Inc. access to this program.  By using this program,
 the user acknowledges that Gaussian, Inc. is engaged in the
 business of creating and licensing software in the field of
 computational chemistry and represents and warrants to the
 licensee that it is not a competitor of Gaussian, Inc. and that
 it will not use this program in any manner prohibited above.
 ---------------------------------------------------------------
  

 Cite this work as:
 Gaussian 09, Revision B.01,
 M. J. Frisch, G. W. Trucks, H. B. Schlegel, G. E. Scuseria, 
 M. A. Robb, J. R. Cheeseman, G. Scalmani, V. Barone, B. Mennucci, 
 G. A. Petersson, H. Nakatsuji, M. Caricato, X. Li, H. P. Hratchian, 
 A. F. Izmaylov, J. Bloino, G. Zheng, J. L. Sonnenberg, M. Hada, 
 M. Ehara, K. Toyota, R. Fukuda, J. Hasegawa, M. Ishida, T. Nakajima, 
 Y. Honda, O. Kitao, H. Nakai, T. Vreven, J. A. Montgomery, Jr., 
 J. E. Peralta, F. Ogliaro, M. Bearpark, J. J. Heyd, E. Brothers, 
 K. N. Kudin, V. N. Staroverov, T. Keith, R. Kobayashi, J. Normand, 
 K. Raghavachari, A. Rendell, J. C. Burant, S. S. Iyengar, J. Tomasi, 
 M. Cossi, N. Rega, J. M. Millam, M. Klene, J. E. Knox, J. B. Cross, 
 V. Bakken, C. Adamo, J. Jaramillo, R. Gomperts, R. E. Stratmann, 
 O. Yazyev, A. J. Austin, R. Cammi, C. Pomelli, J. W. Ochterski, 
 R. L. Martin, K. Morokuma, V. G. Zakrzewski, G. A. Voth, 
 P. Salvador, J. J. Dannenberg, S. Dapprich, A. D. Daniels, 
 O. Farkas, J. B. Foresman, J. V. Ortiz, J. Cioslowski, 
 and D. J. Fox, Gaussian, Inc., Wallingford CT, 2010.
 
 ******************************************
 Gaussian 09:  EM64L-G09RevB.01 12-Aug-2010
                 8-Feb-2016 
 ******************************************
 --------------------------------------------------
 # freq=raman b3lyp/6-31+g(2df,p) geom=connectivity
 --------------------------------------------------
 1/10=4,30=1,38=1,57=2/1,3;
 2/12=2,17=6,18=5,40=1/2;
 3/5=1,6=6,7=114,11=2,16=1,25=1,30=1,71=2,74=-5/1,2,3;
 4//1;
 5/5=2,38=5,98=1/2;
 8/6=4,10=90,11=11/1;
 10/13=10,15=4/2;
 11/6=3,8=1,9=11,15=111,16=1/1,2,10;
 10/6=1/2;
 6/7=2,8=2,9=2,10=2,18=1,28=1/1;
 7/8=1,10=1,25=1/1,2,3,16;
 1/10=4,30=1/3;
 99//99;
 ------------
 310 6000.com
 ------------
 Symbolic Z-matrix:
 Charge =  0 Multiplicity = 1
 O                     7.526     7.453     12.256 
 C                     8.117     7.895     13.487 
 C                     7.707     9.298     13.905 
 O                     8.099     10.326    12.983 
 H                     7.732     10.061    12.091 
 C                     8.206     9.637     15.3 
 O                     7.868     10.91     15.87 
 H                     8.252     11.       16.789 
 C                     8.319     5.462     14.397 
 O                     7.761     4.574     13.418 
 H                     8.183     3.678     13.56 
 C                     7.71      6.85      14.513 
 O                     8.135     7.274     15.816 
 C                     7.76      8.575     16.292 
 O                     8.591     8.624     17.461 
 C                     7.928     8.427     18.718 
 C                     8.374     7.081     19.264 
 O                     8.138     6.083     18.26 
 H                     8.469     6.469     17.398 
 C                     7.885     6.784     20.672 
 O                     8.543     5.548     20.988 
 H                     8.204     5.303     21.896 
 C                     8.055     10.833    19.606 
 O                     8.505     11.406    18.37 
 H                     8.479     12.386    18.57 
 C                     8.462     9.378     19.777 
 O                     8.057     9.203     21.143 
 C                     8.36      7.881     21.611 
 O                     7.633     7.712     22.836 
 H                     8.25107   7.61161   23.56368 
 H                     8.21904   7.22851   11.63078 
 H                     8.2359    4.98808   15.35271 
 H                     9.35935   5.57934   14.17608 
 H                     6.64377   6.76034   14.5086 
 H                     9.18144   7.87103   13.38075 
 H                     6.63781   9.30868   13.94531 
 H                     9.27438   9.59491   15.25883 
 H                     6.71844   8.63862   16.52865 
 H                     8.46341   11.40069   20.41584 
 H                     9.53038   9.32933   19.7439 
 H                     6.86358   8.48649   18.62646 
 H                     6.98765   10.89731   19.64518 
 H                     9.4385    7.14772   19.34937 
 H                     6.82072   6.67718   20.70011 
 H                     9.41048   7.78449   21.79009 
 

 GradGradGradGradGradGradGradGradGradGradGradGradGradGradGradGradGradGrad
 Berny optimization.
 Initialization pass.
 Trust Radius=3.00D-01 FncErr=1.00D-07 GrdErr=1.00D-07
 Number of steps in this run=      2 maximum allowed number of steps=      2.
 GradGradGradGradGradGradGradGradGradGradGradGradGradGradGradGradGradGrad

                          Input orientation:                          
 ---------------------------------------------------------------------
 Center     Atomic      Atomic             Coordinates (Angstroms)
 Number     Number       Type             X           Y           Z
 ---------------------------------------------------------------------
      1          8           0        7.526000    7.453000   12.256000
      2          6           0        8.117000    7.895000   13.487000
      3          6           0        7.707000    9.298000   13.905000
      4          8           0        8.099000   10.326000   12.983000
      5          1           0        7.732000   10.061000   12.091000
      6          6           0        8.206000    9.637000   15.300000
      7          8           0        7.868000   10.910000   15.870000
      8          1           0        8.252000   11.000000   16.789000
      9          6           0        8.319000    5.462000   14.397000
     10          8           0        7.761000    4.574000   13.418000
     11          1           0        8.183000    3.678000   13.560000
     12          6           0        7.710000    6.850000   14.513000
     13          8           0        8.135000    7.274000   15.816000
     14          6           0        7.760000    8.575000   16.292000
     15          8           0        8.591000    8.624000   17.461000
     16          6           0        7.928000    8.427000   18.718000
     17          6           0        8.374000    7.081000   19.264000
     18          8           0        8.138000    6.083000   18.260000
     19          1           0        8.469000    6.469000   17.398000
     20          6           0        7.885000    6.784000   20.672000
     21          8           0        8.543000    5.548000   20.988000
     22          1           0        8.204000    5.303000   21.896000
     23          6           0        8.055000   10.833000   19.606000
     24          8           0        8.505000   11.406000   18.370000
     25          1           0        8.479000   12.386000   18.570000
     26          6           0        8.462000    9.378000   19.777000
     27          8           0        8.057000    9.203000   21.143000
     28          6           0        8.360000    7.881000   21.611000
     29          8           0        7.633000    7.712000   22.836000
     30          1           0        8.251070    7.611610   23.563676
     31          1           0        8.219038    7.228509   11.630778
     32          1           0        8.235900    4.988077   15.352715
     33          1           0        9.359349    5.579337   14.176081
     34          1           0        6.643772    6.760338   14.508598
     35          1           0        9.181442    7.871030   13.380750
     36          1           0        6.637813    9.308678   13.945308
     37          1           0        9.274379    9.594913   15.258830
     38          1           0        6.718439    8.638616   16.528650
     39          1           0        8.463408   11.400688   20.415835
     40          1           0        9.530380    9.329332   19.743904
     41          1           0        6.863584    8.486486   18.626455
     42          1           0        6.987653   10.897312   19.645185
     43          1           0        9.438500    7.147719   19.349374
     44          1           0        6.820717    6.677179   20.700112
     45          1           0        9.410481    7.784485   21.790093
 ---------------------------------------------------------------------
                    Distance matrix (angstroms):
                    1          2          3          4          5
     1  O    0.000000
     2  C    1.435272   0.000000
     3  C    2.481126   1.520274   0.000000
     4  O    3.018441   2.482761   1.435455   0.000000
     5  H    2.621321   2.605494   1.968093   1.000289   0.000000
     6  C    3.807649   2.515841   1.519851   2.419640   3.271411
     7  O    5.012864   3.851093   2.546702   2.954520   3.875582
     8  H    5.801411   4.534584   3.392828   3.868245   4.819059
     9  C    3.029325   2.605454   3.915546   5.070137   5.178128
    10  O    3.113537   3.340739   4.749343   5.778319   5.645258
    11  H    4.047554   4.218148   5.650664   6.673521   6.565368
    12  C    2.343398   1.519984   2.522375   3.817695   4.022075
    13  O    3.616147   2.410437   2.816324   4.164359   4.669626
    14  C    4.195585   2.908242   2.494656   3.759043   4.456162
    15  O    5.440358   4.068021   3.725704   4.815740   5.624922
    16  C    6.547345   5.261379   4.896167   6.043647   6.828287
    17  C    7.068914   5.839724   5.837710   7.075070   7.793875
    18  O    6.188656   5.105420   5.430286   6.771359   7.351590
    19  H    5.319555   4.177715   4.559050   5.874145   6.450572
    20  C    8.450177   7.274089   7.221092   8.468310   9.186713
    21  O    8.995062   7.871143   8.057933   9.333083  10.009071
    22  H    9.900090   8.799847   8.947799  10.231477  10.908683
    23  C    8.107203   6.788067   5.914282   6.642523   7.561451
    24  O    7.346131   6.026720   5.001669   5.509175   6.467797
    25  H    8.069033   6.792423   5.647473   5.966789   6.923949
    26  C    7.819665   6.471662   5.920879   6.869418   7.750741
    27  O    9.073215   7.767162   7.247080   8.237020   9.098379
    28  C    9.401849   8.127645   7.862362   8.971540   9.786582
    29  O   10.583711   9.363308   9.071033  10.204497  10.999210
    30  H   11.332008  10.081551   9.819874  10.924364  11.742709
    31  H    0.960000   1.974887   3.117220   3.381917   2.910672
    32  H    4.021125   3.456188   4.577232   5.841893   6.052045
    33  H    3.249384   2.716718   4.078259   5.053982   5.203953
    34  H    2.516407   2.121679   2.816827   4.142353   4.233603
    35  H    2.044578   1.070000   2.117796   2.712336   2.925800
    36  H    2.661987   2.096789   1.070000   2.023870   2.280722
    37  H    4.081863   2.714519   2.092293   2.663721   3.554057
    38  H    4.507037   3.429369   2.880205   4.162313   4.768986
    39  H    9.112952   7.772941   6.883635   7.518962   8.463605
    40  H    7.975391   6.572959   6.117066   6.982264   7.895343
    41  H    6.487649   5.323054   4.864365   6.062891   6.778305
    42  H    8.170260   6.943525   6.002081   6.778362   7.636699
    43  H    7.353014   6.055760   6.104344   7.240611   8.005208
    44  H    8.508957   7.429161   7.336740   8.631438   9.295026
    45  H    9.724200   8.403967   8.207756   9.259814  10.103080
                    6          7          8          9         10
     6  C    0.000000
     7  O    1.435156   0.000000
     8  H    2.019160   1.000058   0.000000
     9  C    4.273032   5.661611   6.032876   0.000000
    10  O    5.419771   6.794752   7.273115   1.434695   0.000000
    11  H    6.207883   7.598496   8.002680   1.975277   1.000532
    12  C    2.938155   4.283692   4.764078   1.520158   2.526223
    13  O    2.419724   3.646190   3.852726   2.308844   3.630466
    14  C    1.520139   2.375284   2.523826   3.687041   4.926244
    15  O    2.417502   2.877465   2.492365   4.411386   5.782495
    16  C    3.636497   3.778888   3.232081   5.255012   6.554655
    17  C    4.719603   5.141645   4.636709   5.129510   6.390347
    18  O    4.625704   5.393045   5.133588   3.916781   5.085683
    19  H    3.808805   4.734814   4.576891   3.168998   4.464604
    20  C    6.091062   6.331143   5.743434   6.427415   7.584194
    21  O    7.013333   7.443157   6.887713   6.595366   7.672359
    22  H    7.892451   8.237962   7.651115   7.501567   8.520808
    23  C    4.471560   3.741469   2.828814   7.486723   8.806410
    24  O    3.555793   2.627125   1.651789   7.151955   8.470659
    25  H    4.280704   3.137180   2.268146   8.085871   9.385413
    26  C    4.491787   4.238456   3.406336   6.655817   8.000419
    27  O    5.860990   5.545638   4.714292   7.718306   9.010598
    28  C    6.552555   6.509684   5.743824   7.608879   8.855524
    29  O    7.799054   7.668610   6.910884   8.760697   9.927847
    30  H    8.508382   8.379663   7.574788   9.415592  10.601980
    31  H    4.389098   5.625620   6.390030   3.283676   3.232705
    32  H    4.649319   5.955847   6.181132   1.070000   2.034726
    33  H    4.365551   5.788735   6.118591   1.070000   2.034726
    34  H    3.367797   4.535620   5.075566   2.122386   2.686573
    35  H    2.784539   4.142081   4.719161   2.753179   3.590188
    36  H    2.098141   2.789630   3.681407   4.222244   4.894566
    37  H    1.070000   2.020120   2.315372   4.328564   5.557746
    38  H    2.172370   2.629543   2.827672   4.146880   5.223426
    39  H    5.417437   4.610846   3.655021   8.456669   9.801365
    40  H    4.647249   4.502127   3.627236   6.709178   8.109312
    41  H    3.767103   3.805301   3.409060   5.399448   6.575782
    42  H    4.685444   3.876492   3.125205   7.671932   8.908432
    43  H    4.910500   5.359783   4.775287   5.349854   6.679763
    44  H    6.311954   6.507193   6.002679   6.591717   7.637843
    45  H    6.855938   6.869904   6.057437   7.825796   9.117014
                   11         12         13         14         15
    11  H    0.000000
    12  C    3.345672   0.000000
    13  O    4.245357   1.434646   0.000000
    14  C    5.623465   2.478501   1.435201   0.000000
    15  O    6.312462   3.551611   2.176341   1.435104   0.000000
    16  C    7.015910   4.496274   3.129515   2.436310   1.434722
    17  C    6.644735   4.802734   3.461658   3.382575   2.383012
    18  O    5.279777   3.848569   2.718754   3.197807   2.701905
    19  H    4.754127   3.007402   1.806185   2.482167   2.159370
    20  C    7.766375   6.161839   4.887058   4.733678   3.767566
    21  O    7.668226   6.656930   5.467643   5.641652   4.680151
    22  H    8.492936   7.559493   6.391870   6.504455   5.554101
    23  C    9.368272   6.474717   5.199710   4.020968   3.125380
    24  O    9.108335   6.022093   4.871677   3.589940   2.928003
    25  H   10.050720   6.906367   5.816820   4.497773   3.923655
    26  C    8.439131   5.887783   4.497029   3.644563   2.439060
    27  O    9.383144   7.043715   5.666044   4.900489   3.765305
    28  C    9.083784   7.201879   5.831046   5.397536   4.222311
    29  O   10.130145   8.367873   7.051542   6.601881   5.535353
    30  H   10.749486   9.098766   7.755896   7.351635   6.195412
    31  H    4.040954   2.951202   4.186312   4.873473   6.006433
    32  H    2.221019   2.109135   2.334579   3.738283   4.217926
    33  H    2.319146   2.109135   2.657112   4.001128   4.544340
    34  H    3.573495   1.070000   2.048636   2.778396   3.997700
    35  H    4.313991   2.118875   2.716970   3.315335   4.190946
    36  H    5.851546   2.741707   3.143401   2.702693   4.079683
    37  H    6.251959   3.246243   2.644855   2.097858   2.501846
    38  H    5.963684   2.871443   2.092054   1.070000   2.091883
    39  H   10.330587   7.491318   6.188368   5.048298   4.056763
    40  H    8.484907   6.068214   4.647569   3.952075   2.567407
    41  H    7.108542   4.507219   3.314405   2.502214   2.088339
    42  H    9.517184   6.575852   5.395132   4.151325   3.536853
    43  H    6.865281   5.144596   3.768261   3.768558   2.542365
    44  H    7.863338   6.253083   5.092945   4.890341   4.173232
    45  H    9.279243   7.531333   6.130027   5.794655   4.485240
                   16         17         18         19         20
    16  C    0.000000
    17  C    1.519456   0.000000
    18  O    2.397540   1.435171   0.000000
    19  H    2.422570   1.966094   1.000800   0.000000
    20  C    2.553314   1.519801   2.524511   3.340562   0.000000
    21  O    3.717495   2.313185   2.809312   3.706996   1.435450
    22  H    4.464889   3.180819   3.719308   4.654222   1.947639
    23  C    2.567783   3.781035   4.937723   4.908274   4.190424
    24  O    3.054255   4.418373   5.336770   5.031903   5.200624
    25  H    3.999898   5.351232   6.319825   6.031963   6.012790
    26  C    1.520210   2.355233   3.641880   3.757921   2.804067
    27  O    2.549400   2.852019   4.248841   4.655054   2.470422
    28  C    2.975599   2.479638   3.809369   4.444659   1.520117
    29  O    4.190009   3.702219   4.883487   5.640549   2.368034
    30  H    4.924409   4.334036   5.520725   6.274441   3.029973
    31  H    7.193733   7.636219   6.727952   5.822386   9.058303
    32  H    4.821425   4.438192   3.108174   2.535875   5.625235
    33  H    5.548601   5.395630   4.292291   3.459044   6.769186
    34  H    4.705961   5.070538   4.094449   3.430011   6.287187
    35  H    5.510577   5.990721   5.300274   4.314111   7.484966
    36  H    5.022004   6.022074   5.592149   4.830952   7.292315
    37  H    3.891351   4.813712   4.757301   3.872469   6.255718
    38  H    2.510194   3.556570   3.397631   2.920182   4.686983
    39  H    3.465852   4.471513   5.747289   5.781774   4.659827
    40  H    2.105778   2.573425   3.831366   3.848544   3.169756
    41  H    1.070000   2.159447   2.745027   2.855996   2.850614
    42  H    2.801136   4.078173   5.140003   5.182101   4.333464
    43  H    2.077692   1.070000   2.002914   2.282203   2.072436
    44  H    2.866482   2.153643   2.835918   3.696501   1.070000
    45  H    3.471070   2.819633   4.120172   4.680530   2.139672
                   21         22         23         24         25
    21  O    0.000000
    22  H    0.999705   0.000000
    23  C    5.484459   5.987253   0.000000
    24  O    6.416505   7.054778   1.434756   0.000000
    25  H    7.253211   7.829865   1.914388   1.000538   0.000000
    26  C    4.017709   4.600255   1.520498   2.468660   3.241173
    27  O    3.690426   3.974748   2.240373   3.569796   4.114596
    28  C    2.421674   2.598393   3.581530   4.790692   5.436623
    29  O    2.987658   2.648192   4.511278   5.860988   6.384414
    30  H    3.313279   2.848340   5.106759   6.437091   6.912564
    31  H    9.512448  10.444261   8.753480   7.934123   8.649860
    32  H    5.671355   6.550937   7.230926   7.096912   8.070892
    33  H    6.860732   7.810784   7.667224   7.229721   8.149368
    34  H    6.859991   7.689723   6.675451   6.321137   7.177125
    35  H    7.979619   8.947606   6.985404   6.151927   6.914239
    36  H    8.208042   9.039463   6.031203   5.240520   5.852150
    37  H    7.052362   7.976105   4.681627   3.681217   4.403026
    38  H    5.724223   6.491661   4.008965   3.773697   4.616230
    39  H    5.881128   6.280126   1.070000   2.046265   2.092412
    40  H    4.101362   4.754172   2.111109   2.692873   3.438992
    41  H    4.126988   4.756177   2.808043   3.359103   4.221251
    42  H    5.730392   6.151585   1.070000   2.046265   2.365656
    43  H    2.458885   3.378206   3.944772   4.468059   5.382161
    44  H    2.079467   2.287354   4.471173   5.534256   6.314897
    45  H    2.529376   2.761265   3.987610   5.062835   5.693030
                   26         27         28         29         30
    26  C    0.000000
    27  O    1.435481   0.000000
    28  C    2.369593   1.434753   0.000000
    29  O    3.580542   2.295453   1.434474   0.000000
    30  H    4.183723   2.903421   1.974178   0.960000   0.000000
    31  H    8.428539   9.716338  10.002522  11.230948  11.939088
    32  H    6.236734   7.164146   6.895690   7.986414   8.619921
    33  H    6.826812   7.960214   7.846934   9.084202   9.668782
    34  H    6.157448   7.209653   7.392255   8.439778   9.235935
    35  H    6.610641   7.955566   8.271147   9.582521  10.228629
    36  H    6.110736   7.337032   7.985426   9.087584   9.899274
    37  H    4.595745   6.021550   6.642563   7.978282   8.599483
    38  H    3.760116   4.837613   5.394347   6.440318   7.272914
    39  H    2.121174   2.350270   3.718510   4.489231   4.930629
    40  H    1.070000   2.035750   2.636950   3.972011   4.379253
    41  H    2.161824   2.875870   3.393137   4.348804   5.202564
    42  H    2.121174   2.501529   3.853038   4.554557   5.267507
    43  H    2.471957   3.057747   2.610711   3.966712   4.402899
    44  H    3.292474   2.846809   2.155991   2.508521   3.334527
    45  H    2.737051   2.064661   1.070000   2.063641   2.125963
                   31         32         33         34         35
    31  H    0.000000
    32  H    4.344265   0.000000
    33  H    3.240161   1.730952   0.000000
    34  H    3.313985   2.527511   2.979880   0.000000
    35  H    2.097964   3.618579   2.432294   2.990894   0.000000
    36  H    3.490619   4.816874   4.622553   2.609860   2.975837
    37  H    4.458292   4.723367   4.159857   3.939258   2.550999
    38  H    5.313130   4.124554   4.676342   2.759368   4.069993
    39  H    9.728516   8.173649   8.580523   7.729125   7.903574
    40  H    8.482681   6.309098   6.715084   6.506970   6.537440
    41  H    7.235970   4.983924   5.872494   4.470420   5.767900
    42  H    8.899838   7.409621   7.988547   6.604342   7.294808
    43  H    7.814751   4.699318   5.406390   5.603006   6.017785
    44  H    9.193046   5.783638   7.086106   6.194600   7.782761
    45  H   10.244038   7.116135   7.927071   7.856444   8.412906
                   36         37         38         39         40
    36  H    0.000000
    37  H    2.959519   0.000000
    38  H    2.670045   3.009947   0.000000
    39  H    7.041096   5.523876   5.077812   0.000000
    40  H    6.480053   4.500217   4.326888   2.424962   0.000000
    41  H    4.758163   4.287358   2.108316   3.775432   3.011790
    42  H    5.927456   5.115219   3.858364   1.739293   2.988940
    43  H    6.458911   4.769512   4.192611   4.491758   2.218903
    44  H    7.251595   6.643883   4.610726   5.009071   3.910311
    45  H    8.458812   6.778906   5.971550   3.982770   2.566674
                   41         42         43         44         45
    41  H    0.000000
    42  H    2.620168   0.000000
    43  H    2.990836   4.489276   0.000000
    44  H    2.752360   4.353190   2.983067   0.000000
    45  H    4.121661   4.490035   2.522570   3.020110   0.000000
 Stoichiometry    C12H22O11
 Framework group  C1[X(C12H22O11)]
 Deg. of freedom   129
 Full point group                 C1      NOp   1
 Largest Abelian subgroup         C1      NOp   1
 Largest concise Abelian subgroup C1      NOp   1
                         Standard orientation:                         
 ---------------------------------------------------------------------
 Center     Atomic      Atomic             Coordinates (Angstroms)
 Number     Number       Type             X           Y           Z
 ---------------------------------------------------------------------
      1          8           0       -5.035446   -0.441823    0.392340
      2          6           0       -3.766212   -0.055722   -0.155361
      3          6           0       -3.295801    1.323537    0.277760
      4          8           0       -4.154721    2.396382   -0.136717
      5          1           0       -5.069803    2.172157    0.199328
      6          6           0       -1.870730    1.598448   -0.173398
      7          8           0       -1.252381    2.841011    0.191779
      8          1           0       -0.318084    2.889245   -0.161605
      9          6           0       -2.966454   -2.528151   -0.344763
     10          8           0       -4.004170   -3.371558    0.175005
     11          1           0       -3.891083   -4.270994   -0.248422
     12          6           0       -2.804760   -1.150581    0.277358
     13          8           0       -1.469927   -0.786789   -0.102227
     14          6           0       -0.945304    0.488016    0.297079
     15          8           0        0.251250    0.485826   -0.495245
     16          6           0        1.475147    0.225603    0.206743
     17          6           0        1.971016   -1.142419   -0.230725
     18          8           0        0.913655   -2.092758   -0.034358
     19          1           0        0.082207   -1.664363   -0.390409
     20          6           0        3.346612   -1.508769    0.301552
     21          8           0        3.625008   -2.754815   -0.354483
     22          1           0        4.508803   -3.044605    0.012039
     23          6           0        2.479883    2.587254    0.125395
     24          8           0        1.287811    3.220887   -0.360403
     25          1           0        1.533087    4.190098   -0.321090
     26          6           0        2.594932    1.127998   -0.286007
     27          8           0        3.937127    0.885964    0.161808
     28          6           0        4.351588   -0.455150   -0.135098
     29          8           0        5.542773   -0.686229    0.630014
     30          1           0        6.284691   -0.817785    0.035160
     31          1           0       -5.647612   -0.632521   -0.322143
     32          1           0       -2.037509   -3.047482   -0.234054
     33          1           0       -3.147428   -2.394773   -1.390879
     34          1           0       -2.848267   -1.245730    1.342231
     35          1           0       -3.838618   -0.068817   -1.222828
     36          1           0       -3.290013    1.326468    1.347740
     37          1           0       -1.878895    1.564181   -1.242818
     38          1           0       -0.740086    0.534627    1.346180
     39          1           0        3.328640    3.117957   -0.252583
     40          1           0        2.594516    1.086773   -1.355212
     41          1           0        1.351772    0.283590    1.268023
     42          1           0        2.487153    2.643821    1.193874
     43          1           0        2.094217   -1.074051   -1.291407
     44          1           0        3.334815   -1.622595    1.365415
     45          1           0        4.560155   -0.554366   -1.179873
 ---------------------------------------------------------------------
 Rotational constants (GHZ):      0.4075416      0.1473497      0.1105104
 Standard basis: 6-31+G(2df,p) (6D, 7F)
 There are   846 symmetry adapted basis functions of A   symmetry.
 Integral buffers will be    131072 words long.
 Raffenetti 2 integral format.
 Two-electron integral symmetry is turned on.
   846 basis functions,  1258 primitive gaussians,   915 cartesian basis functions
    91 alpha electrons       91 beta electrons
       nuclear repulsion energy      2291.3946213166 Hartrees.
 NAtoms=   45 NActive=   45 NUniq=   45 SFac= 1.00D+00 NAtFMM=   50 NAOKFM=F Big=F
 One-electron integrals computed using PRISM.
 NBasis=   846 RedAO= T  NBF=   846
 NBsUse=   846 1.00D-06 NBFU=   846
 Harris functional with IExCor=  402 diagonalized for initial guess.
 ExpMin= 4.38D-02 ExpMax= 5.48D+03 ExpMxC= 8.25D+02 IAcc=2 IRadAn=         0 AccDes= 0.00D+00
 HarFok:  IExCor=  402 AccDes= 0.00D+00 IRadAn=         0 IDoV= 1
 ScaDFX=  1.000000  1.000000  1.000000  1.000000
 FoFCou: FMM=F IPFlag=           0 FMFlag=      100000 FMFlg1=           0
         NFxFlg=           0 DoJE=T BraDBF=F KetDBF=T FulRan=T
         Omega=  0.000000  0.000000  1.000000  0.000000  0.000000 ICntrl=     500 IOpCl=  0
         NMat0=    1 NMatS0=    1 NMatT0=    0 NMatD0=    1 NMtDS0=    0 NMtDT0=    0
         I1Cent=           4 NGrid=           0.
 Petite list used in FoFCou.
 Initial guess orbital symmetries:
       Occupied  (A) (A) (A) (A) (A) (A) (A) (A) (A) (A) (A) (A)
                 (A) (A) (A) (A) (A) (A) (A) (A) (A) (A) (A) (A)
                 (A) (A) (A) (A) (A) (A) (A) (A) (A) (A) (A) (A)
                 (A) (A) (A) (A) (A) (A) (A) (A) (A) (A) (A) (A)
                 (A) (A) (A) (A) (A) (A) (A) (A) (A) (A) (A) (A)
                 (A) (A) (A) (A) (A) (A) (A) (A) (A) (A) (A) (A)
                 (A) (A) (A) (A) (A) (A) (A) (A) (A) (A) (A) (A)
                 (A) (A) (A) (A) (A) (A) (A)
       Virtual   (A) (A) (A) (A) (A) (A) (A) (A) (A) (A) (A) (A)
                 (A) (A) (A) (A) (A) (A) (A) (A) (A) (A) (A) (A)
                 (A) (A) (A) (A) (A) (A) (A) (A) (A) (A) (A) (A)
                 (A) (A) (A) (A) (A) (A) (A) (A) (A) (A) (A) (A)
                 (A) (A) (A) (A) (A) (A) (A) (A) (A) (A) (A) (A)
                 (A) (A) (A) (A) (A) (A) (A) (A) (A) (A) (A) (A)
                 (A) (A) (A) (A) (A) (A) (A) (A) (A) (A) (A) (A)
                 (A) (A) (A) (A) (A) (A) (A) (A) (A) (A) (A) (A)
                 (A) (A) (A) (A) (A) (A) (A) (A) (A) (A) (A) (A)
                 (A) (A) (A) (A) (A) (A) (A) (A) (A) (A) (A) (A)
                 (A) (A) (A) (A) (A) (A) (A) (A) (A) (A) (A) (A)
                 (A) (A) (A) (A) (A) (A) (A) (A) (A) (A) (A) (A)
                 (A) (A) (A) (A) (A) (A) (A) (A) (A) (A) (A) (A)
                 (A) (A) (A) (A) (A) (A) (A) (A) (A) (A) (A) (A)
                 (A) (A) (A) (A) (A) (A) (A) (A) (A) (A) (A) (A)
                 (A) (A) (A) (A) (A) (A) (A) (A) (A) (A) (A) (A)
                 (A) (A) (A) (A) (A) (A) (A) (A) (A) (A) (A) (A)
                 (A) (A) (A) (A) (A) (A) (A) (A) (A) (A) (A) (A)
                 (A) (A) (A) (A) (A) (A) (A) (A) (A) (A) (A) (A)
                 (A) (A) (A) (A) (A) (A) (A) (A) (A) (A) (A) (A)
                 (A) (A) (A) (A) (A) (A) (A) (A) (A) (A) (A) (A)
                 (A) (A) (A) (A) (A) (A) (A) (A) (A) (A) (A) (A)
                 (A) (A) (A) (A) (A) (A) (A) (A) (A) (A) (A) (A)
                 (A) (A) (A) (A) (A) (A) (A) (A) (A) (A) (A) (A)
                 (A) (A) (A) (A) (A) (A) (A) (A) (A) (A) (A) (A)
                 (A) (A) (A) (A) (A) (A) (A) (A) (A) (A) (A) (A)
                 (A) (A) (A) (A) (A) (A) (A) (A) (A) (A) (A) (A)
                 (A) (A) (A) (A) (A) (A) (A) (A) (A) (A) (A) (A)
                 (A) (A) (A) (A) (A) (A) (A) (A) (A) (A) (A) (A)
                 (A) (A) (A) (A) (A) (A) (A) (A) (A) (A) (A) (A)
                 (A) (A) (A) (A) (A) (A) (A) (A) (A) (A) (A) (A)
                 (A) (A) (A) (A) (A) (A) (A) (A) (A) (A) (A) (A)
                 (A) (A) (A) (A) (A) (A) (A) (A) (A) (A) (A) (A)
                 (A) (A) (A) (A) (A) (A) (A) (A) (A) (A) (A) (A)
                 (A) (A) (A) (A) (A) (A) (A) (A) (A) (A) (A) (A)
                 (A) (A) (A) (A) (A) (A) (A) (A) (A) (A) (A) (A)
                 (A) (A) (A) (A) (A) (A) (A) (A) (A) (A) (A) (A)
                 (A) (A) (A) (A) (A) (A) (A) (A) (A) (A) (A) (A)
                 (A) (A) (A) (A) (A) (A) (A) (A) (A) (A) (A) (A)
                 (A) (A) (A) (A) (A) (A) (A) (A) (A) (A) (A) (A)
                 (A) (A) (A) (A) (A) (A) (A) (A) (A) (A) (A) (A)
                 (A) (A) (A) (A) (A) (A) (A) (A) (A) (A) (A) (A)
                 (A) (A) (A) (A) (A) (A) (A) (A) (A) (A) (A) (A)
                 (A) (A) (A) (A) (A) (A) (A) (A) (A) (A) (A) (A)
                 (A) (A) (A) (A) (A) (A) (A) (A) (A) (A) (A) (A)
                 (A) (A) (A) (A) (A) (A) (A) (A) (A) (A) (A) (A)
                 (A) (A) (A) (A) (A) (A) (A) (A) (A) (A) (A) (A)
                 (A) (A) (A) (A) (A) (A) (A) (A) (A) (A) (A) (A)
                 (A) (A) (A) (A) (A) (A) (A) (A) (A) (A) (A) (A)
                 (A) (A) (A) (A) (A) (A) (A) (A) (A) (A) (A) (A)
                 (A) (A) (A) (A) (A) (A) (A) (A) (A) (A) (A) (A)
                 (A) (A) (A) (A) (A) (A) (A) (A) (A) (A) (A) (A)
                 (A) (A) (A) (A) (A) (A) (A) (A) (A) (A) (A) (A)
                 (A) (A) (A) (A) (A) (A) (A) (A) (A) (A) (A) (A)
                 (A) (A) (A) (A) (A) (A) (A) (A) (A) (A) (A) (A)
                 (A) (A) (A) (A) (A) (A) (A) (A) (A) (A) (A) (A)
                 (A) (A) (A) (A) (A) (A) (A) (A) (A) (A) (A) (A)
                 (A) (A) (A) (A) (A) (A) (A) (A) (A) (A) (A) (A)
                 (A) (A) (A) (A) (A) (A) (A) (A) (A) (A) (A) (A)
                 (A) (A) (A) (A) (A) (A) (A) (A) (A) (A) (A) (A)
                 (A) (A) (A) (A) (A) (A) (A) (A) (A) (A) (A) (A)
                 (A) (A) (A) (A) (A) (A) (A) (A) (A) (A) (A) (A)
                 (A) (A) (A) (A) (A) (A) (A) (A) (A) (A) (A)
 The electronic state of the initial guess is 1-A.
 Requested convergence on RMS density matrix=1.00D-08 within 128 cycles.
 Requested convergence on MAX density matrix=1.00D-06.
 Requested convergence on             energy=1.00D-06.
 No special actions if energy rises.
 SCF Done:  E(RB3LYP) =  -1298.01894632     A.U. after   13 cycles
             Convg  =    0.3368D-08             -V/T =  2.0065
 Range of M.O.s used for correlation:     1   846
 NBasis=   846 NAE=    91 NBE=    91 NFC=     0 NFV=     0
 NROrb=    846 NOA=    91 NOB=    91 NVA=   755 NVB=   755

 **** Warning!!: The largest alpha MO coefficient is  0.71937642D+02

          Differentiating once with respect to electric field.
                with respect to dipole field.
          Electric field/nuclear overlap derivatives assumed to be zero.
          There are     3 degrees of freedom in the 1st order CPHF.  IDoFFX=0.
      3 vectors produced by pass  0 Test12= 2.29D-12 3.33D-08 XBig12= 1.23D+02 1.21D+00.
 AX will form     3 AO Fock derivatives at one time.
      3 vectors produced by pass  1 Test12= 2.29D-12 3.33D-08 XBig12= 2.34D+01 4.33D-01.
      3 vectors produced by pass  2 Test12= 2.29D-12 3.33D-08 XBig12= 9.92D+00 2.31D-01.
      3 vectors produced by pass  3 Test12= 2.29D-12 3.33D-08 XBig12= 1.06D+00 7.77D-02.
      3 vectors produced by pass  4 Test12= 2.29D-12 3.33D-08 XBig12= 2.97D-01 4.54D-02.
      3 vectors produced by pass  5 Test12= 2.29D-12 3.33D-08 XBig12= 5.74D-02 1.62D-02.
      3 vectors produced by pass  6 Test12= 2.29D-12 3.33D-08 XBig12= 2.08D-02 1.49D-02.
      3 vectors produced by pass  7 Test12= 2.29D-12 3.33D-08 XBig12= 2.53D-03 5.50D-03.
      3 vectors produced by pass  8 Test12= 2.29D-12 3.33D-08 XBig12= 4.97D-04 1.78D-03.
      3 vectors produced by pass  9 Test12= 2.29D-12 3.33D-08 XBig12= 1.21D-04 1.15D-03.
      3 vectors produced by pass 10 Test12= 2.29D-12 3.33D-08 XBig12= 3.11D-05 4.52D-04.
      3 vectors produced by pass 11 Test12= 2.29D-12 3.33D-08 XBig12= 8.49D-06 2.87D-04.
      3 vectors produced by pass 12 Test12= 2.29D-12 3.33D-08 XBig12= 1.09D-06 9.63D-05.
      3 vectors produced by pass 13 Test12= 2.29D-12 3.33D-08 XBig12= 3.09D-07 4.74D-05.
      3 vectors produced by pass 14 Test12= 2.29D-12 3.33D-08 XBig12= 4.96D-08 1.77D-05.
      3 vectors produced by pass 15 Test12= 2.29D-12 3.33D-08 XBig12= 1.06D-08 9.45D-06.
      3 vectors produced by pass 16 Test12= 2.29D-12 3.33D-08 XBig12= 1.44D-09 3.20D-06.
      3 vectors produced by pass 17 Test12= 2.29D-12 3.33D-08 XBig12= 2.41D-10 1.10D-06.
      3 vectors produced by pass 18 Test12= 2.29D-12 3.33D-08 XBig12= 4.42D-11 4.02D-07.
      3 vectors produced by pass 19 Test12= 2.29D-12 3.33D-08 XBig12= 7.39D-12 1.57D-07.
      3 vectors produced by pass 20 Test12= 2.29D-12 3.33D-08 XBig12= 2.84D-12 1.15D-07.
      3 vectors produced by pass 21 Test12= 2.29D-12 3.33D-08 XBig12= 8.91D-13 9.34D-08.
 Inverted reduced A of dimension    66 with in-core refinement.
 End of Minotr Frequency-dependent properties file   721 does not exist.
 End of Minotr Frequency-dependent properties file   722 does not exist.
 Symmetrizing basis deriv contribution to polar:
 IMax=3 JMax=2 DiffMx= 0.00D+00
 G2DrvN: will do     8 centers at a time, making    6 passes doing MaxLOS=3.
 Calling FoFCou, ICntrl=  3107 FMM=F I1Cent=   0 AccDes= 0.00D+00.
 Calling FoFCou, ICntrl=  3107 FMM=F I1Cent=   0 AccDes= 0.00D+00.
 Calling FoFCou, ICntrl=  3107 FMM=F I1Cent=   0 AccDes= 0.00D+00.
 Calling FoFCou, ICntrl=  3107 FMM=F I1Cent=   0 AccDes= 0.00D+00.
 Calling FoFCou, ICntrl=  3107 FMM=F I1Cent=   0 AccDes= 0.00D+00.
 Calling FoFCou, ICntrl=  3107 FMM=F I1Cent=   0 AccDes= 0.00D+00.
 FoFDir/FoFCou used for L=0 through L=3.
 End of G2Drv Frequency-dependent properties file   721 does not exist.
 End of G2Drv Frequency-dependent properties file   722 does not exist.
          IDoAtm=111111111111111111111111111111111111111111111
          Differentiating once with respect to electric field.
                with respect to dipole field.
          Differentiating once with respect to nuclear coordinates.
          There are   138 degrees of freedom in the 1st order CPHF.  IDoFFX=5.
 Will reuse    3 saved solutions.
    135 vectors produced by pass  0 Test12= 6.87D-14 1.00D-09 XBig12= 1.54D-01 5.42D-02.
 AX will form    27 AO Fock derivatives at one time.
    135 vectors produced by pass  1 Test12= 6.87D-14 1.00D-09 XBig12= 2.05D-02 1.20D-02.
    132 vectors produced by pass  2 Test12= 6.87D-14 1.00D-09 XBig12= 1.55D-04 1.45D-03.
    132 vectors produced by pass  3 Test12= 6.87D-14 1.00D-09 XBig12= 8.44D-07 6.45D-05.
    132 vectors produced by pass  4 Test12= 6.87D-14 1.00D-09 XBig12= 2.29D-09 3.62D-06.
    132 vectors produced by pass  5 Test12= 6.87D-14 1.00D-09 XBig12= 6.65D-12 1.29D-07.
     89 vectors produced by pass  6 Test12= 6.87D-14 1.00D-09 XBig12= 2.33D-13 2.56D-08.
      2 vectors produced by pass  7 Test12= 6.87D-14 1.00D-09 XBig12= 9.69D-16 1.94D-09.
 Inverted reduced A of dimension   889 with in-core refinement.
 Isotropic polarizability for W=    0.000000      191.84 Bohr**3.
 End of Minotr Frequency-dependent properties file   721 does not exist.
 End of Minotr Frequency-dependent properties file   722 does not exist.

 **********************************************************************

            Population analysis using the SCF density.

 **********************************************************************

 Orbital symmetries:
       Occupied  (A) (A) (A) (A) (A) (A) (A) (A) (A) (A) (A) (A)
                 (A) (A) (A) (A) (A) (A) (A) (A) (A) (A) (A) (A)
                 (A) (A) (A) (A) (A) (A) (A) (A) (A) (A) (A) (A)
                 (A) (A) (A) (A) (A) (A) (A) (A) (A) (A) (A) (A)
                 (A) (A) (A) (A) (A) (A) (A) (A) (A) (A) (A) (A)
                 (A) (A) (A) (A) (A) (A) (A) (A) (A) (A) (A) (A)
                 (A) (A) (A) (A) (A) (A) (A) (A) (A) (A) (A) (A)
                 (A) (A) (A) (A) (A) (A) (A)
       Virtual   (A) (A) (A) (A) (A) (A) (A) (A) (A) (A) (A) (A)
                 (A) (A) (A) (A) (A) (A) (A) (A) (A) (A) (A) (A)
                 (A) (A) (A) (A) (A) (A) (A) (A) (A) (A) (A) (A)
                 (A) (A) (A) (A) (A) (A) (A) (A) (A) (A) (A) (A)
                 (A) (A) (A) (A) (A) (A) (A) (A) (A) (A) (A) (A)
                 (A) (A) (A) (A) (A) (A) (A) (A) (A) (A) (A) (A)
                 (A) (A) (A) (A) (A) (A) (A) (A) (A) (A) (A) (A)
                 (A) (A) (A) (A) (A) (A) (A) (A) (A) (A) (A) (A)
                 (A) (A) (A) (A) (A) (A) (A) (A) (A) (A) (A) (A)
                 (A) (A) (A) (A) (A) (A) (A) (A) (A) (A) (A) (A)
                 (A) (A) (A) (A) (A) (A) (A) (A) (A) (A) (A) (A)
                 (A) (A) (A) (A) (A) (A) (A) (A) (A) (A) (A) (A)
                 (A) (A) (A) (A) (A) (A) (A) (A) (A) (A) (A) (A)
                 (A) (A) (A) (A) (A) (A) (A) (A) (A) (A) (A) (A)
                 (A) (A) (A) (A) (A) (A) (A) (A) (A) (A) (A) (A)
                 (A) (A) (A) (A) (A) (A) (A) (A) (A) (A) (A) (A)
                 (A) (A) (A) (A) (A) (A) (A) (A) (A) (A) (A) (A)
                 (A) (A) (A) (A) (A) (A) (A) (A) (A) (A) (A) (A)
                 (A) (A) (A) (A) (A) (A) (A) (A) (A) (A) (A) (A)
                 (A) (A) (A) (A) (A) (A) (A) (A) (A) (A) (A) (A)
                 (A) (A) (A) (A) (A) (A) (A) (A) (A) (A) (A) (A)
                 (A) (A) (A) (A) (A) (A) (A) (A) (A) (A) (A) (A)
                 (A) (A) (A) (A) (A) (A) (A) (A) (A) (A) (A) (A)
                 (A) (A) (A) (A) (A) (A) (A) (A) (A) (A) (A) (A)
                 (A) (A) (A) (A) (A) (A) (A) (A) (A) (A) (A) (A)
                 (A) (A) (A) (A) (A) (A) (A) (A) (A) (A) (A) (A)
                 (A) (A) (A) (A) (A) (A) (A) (A) (A) (A) (A) (A)
                 (A) (A) (A) (A) (A) (A) (A) (A) (A) (A) (A) (A)
                 (A) (A) (A) (A) (A) (A) (A) (A) (A) (A) (A) (A)
                 (A) (A) (A) (A) (A) (A) (A) (A) (A) (A) (A) (A)
                 (A) (A) (A) (A) (A) (A) (A) (A) (A) (A) (A) (A)
                 (A) (A) (A) (A) (A) (A) (A) (A) (A) (A) (A) (A)
                 (A) (A) (A) (A) (A) (A) (A) (A) (A) (A) (A) (A)
                 (A) (A) (A) (A) (A) (A) (A) (A) (A) (A) (A) (A)
                 (A) (A) (A) (A) (A) (A) (A) (A) (A) (A) (A) (A)
                 (A) (A) (A) (A) (A) (A) (A) (A) (A) (A) (A) (A)
                 (A) (A) (A) (A) (A) (A) (A) (A) (A) (A) (A) (A)
                 (A) (A) (A) (A) (A) (A) (A) (A) (A) (A) (A) (A)
                 (A) (A) (A) (A) (A) (A) (A) (A) (A) (A) (A) (A)
                 (A) (A) (A) (A) (A) (A) (A) (A) (A) (A) (A) (A)
                 (A) (A) (A) (A) (A) (A) (A) (A) (A) (A) (A) (A)
                 (A) (A) (A) (A) (A) (A) (A) (A) (A) (A) (A) (A)
                 (A) (A) (A) (A) (A) (A) (A) (A) (A) (A) (A) (A)
                 (A) (A) (A) (A) (A) (A) (A) (A) (A) (A) (A) (A)
                 (A) (A) (A) (A) (A) (A) (A) (A) (A) (A) (A) (A)
                 (A) (A) (A) (A) (A) (A) (A) (A) (A) (A) (A) (A)
                 (A) (A) (A) (A) (A) (A) (A) (A) (A) (A) (A) (A)
                 (A) (A) (A) (A) (A) (A) (A) (A) (A) (A) (A) (A)
                 (A) (A) (A) (A) (A) (A) (A) (A) (A) (A) (A) (A)
                 (A) (A) (A) (A) (A) (A) (A) (A) (A) (A) (A) (A)
                 (A) (A) (A) (A) (A) (A) (A) (A) (A) (A) (A) (A)
                 (A) (A) (A) (A) (A) (A) (A) (A) (A) (A) (A) (A)
                 (A) (A) (A) (A) (A) (A) (A) (A) (A) (A) (A) (A)
                 (A) (A) (A) (A) (A) (A) (A) (A) (A) (A) (A) (A)
                 (A) (A) (A) (A) (A) (A) (A) (A) (A) (A) (A) (A)
                 (A) (A) (A) (A) (A) (A) (A) (A) (A) (A) (A) (A)
                 (A) (A) (A) (A) (A) (A) (A) (A) (A) (A) (A) (A)
                 (A) (A) (A) (A) (A) (A) (A) (A) (A) (A) (A) (A)
                 (A) (A) (A) (A) (A) (A) (A) (A) (A) (A) (A) (A)
                 (A) (A) (A) (A) (A) (A) (A) (A) (A) (A) (A) (A)
                 (A) (A) (A) (A) (A) (A) (A) (A) (A) (A) (A) (A)
                 (A) (A) (A) (A) (A) (A) (A) (A) (A) (A) (A) (A)
                 (A) (A) (A) (A) (A) (A) (A) (A) (A) (A) (A)
 The electronic state is 1-A.
 Alpha  occ. eigenvalues --  -19.18696 -19.18312 -19.18119 -19.18112 -19.17227
 Alpha  occ. eigenvalues --  -19.16788 -19.16467 -19.15867 -19.15685 -19.12829
 Alpha  occ. eigenvalues --  -19.12764 -10.30524 -10.30185 -10.25553 -10.25382
 Alpha  occ. eigenvalues --  -10.25133 -10.25084 -10.24909 -10.24750 -10.24618
 Alpha  occ. eigenvalues --  -10.23973 -10.23731 -10.23406  -1.09886  -1.09103
 Alpha  occ. eigenvalues --   -1.05683  -1.05018  -1.03762  -1.03482  -1.02855
 Alpha  occ. eigenvalues --   -1.02244  -1.02039  -0.99926  -0.99345  -0.82188
 Alpha  occ. eigenvalues --   -0.79974  -0.79103  -0.78311  -0.71457  -0.69457
 Alpha  occ. eigenvalues --   -0.67178  -0.64827  -0.62804  -0.62351  -0.61174
 Alpha  occ. eigenvalues --   -0.59918  -0.56348  -0.56021  -0.54925  -0.54379
 Alpha  occ. eigenvalues --   -0.53719  -0.53031  -0.52815  -0.51378  -0.50934
 Alpha  occ. eigenvalues --   -0.50439  -0.49819  -0.49448  -0.48022  -0.46791
 Alpha  occ. eigenvalues --   -0.45109  -0.44814  -0.44216  -0.43863  -0.42918
 Alpha  occ. eigenvalues --   -0.42390  -0.41356  -0.40764  -0.40369  -0.39290
 Alpha  occ. eigenvalues --   -0.38503  -0.38143  -0.37774  -0.36272  -0.36157
 Alpha  occ. eigenvalues --   -0.35905  -0.35362  -0.34745  -0.33251  -0.33100
 Alpha  occ. eigenvalues --   -0.32475  -0.31476  -0.30835  -0.30540  -0.29615
 Alpha  occ. eigenvalues --   -0.29229  -0.28570  -0.28341  -0.27347  -0.26263
 Alpha  occ. eigenvalues --   -0.25811
 Alpha virt. eigenvalues --   -0.01886  -0.01780  -0.01577   0.00016   0.00336
 Alpha virt. eigenvalues --    0.00944   0.01778   0.02148   0.02899   0.03301
 Alpha virt. eigenvalues --    0.03813   0.04327   0.04919   0.05399   0.05794
 Alpha virt. eigenvalues --    0.06217   0.06766   0.07501   0.07852   0.08099
 Alpha virt. eigenvalues --    0.08547   0.08710   0.09242   0.09892   0.10143
 Alpha virt. eigenvalues --    0.10628   0.10952   0.11427   0.11877   0.12195
 Alpha virt. eigenvalues --    0.12486   0.12877   0.12949   0.13789   0.13890
 Alpha virt. eigenvalues --    0.14268   0.14294   0.14518   0.14836   0.15247
 Alpha virt. eigenvalues --    0.15934   0.16278   0.16788   0.16919   0.17116
 Alpha virt. eigenvalues --    0.17591   0.17686   0.17857   0.18065   0.18768
 Alpha virt. eigenvalues --    0.19051   0.19272   0.19531   0.19787   0.19996
 Alpha virt. eigenvalues --    0.20651   0.20852   0.20973   0.21207   0.21727
 Alpha virt. eigenvalues --    0.22224   0.22640   0.22903   0.23236   0.23613
 Alpha virt. eigenvalues --    0.23881   0.24029   0.24399   0.24428   0.24679
 Alpha virt. eigenvalues --    0.24805   0.25325   0.25506   0.25769   0.26061
 Alpha virt. eigenvalues --    0.26133   0.26512   0.26688   0.27055   0.27530
 Alpha virt. eigenvalues --    0.27884   0.28087   0.28227   0.28512   0.28686
 Alpha virt. eigenvalues --    0.29347   0.29663   0.29793   0.30287   0.30508
 Alpha virt. eigenvalues --    0.30995   0.31130   0.31422   0.32046   0.32515
 Alpha virt. eigenvalues --    0.32931   0.33071   0.33175   0.33273   0.33753
 Alpha virt. eigenvalues --    0.34443   0.34797   0.34989   0.35314   0.35674
 Alpha virt. eigenvalues --    0.35883   0.36842   0.37116   0.37256   0.37402
 Alpha virt. eigenvalues --    0.37680   0.38038   0.38758   0.39470   0.39675
 Alpha virt. eigenvalues --    0.40090   0.40324   0.40668   0.41223   0.42020
 Alpha virt. eigenvalues --    0.42178   0.42654   0.43005   0.43808   0.44447
 Alpha virt. eigenvalues --    0.44664   0.44865   0.45449   0.46399   0.47093
 Alpha virt. eigenvalues --    0.47377   0.47521   0.48337   0.48962   0.49841
 Alpha virt. eigenvalues --    0.50977   0.51392   0.54160   0.57092   0.57907
 Alpha virt. eigenvalues --    0.58555   0.59330   0.59603   0.60733   0.61554
 Alpha virt. eigenvalues --    0.62961   0.63736   0.64348   0.65182   0.65631
 Alpha virt. eigenvalues --    0.66748   0.67614   0.68300   0.68793   0.69949
 Alpha virt. eigenvalues --    0.70462   0.71594   0.72090   0.72291   0.72977
 Alpha virt. eigenvalues --    0.73129   0.74705   0.75640   0.76236   0.76611
 Alpha virt. eigenvalues --    0.77023   0.78355   0.79391   0.80046   0.80530
 Alpha virt. eigenvalues --    0.81756   0.82451   0.83646   0.83921   0.84895
 Alpha virt. eigenvalues --    0.86994   0.87335   0.87912   0.88456   0.88946
 Alpha virt. eigenvalues --    0.89709   0.90128   0.90551   0.91407   0.91669
 Alpha virt. eigenvalues --    0.92316   0.92468   0.92720   0.93317   0.93871
 Alpha virt. eigenvalues --    0.93996   0.94731   0.94970   0.95366   0.95609
 Alpha virt. eigenvalues --    0.96096   0.96692   0.97408   0.97826   0.98190
 Alpha virt. eigenvalues --    0.98811   0.99492   1.00664   1.01317   1.01949
 Alpha virt. eigenvalues --    1.02622   1.03133   1.03778   1.04813   1.05176
 Alpha virt. eigenvalues --    1.05380   1.06555   1.07264   1.07419   1.08296
 Alpha virt. eigenvalues --    1.08468   1.08915   1.09230   1.09506   1.10551
 Alpha virt. eigenvalues --    1.11680   1.12029   1.12160   1.12795   1.13444
 Alpha virt. eigenvalues --    1.13913   1.14750   1.15501   1.16162   1.16187
 Alpha virt. eigenvalues --    1.17487   1.18196   1.18529   1.18775   1.19185
 Alpha virt. eigenvalues --    1.19757   1.20656   1.21208   1.22581   1.22827
 Alpha virt. eigenvalues --    1.23056   1.23402   1.23911   1.24189   1.24370
 Alpha virt. eigenvalues --    1.24779   1.24962   1.25505   1.27052   1.27206
 Alpha virt. eigenvalues --    1.28580   1.29174   1.29802   1.30343   1.31172
 Alpha virt. eigenvalues --    1.32564   1.32894   1.33628   1.34714   1.34779
 Alpha virt. eigenvalues --    1.35080   1.35237   1.36480   1.36776   1.37407
 Alpha virt. eigenvalues --    1.37716   1.38761   1.39428   1.39707   1.40331
 Alpha virt. eigenvalues --    1.41126   1.41575   1.42098   1.42675   1.43344
 Alpha virt. eigenvalues --    1.44095   1.45157   1.45702   1.46517   1.47166
 Alpha virt. eigenvalues --    1.48044   1.48097   1.49503   1.49866   1.50649
 Alpha virt. eigenvalues --    1.51457   1.52526   1.53694   1.54298   1.55362
 Alpha virt. eigenvalues --    1.55821   1.56635   1.57600   1.58705   1.59825
 Alpha virt. eigenvalues --    1.60664   1.61278   1.61827   1.62685   1.63755
 Alpha virt. eigenvalues --    1.64197   1.64352   1.65635   1.66281   1.67198
 Alpha virt. eigenvalues --    1.67778   1.69416   1.69789   1.70504   1.72114
 Alpha virt. eigenvalues --    1.72457   1.72851   1.74146   1.74689   1.76157
 Alpha virt. eigenvalues --    1.76848   1.77631   1.78412   1.79375   1.80228
 Alpha virt. eigenvalues --    1.80914   1.82284   1.83894   1.84907   1.86271
 Alpha virt. eigenvalues --    1.86425   1.88113   1.88927   1.89605   1.90347
 Alpha virt. eigenvalues --    1.91890   1.93138   1.93787   1.94874   1.95955
 Alpha virt. eigenvalues --    1.96153   1.97067   1.97883   1.99103   1.99933
 Alpha virt. eigenvalues --    2.01281   2.02099   2.03463   2.04183   2.04735
 Alpha virt. eigenvalues --    2.08096   2.09979   2.10325   2.11689   2.13904
 Alpha virt. eigenvalues --    2.14940   2.15786   2.17000   2.17437   2.19299
 Alpha virt. eigenvalues --    2.20559   2.22651   2.23952   2.24283   2.25717
 Alpha virt. eigenvalues --    2.26504   2.29124   2.29837   2.31030   2.32316
 Alpha virt. eigenvalues --    2.33098   2.37132   2.38970   2.40375   2.40952
 Alpha virt. eigenvalues --    2.42258   2.43135   2.49099   2.50231   2.50809
 Alpha virt. eigenvalues --    2.52591   2.53092   2.53689   2.54662   2.55378
 Alpha virt. eigenvalues --    2.55931   2.57488   2.58916   2.59362   2.59783
 Alpha virt. eigenvalues --    2.61082   2.61380   2.63720   2.63850   2.66753
 Alpha virt. eigenvalues --    2.67615   2.68038   2.69835   2.70001   2.72365
 Alpha virt. eigenvalues --    2.73475   2.74679   2.75368   2.75823   2.78643
 Alpha virt. eigenvalues --    2.80058   2.80779   2.82503   2.82847   2.84287
 Alpha virt. eigenvalues --    2.84736   2.86366   2.87201   2.87719   2.88540
 Alpha virt. eigenvalues --    2.89561   2.90001   2.90644   2.91480   2.93239
 Alpha virt. eigenvalues --    2.94018   2.95445   2.96257   2.96459   2.98104
 Alpha virt. eigenvalues --    2.98968   2.99820   3.00488   3.02691   3.03120
 Alpha virt. eigenvalues --    3.03681   3.04671   3.05102   3.05906   3.07215
 Alpha virt. eigenvalues --    3.07993   3.08988   3.09635   3.10478   3.10666
 Alpha virt. eigenvalues --    3.11250   3.13486   3.14725   3.16233   3.17721
 Alpha virt. eigenvalues --    3.18838   3.20450   3.21456   3.22457   3.23884
 Alpha virt. eigenvalues --    3.24500   3.24885   3.26064   3.26552   3.27192
 Alpha virt. eigenvalues --    3.28610   3.30233   3.31391   3.32755   3.33385
 Alpha virt. eigenvalues --    3.34376   3.34900   3.38216   3.38883   3.39726
 Alpha virt. eigenvalues --    3.40098   3.41636   3.43478   3.43768   3.45267
 Alpha virt. eigenvalues --    3.47015   3.47358   3.49308   3.50628   3.51479
 Alpha virt. eigenvalues --    3.53160   3.55047   3.56361   3.57800   3.60015
 Alpha virt. eigenvalues --    3.61634   3.63496   3.65705   3.66286   3.68076
 Alpha virt. eigenvalues --    3.68766   3.69797   3.71156   3.72109   3.74170
 Alpha virt. eigenvalues --    3.74906   3.75680   3.76528   3.78694   3.80452
 Alpha virt. eigenvalues --    3.81501   3.82391   3.83564   3.85680   3.86062
 Alpha virt. eigenvalues --    3.87509   3.90196   3.90681   3.91398   3.92476
 Alpha virt. eigenvalues --    3.94159   3.98599   4.00472   4.01189   4.03146
 Alpha virt. eigenvalues --    4.04242   4.07725   4.09047   4.11149   4.13218
 Alpha virt. eigenvalues --    4.15680   4.16267   4.17652   4.19423   4.20359
 Alpha virt. eigenvalues --    4.20659   4.22289   4.23407   4.23929   4.25626
 Alpha virt. eigenvalues --    4.28011   4.29060   4.29997   4.30601   4.31447
 Alpha virt. eigenvalues --    4.32248   4.33706   4.34254   4.34731   4.35888
 Alpha virt. eigenvalues --    4.37050   4.37408   4.38469   4.39229   4.39424
 Alpha virt. eigenvalues --    4.40640   4.41384   4.41929   4.43257   4.43730
 Alpha virt. eigenvalues --    4.44236   4.45128   4.46184   4.47091   4.47418
 Alpha virt. eigenvalues --    4.48301   4.49617   4.49891   4.50242   4.51474
 Alpha virt. eigenvalues --    4.52202   4.53292   4.53400   4.54464   4.55347
 Alpha virt. eigenvalues --    4.56166   4.56742   4.57346   4.57939   4.58613
 Alpha virt. eigenvalues --    4.58937   4.60009   4.61008   4.61507   4.62034
 Alpha virt. eigenvalues --    4.62482   4.62900   4.63312   4.64094   4.65146
 Alpha virt. eigenvalues --    4.65557   4.66399   4.67226   4.67461   4.68083
 Alpha virt. eigenvalues --    4.68875   4.70139   4.70401   4.71333   4.71790
 Alpha virt. eigenvalues --    4.72457   4.73330   4.73997   4.74695   4.75601
 Alpha virt. eigenvalues --    4.76293   4.77217   4.78304   4.79097   4.79285
 Alpha virt. eigenvalues --    4.80075   4.80510   4.81188   4.82481   4.82804
 Alpha virt. eigenvalues --    4.83278   4.84755   4.85514   4.85773   4.86734
 Alpha virt. eigenvalues --    4.87988   4.88551   4.89596   4.90571   4.91373
 Alpha virt. eigenvalues --    4.92077   4.92882   4.93969   4.94700   4.97006
 Alpha virt. eigenvalues --    4.97460   4.99045   5.00835   5.01396   5.02340
 Alpha virt. eigenvalues --    5.05425   5.07951   5.08910   5.10991   5.12739
 Alpha virt. eigenvalues --    5.13606   5.14480   5.15386   5.18553   5.19790
 Alpha virt. eigenvalues --    5.20856   5.21001   5.21802   5.23539   5.23613
 Alpha virt. eigenvalues --    5.24756   5.25215   5.27464   5.29196   5.30094
 Alpha virt. eigenvalues --    5.30720   5.33018   5.33822   5.34386   5.35756
 Alpha virt. eigenvalues --    5.37648   5.37730   5.38631   5.40281   5.40626
 Alpha virt. eigenvalues --    5.41062   5.41307   5.42171   5.43196   5.43475
 Alpha virt. eigenvalues --    5.44124   5.45440   5.45954   5.47287   5.47868
 Alpha virt. eigenvalues --    5.48715   5.49178   5.49872   5.50933   5.51963
 Alpha virt. eigenvalues --    5.52900   5.53930   5.55723   5.56541   5.57806
 Alpha virt. eigenvalues --    5.59783   5.60042   5.60829   5.61747   5.64117
 Alpha virt. eigenvalues --    5.66963   5.68767   5.71452   5.73250   5.73841
 Alpha virt. eigenvalues --    5.77051   5.77750   5.80436   5.81554   5.84725
 Alpha virt. eigenvalues --    5.86092   5.87786   5.88297   5.89014   5.90426
 Alpha virt. eigenvalues --    5.90761   5.91915   5.92313   5.93097   5.95771
 Alpha virt. eigenvalues --    5.96559   5.96754   5.97879   5.98909   6.00401
 Alpha virt. eigenvalues --    6.01053   6.02356   6.04810   6.06131   6.07685
 Alpha virt. eigenvalues --    6.08562   6.09175   6.09885   6.11924   6.13443
 Alpha virt. eigenvalues --    6.16547   6.17128   6.19942   6.20947   6.23512
 Alpha virt. eigenvalues --    6.24970   6.27489   6.31103   6.34957   6.35366
 Alpha virt. eigenvalues --    6.59157   6.67853   7.01406   7.03409   7.09098
 Alpha virt. eigenvalues --    7.17692   7.19522   7.24929   7.27908   7.28769
 Alpha virt. eigenvalues --    7.33154   7.36684   7.47354   7.57656   7.72312
 Alpha virt. eigenvalues --    7.80172   8.07492  12.03896  12.16467  12.26901
 Alpha virt. eigenvalues --   12.33733  12.51814  12.61111  12.82860  12.95876
 Alpha virt. eigenvalues --   12.97424  13.08957  13.25189  13.35586  13.41224
 Alpha virt. eigenvalues --   13.48178  13.49235  13.60104  13.62291  13.67812
 Alpha virt. eigenvalues --   13.70575  13.74801  13.95771  14.21224  14.40201
          Condensed to atoms (all electrons):
              1          2          3          4          5          6
     1  O    8.058040   0.360016  -0.103816  -0.004184   0.014639   0.009722
     2  C    0.360016   6.861213  -0.352681  -0.009424  -0.051524  -0.751364
     3  C   -0.103816  -0.352681   6.711210   0.229577   0.003766   0.343413
     4  O   -0.004184  -0.009424   0.229577   8.067528   0.240433  -0.095746
     5  H    0.014639  -0.051524   0.003766   0.240433   0.423948   0.020532
     6  C    0.009722  -0.751364   0.343413  -0.095746   0.020532   6.945917
     7  O   -0.000060   0.011114  -0.142052   0.005396  -0.000426   0.360320
     8  H    0.000004  -0.000320   0.021091  -0.000196   0.000011  -0.010416
     9  C   -0.008648   0.085714  -0.116117   0.005134  -0.001823   0.026412
    10  O   -0.007535  -0.008332   0.005302  -0.000092  -0.000012  -0.003228
    11  H    0.000369  -0.006432  -0.001252   0.000000   0.000000   0.000061
    12  C   -0.145604  -0.984357  -0.107591   0.025615   0.007749   0.228223
    13  O    0.001584  -0.073003  -0.038400  -0.001450   0.000004  -0.039067
    14  C   -0.001858   0.506829  -0.383616   0.001755   0.005126  -1.021672
    15  O   -0.000292  -0.010733   0.009321   0.000354  -0.000013  -0.020991
    16  C    0.000098   0.107855  -0.093173  -0.002223   0.000527  -0.114499
    17  C    0.000065  -0.039295   0.002949   0.000000   0.000023   0.047625
    18  O    0.000032   0.012101  -0.002650   0.000003   0.000000  -0.003730
    19  H   -0.000031  -0.006175   0.003427   0.000003   0.000000   0.004623
    20  C    0.000026   0.002238  -0.000723  -0.000028   0.000001   0.036645
    21  O    0.000000  -0.000089   0.000030   0.000000   0.000000   0.000240
    22  H    0.000000   0.000001   0.000001   0.000000   0.000000  -0.000022
    23  C   -0.000005   0.009421   0.009472   0.000109  -0.000003  -0.078752
    24  O    0.000000  -0.000262  -0.003675  -0.000149  -0.000002   0.017775
    25  H    0.000000   0.000070   0.000696   0.000004   0.000000   0.002682
    26  C    0.000083  -0.000844  -0.046239   0.000005   0.000012   0.015919
    27  O    0.000000  -0.000081   0.000252   0.000000   0.000000   0.001651
    28  C    0.000000  -0.000493  -0.000169   0.000003   0.000000  -0.003670
    29  O    0.000000   0.000008   0.000007   0.000000   0.000000  -0.000209
    30  H    0.000000   0.000000   0.000000   0.000000   0.000000   0.000006
    31  H    0.268161   0.028245  -0.017197  -0.000164  -0.001079  -0.001605
    32  H   -0.000173  -0.016682   0.000984   0.000006   0.000000  -0.002639
    33  H    0.002096   0.023990   0.000372   0.000005   0.000000   0.003411
    34  H    0.005218   0.088364  -0.065062   0.000170   0.000009  -0.013195
    35  H   -0.012124   0.340806  -0.076717   0.003115  -0.000256   0.002481
    36  H    0.000918  -0.031640   0.259481  -0.018927  -0.004854  -0.099826
    37  H   -0.000052  -0.010798  -0.082821   0.000861  -0.000153   0.352417
    38  H   -0.000008  -0.013352  -0.016516  -0.000075   0.000008   0.039073
    39  H    0.000000  -0.000009   0.000068   0.000000   0.000000   0.000876
    40  H    0.000000  -0.000239   0.001188   0.000000   0.000000  -0.001013
    41  H   -0.000001  -0.002950   0.004820   0.000005   0.000000   0.011060
    42  H    0.000000   0.000069   0.000056   0.000000   0.000000  -0.001963
    43  H    0.000000   0.000780   0.000180   0.000000   0.000000   0.003582
    44  H    0.000000   0.000062  -0.000006   0.000000   0.000000   0.000141
    45  H    0.000000  -0.000001   0.000005   0.000000   0.000000  -0.000127
              7          8          9         10         11         12
     1  O   -0.000060   0.000004  -0.008648  -0.007535   0.000369  -0.145604
     2  C    0.011114  -0.000320   0.085714  -0.008332  -0.006432  -0.984357
     3  C   -0.142052   0.021091  -0.116117   0.005302  -0.001252  -0.107591
     4  O    0.005396  -0.000196   0.005134  -0.000092   0.000000   0.025615
     5  H   -0.000426   0.000011  -0.001823  -0.000012   0.000000   0.007749
     6  C    0.360320  -0.010416   0.026412  -0.003228   0.000061   0.228223
     7  O    8.126627   0.259471   0.000298  -0.000003   0.000000   0.007041
     8  H    0.259471   0.327015  -0.000178   0.000000   0.000000  -0.002484
     9  C    0.000298  -0.000178   5.829021   0.139176  -0.025180  -0.539111
    10  O   -0.000003   0.000000   0.139176   8.115968   0.237764   0.024822
    11  H    0.000000   0.000000  -0.025180   0.237764   0.437547   0.031576
    12  C    0.007041  -0.002484  -0.539111   0.024822   0.031576   8.634158
    13  O    0.001802   0.000050  -0.029068  -0.001491  -0.000208   0.014060
    14  C   -0.056639  -0.053617  -0.116771   0.011024  -0.001975  -0.907599
    15  O    0.005512   0.010491  -0.014743   0.000030   0.000003   0.011348
    16  C   -0.008672   0.023341  -0.052647  -0.000945  -0.000178  -0.000192
    17  C    0.000524   0.002000   0.005436  -0.000043   0.000118  -0.044322
    18  O   -0.000120  -0.000030   0.000335  -0.000295   0.000001  -0.023228
    19  H   -0.000062  -0.000003   0.007280  -0.000017  -0.000003  -0.006541
    20  C    0.001034   0.001162   0.001343  -0.000059   0.000020  -0.006297
    21  O   -0.000002   0.000000   0.000315  -0.000001   0.000000  -0.000371
    22  H    0.000000   0.000000  -0.000004   0.000000   0.000000   0.000023
    23  C    0.009806   0.014406  -0.000601  -0.000008   0.000000  -0.006755
    24  O   -0.037994  -0.016260   0.000280   0.000000   0.000000   0.002002
    25  H    0.002416  -0.000927  -0.000009   0.000000   0.000000  -0.000179
    26  C   -0.009142  -0.023234   0.007064  -0.000032   0.000004  -0.003764
    27  O   -0.000097  -0.000092   0.000023   0.000000   0.000000   0.000045
    28  C    0.000243  -0.000243  -0.000788   0.000007   0.000000   0.004426
    29  O   -0.000003   0.000000  -0.000013   0.000000   0.000000   0.000041
    30  H    0.000000   0.000000   0.000000   0.000000   0.000000  -0.000001
    31  H   -0.000014   0.000000  -0.000952   0.000638  -0.000012  -0.015179
    32  H   -0.000012   0.000000   0.443555  -0.026541  -0.007379  -0.047545
    33  H    0.000003   0.000000   0.491978  -0.041508  -0.003151  -0.176740
    34  H    0.000103   0.000001   0.093210   0.001611  -0.000201   0.056041
    35  H    0.000665   0.000003  -0.004862  -0.000261  -0.000018  -0.078158
    36  H    0.005063  -0.000067   0.009715  -0.000090   0.000000   0.059216
    37  H   -0.030342  -0.004295   0.011816   0.000004   0.000000   0.065614
    38  H   -0.001342   0.000091   0.012805   0.000027   0.000000   0.052050
    39  H   -0.000351   0.000133  -0.000001   0.000000   0.000000   0.000043
    40  H   -0.000323  -0.000008   0.000109   0.000000   0.000000   0.000459
    41  H   -0.001718  -0.000102   0.000331   0.000001   0.000000   0.001751
    42  H    0.000451   0.000116  -0.000008   0.000000   0.000000  -0.000188
    43  H   -0.000013  -0.000002  -0.000184   0.000000   0.000000  -0.001498
    44  H    0.000002   0.000000  -0.000053   0.000000   0.000000   0.000237
    45  H    0.000000   0.000000   0.000004   0.000000   0.000000   0.000042
             13         14         15         16         17         18
     1  O    0.001584  -0.001858  -0.000292   0.000098   0.000065   0.000032
     2  C   -0.073003   0.506829  -0.010733   0.107855  -0.039295   0.012101
     3  C   -0.038400  -0.383616   0.009321  -0.093173   0.002949  -0.002650
     4  O   -0.001450   0.001755   0.000354  -0.002223   0.000000   0.000003
     5  H    0.000004   0.005126  -0.000013   0.000527   0.000023   0.000000
     6  C   -0.039067  -1.021672  -0.020991  -0.114499   0.047625  -0.003730
     7  O    0.001802  -0.056639   0.005512  -0.008672   0.000524  -0.000120
     8  H    0.000050  -0.053617   0.010491   0.023341   0.002000  -0.000030
     9  C   -0.029068  -0.116771  -0.014743  -0.052647   0.005436   0.000335
    10  O   -0.001491   0.011024   0.000030  -0.000945  -0.000043  -0.000295
    11  H   -0.000208  -0.001975   0.000003  -0.000178   0.000118   0.000001
    12  C    0.014060  -0.907599   0.011348  -0.000192  -0.044322  -0.023228
    13  O    7.984017   0.230139  -0.030204   0.049068   0.011111  -0.025589
    14  C    0.230139   8.085507   0.261187  -0.840836  -0.017512   0.000848
    15  O   -0.030204   0.261187   7.754547   0.232576  -0.030536  -0.010824
    16  C    0.049068  -0.840836   0.232576  11.048334  -1.763627  -0.054342
    17  C    0.011111  -0.017512  -0.030536  -1.763627   7.581665   0.278680
    18  O   -0.025589   0.000848  -0.010824  -0.054342   0.278680   8.133013
    19  H    0.021763   0.005067   0.018674  -0.084375   0.028073   0.239289
    20  C   -0.021327  -0.125689   0.038800  -1.345965  -0.042425  -0.081093
    21  O   -0.000398   0.006135   0.000280   0.070908  -0.013995   0.000673
    22  H    0.000003  -0.000505  -0.000012  -0.011115  -0.006185   0.000310
    23  C   -0.000581   0.081820  -0.000440   0.025575  -0.338814   0.015048
    24  O   -0.000886   0.057209  -0.009690   0.024311   0.006511   0.000089
    25  H   -0.000032  -0.011297   0.001630  -0.009848  -0.001403  -0.000001
    26  C   -0.020263  -0.260288  -0.134400  -2.519889   0.265082   0.022221
    27  O    0.000213   0.015761   0.001146   0.098777  -0.026677  -0.000415
    28  C    0.002552   0.013584  -0.007033   0.950977  -0.001105  -0.006994
    29  O    0.000033  -0.001631  -0.000244  -0.031362  -0.034399   0.000303
    30  H    0.000000   0.000091   0.000002   0.002638   0.011567  -0.000022
    31  H   -0.000673   0.001257  -0.000008   0.000106  -0.000032  -0.000001
    32  H   -0.007235  -0.006975  -0.000601   0.004263  -0.001302   0.000607
    33  H   -0.009240   0.007004  -0.000878  -0.003327   0.002219  -0.000085
    34  H   -0.015431   0.099771  -0.002973  -0.002779   0.005104  -0.000282
    35  H    0.009378   0.069742  -0.000305  -0.003256   0.001476   0.000038
    36  H    0.007584   0.042577   0.000851  -0.006491   0.000985   0.000062
    37  H    0.011562  -0.036386  -0.008218  -0.034451   0.003485   0.000154
    38  H   -0.030242   0.243608  -0.024787  -0.032216   0.015452  -0.002092
    39  H    0.000018   0.004150   0.000671  -0.000956   0.006494   0.000006
    40  H   -0.000664   0.048009  -0.002633   0.056684  -0.058214   0.001812
    41  H   -0.004850   0.008682  -0.014060   0.066363   0.035424   0.000865
    42  H   -0.000009  -0.003963   0.000268   0.067355  -0.008240   0.000103
    43  H   -0.000503  -0.014972  -0.001011  -0.165359   0.275969  -0.023446
    44  H    0.000075  -0.002275   0.000148   0.079176  -0.100584   0.005599
    45  H    0.000016   0.002402   0.000116   0.057509   0.011757   0.000412
             19         20         21         22         23         24
     1  O   -0.000031   0.000026   0.000000   0.000000  -0.000005   0.000000
     2  C   -0.006175   0.002238  -0.000089   0.000001   0.009421  -0.000262
     3  C    0.003427  -0.000723   0.000030   0.000001   0.009472  -0.003675
     4  O    0.000003  -0.000028   0.000000   0.000000   0.000109  -0.000149
     5  H    0.000000   0.000001   0.000000   0.000000  -0.000003  -0.000002
     6  C    0.004623   0.036645   0.000240  -0.000022  -0.078752   0.017775
     7  O   -0.000062   0.001034  -0.000002   0.000000   0.009806  -0.037994
     8  H   -0.000003   0.001162   0.000000   0.000000   0.014406  -0.016260
     9  C    0.007280   0.001343   0.000315  -0.000004  -0.000601   0.000280
    10  O   -0.000017  -0.000059  -0.000001   0.000000  -0.000008   0.000000
    11  H   -0.000003   0.000020   0.000000   0.000000   0.000000   0.000000
    12  C   -0.006541  -0.006297  -0.000371   0.000023  -0.006755   0.002002
    13  O    0.021763  -0.021327  -0.000398   0.000003  -0.000581  -0.000886
    14  C    0.005067  -0.125689   0.006135  -0.000505   0.081820   0.057209
    15  O    0.018674   0.038800   0.000280  -0.000012  -0.000440  -0.009690
    16  C   -0.084375  -1.345965   0.070908  -0.011115   0.025575   0.024311
    17  C    0.028073  -0.042425  -0.013995  -0.006185  -0.338814   0.006511
    18  O    0.239289  -0.081093   0.000673   0.000310   0.015048   0.000089
    19  H    0.360325   0.017184  -0.000305   0.000016  -0.004870   0.000032
    20  C    0.017184   7.341717   0.077226   0.010522   0.095458  -0.005775
    21  O   -0.000305   0.077226   8.099697   0.229874   0.000383   0.000021
    22  H    0.000016   0.010522   0.229874   0.438394  -0.000075   0.000000
    23  C   -0.004870   0.095458   0.000383  -0.000075   6.577692   0.047883
    24  O    0.000032  -0.005775   0.000021   0.000000   0.047883   8.239222
    25  H    0.000000   0.000952   0.000000   0.000000  -0.036780   0.245186
    26  C   -0.001360   0.820371  -0.048706   0.005463  -0.885379  -0.047394
    27  O    0.000016  -0.104157   0.002223  -0.000380  -0.091417   0.007198
    28  C    0.004160  -0.901079   0.023192  -0.002958  -0.175930   0.007555
    29  O   -0.000005  -0.023036  -0.005626   0.010406   0.016146  -0.000007
    30  H    0.000000  -0.022245  -0.000682  -0.001318  -0.000511  -0.000002
    31  H    0.000000   0.000000   0.000000   0.000000   0.000002   0.000000
    32  H    0.001217  -0.000772  -0.000004   0.000000   0.000026   0.000000
    33  H    0.000135   0.000022   0.000000   0.000000  -0.000032   0.000000
    34  H    0.000159  -0.000077  -0.000001   0.000000  -0.000060  -0.000001
    35  H   -0.000003  -0.000023   0.000000   0.000000   0.000005   0.000010
    36  H    0.000002  -0.000003   0.000000   0.000000   0.000330   0.000052
    37  H    0.000015   0.000524   0.000001   0.000000   0.000584  -0.000051
    38  H    0.000502   0.012348   0.000010   0.000000  -0.000409  -0.000059
    39  H    0.000000   0.000621  -0.000006   0.000000   0.383574  -0.019658
    40  H    0.000052  -0.032788   0.000162   0.000005   0.096495   0.004848
    41  H    0.000646   0.055614  -0.000215   0.000010   0.001091   0.001438
    42  H    0.000000  -0.000230  -0.000002   0.000000   0.590473  -0.047214
    43  H   -0.004596   0.021029  -0.000881  -0.000136   0.026134  -0.000094
    44  H   -0.000091   0.268010  -0.013958  -0.006443   0.007516   0.000006
    45  H    0.000004  -0.142664   0.000253  -0.000576  -0.002748   0.000056
             25         26         27         28         29         30
     1  O    0.000000   0.000083   0.000000   0.000000   0.000000   0.000000
     2  C    0.000070  -0.000844  -0.000081  -0.000493   0.000008   0.000000
     3  C    0.000696  -0.046239   0.000252  -0.000169   0.000007   0.000000
     4  O    0.000004   0.000005   0.000000   0.000003   0.000000   0.000000
     5  H    0.000000   0.000012   0.000000   0.000000   0.000000   0.000000
     6  C    0.002682   0.015919   0.001651  -0.003670  -0.000209   0.000006
     7  O    0.002416  -0.009142  -0.000097   0.000243  -0.000003   0.000000
     8  H   -0.000927  -0.023234  -0.000092  -0.000243   0.000000   0.000000
     9  C   -0.000009   0.007064   0.000023  -0.000788  -0.000013   0.000000
    10  O    0.000000  -0.000032   0.000000   0.000007   0.000000   0.000000
    11  H    0.000000   0.000004   0.000000   0.000000   0.000000   0.000000
    12  C   -0.000179  -0.003764   0.000045   0.004426   0.000041  -0.000001
    13  O   -0.000032  -0.020263   0.000213   0.002552   0.000033   0.000000
    14  C   -0.011297  -0.260288   0.015761   0.013584  -0.001631   0.000091
    15  O    0.001630  -0.134400   0.001146  -0.007033  -0.000244   0.000002
    16  C   -0.009848  -2.519889   0.098777   0.950977  -0.031362   0.002638
    17  C   -0.001403   0.265082  -0.026677  -0.001105  -0.034399   0.011567
    18  O   -0.000001   0.022221  -0.000415  -0.006994   0.000303  -0.000022
    19  H    0.000000  -0.001360   0.000016   0.004160  -0.000005   0.000000
    20  C    0.000952   0.820371  -0.104157  -0.901079  -0.023036  -0.022245
    21  O    0.000000  -0.048706   0.002223   0.023192  -0.005626  -0.000682
    22  H    0.000000   0.005463  -0.000380  -0.002958   0.010406  -0.001318
    23  C   -0.036780  -0.885379  -0.091417  -0.175930   0.016146  -0.000511
    24  O    0.245186  -0.047394   0.007198   0.007555  -0.000007  -0.000002
    25  H    0.414024   0.046051  -0.001123  -0.001096  -0.000004   0.000000
    26  C    0.046051  10.015354   0.058544  -0.989457  -0.007104  -0.002348
    27  O   -0.001123   0.058544   7.942700   0.235574  -0.027905   0.000280
    28  C   -0.001096  -0.989457   0.235574   6.120364   0.314705  -0.004537
    29  O   -0.000004  -0.007104  -0.027905   0.314705   8.013287   0.270020
    30  H    0.000000  -0.002348   0.000280  -0.004537   0.270020   0.410053
    31  H    0.000000  -0.000008   0.000000   0.000000   0.000000   0.000000
    32  H    0.000000   0.000258   0.000000   0.000010   0.000000   0.000000
    33  H    0.000000  -0.000093   0.000000   0.000003   0.000000   0.000000
    34  H    0.000000   0.000099   0.000000  -0.000005   0.000000   0.000000
    35  H    0.000000   0.000028   0.000000  -0.000001   0.000000   0.000000
    36  H    0.000000  -0.000351   0.000000  -0.000002   0.000000   0.000000
    37  H   -0.000003  -0.002359  -0.000003   0.000034   0.000000   0.000000
    38  H    0.000011   0.011730   0.000143  -0.000822  -0.000004   0.000000
    39  H   -0.010785  -0.020136  -0.010390  -0.002099  -0.000148  -0.000001
    40  H   -0.000262   0.093388  -0.024709   0.059280  -0.000825   0.000011
    41  H   -0.000014   0.089869   0.001879  -0.003368  -0.000299   0.000002
    42  H   -0.000977  -0.289620   0.000203   0.003775  -0.000166   0.000000
    43  H    0.000001   0.166694  -0.001150  -0.055780   0.000753   0.000013
    44  H    0.000000   0.006356  -0.000490   0.014219   0.000726  -0.000031
    45  H    0.000000  -0.035839  -0.044905   0.449624  -0.021708  -0.008923
             31         32         33         34         35         36
     1  O    0.268161  -0.000173   0.002096   0.005218  -0.012124   0.000918
     2  C    0.028245  -0.016682   0.023990   0.088364   0.340806  -0.031640
     3  C   -0.017197   0.000984   0.000372  -0.065062  -0.076717   0.259481
     4  O   -0.000164   0.000006   0.000005   0.000170   0.003115  -0.018927
     5  H   -0.001079   0.000000   0.000000   0.000009  -0.000256  -0.004854
     6  C   -0.001605  -0.002639   0.003411  -0.013195   0.002481  -0.099826
     7  O   -0.000014  -0.000012   0.000003   0.000103   0.000665   0.005063
     8  H    0.000000   0.000000   0.000000   0.000001   0.000003  -0.000067
     9  C   -0.000952   0.443555   0.491978   0.093210  -0.004862   0.009715
    10  O    0.000638  -0.026541  -0.041508   0.001611  -0.000261  -0.000090
    11  H   -0.000012  -0.007379  -0.003151  -0.000201  -0.000018   0.000000
    12  C   -0.015179  -0.047545  -0.176740   0.056041  -0.078158   0.059216
    13  O   -0.000673  -0.007235  -0.009240  -0.015431   0.009378   0.007584
    14  C    0.001257  -0.006975   0.007004   0.099771   0.069742   0.042577
    15  O   -0.000008  -0.000601  -0.000878  -0.002973  -0.000305   0.000851
    16  C    0.000106   0.004263  -0.003327  -0.002779  -0.003256  -0.006491
    17  C   -0.000032  -0.001302   0.002219   0.005104   0.001476   0.000985
    18  O   -0.000001   0.000607  -0.000085  -0.000282   0.000038   0.000062
    19  H    0.000000   0.001217   0.000135   0.000159  -0.000003   0.000002
    20  C    0.000000  -0.000772   0.000022  -0.000077  -0.000023  -0.000003
    21  O    0.000000  -0.000004   0.000000  -0.000001   0.000000   0.000000
    22  H    0.000000   0.000000   0.000000   0.000000   0.000000   0.000000
    23  C    0.000002   0.000026  -0.000032  -0.000060   0.000005   0.000330
    24  O    0.000000   0.000000   0.000000  -0.000001   0.000010   0.000052
    25  H    0.000000   0.000000   0.000000   0.000000   0.000000   0.000000
    26  C   -0.000008   0.000258  -0.000093   0.000099   0.000028  -0.000351
    27  O    0.000000   0.000000   0.000000   0.000000   0.000000   0.000000
    28  C    0.000000   0.000010   0.000003  -0.000005  -0.000001  -0.000002
    29  O    0.000000   0.000000   0.000000   0.000000   0.000000   0.000000
    30  H    0.000000   0.000000   0.000000   0.000000   0.000000   0.000000
    31  H    0.405410   0.000025  -0.000278  -0.000084  -0.012509  -0.000107
    32  H    0.000025   0.557538  -0.047668  -0.002842   0.000120   0.000005
    33  H   -0.000278  -0.047668   0.604158   0.006173   0.004502  -0.000005
    34  H   -0.000084  -0.002842   0.006173   0.613834   0.006437   0.001755
    35  H   -0.012509   0.000120   0.004502   0.006437   0.616290   0.006813
    36  H   -0.000107   0.000005  -0.000005   0.001755   0.006813   0.633736
    37  H    0.000014   0.000003  -0.000046  -0.000098   0.002805   0.007369
    38  H    0.000001  -0.000033  -0.000013   0.001804  -0.000033   0.002191
    39  H    0.000000   0.000000   0.000000   0.000000   0.000000   0.000000
    40  H    0.000000   0.000000   0.000000   0.000000   0.000000   0.000000
    41  H    0.000000  -0.000001   0.000000  -0.000004   0.000000  -0.000002
    42  H    0.000000   0.000000   0.000000   0.000000   0.000000   0.000000
    43  H    0.000000   0.000001   0.000000   0.000000   0.000000   0.000000
    44  H    0.000000   0.000000   0.000000   0.000000   0.000000   0.000000
    45  H    0.000000   0.000000   0.000000   0.000000   0.000000   0.000000
             37         38         39         40         41         42
     1  O   -0.000052  -0.000008   0.000000   0.000000  -0.000001   0.000000
[...]
 000388,-0.00000461,0.00000067,-0.00002990,-0.00001641,-0.00000817,0.00
 006138,0.00008004,-0.00000428,-0.00022843,-0.00001776,0.00002058,0.000
 27506,0.00002589,-0.00009142,0.00064555,-0.00075742,-0.00023802,0.0002
 7856,0.00001979,0.00006714,0.00005413,0.00015459,-0.00002043,-0.000026
 78,-0.00002223,-0.00000381,-0.00008466,-0.00000624,0.00003042,0.000039
 57,-0.00002173,-0.00001335,-0.00001189,0.00000851,-0.00000343,-0.35474
 275,0.02139069,-0.00349250,-0.00602294,-0.00577138,0.01280594,-0.00062
 184,0.00028713,0.00062855,-0.01219792,0.00111249,-0.00002531,0.0016055
 6,-0.00058269,-0.00023706,0.00041025,0.00013685,-0.00013474,0.00004634
 ,0.00008761,-0.00014122,0.00000498,0.00001564,-0.00000927,0.00000161,-
 0.00000250,-0.00000516,-0.00000211,0.00000222,0.00000021,0.00000533,0.
 00000011,-0.00000137,0.00000715,0.00000276,0.00000286,0.00000494,-0.00
 000076,-0.00000239,0.00001624,0.00000031,0.00000760,-0.00000505,0.0000
 1179,-0.00002748,0.00006408,0.00001571,0.00002005,-0.01227070,0.002017
 37,-0.00030753,0.00077396,0.00185598,-0.00006665,0.00046131,0.00079685
 ,0.00056139,0.38133171,0.00000266,0.00002505,0.00002589,0.00000538,-0.
 00003416,-0.00000408,-0.00001549,0.00004151,-0.00002481,0.00000071,-0.
 00000020,0.00002386,-0.00000050,0.00000291,-0.00000453,0.00004808,-0.0
 0019601,-0.00008921,0.00012016,0.00016527,0.00039660,-0.00024106,-0.00
 015562,-0.00075551,0.00000220,-0.00001279,-0.00000112,-0.00000002,0.00
 001284,0.00000138,0.00000004,-0.00000190,0.00000154,-0.00000511,-0.000
 01744,-0.00001668,-0.00005419,0.00009159,-0.00004633,0.00015454,-0.000
 19223,0.00001292,-0.00027154,0.00003932,-0.00042245,0.00121165,0.00292
 475,0.00069570,0.00043879,-0.00007180,0.00031003,-0.00029844,-0.000042
 95,-0.00020624,0.00004110,-0.00005289,0.00008248,0.00009352,0.00009016
 ,-0.00001964,-0.00005557,0.00001047,-0.00002064,0.00000402,0.00001037,
 0.00000192,0.02113622,-0.04729272,-0.00543547,-0.01745080,0.00035634,0
 .01088647,-0.00122174,0.00009887,0.00006341,0.03677591,-0.00700047,0.0
 0079422,-0.00085560,0.00205640,-0.00185291,0.00003811,0.00010945,-0.00
 020377,-0.00013211,-0.00007981,0.00011089,-0.00000240,-0.00000275,-0.0
 0001568,0.00000234,-0.00000208,-0.00000373,0.00000178,0.00000459,0.000
 00020,-0.00000090,0.00000054,0.00000224,-0.00000035,-0.00000145,-0.000
 00178,-0.00000042,0.00000061,0.00000132,0.00000214,-0.00000029,-0.0000
 0004,-0.00001897,-0.00000257,-0.00000072,-0.00004403,-0.00001078,-0.00
 005802,-0.01906218,0.00296217,-0.00122708,0.00121743,-0.00598376,0.001
 69418,-0.00071978,-0.00040022,-0.00036891,-0.02012919,0.05250360,-0.00
 000066,-0.00001534,0.00001366,-0.00000091,0.00001800,-0.00001940,0.000
 02378,-0.00001993,-0.00002653,-0.00001475,-0.00002461,0.00002506,0.000
 00069,0.00000015,-0.00000121,-0.00005453,0.00017725,0.00004087,-0.0005
 0399,-0.00027279,-0.00024395,0.00107459,0.00045352,0.00089224,0.000001
 81,-0.00001116,-0.00000843,-0.00000134,0.00001190,0.00001441,0.0000018
 1,-0.00000183,-0.00000266,-0.00000075,-0.00000815,-0.00005639,-0.00004
 925,0.00001986,0.00011117,0.00015437,-0.00002722,-0.00020125,-0.000168
 64,-0.00016853,0.00015924,0.00102029,0.00016325,-0.00008565,-0.0000716
 9,-0.00011682,0.00003110,-0.00000521,0.00010008,0.00005530,0.00001473,
 -0.00000474,-0.00004819,-0.00001926,-0.00005391,0.00007350,0.00001102,
 0.00002279,-0.00003876,-0.00000621,0.00000166,0.00000043,-0.00626306,-
 0.00490571,-0.04098650,0.03967426,0.00811208,-0.01634954,0.00040990,-0
 .00078044,-0.00042715,-0.00137154,-0.00064922,0.00159406,-0.00028415,0
 .00057031,0.00061960,-0.00029806,-0.00024156,0.00006548,0.00010049,-0.
 00003195,-0.00008648,-0.00000958,0.00000417,0.00001998,0.00000091,0.00
 000125,-0.00000249,0.00000056,-0.00000601,0.00000136,-0.00000242,0.000
 00158,0.00000167,0.00000048,-0.00000244,0.00000416,-0.00000302,0.00000
 253,0.00000258,-0.00001430,-0.00000344,-0.00000686,-0.00000876,0.00002
 471,0.00003996,-0.00004881,-0.00003380,-0.00001733,-0.02476283,0.00118
 516,0.00239499,0.00050436,0.00073408,0.00000370,-0.00008806,-0.0000794
 0,0.00014936,-0.00903349,-0.00418784,0.05237580,0.00000329,0.00003066,
 -0.00006622,-0.00002982,-0.00004188,0.00003852,-0.00001393,-0.00005505
 ,0.00002828,0.00001529,0.00005860,-0.00002496,-0.00000202,-0.00001236,
 0.00000825,0.00006357,-0.00007660,0.00002425,0.00007552,0.00015551,0.0
 0010627,-0.00008664,-0.00006932,-0.00017827,-0.00001539,-0.00000718,0.
 00014457,0.00000618,-0.00003676,-0.00010371,-0.00001816,0.00001347,0.0
 0002807,0.00000781,0.00008302,0.00013123,-0.00004393,0.00039240,-0.000
 35807,0.00018917,-0.00062357,-0.00024057,0.00195111,-0.00046983,0.0006
 6642,-0.01596696,0.00236095,-0.00037396,-0.34604403,-0.00994186,-0.014
 31875,-0.00266277,-0.00955019,-0.01183278,0.00022655,-0.00108406,0.000
 70889,-0.01767091,0.00069888,0.00281879,0.00201240,0.00058355,-0.00125
 403,0.00044733,0.00015108,-0.00022002,0.00098364,0.00032838,-0.0000292
 9,-0.00000347,-0.00006795,0.00016359,-0.00000748,0.00002112,0.00000384
 ,-0.00149296,-0.00245368,-0.00070118,0.00048832,0.00077333,0.00030468,
 -0.00139899,-0.00111477,-0.00106471,0.00081171,-0.00000346,-0.00001247
 ,-0.00001097,0.00006329,0.00019207,-0.00000608,-0.00000402,0.00000962,
 -0.00000680,0.00005951,0.00000549,0.00001657,0.00000798,-0.00002798,0.
 00000232,-0.00000939,0.00000508,0.00000717,0.00000016,-0.00000826,0.00
 001000,-0.00000065,0.00000300,0.00000193,0.00002003,-0.00003820,0.0000
 9960,0.00000366,0.00028333,-0.00001387,0.00013530,0.00000689,0.0019685
 3,-0.00012441,0.00047022,0.00028451,0.00175040,-0.00076861,0.00014400,
 -0.00047183,0.00000142,0.37436987,-0.00000163,0.00002514,-0.00007150,-
 0.00002824,-0.00004518,0.00003596,0.00002215,-0.00000493,-0.00000656,-
 0.00000439,0.00004304,-0.00003318,0.00000573,-0.00000874,0.00000246,-0
 .00015853,-0.00006855,-0.00009835,-0.00004169,0.00008352,0.00009171,0.
 00004992,-0.00001351,-0.00008376,-0.00000919,-0.00000303,0.00014275,0.
 00001065,-0.00004190,-0.00009512,-0.00002084,0.00001246,0.00002113,0.0
 0003510,0.00010740,0.00013228,0.00003933,0.00049057,-0.00037309,0.0003
 3165,-0.00012801,-0.00013440,-0.00105103,0.00178124,-0.00204641,0.0329
 4332,-0.00586578,0.00309969,-0.01236679,-0.03658962,0.00547622,-0.0307
 7498,-0.01341857,-0.02000575,-0.00046186,-0.00001173,0.00138052,-0.009
 83647,0.00090566,0.00152735,-0.00054432,0.00059587,-0.00038590,0.00007
 806,0.00006298,-0.00029653,0.00023645,0.00013341,0.00015221,-0.0000475
 5,-0.00001101,0.00003537,-0.00000011,0.00000779,-0.00001081,0.00336531
 ,-0.00050476,0.00057579,-0.00044516,-0.00018136,0.00000296,0.00051835,
 0.00012145,-0.00047983,0.00013254,-0.00011157,0.00007582,0.00002621,0.
 00006739,0.00004824,-0.00000536,-0.00000082,0.00000693,-0.00003897,0.0
 0006041,0.00001381,0.00001919,0.00001744,-0.00004190,-0.00000048,-0.00
 002240,0.00000490,0.00000232,0.00000226,-0.00000464,-0.00000115,0.0000
 0045,-0.00000163,-0.00002271,-0.00001513,0.00003620,-0.00025346,-0.000
 00240,-0.00002617,-0.00009533,0.00000501,0.00000747,-0.00040975,-0.001
 14645,-0.00053619,0.00100064,-0.00491732,0.00224068,-0.00022334,-0.000
 01834,-0.00001583,0.01830717,0.05842931,0.00000762,0.00001929,-0.00003
 899,-0.00003251,-0.00002976,0.00001778,-0.00000441,-0.00005135,0.00001
 429,0.00001133,0.00003074,-0.00000223,-0.00000178,-0.00000774,0.000006
 44,0.00001739,0.00001385,0.00006976,0.00005101,0.00004534,0.00000664,-
 0.00004818,0.00000855,-0.00001070,-0.00002659,-0.00002562,0.00011732,0
 .00002598,-0.00001030,-0.00006502,-0.00001951,0.00000514,0.00002161,-0
 .00000425,0.00007057,0.00007885,0.00015815,0.00032241,-0.00033654,-0.0
 0036507,-0.00047846,-0.00046095,-0.00005029,-0.00096477,0.00164982,-0.
 01491063,0.00405720,-0.00043479,-0.01515263,0.00594774,-0.03946506,-0.
 02799667,-0.01878602,-0.01494266,-0.00136746,-0.00062534,0.00096574,0.
 03570131,0.00316074,-0.00436457,-0.00093569,-0.00150081,0.00204965,0.0
 0002057,-0.00052700,0.00046239,0.00018253,0.00007904,-0.00007068,0.000
 00818,-0.00002287,0.00002223,0.00000083,-0.00000442,0.00000574,0.00047
 816,-0.00203825,-0.00009119,-0.00032716,-0.00009864,-0.00016017,0.0016
 5160,0.00017688,0.00094598,-0.00052829,-0.00003069,0.00015409,-0.00009
 292,-0.00008055,-0.00003863,-0.00000482,-0.00000255,0.00000269,-0.0000
 3880,0.00004593,0.00001397,0.00002713,0.00001377,-0.00004831,0.0000151
 4,-0.00001180,0.00001870,0.00000901,0.00000122,-0.00001115,0.00000917,
 0.00000038,0.00000733,0.00002414,0.00002853,-0.00003407,0.00021059,0.0
 0000179,0.00000570,0.00003427,0.00005030,-0.00000078,0.00044725,-0.000
 50383,0.00027983,-0.00061694,0.00206742,-0.00062744,0.00006450,-0.0001
 0812,-0.00002230,0.02262848,0.00817305,0.06028813,0.00000458,-0.000004
 60,-0.00000199,-0.00000119,0.00000305,0.00000300,-0.00001176,-0.000005
 46,0.00000821,0.00000899,-0.00000036,-0.00000511,-0.00000371,0.0000011
 8,0.00000176,0.00001128,0.00000226,0.00001816,0.00001882,-0.00000583,-
 0.00000977,-0.00001325,-0.00000054,0.00000455,-0.00001319,0.00000248,-
 0.00000904,0.00001552,0.00000140,0.00000550,-0.00000624,-0.00000090,-0
 .00000188,-0.00001826,-0.00000174,0.00000799,0.00003253,-0.00003992,-0
 .00000337,-0.00009031,0.00000413,0.00006880,0.00035345,-0.00004736,0.0
 0008012,-0.00037093,0.00048361,-0.00011908,-0.00947320,-0.00290994,0.0
 0079041,0.00118666,0.00061512,0.00035087,0.00005969,0.00007134,-0.0000
 9652,-0.35167463,-0.04174862,0.00982452,-0.01353018,0.00969555,-0.0030
 0537,0.00032673,0.00060451,0.00037341,-0.00006957,-0.00000699,0.000007
 41,0.00004660,0.00000884,-0.00001852,-0.00001230,-0.00000219,0.0000006
 1,-0.00011434,-0.00002843,-0.00019139,0.00117935,-0.00135648,0.0002300
 8,-0.01088036,-0.00057492,0.00208017,0.00181787,0.00055468,0.00082538,
 0.00039087,0.00036377,0.00035295,-0.00000173,0.00000155,0.00000021,-0.
 00000958,-0.00000295,0.00000003,0.00000739,0.00000129,-0.00000626,0.00
 000776,-0.00000175,0.00000518,0.00000387,0.00000067,-0.00000303,0.0000
 0570,-0.00000029,0.00000085,0.00000663,0.00000392,-0.00000713,0.000020
 38,-0.00001388,0.00002263,0.00001363,-0.00000144,0.00001635,0.00007507
 ,0.00013272,0.00001357,0.00043113,-0.00050761,0.00028770,0.00003870,-0
 .00004640,0.00000786,0.00034748,-0.00044048,0.00117564,0.37971868,0.00
 000274,0.00000001,0.00002247,0.00000291,0.00000202,-0.00001210,-0.0000
 0695,0.00000707,-0.00001215,0.00000204,-0.00001103,0.00001484,-0.00000
 151,0.00000230,-0.00000169,0.00000738,0.00001094,0.00000062,0.00001251
 ,-0.00001206,0.00001109,-0.00001037,0.00000302,-0.00002097,0.00000081,
 -0.00000723,-0.00002228,-0.00000137,0.00001459,0.00002097,0.00000496,-
 0.00000378,-0.00000370,-0.00000871,-0.00001748,-0.00003460,0.00001972,
 -0.00002466,0.00007247,-0.00003476,0.00003948,-0.00005467,0.00020437,-
 0.00002763,0.00006925,-0.00071404,0.00053425,-0.00038587,-0.00844287,-
 0.00023157,-0.00028953,0.00087070,0.00062981,0.00059842,-0.00007663,-0
 .00000456,-0.00015805,-0.04382332,-0.04647709,0.00030935,0.03955760,-0
 .01021667,0.00269262,0.00028706,0.00128394,-0.00136306,-0.00009948,0.0
 0005267,-0.00001778,0.00002391,-0.00004734,0.00001235,-0.00000581,0.00
 000385,0.00000650,-0.00008682,-0.00011262,-0.00005701,0.00167888,0.000
 97814,0.00041961,-0.02599132,-0.00147371,0.00060276,0.00151598,0.00122
 923,0.00200880,0.00010232,0.00012447,0.00039298,0.00000132,-0.00000071
 ,-0.00000326,0.00000543,-0.00000859,-0.00000038,-0.00000173,-0.0000025
 9,0.00000468,0.00000204,0.00000395,0.00000269,0.00000049,-0.00000056,0
 .00000032,0.00000075,0.00000036,0.00000098,0.00000284,0.00000150,-0.00
 000511,0.00001739,0.00000128,0.00002319,0.00000564,-0.00001952,0.00000
 446,0.00012137,0.00009223,-0.00001308,0.00018353,-0.00007182,-0.000002
 16,0.00002932,-0.00005133,0.00001732,-0.00026929,-0.00002957,0.0018557
 8,0.03590755,0.05663109,-0.00000374,-0.00000714,-0.00000421,0.00000190
 ,0.00000866,0.00000287,0.00001556,0.00001817,0.00000671,-0.00000582,-0
 .00000394,-0.00001222,0.00000204,0.00000243,-0.00000224,-0.00002016,-0
 .00002429,-0.00002498,-0.00001152,0.00000670,-0.00000066,0.00000567,-0
 .00001878,-0.00000700,0.00000820,0.00001225,-0.00001269,-0.00001285,-0
 .00001240,0.00000514,0.00000586,0.00000095,-0.00000634,0.00002291,-0.0
 0000404,0.00001408,-0.00000224,-0.00009721,0.00003829,0.00005606,0.000
 17567,0.00012684,-0.00054674,-0.00002635,-0.00041477,0.00073705,-0.001
 37818,0.00123237,0.03384942,0.00599676,-0.00083784,-0.00230512,-0.0006
 7445,0.00227997,-0.00013745,0.00020775,0.00014793,0.01338354,0.0002295
 8,-0.04445479,-0.01056674,0.00424385,0.00199381,-0.00115170,-0.0003651
 3,0.00057205,-0.00000229,0.00000838,0.00006446,-0.00001446,-0.00003629
 ,0.00003852,-0.00000500,-0.00000073,0.00000671,0.00047315,0.00010937,-
 0.00057271,0.00120242,-0.00008476,0.00060898,-0.02292498,-0.00522252,-
 0.00099904,0.00021944,0.00089273,0.00221442,-0.00000816,0.00014921,0.0
 0042344,0.00000029,0.00000170,-0.00000025,0.00000687,-0.00000285,0.000
 00174,-0.00000613,-0.00000156,0.00000771,-0.00000838,0.00000239,-0.000
 00984,-0.00000327,-0.00000128,0.00000354,-0.00000361,0.00000064,-0.000
 00143,-0.00000366,-0.00000510,0.00000944,-0.00003461,0.00000509,-0.000
 05743,-0.00000480,0.00003595,0.00000868,-0.00022468,-0.00002443,-0.000
 09216,-0.00050203,0.00041180,-0.00007264,-0.00001591,0.00003474,0.0000
 0317,0.00230562,0.00154820,-0.00554765,-0.01247287,-0.00376005,0.04594
 987,0.00000264,-0.00000876,-0.00001478,-0.00000642,0.00000865,0.000007
 18,0.00000049,-0.00000348,0.00001474,0.00000658,0.00000058,-0.00001693
 ,-0.00000248,0.00000150,0.00000187,-0.00002310,0.00002170,0.00000890,0
 .00000692,-0.00003083,-0.00006976,0.00000122,0.00001975,0.00009186,-0.
 00001121,0.00000904,-0.00000114,0.00000808,-0.00000895,-0.00000224,-0.
 00000396,0.00000053,-0.00000136,0.00000085,0.00000547,0.00002043,0.000
 01748,-0.00005555,-0.00004497,0.00001547,0.00005742,0.00007805,0.00000
 201,-0.00003546,-0.00020449,0.00014080,0.00029741,0.00015507,-0.000973
 02,-0.00038445,0.00062966,0.00053124,0.00013352,0.00008439,-0.00003668
 ,-0.00001054,-0.00009296,-0.01192594,0.00224567,-0.00275862,0.00287189
 ,0.00063874,0.00168916,-0.00046630,-0.00026331,-0.00005671,0.00035800,
 -0.00018294,-0.00015716,0.00002462,0.00024753,-0.00019387,-0.00000941,
 -0.00000573,-0.00002693,-0.00006020,-0.00000911,0.00034274,-0.00079415
 ,0.00993292,-0.00394765,-0.34560527,0.01517865,-0.05511771,-0.01591197
 ,-0.00165688,0.00672088,0.00059550,0.00011045,0.00060832,-0.00000278,0
 .00000203,0.00000162,-0.00000420,-0.00000085,0.00000103,0.00000495,0.0
 0000065,-0.00000427,0.00000218,-0.00000098,-0.00000084,0.00000306,-0.0
 0000044,-0.00000211,0.00000316,0.00000046,0.00000065,0.00000683,-0.000
 00305,-0.00000208,0.00000666,-0.00000398,-0.00000165,-0.00001018,-0.00
 003795,-0.00000896,0.00005435,0.00039155,-0.00117138,0.00001928,-0.000
 17015,0.00015384,0.00004925,-0.00019818,0.00008194,0.00096129,0.000159
 72,-0.00043537,0.00016536,-0.00099657,-0.00129708,0.36998710,0.0000023
 3,0.00001690,0.00001810,0.00000222,-0.00002028,-0.00000806,-0.00001023
 ,0.00000567,-0.00001817,-0.00000165,0.00000444,0.00001942,0.00000056,-
 0.00000173,-0.00000205,0.00002472,-0.00006281,-0.00002322,0.00001432,0
 .00008137,0.00014070,-0.00002687,-0.00005574,-0.00020343,0.00000200,-0
 .00001828,0.00001258,0.00000368,0.00001580,-0.00000315,-0.00000323,-0.
 00000093,0.00000441,-0.00001233,0.00000663,-0.00001529,-0.00000780,0.0
 0014605,0.00003458,-0.00009673,-0.00007820,-0.00014940,0.00009786,0.00
 030810,0.00030225,-0.00040358,-0.00080573,0.00018145,-0.00108261,-0.00
 024617,0.00140444,0.00045580,0.00008790,-0.00054246,0.00010185,-0.0001
 8536,0.00007708,-0.02232620,0.00062835,-0.00693794,0.00028015,0.002690
 96,0.00071417,-0.00044574,-0.00021102,0.00000266,0.00003396,0.00036348
 ,-0.00004583,-0.00024680,-0.00042172,0.00038253,0.00000230,0.00001822,
 0.00005065,0.00321216,0.00075691,-0.00427567,0.03509539,-0.02029291,0.
 01608963,0.01680139,-0.04010013,0.00061009,-0.00398658,0.00435868,0.00
 191833,-0.00037515,0.00030622,-0.00043662,0.00000153,-0.00000287,-0.00
 000222,-0.00000071,0.00000710,0.00000062,0.00000104,0.00000189,-0.0000
 0176,0.00000319,-0.00000129,0.00000444,0.,0.00000118,0.,0.00000093,-0.
 00000118,0.00000076,-0.00000574,0.00000779,-0.00000221,0.00000412,-0.0
 0000196,0.00000871,0.00003236,0.00001764,-0.00002000,-0.00130109,0.000
 30448,0.00038538,0.00001400,-0.00007890,-0.00004631,-0.00023816,0.0001
 1779,0.00004104,0.00048966,0.00020787,-0.00026672,-0.00071055,-0.00279
 408,-0.00235148,-0.02539579,0.05491986,-0.00000181,-0.00000632,-0.0000
 3352,-0.00000698,0.00000630,0.00001936,0.00000590,-0.00000634,0.000025
 39,0.00000275,0.00001232,-0.00002994,0.,-0.00000107,0.00000285,-0.0000
 2044,-0.00000697,-0.00000423,0.00000489,-0.00000037,-0.00005111,-0.000
 00245,0.00000256,0.00006382,-0.00000655,0.00001681,0.00001768,0.000001
 56,-0.00002171,-0.00002036,-0.00000311,0.00000361,0.00000307,0.0000124
 1,0.00001849,0.00004821,-0.00000109,-0.00004122,-0.00010033,0.00007386
 ,0.00004003,0.00012576,0.00004340,0.00000807,-0.00034637,0.00004708,-0
 .00018641,-0.00003124,-0.00178631,0.00019133,0.00152319,0.00059802,-0.
 00010349,-0.00023324,0.00003572,-0.00003654,0.00004501,-0.02419130,-0.
 00029245,-0.00192011,0.00202171,0.00177536,0.00137681,0.00005316,-0.00
 025747,-0.00006302,-0.00005184,-0.00005256,0.00015224,0.00012095,0.000
 14686,-0.00017403,-0.00000837,-0.00001367,-0.00000892,-0.00170501,-0.0
 0029657,0.00305819,-0.01138301,0.01042845,-0.00159677,-0.06235640,-0.0
 0159829,-0.05705436,0.04021629,0.00061371,-0.01063814,0.00231697,-0.00
 009136,0.00363563,-0.00000248,0.00000155,0.00000457,-0.00000237,0.0000
 0497,-0.00000044,0.00000298,0.00000003,-0.00000464,-0.00000140,-0.0000
 0181,-0.00000328,0.00000160,-0.00000058,-0.00000221,0.00000177,0.00000
 042,-0.00000034,0.00000332,-0.00000134,-0.00000206,0.00000257,-0.00000
 707,0.00000386,-0.00000899,-0.00002421,-0.00000187,0.00083036,-0.00009
 911,-0.00020990,0.00014256,0.00002388,0.00008666,0.00013879,-0.0000646
 5,-0.00006177,0.00053517,-0.00008416,-0.00043081,-0.00061255,-0.002947
 00,-0.00262986,0.05493868,-0.00705202,0.06546058\\0.00412959,-0.017279
 78,0.00140794,-0.00198043,0.01958080,0.00595737,0.01477608,-0.02368932
 ,0.00710428,0.00512146,0.01953640,0.02244307,-0.01088196,-0.00813172,-
 0.02750285,-0.00781387,-0.01391549,-0.02692360,0.00699305,0.00614985,0
 .01423560,0.00750729,0.00680629,0.01895940,-0.00284513,0.01237962,0.01
 342913,-0.00577380,0.01715085,-0.00140427,0.01450676,-0.03090162,0.003
 93412,0.00076618,-0.00530198,-0.01353571,0.00549084,0.00186590,0.00683
 063,-0.04764493,0.02549969,0.00061136,0.02381313,-0.02288669,-0.003410
 35,-0.01707910,0.01253393,-0.02291348,0.00447255,0.01255798,0.03679739
 ,0.00168291,-0.00302645,-0.00447319,0.01113585,0.01125786,-0.02154000,
 -0.02344382,0.01655817,0.02849844,0.02046538,0.00037809,-0.04066644,-0
 .01165548,-0.00251992,0.02692345,-0.00484135,0.00459614,0.01757082,-0.
 00502409,-0.03932931,-0.02047062,-0.00319847,0.02987302,0.01767035,0.0
 0411832,-0.05037914,-0.00199493,0.00403497,0.03679932,0.00769843,0.036
 36898,-0.00993571,-0.01865717,-0.00953594,0.00031206,0.01121427,-0.001
 32367,-0.00365963,-0.00200006,-0.00001884,0.00071071,0.00012401,0.0022
 6164,0.00272066,-0.01813437,-0.02147964,-0.00350642,0.00134184,0.02127
 224,0.00142185,0.00267375,-0.02008504,-0.00108671,0.00078011,0.0241760
 0,0.00030896,0.00044672,-0.02158058,0.00463372,0.00031112,0.01733093,-
 0.00030250,-0.00482501,-0.00647276,-0.00656633,-0.01378862,-0.02061222
 ,0.00203115,0.00372979,0.01686199,-0.00174162,0.00370185,0.01946665,-0
 .00065942,-0.00258519,-0.02240779,-0.00255909,-0.00385936,0.01820220,0
 .00060380,-0.00421110,-0.01925608,0.00111204,-0.00149894\\\@


 TOM, TOM, THE BURGLAR'S SON
 STOLE A MACHINE AND AWAY HE RUN
 THE JOB WAS NEAT, BUT TOM GOT BEAT
 BY THE TIME HE GOT HOME IT WAS OBSOLETE.
 Job cpu time:  3 days 21 hours 18 minutes 36.5 seconds.
 File lengths (MBytes):  RWF=   2348 Int=      0 D2E=      0 Chk=     43 Scr=      1
 Normal termination of Gaussian 09 at Fri Feb 12 11:14:49 2016.
Gaussian '09 finished on node017 at Fri Feb 12 11:14:49 EST 2016.
