Gaussian '09 started on node021 at Tue Mar  1 03:38:17 EST 2016.
 Entering Gaussian System, Link 0=/usr/local/gaussian/g09/g09
 Initial command:
 /usr/local/gaussian/g09/l1.exe /home/srmcgrat/thesis/gaussian/cellobiose/550/5000/2/gdp/gaussian21404/Gau-21440.inp -scrdir=/home/srmcgrat/thesis/gaussian/cellobiose/550/5000/2/gdp/gaussian21404/
 Entering Link 1 = /usr/local/gaussian/g09/l1.exe PID=     21442.
  
 Copyright (c) 1988,1990,1992,1993,1995,1998,2003,2009,2010,
            Gaussian, Inc.  All Rights Reserved.
  
 This is part of the Gaussian(R) 09 program.  It is based on
 the Gaussian(R) 03 system (copyright 2003, Gaussian, Inc.),
 the Gaussian(R) 98 system (copyright 1998, Gaussian, Inc.),
 the Gaussian(R) 94 system (copyright 1995, Gaussian, Inc.),
 the Gaussian 92(TM) system (copyright 1992, Gaussian, Inc.),
 the Gaussian 90(TM) system (copyright 1990, Gaussian, Inc.),
 the Gaussian 88(TM) system (copyright 1988, Gaussian, Inc.),
 the Gaussian 86(TM) system (copyright 1986, Carnegie Mellon
 University), and the Gaussian 82(TM) system (copyright 1983,
 Carnegie Mellon University). Gaussian is a federally registered
 trademark of Gaussian, Inc.
  
 This software contains proprietary and confidential information,
 including trade secrets, belonging to Gaussian, Inc.
  
 This software is provided under written license and may be
 used, copied, transmitted, or stored only in accord with that
 written license.
  
 The following legend is applicable only to US Government
 contracts under FAR:
  
                    RESTRICTED RIGHTS LEGEND
  
 Use, reproduction and disclosure by the US Government is
 subject to restrictions as set forth in subparagraphs (a)
 and (c) of the Commercial Computer Software - Restricted
 Rights clause in FAR 52.227-19.
  
 Gaussian, Inc.
 340 Quinnipiac St., Bldg. 40, Wallingford CT 06492
  
  
 ---------------------------------------------------------------
 Warning -- This program may not be used in any manner that
 competes with the business of Gaussian, Inc. or will provide
 assistance to any competitor of Gaussian, Inc.  The licensee
 of this program is prohibited from giving any competitor of
 Gaussian, Inc. access to this program.  By using this program,
 the user acknowledges that Gaussian, Inc. is engaged in the
 business of creating and licensing software in the field of
 computational chemistry and represents and warrants to the
 licensee that it is not a competitor of Gaussian, Inc. and that
 it will not use this program in any manner prohibited above.
 ---------------------------------------------------------------
  

 Cite this work as:
 Gaussian 09, Revision B.01,
 M. J. Frisch, G. W. Trucks, H. B. Schlegel, G. E. Scuseria, 
 M. A. Robb, J. R. Cheeseman, G. Scalmani, V. Barone, B. Mennucci, 
 G. A. Petersson, H. Nakatsuji, M. Caricato, X. Li, H. P. Hratchian, 
 A. F. Izmaylov, J. Bloino, G. Zheng, J. L. Sonnenberg, M. Hada, 
 M. Ehara, K. Toyota, R. Fukuda, J. Hasegawa, M. Ishida, T. Nakajima, 
 Y. Honda, O. Kitao, H. Nakai, T. Vreven, J. A. Montgomery, Jr., 
 J. E. Peralta, F. Ogliaro, M. Bearpark, J. J. Heyd, E. Brothers, 
 K. N. Kudin, V. N. Staroverov, T. Keith, R. Kobayashi, J. Normand, 
 K. Raghavachari, A. Rendell, J. C. Burant, S. S. Iyengar, J. Tomasi, 
 M. Cossi, N. Rega, J. M. Millam, M. Klene, J. E. Knox, J. B. Cross, 
 V. Bakken, C. Adamo, J. Jaramillo, R. Gomperts, R. E. Stratmann, 
 O. Yazyev, A. J. Austin, R. Cammi, C. Pomelli, J. W. Ochterski, 
 R. L. Martin, K. Morokuma, V. G. Zakrzewski, G. A. Voth, 
 P. Salvador, J. J. Dannenberg, S. Dapprich, A. D. Daniels, 
 O. Farkas, J. B. Foresman, J. V. Ortiz, J. Cioslowski, 
 and D. J. Fox, Gaussian, Inc., Wallingford CT, 2010.
 
 ******************************************
 Gaussian 09:  EM64L-G09RevB.01 12-Aug-2010
                 1-Mar-2016 
 ******************************************
 ------------------------------------------------
 # freq=raman b3lyp/6-31+g(d,p) geom=connectivity
 ------------------------------------------------
 1/10=4,30=1,38=1,57=2/1,3;
 2/12=2,17=6,18=5,40=1/2;
 3/5=1,6=6,7=111,11=2,16=1,25=1,30=1,71=2,74=-5/1,2,3;
 4//1;
 5/5=2,38=5,98=1/2;
 8/6=4,10=90,11=11/1;
 10/13=10,15=4/2;
 11/6=3,8=1,9=11,15=111,16=1/1,2,10;
 10/6=1/2;
 6/7=2,8=2,9=2,10=2,18=1,28=1/1;
 7/8=1,10=1,25=1/1,2,3,16;
 1/10=4,30=1/3;
 99//99;
 ------------
 550 5000.com
 ------------
 Symbolic Z-matrix:
 Charge =  0 Multiplicity = 1
 O                     9.372     6.956     21.457 
 C                     10.32     6.918     22.534 
 C                     10.14     8.215     23.307 
 O                     10.274    9.378     22.478 
 H                     10.006    8.93      21.625 
 C                     10.888    8.445     24.61 
 O                     10.94     9.638     25.406 
 H                     11.045    10.43     24.805 
 C                     9.629     4.52      22.988 
 O                     9.039     3.591     23.909 
 H                     8.999     2.689     23.479 
 C                     9.924     5.889     23.58 
 O                     10.717    6.014     24.769 
 C                     10.522    7.249     25.474 
 O                     11.184    7.204     26.746 
 C                     10.423    7.473     27.933 
 C                     9.642     6.215     28.276 
 O                     8.358     6.154     27.64 
 H                     8.497     6.603     26.757 
 C                     9.253     6.083     29.74 
 O                     8.791     4.731     29.875 
 H                     7.834     4.809     29.596 
 C                     11.858    9.142     28.784 
 O                     10.979    10.251    28.544 
 H                     11.407    10.715    27.768 
 C                     11.295    7.776     29.14 
 O                     10.638    7.955     30.404 
 C                     10.33     6.582     30.689 
 O                     9.617     6.535     31.933 
 H                     10.24336   6.50753   32.65999 
 H                     11.19664   5.95445   30.69145 
 H                     8.40189   6.7134    29.89204 
 H                     10.21591   5.35902   27.98821 
 H                     9.74793   8.28444   27.75768 
 H                     12.08387   7.05797   29.2238 
 H                     12.45362   9.01685   27.90396 
 H                     12.51507   9.42796   29.5786 
 H                     9.84022   6.98555   20.61945 
 H                     10.54558   4.10269   22.62658 
 H                     8.96282   4.64545   22.16013 
 H                     8.95879   6.22055   23.90147 
 H                     11.3255   6.78688   22.19241 
 H                     9.10939   8.20429   23.59445 
 H                     11.91144   8.28538   24.34169 
 H                     9.47417   7.3268    25.67622 
 

 GradGradGradGradGradGradGradGradGradGradGradGradGradGradGradGradGradGrad
 Berny optimization.
 Initialization pass.
 Trust Radius=3.00D-01 FncErr=1.00D-07 GrdErr=1.00D-07
 Number of steps in this run=      2 maximum allowed number of steps=      2.
 GradGradGradGradGradGradGradGradGradGradGradGradGradGradGradGradGradGrad

                          Input orientation:                          
 ---------------------------------------------------------------------
 Center     Atomic      Atomic             Coordinates (Angstroms)
 Number     Number       Type             X           Y           Z
 ---------------------------------------------------------------------
      1          8           0        9.372000    6.956000   21.457000
      2          6           0       10.320000    6.918000   22.534000
      3          6           0       10.140000    8.215000   23.307000
      4          8           0       10.274000    9.378000   22.478000
      5          1           0       10.006000    8.930000   21.625000
      6          6           0       10.888000    8.445000   24.610000
      7          8           0       10.940000    9.638000   25.406000
      8          1           0       11.045000   10.430000   24.805000
      9          6           0        9.629000    4.520000   22.988000
     10          8           0        9.039000    3.591000   23.909000
     11          1           0        8.999000    2.689000   23.479000
     12          6           0        9.924000    5.889000   23.580000
     13          8           0       10.717000    6.014000   24.769000
     14          6           0       10.522000    7.249000   25.474000
     15          8           0       11.184000    7.204000   26.746000
     16          6           0       10.423000    7.473000   27.933000
     17          6           0        9.642000    6.215000   28.276000
     18          8           0        8.358000    6.154000   27.640000
     19          1           0        8.497000    6.603000   26.757000
     20          6           0        9.253000    6.083000   29.740000
     21          8           0        8.791000    4.731000   29.875000
     22          1           0        7.834000    4.809000   29.596000
     23          6           0       11.858000    9.142000   28.784000
     24          8           0       10.979000   10.251000   28.544000
     25          1           0       11.407000   10.715000   27.768000
     26          6           0       11.295000    7.776000   29.140000
     27          8           0       10.638000    7.955000   30.404000
     28          6           0       10.330000    6.582000   30.689000
     29          8           0        9.617000    6.535000   31.933000
     30          1           0       10.243360    6.507533   32.659993
     31          1           0       11.196642    5.954445   30.691448
     32          1           0        8.401895    6.713400   29.892041
     33          1           0       10.215905    5.359017   27.988206
     34          1           0        9.747926    8.284442   27.757678
     35          1           0       12.083869    7.057973   29.223805
     36          1           0       12.453622    9.016850   27.903959
     37          1           0       12.515066    9.427962   29.578600
     38          1           0        9.840221    6.985552   20.619446
     39          1           0       10.545582    4.102686   22.626578
     40          1           0        8.962821    4.645455   22.160131
     41          1           0        8.958790    6.220551   23.901470
     42          1           0       11.325496    6.786877   22.192410
     43          1           0        9.109389    8.204287   23.594449
     44          1           0       11.911442    8.285383   24.341694
     45          1           0        9.474166    7.326799   25.676217
 ---------------------------------------------------------------------
                    Distance matrix (angstroms):
                    1          2          3          4          5
     1  O    0.000000
     2  C    1.435297   0.000000
     3  C    2.365884   1.520572   0.000000
     4  O    2.778872   2.461067   1.434492   0.000000
     5  H    2.080110   2.230027   1.832568   1.000068   0.000000
     6  C    3.802208   2.638964   1.519938   2.406846   3.150139
     7  O    5.024575   4.003896   2.659084   3.014024   3.958482
     8  H    5.106536   4.244668   2.822987   2.667597   3.666323
     9  C    2.888617   2.536533   3.743782   4.927097   4.631198
    10  O    4.176891   3.821062   4.791240   6.087886   5.886991
    11  H    4.736550   4.530177   5.645187   6.882612   6.587977
    12  C    2.439328   1.519794   2.351906   3.675599   3.616135
    13  O    3.696719   2.443369   2.704584   4.094072   4.346644
    14  C    4.188632   2.965462   2.403117   3.683770   4.231645
    15  O    5.596282   4.309204   3.733467   4.875469   5.530949
    16  C    6.581069   5.428428   4.693669   5.779987   6.487496
    17  C    6.864455   5.824471   5.379495   6.634817   7.193019
    18  O    6.316715   5.523077   5.118411   6.380555   6.826588
    19  H    5.383329   4.610454   4.147348   5.400759   5.833475
    20  C    8.329729   7.332268   6.834887   8.039659   8.632824
    21  O    8.726449   7.810960   7.556235   8.860559   9.336505
    22  H    8.556774   7.778170   7.514652   8.803141   9.232392
    23  C    8.040132   6.809855   5.814498   6.506181   7.397711
    24  O    7.979038   6.903859   5.681143   6.168915   7.110860
    25  H    7.622337   6.556945   5.268378   5.572733   6.548700
    26  C    7.962337   6.732461   5.962435   6.927560   7.711580
    27  O    9.091181   7.944394   7.119200   8.060949   8.855557
    28  C    9.289105   8.161925   7.562851   8.674173   9.368787
    29  O   10.487318   9.433032   8.803625   9.895015  10.589722
    30  H   11.245775  10.134599   9.508134  10.578918  11.300255
    31  H    9.466122   8.260805   7.794657   8.946101   9.616238
    32  H    8.494108   7.606691   6.974136   8.097708   8.708067
    33  H    6.776370   5.673591   5.484168   6.820409   7.299752
    34  H    6.450164   5.429663   4.468453   5.417344   6.171959
    35  H    8.227265   6.919850   6.334502   7.359622   8.097151
    36  H    7.436853   6.147680   5.208439   5.858516   6.739712
    37  H    9.052616   7.793884   6.815071   7.446033   8.354827
    38  H    0.960000   1.974909   2.970582   3.060424   2.195336
    39  H    3.299486   2.825854   4.187911   5.284390   4.959563
    40  H    2.449580   2.673233   3.929722   4.921099   4.442062
    41  H    2.585936   2.051659   2.393006   3.704798   3.690539
    42  H    2.094177   1.070000   2.165005   2.810894   2.579923
    43  H    2.489152   2.060259   1.070000   1.995089   2.282389
    44  H    4.066631   2.769509   2.052694   2.710791   3.380336
    45  H    4.236711   3.279646   2.616376   3.882751   4.389244
                    6          7          8          9         10
     6  C    0.000000
     7  O    1.435120   0.000000
     8  H    2.000725   0.999745   0.000000
     9  C    4.429626   5.810281   6.343079   0.000000
    10  O    5.241328   6.513142   7.183229   1.435055   0.000000
    11  H    6.162712   7.467892   8.115878   1.997634   1.000052
    12  C    2.919475   4.292031   4.835075   1.520411   2.484405
    13  O    2.442188   3.686309   4.428311   2.566660   3.070214
    14  C    1.520154   2.426246   3.292393   3.798037   4.246113
    15  O    2.488010   2.789174   3.767476   4.872827   5.069848
    16  C    3.493328   3.367528   4.349151   5.814092   5.760031
    17  C    4.468218   4.651734   5.637595   5.553030   5.130270
    18  O    4.564042   4.878087   5.791491   5.091807   4.577455
    19  H    3.703978   4.123673   4.994851   4.452603   4.180552
    20  C    5.879555   5.853849   6.816297   6.940738   6.344795
    21  O    6.775797   6.976304   7.953868   6.941004   6.079002
    22  H    6.885318   7.107924   8.053561   6.853555   5.939488
    23  C    4.341542   3.535481   4.260558   7.741120   7.907338
    24  O    4.329697   3.197551   3.743864   8.095431   8.342807
    25  H    3.923675   2.637624   2.998606   8.024195   8.441012
    26  C    4.597185   4.187580   5.089051   7.157108   7.068743
    27  O    5.820055   5.282395   6.135151   8.234948   7.986634
    28  C    6.382505   6.133623   7.066809   8.003040   7.522045
    29  O    7.673974   7.347154   8.247339   9.169154   8.566551
    30  H    8.304922   7.931302   8.816422   9.893189   9.302501
    31  H    6.578916   6.447511   7.396205   7.991135   7.499526
    32  H    6.089262   5.926198   6.832065   7.347283   6.778795
    33  H    4.624639   5.049931   6.044425   5.103966   4.599012
    34  H    3.351630   2.963705   3.873516   6.077416   6.110916
    35  H    4.963984   4.747695   5.654702   7.166098   7.038344
    36  H    3.691659   2.986081   3.685750   7.236491   7.553753
    37  H    5.319826   4.464924   5.094353   8.709391   8.848589
    38  H    4.376340   5.581764   5.552889   3.425435   4.794382
    39  H    4.786116   6.206485   6.710428   1.070000   2.043580
    40  H    4.913727   6.274584   6.692665   1.070000   2.043580
    41  H    3.028538   4.227027   4.784151   2.043400   2.630785
    42  H    2.964037   4.313313   4.491843   2.941053   4.288167
    43  H    2.062217   2.947606   3.188388   3.769847   4.624534
    44  H    1.070000   1.976366   2.358974   4.606532   5.520451
    45  H    2.094306   2.750152   3.585581   3.889551   4.155553
                   11         12         13         14         15
    11  H    0.000000
    12  C    3.332540   0.000000
    13  O    3.958693   1.434641   0.000000
    14  C    5.205108   2.407164   1.435366   0.000000
    15  O    5.986045   3.652449   2.354298   1.434661   0.000000
    16  C    6.689735   4.659041   3.496572   2.471165   1.435427
    17  C    5.988099   4.715741   3.673564   3.113641   2.386794
    18  O    5.452617   4.359608   3.718484   3.251688   3.144521
    19  H    5.129979   3.555201   3.037674   2.482746   2.753414
    20  C    7.126280   6.199474   5.182557   4.600943   3.734895
    21  O    6.717280   6.500129   5.605961   5.357750   4.651109
    22  H    6.577941   6.459625   5.750099   5.492707   5.008096
    23  C    8.829389   6.434593   5.215984   4.040352   2.891983
    24  O    9.314423   6.691888   5.680796   4.318073   3.543873
    25  H    9.413324   6.559642   5.618674   4.249567   3.663514
    26  C    7.949598   6.029429   4.748091   3.783492   2.463887
    27  O    8.852836   7.165551   5.960449   4.981646   3.774001
    28  C    8.301272   7.154227   5.959765   5.260986   4.082089
    29  O    9.308263   8.383566   7.266659   6.561060   5.459672
    30  H   10.020991   9.106638   7.920586   7.229517   6.028697
    31  H    8.216579   7.224721   5.942137   5.417820   4.138612
    32  H    7.594697   6.545097   5.665194   4.929584   4.228282
    33  H    5.379850   4.449536   3.323159   3.160216   2.425747
    34  H    7.083568   4.818935   3.876365   2.624217   2.062318
    35  H    7.849021   6.155003   4.775301   4.066567   2.640190
    36  H    8.459099   5.905849   4.675567   3.572276   2.497846
    37  H    9.745843   7.431089   6.166071   5.056474   3.839449
    38  H    5.229250   3.158215   4.351029   4.909269   6.275996
    39  H    2.262089   2.118088   2.876192   4.243544   5.195707
    40  H    2.359754   2.118088   3.428740   4.493463   5.701753
    41  H    3.556958   1.070000   1.971440   2.444214   3.743004
    42  H    4.884720   2.166975   2.757974   3.409985   4.574844
    43  H    5.517600   2.454456   2.959956   2.537864   3.903441
    44  H    6.367579   3.205114   2.601627   2.070448   2.734821
    45  H    5.153904   2.581423   2.022652   1.070000   2.020655
                   16         17         18         19         20
    16  C    0.000000
    17  C    1.519926   0.000000
    18  O    2.467759   1.434180   0.000000
    19  H    2.418543   1.941373   1.000305   0.000000
    20  C    2.562469   1.520540   2.283871   3.120933   0.000000
    21  O    3.735419   2.341636   2.684705   3.648663   1.435121
    22  H    4.070060   2.643501   2.430954   3.423146   1.912426
    23  C    2.359870   3.706218   4.742033   4.674566   4.130066
    24  O    2.898231   4.260128   4.946945   4.760420   4.667089
    25  H    3.392056   4.860380   5.487760   5.137973   5.475758
    26  C    1.519553   2.432206   3.675167   3.857904   2.719561
    27  O    2.526735   2.923696   4.010199   4.439864   2.421468
    28  C    2.897942   2.535863   3.656278   4.338312   1.519714
    29  O    4.186822   3.671059   4.489999   5.296225   2.268490
    30  H    4.827925   4.434705   5.374002   6.156640   3.112459
    31  H    3.242463   2.884301   4.172415   4.815451   2.167839
    32  H    2.915424   2.097105   2.320893   3.138425   1.070000
    33  H    2.124821   1.070000   2.050624   2.453161   2.126057
    34  H    1.070000   2.135993   2.546473   2.322373   3.003481
    35  H    2.144041   2.751666   4.148217   4.376958   3.038232
    36  H    2.551027   3.986727   5.003969   4.774625   4.714075
    37  H    3.302517   4.502711   5.635441   5.664512   4.675029
    38  H    7.352911   7.697782   7.223339   6.294454   9.183895
    39  H    6.287461   6.098714   5.841901   5.244869   7.496212
    40  H    6.591900   6.350481   5.715809   5.017985   7.720437
    41  H    4.468308   4.427563   3.787081   2.917802   5.847556
    42  H    5.851465   6.338081   6.235608   5.373052   7.858549
    43  H    4.591664   5.114475   4.597254   3.597342   6.502944
    44  H    3.971512   4.991554   5.296090   4.508052   6.407770
    45  H    2.452494   2.832514   2.545138   1.626908   4.255618
                   21         22         23         24         25
    21  O    0.000000
    22  H    0.999887   0.000000
    23  C    5.482125   5.968820   0.000000
    24  O    6.085171   6.372840   1.435313   0.000000
    25  H    6.862300   7.140641   1.926132   1.000328   0.000000
    26  C    4.010270   4.581435   1.519757   2.565287   3.245404
    27  O    3.753056   4.290990   2.349844   2.974474   3.893258
    28  C    2.541125   3.250876   3.537995   4.299277   5.174346
    29  O    2.858681   3.408773   4.662052   5.210472   6.166338
    30  H    3.608546   4.251833   4.956894   5.612140   6.556557
    31  H    2.819667   3.717447   3.773096   4.808252   5.590499
    32  H    2.020297   2.009200   4.366980   4.579662   5.436452
    33  H    2.446375   2.925917   4.200087   4.982241   5.491244
    34  H    4.245670   4.372784   2.498230   2.449734   2.942830
    35  H    4.084342   4.822634   2.141871   3.446489   3.993916
    36  H    5.972295   6.473786   1.070000   2.026645   1.999404
    37  H    6.001498   6.576283   1.070000   2.026645   2.482449
    38  H    9.583796   9.452027   8.682260   8.646301   8.213733
    39  H    7.484181   7.511618   8.064179   8.544326   8.420152
    40  H    7.717256   7.522840   8.513320   8.731603   8.617516
    41  H    6.158731   5.973717   6.385874   6.471387   6.414348
    42  H    8.347005   8.421145   7.019916   7.243128   6.820850
    43  H    7.184039   7.012361   5.946898   5.672965   5.385278
    44  H    7.279304   7.504566   4.524459   4.732069   4.230493
    45  H    4.983439   4.939044   4.316936   4.363445   4.426207
                   26         27         28         29         30
    26  C    0.000000
    27  O    1.435753   0.000000
    28  C    2.180886   1.435694   0.000000
    29  O    3.486634   2.323076   1.434613   0.000000
    30  H    3.886555   2.709318   1.974301   0.960000   0.000000
    31  H    2.394729   2.096885   1.070000   2.091355   2.256064
    32  H    3.172498   2.608417   2.090454   2.381978   3.330906
    33  H    2.886674   3.571184   2.966984   4.159690   4.810971
    34  H    2.136063   2.811367   3.439443   4.528908   5.237896
    35  H    1.070000   2.070762   2.334396   3.701173   3.936731
    36  H    2.099979   3.267141   4.265527   5.517171   5.813931
    37  H    2.099979   2.524733   3.755929   4.723475   4.815032
    38  H    8.679921   9.864774  10.089532  11.324722  12.056774
    39  H    7.515287   8.679699   8.437780   9.663742  10.322018
    40  H    7.997371   9.039949   8.852174   9.975334  10.740308
    41  H    5.943021   6.936206   6.934077   8.064589   8.856873
    42  H    7.017713   8.322702   8.557162   9.892497  10.527077
    43  H    5.976073   6.983464   7.379319   8.519132   9.292413
    44  H    4.864485   6.203415   6.759494   8.121344   8.668180
    45  H    3.938910   4.909285   5.139569   6.308302   7.073612
                   31         32         33         34         35
    31  H    0.000000
    32  H    3.004276   0.000000
    33  H    2.936647   2.957968   0.000000
    34  H    4.016798   2.972454   2.971575   0.000000
    35  H    2.039343   3.757952   2.811129   3.018341   0.000000
    36  H    4.327634   5.067035   4.288848   2.806886   2.390796
    37  H    3.878400   4.938145   4.936782   3.504349   2.434883
    38  H   10.215100   9.387431   7.555487   7.256031   8.892367
    39  H    8.300303   8.012377   5.516712   6.667198   7.390769
    40  H    8.915536   8.023307   6.003819   6.722436   8.090530
    41  H    7.154201   6.036553   4.361650   4.444403   6.228535
    42  H    8.540678   8.236332   6.071345   5.975252   7.077368
    43  H    7.732128   6.510219   5.350238   4.212674   6.469251
    44  H    6.801734   6.752363   4.973481   4.043482   5.036990
    45  H    5.477483   4.393085   3.125322   2.307488   4.412278
                   36         37         38         39         40
    36  H    0.000000
    37  H    1.725460   0.000000
    38  H    8.001260   9.663675   0.000000
    39  H    7.459248   8.975971   3.582880   0.000000
    40  H    8.017877   9.514437   2.935915   1.737039   0.000000
    41  H    6.004420   7.427274   3.483364   2.937450   2.348022
    42  H    6.234359   7.933865   2.172494   2.828719   3.188882
    43  H    5.515072   6.993288   3.296980   4.452253   3.839797
    44  H    3.676783   5.393982   4.453611   4.722516   5.167462
    45  H    4.086106   5.374993   5.081474   4.565429   4.451285
                   41         42         43         44         45
    41  H    0.000000
    42  H    2.973703   0.000000
    43  H    2.012996   2.980922   0.000000
    44  H    3.629805   2.684823   2.901112   0.000000
    45  H    2.153863   3.981941   2.288407   2.939413   0.000000
 Stoichiometry    C12H22O11
 Framework group  C1[X(C12H22O11)]
 Deg. of freedom   129
 Full point group                 C1      NOp   1
 Largest Abelian subgroup         C1      NOp   1
 Largest concise Abelian subgroup C1      NOp   1
                         Standard orientation:                         
 ---------------------------------------------------------------------
 Center     Atomic      Atomic             Coordinates (Angstroms)
 Number     Number       Type             X           Y           Z
 ---------------------------------------------------------------------
      1          8           0       -5.058619    0.217225   -0.636134
      2          6           0       -3.961564   -0.069916    0.243694
      3          6           0       -3.148781   -1.163955   -0.430547
      4          8           0       -3.933834   -2.321283   -0.750002
      5          1           0       -4.807833   -1.839805   -0.816656
      6          6           0       -1.821394   -1.611563    0.159285
      7          8           0       -0.983757   -2.698442   -0.260988
      8          1           0       -1.554474   -3.493378   -0.465556
      9          6           0       -3.606842    2.425263    0.530494
     10          8           0       -2.732535    3.546861    0.338175
     11          1           0       -3.194181    4.375912    0.653865
     12          6           0       -2.961247    1.074003    0.267903
     13          8           0       -1.750319    0.701109    0.940807
     14          6           0       -1.007967   -0.332783    0.277290
     15          8           0        0.276949   -0.495032    0.894477
     16          6           0        1.454282   -0.400446    0.078761
     17          6           0        1.735263    1.074471   -0.157553
     18          8           0        1.067508    1.600649   -1.312591
     19          1           0        0.204018    1.097121   -1.350744
     20          6           0        3.184288    1.406203   -0.477428
     21          8           0        3.261717    2.836018   -0.381487
     22          1           0        2.963133    3.122394   -1.291768
     23          6           0        2.395808   -2.457906    0.749116
     24          8           0        2.173550   -3.150112   -0.488452
     25          1           0        1.424283   -3.774719   -0.266821
     26          6           0        2.691185   -0.967143    0.755492
     27          8           0        3.944796   -0.826648    0.069849
     28          6           0        4.174993    0.569165    0.314660
     29          8           0        5.399517    0.938729   -0.335016
     30          1           0        6.139666    0.751813    0.247086
     31          1           0        4.176204    0.812792    1.356555
     32          1           0        3.337896    1.160267   -1.507389
     33          1           0        1.431727    1.629801    0.705218
     34          1           0        1.291190   -0.894584   -0.856188
     35          1           0        2.768735   -0.606781    1.759995
     36          1           0        1.526233   -2.608620    1.354116
     37          1           0        3.215028   -2.942737    1.237702
     38          1           0       -5.883410   -0.025097   -0.208817
     39          1           0       -3.960766    2.440995    1.540142
     40          1           0       -4.445340    2.533142   -0.125391
     41          1           0       -2.651339    1.154451   -0.753070
     42          1           0       -4.283720   -0.351439    1.224439
     43          1           0       -2.886197   -0.744246   -1.379122
     44          1           0       -2.070889   -1.870765    1.166989
     45          1           0       -0.827896    0.008533   -0.720697
 ---------------------------------------------------------------------
 Rotational constants (GHZ):      0.4001698      0.1499719      0.1157012
 Standard basis: 6-31+G(d,p) (6D, 7F)
 There are   547 symmetry adapted basis functions of A   symmetry.
 Integral buffers will be    131072 words long.
 Raffenetti 2 integral format.
 Two-electron integral symmetry is turned on.
   547 basis functions,   890 primitive gaussians,   547 cartesian basis functions
    91 alpha electrons       91 beta electrons
       nuclear repulsion energy      2291.6835929758 Hartrees.
 NAtoms=   45 NActive=   45 NUniq=   45 SFac= 1.00D+00 NAtFMM=   50 NAOKFM=F Big=F
 One-electron integrals computed using PRISM.
 NBasis=   547 RedAO= T  NBF=   547
 NBsUse=   547 1.00D-06 NBFU=   547
 Harris functional with IExCor=  402 diagonalized for initial guess.
 ExpMin= 4.38D-02 ExpMax= 5.48D+03 ExpMxC= 8.25D+02 IAcc=2 IRadAn=         0 AccDes= 0.00D+00
 HarFok:  IExCor=  402 AccDes= 0.00D+00 IRadAn=         0 IDoV= 1
 ScaDFX=  1.000000  1.000000  1.000000  1.000000
 FoFCou: FMM=F IPFlag=           0 FMFlag=      100000 FMFlg1=           0
         NFxFlg=           0 DoJE=T BraDBF=F KetDBF=T FulRan=T
         Omega=  0.000000  0.000000  1.000000  0.000000  0.000000 ICntrl=     500 IOpCl=  0
         NMat0=    1 NMatS0=    1 NMatT0=    0 NMatD0=    1 NMtDS0=    0 NMtDT0=    0
         I1Cent=           4 NGrid=           0.
 Petite list used in FoFCou.
 Initial guess orbital symmetries:
       Occupied  (A) (A) (A) (A) (A) (A) (A) (A) (A) (A) (A) (A)
                 (A) (A) (A) (A) (A) (A) (A) (A) (A) (A) (A) (A)
                 (A) (A) (A) (A) (A) (A) (A) (A) (A) (A) (A) (A)
                 (A) (A) (A) (A) (A) (A) (A) (A) (A) (A) (A) (A)
                 (A) (A) (A) (A) (A) (A) (A) (A) (A) (A) (A) (A)
                 (A) (A) (A) (A) (A) (A) (A) (A) (A) (A) (A) (A)
                 (A) (A) (A) (A) (A) (A) (A) (A) (A) (A) (A) (A)
                 (A) (A) (A) (A) (A) (A) (A)
       Virtual   (A) (A) (A) (A) (A) (A) (A) (A) (A) (A) (A) (A)
                 (A) (A) (A) (A) (A) (A) (A) (A) (A) (A) (A) (A)
                 (A) (A) (A) (A) (A) (A) (A) (A) (A) (A) (A) (A)
                 (A) (A) (A) (A) (A) (A) (A) (A) (A) (A) (A) (A)
                 (A) (A) (A) (A) (A) (A) (A) (A) (A) (A) (A) (A)
                 (A) (A) (A) (A) (A) (A) (A) (A) (A) (A) (A) (A)
                 (A) (A) (A) (A) (A) (A) (A) (A) (A) (A) (A) (A)
                 (A) (A) (A) (A) (A) (A) (A) (A) (A) (A) (A) (A)
                 (A) (A) (A) (A) (A) (A) (A) (A) (A) (A) (A) (A)
                 (A) (A) (A) (A) (A) (A) (A) (A) (A) (A) (A) (A)
                 (A) (A) (A) (A) (A) (A) (A) (A) (A) (A) (A) (A)
                 (A) (A) (A) (A) (A) (A) (A) (A) (A) (A) (A) (A)
                 (A) (A) (A) (A) (A) (A) (A) (A) (A) (A) (A) (A)
                 (A) (A) (A) (A) (A) (A) (A) (A) (A) (A) (A) (A)
                 (A) (A) (A) (A) (A) (A) (A) (A) (A) (A) (A) (A)
                 (A) (A) (A) (A) (A) (A) (A) (A) (A) (A) (A) (A)
                 (A) (A) (A) (A) (A) (A) (A) (A) (A) (A) (A) (A)
                 (A) (A) (A) (A) (A) (A) (A) (A) (A) (A) (A) (A)
                 (A) (A) (A) (A) (A) (A) (A) (A) (A) (A) (A) (A)
                 (A) (A) (A) (A) (A) (A) (A) (A) (A) (A) (A) (A)
                 (A) (A) (A) (A) (A) (A) (A) (A) (A) (A) (A) (A)
                 (A) (A) (A) (A) (A) (A) (A) (A) (A) (A) (A) (A)
                 (A) (A) (A) (A) (A) (A) (A) (A) (A) (A) (A) (A)
                 (A) (A) (A) (A) (A) (A) (A) (A) (A) (A) (A) (A)
                 (A) (A) (A) (A) (A) (A) (A) (A) (A) (A) (A) (A)
                 (A) (A) (A) (A) (A) (A) (A) (A) (A) (A) (A) (A)
                 (A) (A) (A) (A) (A) (A) (A) (A) (A) (A) (A) (A)
                 (A) (A) (A) (A) (A) (A) (A) (A) (A) (A) (A) (A)
                 (A) (A) (A) (A) (A) (A) (A) (A) (A) (A) (A) (A)
                 (A) (A) (A) (A) (A) (A) (A) (A) (A) (A) (A) (A)
                 (A) (A) (A) (A) (A) (A) (A) (A) (A) (A) (A) (A)
                 (A) (A) (A) (A) (A) (A) (A) (A) (A) (A) (A) (A)
                 (A) (A) (A) (A) (A) (A) (A) (A) (A) (A) (A) (A)
                 (A) (A) (A) (A) (A) (A) (A) (A) (A) (A) (A) (A)
                 (A) (A) (A) (A) (A) (A) (A) (A) (A) (A) (A) (A)
                 (A) (A) (A) (A) (A) (A) (A) (A) (A) (A) (A) (A)
                 (A) (A) (A) (A) (A) (A) (A) (A) (A) (A) (A) (A)
                 (A) (A) (A) (A) (A) (A) (A) (A) (A) (A) (A) (A)
 The electronic state of the initial guess is 1-A.
 Requested convergence on RMS density matrix=1.00D-08 within 128 cycles.
 Requested convergence on MAX density matrix=1.00D-06.
 Requested convergence on             energy=1.00D-06.
 No special actions if energy rises.
 SCF Done:  E(RB3LYP) =  -1297.87799441     A.U. after   13 cycles
             Convg  =    0.7749D-08             -V/T =  2.0086
 Range of M.O.s used for correlation:     1   547
 NBasis=   547 NAE=    91 NBE=    91 NFC=     0 NFV=     0
 NROrb=    547 NOA=    91 NOB=    91 NVA=   456 NVB=   456

 **** Warning!!: The largest alpha MO coefficient is  0.93015351D+02

          Differentiating once with respect to electric field.
                with respect to dipole field.
          Electric field/nuclear overlap derivatives assumed to be zero.
          There are     3 degrees of freedom in the 1st order CPHF.  IDoFFX=0.
      3 vectors produced by pass  0 Test12= 1.38D-12 3.33D-08 XBig12= 1.20D+02 1.37D+00.
 AX will form     3 AO Fock derivatives at one time.
      3 vectors produced by pass  1 Test12= 1.38D-12 3.33D-08 XBig12= 2.47D+01 3.30D-01.
      3 vectors produced by pass  2 Test12= 1.38D-12 3.33D-08 XBig12= 9.10D+00 2.60D-01.
      3 vectors produced by pass  3 Test12= 1.38D-12 3.33D-08 XBig12= 9.59D-01 8.51D-02.
      3 vectors produced by pass  4 Test12= 1.38D-12 3.33D-08 XBig12= 2.37D-01 3.53D-02.
      3 vectors produced by pass  5 Test12= 1.38D-12 3.33D-08 XBig12= 5.57D-02 1.70D-02.
      3 vectors produced by pass  6 Test12= 1.38D-12 3.33D-08 XBig12= 1.61D-02 1.17D-02.
      3 vectors produced by pass  7 Test12= 1.38D-12 3.33D-08 XBig12= 2.93D-03 6.89D-03.
      3 vectors produced by pass  8 Test12= 1.38D-12 3.33D-08 XBig12= 5.97D-04 2.88D-03.
      3 vectors produced by pass  9 Test12= 1.38D-12 3.33D-08 XBig12= 1.45D-04 1.63D-03.
      3 vectors produced by pass 10 Test12= 1.38D-12 3.33D-08 XBig12= 3.40D-05 7.55D-04.
      3 vectors produced by pass 11 Test12= 1.38D-12 3.33D-08 XBig12= 4.70D-06 3.09D-04.
      3 vectors produced by pass 12 Test12= 1.38D-12 3.33D-08 XBig12= 8.88D-07 1.48D-04.
      3 vectors produced by pass 13 Test12= 1.38D-12 3.33D-08 XBig12= 2.12D-07 3.98D-05.
      3 vectors produced by pass 14 Test12= 1.38D-12 3.33D-08 XBig12= 2.15D-08 1.97D-05.
      3 vectors produced by pass 15 Test12= 1.38D-12 3.33D-08 XBig12= 6.16D-09 8.04D-06.
      3 vectors produced by pass 16 Test12= 1.38D-12 3.33D-08 XBig12= 6.66D-10 2.36D-06.
      3 vectors produced by pass 17 Test12= 1.38D-12 3.33D-08 XBig12= 8.84D-11 8.69D-07.
      3 vectors produced by pass 18 Test12= 1.38D-12 3.33D-08 XBig12= 2.76D-11 3.01D-07.
      3 vectors produced by pass 19 Test12= 1.38D-12 3.33D-08 XBig12= 1.60D-11 3.04D-07.
      3 vectors produced by pass 20 Test12= 1.38D-12 3.33D-08 XBig12= 6.82D-12 1.79D-07.
      3 vectors produced by pass 21 Test12= 1.38D-12 3.33D-08 XBig12= 5.90D-12 1.85D-07.
      2 vectors produced by pass 22 Test12= 1.38D-12 3.33D-08 XBig12= 6.48D-13 4.29D-08.
 Inverted reduced A of dimension    68 with in-core refinement.
 End of Minotr Frequency-dependent properties file   721 does not exist.
 End of Minotr Frequency-dependent properties file   722 does not exist.
 Symmetrizing basis deriv contribution to polar:
 IMax=3 JMax=2 DiffMx= 0.00D+00
 G2DrvN: will do    23 centers at a time, making    2 passes doing MaxLOS=2.
 Calling FoFCou, ICntrl=  3107 FMM=F I1Cent=   0 AccDes= 0.00D+00.
 Calling FoFCou, ICntrl=  3107 FMM=F I1Cent=   0 AccDes= 0.00D+00.
 FoFDir/FoFCou used for L=0 through L=2.
 End of G2Drv Frequency-dependent properties file   721 does not exist.
 End of G2Drv Frequency-dependent properties file   722 does not exist.
          IDoAtm=111111111111111111111111111111111111111111111
          Differentiating once with respect to electric field.
                with respect to dipole field.
          Differentiating once with respect to nuclear coordinates.
          There are   138 degrees of freedom in the 1st order CPHF.  IDoFFX=5.
 Will reuse    3 saved solutions.
    135 vectors produced by pass  0 Test12= 4.15D-14 1.00D-09 XBig12= 2.94D-01 6.63D-02.
 AX will form    68 AO Fock derivatives at one time.
    135 vectors produced by pass  1 Test12= 4.15D-14 1.00D-09 XBig12= 2.41D-02 1.56D-02.
    132 vectors produced by pass  2 Test12= 4.15D-14 1.00D-09 XBig12= 1.32D-04 1.71D-03.
    132 vectors produced by pass  3 Test12= 4.15D-14 1.00D-09 XBig12= 5.56D-07 6.23D-05.
    132 vectors produced by pass  4 Test12= 4.15D-14 1.00D-09 XBig12= 1.13D-09 2.18D-06.
    132 vectors produced by pass  5 Test12= 4.15D-14 1.00D-09 XBig12= 7.33D-12 1.96D-07.
     83 vectors produced by pass  6 Test12= 4.15D-14 1.00D-09 XBig12= 2.51D-13 3.01D-08.
 Inverted reduced A of dimension   881 with in-core refinement.
 Isotropic polarizability for W=    0.000000      185.78 Bohr**3.
 End of Minotr Frequency-dependent properties file   721 does not exist.
 End of Minotr Frequency-dependent properties file   722 does not exist.

 **********************************************************************

            Population analysis using the SCF density.

 **********************************************************************

 Orbital symmetries:
       Occupied  (A) (A) (A) (A) (A) (A) (A) (A) (A) (A) (A) (A)
                 (A) (A) (A) (A) (A) (A) (A) (A) (A) (A) (A) (A)
                 (A) (A) (A) (A) (A) (A) (A) (A) (A) (A) (A) (A)
                 (A) (A) (A) (A) (A) (A) (A) (A) (A) (A) (A) (A)
                 (A) (A) (A) (A) (A) (A) (A) (A) (A) (A) (A) (A)
                 (A) (A) (A) (A) (A) (A) (A) (A) (A) (A) (A) (A)
                 (A) (A) (A) (A) (A) (A) (A) (A) (A) (A) (A) (A)
                 (A) (A) (A) (A) (A) (A) (A)
       Virtual   (A) (A) (A) (A) (A) (A) (A) (A) (A) (A) (A) (A)
                 (A) (A) (A) (A) (A) (A) (A) (A) (A) (A) (A) (A)
                 (A) (A) (A) (A) (A) (A) (A) (A) (A) (A) (A) (A)
                 (A) (A) (A) (A) (A) (A) (A) (A) (A) (A) (A) (A)
                 (A) (A) (A) (A) (A) (A) (A) (A) (A) (A) (A) (A)
                 (A) (A) (A) (A) (A) (A) (A) (A) (A) (A) (A) (A)
                 (A) (A) (A) (A) (A) (A) (A) (A) (A) (A) (A) (A)
                 (A) (A) (A) (A) (A) (A) (A) (A) (A) (A) (A) (A)
                 (A) (A) (A) (A) (A) (A) (A) (A) (A) (A) (A) (A)
                 (A) (A) (A) (A) (A) (A) (A) (A) (A) (A) (A) (A)
                 (A) (A) (A) (A) (A) (A) (A) (A) (A) (A) (A) (A)
                 (A) (A) (A) (A) (A) (A) (A) (A) (A) (A) (A) (A)
                 (A) (A) (A) (A) (A) (A) (A) (A) (A) (A) (A) (A)
                 (A) (A) (A) (A) (A) (A) (A) (A) (A) (A) (A) (A)
                 (A) (A) (A) (A) (A) (A) (A) (A) (A) (A) (A) (A)
                 (A) (A) (A) (A) (A) (A) (A) (A) (A) (A) (A) (A)
                 (A) (A) (A) (A) (A) (A) (A) (A) (A) (A) (A) (A)
                 (A) (A) (A) (A) (A) (A) (A) (A) (A) (A) (A) (A)
                 (A) (A) (A) (A) (A) (A) (A) (A) (A) (A) (A) (A)
                 (A) (A) (A) (A) (A) (A) (A) (A) (A) (A) (A) (A)
                 (A) (A) (A) (A) (A) (A) (A) (A) (A) (A) (A) (A)
                 (A) (A) (A) (A) (A) (A) (A) (A) (A) (A) (A) (A)
                 (A) (A) (A) (A) (A) (A) (A) (A) (A) (A) (A) (A)
                 (A) (A) (A) (A) (A) (A) (A) (A) (A) (A) (A) (A)
                 (A) (A) (A) (A) (A) (A) (A) (A) (A) (A) (A) (A)
                 (A) (A) (A) (A) (A) (A) (A) (A) (A) (A) (A) (A)
                 (A) (A) (A) (A) (A) (A) (A) (A) (A) (A) (A) (A)
                 (A) (A) (A) (A) (A) (A) (A) (A) (A) (A) (A) (A)
                 (A) (A) (A) (A) (A) (A) (A) (A) (A) (A) (A) (A)
                 (A) (A) (A) (A) (A) (A) (A) (A) (A) (A) (A) (A)
                 (A) (A) (A) (A) (A) (A) (A) (A) (A) (A) (A) (A)
                 (A) (A) (A) (A) (A) (A) (A) (A) (A) (A) (A) (A)
                 (A) (A) (A) (A) (A) (A) (A) (A) (A) (A) (A) (A)
                 (A) (A) (A) (A) (A) (A) (A) (A) (A) (A) (A) (A)
                 (A) (A) (A) (A) (A) (A) (A) (A) (A) (A) (A) (A)
                 (A) (A) (A) (A) (A) (A) (A) (A) (A) (A) (A) (A)
                 (A) (A) (A) (A) (A) (A) (A) (A) (A) (A) (A) (A)
                 (A) (A) (A) (A) (A) (A) (A) (A) (A) (A) (A) (A)
 The electronic state is 1-A.
 Alpha  occ. eigenvalues --  -19.22040 -19.19486 -19.19456 -19.18533 -19.18253
 Alpha  occ. eigenvalues --  -19.18175 -19.17340 -19.16207 -19.15817 -19.15517
 Alpha  occ. eigenvalues --  -19.14864 -10.32301 -10.29354 -10.28854 -10.27283
 Alpha  occ. eigenvalues --  -10.26692 -10.26641 -10.25605 -10.25080 -10.24678
 Alpha  occ. eigenvalues --  -10.22804 -10.22447 -10.22286  -1.10012  -1.08911
 Alpha  occ. eigenvalues --   -1.08075  -1.05471  -1.04575  -1.03876  -1.03064
 Alpha  occ. eigenvalues --   -1.02797  -1.01769  -1.00955  -0.99936  -0.83387
 Alpha  occ. eigenvalues --   -0.82121  -0.78968  -0.76883  -0.72787  -0.69593
 Alpha  occ. eigenvalues --   -0.67280  -0.64797  -0.63759  -0.63350  -0.60943
 Alpha  occ. eigenvalues --   -0.59904  -0.58535  -0.55960  -0.55238  -0.54218
 Alpha  occ. eigenvalues --   -0.53863  -0.53513  -0.52886  -0.51811  -0.51259
 Alpha  occ. eigenvalues --   -0.50242  -0.49979  -0.48946  -0.47044  -0.46833
 Alpha  occ. eigenvalues --   -0.46206  -0.45403  -0.44468  -0.44028  -0.42989
 Alpha  occ. eigenvalues --   -0.42445  -0.41938  -0.41016  -0.39976  -0.39658
 Alpha  occ. eigenvalues --   -0.39581  -0.38943  -0.38131  -0.37089  -0.36930
 Alpha  occ. eigenvalues --   -0.35965  -0.35567  -0.34097  -0.33879  -0.33166
 Alpha  occ. eigenvalues --   -0.32479  -0.31712  -0.30918  -0.30182  -0.29434
 Alpha  occ. eigenvalues --   -0.29382  -0.29196  -0.28589  -0.27458  -0.26122
 Alpha  occ. eigenvalues --   -0.25597
 Alpha virt. eigenvalues --   -0.04202  -0.01970  -0.01382  -0.00547   0.00287
 Alpha virt. eigenvalues --    0.01171   0.01802   0.02243   0.02672   0.03458
 Alpha virt. eigenvalues --    0.03930   0.04380   0.04640   0.04966   0.05519
 Alpha virt. eigenvalues --    0.05802   0.06415   0.07059   0.07632   0.07892
 Alpha virt. eigenvalues --    0.08438   0.08667   0.08905   0.09620   0.10272
 Alpha virt. eigenvalues --    0.10483   0.10985   0.11261   0.11658   0.11793
 Alpha virt. eigenvalues --    0.12130   0.12390   0.12722   0.13324   0.13791
 Alpha virt. eigenvalues --    0.14016   0.14170   0.14428   0.15173   0.15402
 Alpha virt. eigenvalues --    0.15762   0.16143   0.16322   0.16634   0.17036
 Alpha virt. eigenvalues --    0.17072   0.17481   0.17844   0.18198   0.18687
 Alpha virt. eigenvalues --    0.19114   0.19356   0.19688   0.19797   0.20057
 Alpha virt. eigenvalues --    0.20291   0.20465   0.21342   0.21442   0.21597
 Alpha virt. eigenvalues --    0.21850   0.21918   0.22466   0.22682   0.23034
 Alpha virt. eigenvalues --    0.23292   0.23443   0.23702   0.23846   0.24339
 Alpha virt. eigenvalues --    0.24427   0.24746   0.25249   0.25652   0.25794
 Alpha virt. eigenvalues --    0.26540   0.26974   0.27138   0.27499   0.27932
 Alpha virt. eigenvalues --    0.28148   0.28440   0.28835   0.28888   0.29388
 Alpha virt. eigenvalues --    0.29749   0.29913   0.30006   0.30534   0.31067
 Alpha virt. eigenvalues --    0.31367   0.32000   0.32099   0.32343   0.33021
 Alpha virt. eigenvalues --    0.33236   0.33492   0.33708   0.34108   0.34701
 Alpha virt. eigenvalues --    0.34864   0.35243   0.35445   0.35538   0.36287
 Alpha virt. eigenvalues --    0.36489   0.36780   0.37203   0.37564   0.37871
 Alpha virt. eigenvalues --    0.38287   0.38598   0.39244   0.39469   0.39830
 Alpha virt. eigenvalues --    0.40244   0.40666   0.40914   0.41392   0.41964
 Alpha virt. eigenvalues --    0.42126   0.42437   0.43101   0.43751   0.44214
 Alpha virt. eigenvalues --    0.44501   0.44965   0.45543   0.46271   0.46448
 Alpha virt. eigenvalues --    0.47159   0.47290   0.47952   0.48975   0.50790
 Alpha virt. eigenvalues --    0.51829   0.52994   0.54404   0.60608   0.64141
 Alpha virt. eigenvalues --    0.66723   0.68168   0.68243   0.69644   0.70423
 Alpha virt. eigenvalues --    0.71253   0.72010   0.73123   0.73860   0.75505
 Alpha virt. eigenvalues --    0.75767   0.76223   0.77045   0.77816   0.78312
 Alpha virt. eigenvalues --    0.78522   0.79961   0.80512   0.82512   0.83161
 Alpha virt. eigenvalues --    0.84993   0.85452   0.86748   0.87940   0.88865
 Alpha virt. eigenvalues --    0.90110   0.91156   0.93614   0.94212   0.94755
 Alpha virt. eigenvalues --    0.95256   0.98104   0.98623   0.99380   0.99801
 Alpha virt. eigenvalues --    1.00459   1.02296   1.02521   1.02860   1.04039
 Alpha virt. eigenvalues --    1.04499   1.05038   1.05990   1.06334   1.06933
 Alpha virt. eigenvalues --    1.07631   1.08404   1.09017   1.09707   1.11239
 Alpha virt. eigenvalues --    1.11964   1.12383   1.13819   1.14708   1.15465
 Alpha virt. eigenvalues --    1.15830   1.17825   1.18057   1.19787   1.20819
 Alpha virt. eigenvalues --    1.22191   1.22742   1.23370   1.23748   1.25140
 Alpha virt. eigenvalues --    1.26514   1.26826   1.27439   1.27979   1.28799
 Alpha virt. eigenvalues --    1.29128   1.29551   1.30214   1.30928   1.31498
 Alpha virt. eigenvalues --    1.31620   1.32607   1.33528   1.34215   1.34596
 Alpha virt. eigenvalues --    1.35313   1.35795   1.36919   1.37485   1.38672
 Alpha virt. eigenvalues --    1.39466   1.40572   1.41391   1.41663   1.42502
 Alpha virt. eigenvalues --    1.43001   1.43680   1.44828   1.47135   1.48272
 Alpha virt. eigenvalues --    1.49404   1.50029   1.51700   1.52178   1.53412
 Alpha virt. eigenvalues --    1.54234   1.55233   1.55744   1.56243   1.57212
 Alpha virt. eigenvalues --    1.57739   1.58067   1.59155   1.59502   1.60667
 Alpha virt. eigenvalues --    1.60817   1.62185   1.62457   1.64056   1.64311
 Alpha virt. eigenvalues --    1.64623   1.64855   1.65873   1.67026   1.68054
 Alpha virt. eigenvalues --    1.69126   1.70001   1.70670   1.72084   1.72610
 Alpha virt. eigenvalues --    1.73174   1.74018   1.76576   1.76749   1.77164
 Alpha virt. eigenvalues --    1.78702   1.79616   1.80301   1.80713   1.81560
 Alpha virt. eigenvalues --    1.81809   1.83281   1.83761   1.84334   1.86420
 Alpha virt. eigenvalues --    1.87098   1.87805   1.89458   1.90630   1.91750
 Alpha virt. eigenvalues --    1.92071   1.92588   1.93954   1.95246   1.96014
 Alpha virt. eigenvalues --    1.96546   1.96964   1.97527   1.99542   1.99991
 Alpha virt. eigenvalues --    2.00256   2.00660   2.01921   2.03008   2.03660
 Alpha virt. eigenvalues --    2.04583   2.05249   2.05950   2.06876   2.07869
 Alpha virt. eigenvalues --    2.08470   2.09160   2.09517   2.09912   2.11401
 Alpha virt. eigenvalues --    2.12156   2.14012   2.14308   2.15502   2.16655
 Alpha virt. eigenvalues --    2.17421   2.20210   2.20542   2.21599   2.22584
 Alpha virt. eigenvalues --    2.22820   2.24513   2.27658   2.29251   2.30206
 Alpha virt. eigenvalues --    2.30638   2.31295   2.32465   2.33745   2.34846
 Alpha virt. eigenvalues --    2.36003   2.37320   2.37929   2.38253   2.39131
 Alpha virt. eigenvalues --    2.40898   2.41032   2.41374   2.42619   2.43567
 Alpha virt. eigenvalues --    2.45154   2.47207   2.48167   2.48861   2.49397
 Alpha virt. eigenvalues --    2.51791   2.53075   2.53934   2.55199   2.55959
 Alpha virt. eigenvalues --    2.56979   2.58201   2.59149   2.59829   2.60336
 Alpha virt. eigenvalues --    2.62083   2.62471   2.63225   2.64232   2.64516
 Alpha virt. eigenvalues --    2.64665   2.65052   2.65529   2.68448   2.68768
 Alpha virt. eigenvalues --    2.69311   2.70670   2.72460   2.73797   2.74389
 Alpha virt. eigenvalues --    2.75223   2.76543   2.77735   2.79092   2.79333
 Alpha virt. eigenvalues --    2.80760   2.82580   2.82672   2.84193   2.86508
 Alpha virt. eigenvalues --    2.87376   2.87953   2.89783   2.90341   2.90916
 Alpha virt. eigenvalues --    2.91532   2.92222   2.93245   2.93605   2.96564
 Alpha virt. eigenvalues --    2.96824   2.97083   2.98727   2.99496   3.01069
 Alpha virt. eigenvalues --    3.01671   3.03522   3.04072   3.05055   3.07119
 Alpha virt. eigenvalues --    3.08614   3.09338   3.12085   3.13750   3.14919
 Alpha virt. eigenvalues --    3.18642   3.19912   3.22414   3.25582   3.31853
 Alpha virt. eigenvalues --    3.32212   3.36125   3.38539   3.39868   3.40785
 Alpha virt. eigenvalues --    3.43246   3.44273   3.46459   3.48146   3.48921
 Alpha virt. eigenvalues --    3.50440   3.51215   3.51683   3.52093   3.53235
 Alpha virt. eigenvalues --    3.54574   3.56592   3.58760   3.59143   3.60566
 Alpha virt. eigenvalues --    3.61302   3.65753   3.67874   4.25383   4.30483
 Alpha virt. eigenvalues --    4.34235   4.36927   4.39394   4.41327   4.43871
 Alpha virt. eigenvalues --    4.44860   4.48811   4.51103   4.53856   4.57102
 Alpha virt. eigenvalues --    4.57833   4.60537   4.62144   4.65227   4.71042
 Alpha virt. eigenvalues --    4.76864   4.82629   4.86899   4.88971   4.95840
 Alpha virt. eigenvalues --    4.98876
          Condensed to atoms (all electrons):
              1          2          3          4          5          6
     1  O    8.330803   0.148869   0.004856  -0.039741   0.053429   0.045155
     2  C    0.148869   9.572556  -0.941048   0.139353  -0.127964  -1.968234
     3  C    0.004856  -0.941048   9.385228   0.171436   0.049996  -1.518202
     4  O   -0.039741   0.139353   0.171436   8.346075   0.178681  -0.294483
     5  H    0.053429  -0.127964   0.049996   0.178681   0.447358   0.040287
     6  C    0.045155  -1.968234  -1.518202  -0.294483   0.040287  12.982427
     7  O   -0.000701   0.010193  -0.067245  -0.005357  -0.000418   0.242365
     8  H   -0.000103   0.008948  -0.052703   0.011999  -0.000194   0.009096
     9  C   -0.049251  -0.133258  -0.698414   0.009435  -0.015112   0.450785
    10  O   -0.002843   0.062181  -0.005571   0.000074   0.000001   0.002482
    11  H    0.000344  -0.012522   0.001939   0.000000   0.000000   0.000669
    12  C   -0.186009  -2.396577  -1.028707  -0.050765   0.054131   1.351084
    13  O    0.011353   0.049122  -0.008609  -0.000785  -0.000079  -0.092630
    14  C    0.042393   1.230092   0.060999   0.111398  -0.010930  -4.609324
    15  O    0.000223   0.001487   0.051316  -0.001887   0.000090  -0.065872
    16  C    0.002104  -0.006599   0.304559  -0.007797   0.000885  -0.472325
    17  C   -0.000029   0.009559   0.065230   0.000432  -0.000402   0.017571
    18  O   -0.000010   0.001701   0.000166  -0.000017   0.000000  -0.009623
    19  H    0.000018   0.005503  -0.004127   0.000037   0.000000   0.010198
    20  C   -0.000107  -0.011413   0.025259   0.000085  -0.000016  -0.250218
    21  O    0.000000   0.000032   0.000108   0.000000   0.000000  -0.000263
    22  H    0.000000  -0.000019   0.000002   0.000000   0.000000  -0.000314
    23  C    0.000024   0.002769  -0.047662   0.001159  -0.000062  -0.121922
    24  O   -0.000002  -0.001169  -0.015779   0.000167   0.000000  -0.015437
    25  H    0.000000  -0.000183  -0.004325   0.000005   0.000000   0.006639
    26  C   -0.000329   0.003272   0.142887  -0.001537   0.000018   0.029392
    27  O    0.000000   0.000180   0.000862   0.000000   0.000000  -0.005987
    28  C    0.000002   0.000635  -0.002440   0.000029   0.000000  -0.013281
    29  O    0.000000   0.000026  -0.000074   0.000000   0.000000   0.000419
    30  H    0.000000   0.000000   0.000000   0.000000   0.000000  -0.000003
    31  H    0.000000   0.000014  -0.000049   0.000000   0.000000   0.000245
    32  H    0.000000   0.000056  -0.000025   0.000000   0.000000   0.000581
    33  H   -0.000001   0.000010   0.000320  -0.000001   0.000000  -0.009626
    34  H   -0.000002   0.001490  -0.011685   0.000031   0.000000  -0.014378
    35  H    0.000000   0.000169  -0.001311   0.000000   0.000000  -0.001893
    36  H    0.000000   0.000350   0.004823  -0.000007   0.000000   0.001034
    37  H    0.000000  -0.000040  -0.000966   0.000000   0.000000  -0.005685
    38  H    0.230701   0.098286  -0.082539   0.002794  -0.004209   0.006882
    39  H   -0.002493   0.044199   0.013301  -0.000029  -0.000004  -0.010836
    40  H    0.006499  -0.019374  -0.021226   0.000026   0.000003   0.012077
    41  H    0.006984  -0.067052  -0.030868   0.000669  -0.000104  -0.023121
    42  H   -0.036778   0.410775  -0.077257   0.002116  -0.000559  -0.007312
    43  H   -0.009317   0.101872   0.240056  -0.054736  -0.002061  -0.176563
    44  H   -0.000624   0.024626  -0.101997   0.002765  -0.000278   0.525703
    45  H   -0.000229  -0.044175   0.014911  -0.001408  -0.000026  -0.087248
              7          8          9         10         11         12
     1  O   -0.000701  -0.000103  -0.049251  -0.002843   0.000344  -0.186009
     2  C    0.010193   0.008948  -0.133258   0.062181  -0.012522  -2.396577
     3  C   -0.067245  -0.052703  -0.698414  -0.005571   0.001939  -1.028707
     4  O   -0.005357   0.011999   0.009435   0.000074   0.000000  -0.050765
     5  H   -0.000418  -0.000194  -0.015112   0.000001   0.000000   0.054131
     6  C    0.242365   0.009096   0.450785   0.002482   0.000669   1.351084
     7  O    8.379772   0.177581   0.004277  -0.000053   0.000000   0.032400
     8  H    0.177581   0.405480   0.000043   0.000000   0.000000  -0.008171
     9  C    0.004277   0.000043  10.198949  -0.031485   0.004430  -2.677104
    10  O   -0.000053   0.000000  -0.031485   8.302193   0.198820   0.127263
    11  H    0.000000   0.000000   0.004430   0.198820   0.444354   0.020978
    12  C    0.032400  -0.008171  -2.677104   0.127263   0.020978  13.313289
    13  O    0.012023  -0.000752  -0.144215   0.008433  -0.000322  -0.164295
    14  C   -0.145470   0.059617  -1.873279  -0.041044   0.000881  -1.787665
    15  O   -0.012915   0.001811  -0.044640  -0.001339   0.000001  -0.053578
    16  C   -0.022780   0.001740   0.040970   0.012342  -0.000011  -0.102302
    17  C    0.014456  -0.000313  -0.186766  -0.009749  -0.000224  -0.529547
    18  O   -0.001156   0.000010  -0.016397  -0.001160  -0.000036  -0.011678
    19  H    0.000392  -0.000003   0.003970  -0.000129   0.000001   0.017276
    20  C    0.003454   0.000098  -0.015244  -0.000561  -0.000184  -0.009617
    21  O    0.000003   0.000000   0.000364  -0.000011   0.000000   0.000967
    22  H    0.000000   0.000000   0.000088   0.000001   0.000000   0.000196
    23  C    0.005651   0.001065   0.007626   0.000029   0.000000   0.047674
    24  O    0.011004   0.001408   0.000426   0.000001   0.000000   0.005782
    25  H    0.003922  -0.000237  -0.000002   0.000000   0.000000   0.000207
    26  C   -0.033048  -0.000603   0.007975  -0.000148  -0.000003  -0.084392
    27  O    0.000017  -0.000001   0.000054   0.000001   0.000000   0.000745
    28  C   -0.001518   0.000069   0.005134   0.000488  -0.000003   0.020704
    29  O   -0.000002   0.000000   0.000002   0.000000   0.000000  -0.000003
    30  H    0.000000   0.000000   0.000000   0.000000   0.000000   0.000002
    31  H    0.000002   0.000000   0.000012   0.000000   0.000000   0.000214
    32  H    0.000006   0.000000   0.000029   0.000000   0.000000   0.000345
    33  H   -0.000024   0.000000   0.005237   0.000312   0.000001   0.011233
    34  H    0.000821  -0.000011   0.000833   0.000006   0.000000   0.013895
    35  H    0.000217   0.000000   0.000218   0.000001   0.000000   0.002674
    36  H    0.000443  -0.000113  -0.000007   0.000000   0.000000  -0.001103
    37  H    0.001453   0.000003  -0.000001   0.000000   0.000000   0.000058
    38  H   -0.000011   0.000000   0.029744   0.000135  -0.000002  -0.022781
    39  H    0.000001   0.000000   0.401167  -0.048789  -0.007682  -0.132995
    40  H   -0.000002   0.000000   0.621719  -0.060117  -0.002698  -0.196387
    41  H   -0.000082   0.000001   0.032968  -0.000398  -0.000065   0.216550
    42  H   -0.000346   0.000008  -0.046365  -0.000431  -0.000001  -0.067158
    43  H    0.002111  -0.000004   0.030094  -0.000026   0.000000   0.003635
    44  H   -0.065317  -0.001711   0.023361  -0.000001   0.000000   0.062076
    45  H    0.012261  -0.000345   0.035831  -0.000005   0.000001   0.087950
             13         14         15         16         17         18
     1  O    0.011353   0.042393   0.000223   0.002104  -0.000029  -0.000010
     2  C    0.049122   1.230092   0.001487  -0.006599   0.009559   0.001701
     3  C   -0.008609   0.060999   0.051316   0.304559   0.065230   0.000166
     4  O   -0.000785   0.111398  -0.001887  -0.007797   0.000432  -0.000017
     5  H   -0.000079  -0.010930   0.000090   0.000885  -0.000402   0.000000
     6  C   -0.092630  -4.609324  -0.065872  -0.472325   0.017571  -0.009623
     7  O    0.012023  -0.145470  -0.012915  -0.022780   0.014456  -0.001156
     8  H   -0.000752   0.059617   0.001811   0.001740  -0.000313   0.000010
     9  C   -0.144215  -1.873279  -0.044640   0.040970  -0.186766  -0.016397
    10  O    0.008433  -0.041044  -0.001339   0.012342  -0.009749  -0.001160
    11  H   -0.000322   0.000881   0.000001  -0.000011  -0.000224  -0.000036
    12  C   -0.164295  -1.787665  -0.053578  -0.102302  -0.529547  -0.011678
    13  O    8.210957   0.498297   0.050538   0.061562  -0.041108   0.001123
    14  C    0.498297  13.765845   0.428965  -1.592938   0.721269   0.100485
    15  O    0.050538   0.428965   8.248940   0.016819   0.038146   0.000183
    16  C    0.061562  -1.592938   0.016819  20.399853  -9.781910  -0.075936
    17  C   -0.041108   0.721269   0.038146  -9.781910  19.675143   0.067030
    18  O    0.001123   0.100485   0.000183  -0.075936   0.067030   8.295407
    19  H   -0.001438  -0.046890  -0.005917   0.041452  -0.009542   0.192328
    20  C   -0.009188  -0.474461  -0.031120  -1.713505  -3.313835  -0.008793
    21  O    0.000232  -0.008383  -0.003119   0.119350  -0.207308   0.002118
    22  H    0.000013  -0.002498  -0.000148   0.031599  -0.176408   0.010151
    23  C    0.003832   0.293993  -0.060710   0.676952  -1.196483   0.016970
    24  O    0.000389   0.046974  -0.001690   0.069271  -0.041885   0.000413
    25  H    0.000010   0.002103   0.000432   0.020576  -0.000534  -0.000030
    26  C   -0.017357  -1.182405  -0.124680  -5.128318   1.815043  -0.012579
    27  O    0.000178   0.016182   0.002888   0.000128  -0.102523   0.001614
    28  C    0.005992   0.042496   0.015858   2.217073  -1.519241   0.042619
    29  O   -0.000016   0.004424   0.000503   0.034279   0.070406  -0.001664
    30  H    0.000000   0.000196   0.000002  -0.006213  -0.017905   0.000057
    31  H    0.000019   0.005234  -0.000001   0.138913   0.030805  -0.000768
    32  H    0.000024   0.003116  -0.000151   0.123697  -0.007098  -0.005041
    33  H    0.004927   0.020561  -0.004138   0.137606   0.351810  -0.045210
    34  H    0.000836   0.135879  -0.043473   0.541652  -0.172496   0.000314
    35  H    0.000212   0.068554   0.010829   0.114717  -0.008415  -0.000735
    36  H   -0.000519  -0.012386  -0.000626  -0.062807  -0.022420   0.000052
    37  H    0.000009   0.007689   0.000169  -0.001151  -0.001692   0.000025
    38  H   -0.000640  -0.009761   0.000000  -0.000055   0.000011   0.000000
    39  H   -0.002511   0.035190   0.000056  -0.000331   0.001768  -0.000014
    40  H    0.005834  -0.026207  -0.000022   0.001057  -0.001881   0.000019
    41  H   -0.052990   0.107090   0.000045  -0.007096   0.024557  -0.000751
    42  H    0.005145   0.068607  -0.000180  -0.000685   0.001473  -0.000002
    43  H   -0.000893   0.036364  -0.000722  -0.008595   0.010086  -0.000150
    44  H    0.006762  -0.262479  -0.004691  -0.011126   0.003956  -0.000139
    45  H   -0.061555   0.118658  -0.079158  -0.004091   0.087621  -0.014405
             19         20         21         22         23         24
     1  O    0.000018  -0.000107   0.000000   0.000000   0.000024  -0.000002
     2  C    0.005503  -0.011413   0.000032  -0.000019   0.002769  -0.001169
     3  C   -0.004127   0.025259   0.000108   0.000002  -0.047662  -0.015779
     4  O    0.000037   0.000085   0.000000   0.000000   0.001159   0.000167
     5  H    0.000000  -0.000016   0.000000   0.000000  -0.000062   0.000000
     6  C    0.010198  -0.250218  -0.000263  -0.000314  -0.121922  -0.015437
     7  O    0.000392   0.003454   0.000003   0.000000   0.005651   0.011004
     8  H   -0.000003   0.000098   0.000000   0.000000   0.001065   0.001408
     9  C    0.003970  -0.015244   0.000364   0.000088   0.007626   0.000426
    10  O   -0.000129  -0.000561  -0.000011   0.000001   0.000029   0.000001
    11  H    0.000001  -0.000184   0.000000   0.000000   0.000000   0.000000
    12  C    0.017276  -0.009617   0.000967   0.000196   0.047674   0.005782
    13  O   -0.001438  -0.009188   0.000232   0.000013   0.003832   0.000389
    14  C   -0.046890  -0.474461  -0.008383  -0.002498   0.293993   0.046974
    15  O   -0.005917  -0.031120  -0.003119  -0.000148  -0.060710  -0.001690
    16  C    0.041452  -1.713505   0.119350   0.031599   0.676952   0.069271
    17  C   -0.009542  -3.313835  -0.207308  -0.176408  -1.196483  -0.041885
    18  O    0.192328  -0.008793   0.002118   0.010151   0.016970   0.000413
    19  H    0.443672  -0.032623   0.002132  -0.000222  -0.001192   0.000155
    20  C   -0.032623  11.996265   0.381198   0.104629   0.195515  -0.000537
    21  O    0.002132   0.381198   8.176773   0.242979   0.000358  -0.000063
    22  H   -0.000222   0.104629   0.242979   0.389940   0.001133   0.000000
    23  C   -0.001192   0.195515   0.000358   0.001133   7.507567   0.491672
    24  O    0.000155  -0.000537  -0.000063   0.000000   0.491672   8.198668
    25  H   -0.000001  -0.001349  -0.000001   0.000000  -0.066174   0.226471
    26  C    0.038503   1.393145  -0.010813   0.003486  -2.633448  -0.446848
    27  O    0.000126  -0.201414   0.002753  -0.000155  -0.067593   0.019649
    28  C   -0.007153  -1.377431  -0.168919   0.038873   0.082763   0.012080
    29  O    0.000084  -0.156381  -0.001620  -0.000349  -0.007372  -0.000333
    30  H    0.000000   0.029118  -0.002054   0.000028   0.004361  -0.000010
    31  H    0.000009  -0.212626   0.006046  -0.000183   0.005169   0.000003
    32  H    0.000514   0.247387  -0.045448  -0.012374   0.011370   0.000138
    33  H   -0.001563  -0.188474  -0.006804   0.000358   0.013380   0.000098
    34  H   -0.001787  -0.069736  -0.000934   0.000018   0.059152   0.013455
    35  H   -0.000008  -0.127069  -0.000627  -0.000001   0.052316   0.007648
    36  H   -0.000004   0.002952   0.000008   0.000000   0.495963  -0.040086
    37  H    0.000000   0.009617  -0.000008   0.000000   0.579463  -0.068285
    38  H    0.000000   0.000000   0.000000   0.000000   0.000000   0.000000
    39  H    0.000001   0.000189   0.000000   0.000000   0.000006   0.000000
    40  H   -0.000001  -0.000132   0.000000   0.000000  -0.000002   0.000000
    41  H   -0.000289   0.003515   0.000005   0.000000   0.000013  -0.000007
    42  H   -0.000001   0.000055   0.000000   0.000000   0.000066   0.000000
    43  H   -0.000109   0.000908   0.000000   0.000000   0.000242  -0.000015
    44  H    0.000005   0.001021   0.000000   0.000000   0.007059  -0.000045
    45  H    0.020673   0.027762   0.000060   0.000001  -0.004493  -0.000301
             25         26         27         28         29         30
     1  O    0.000000  -0.000329   0.000000   0.000002   0.000000   0.000000
     2  C   -0.000183   0.003272   0.000180   0.000635   0.000026   0.000000
     3  C   -0.004325   0.142887   0.000862  -0.002440  -0.000074   0.000000
     4  O    0.000005  -0.001537   0.000000   0.000029   0.000000   0.000000
     5  H    0.000000   0.000018   0.000000   0.000000   0.000000   0.000000
     6  C    0.006639   0.029392  -0.005987  -0.013281   0.000419  -0.000003
     7  O    0.003922  -0.033048   0.000017  -0.001518  -0.000002   0.000000
     8  H   -0.000237  -0.000603  -0.000001   0.000069   0.000000   0.000000
     9  C   -0.000002   0.007975   0.000054   0.005134   0.000002   0.000000
    10  O    0.000000  -0.000148   0.000001   0.000488   0.000000   0.000000
    11  H    0.000000  -0.000003   0.000000  -0.000003   0.000000   0.000000
    12  C    0.000207  -0.084392   0.000745   0.020704  -0.000003   0.000002
    13  O    0.000010  -0.017357   0.000178   0.005992  -0.000016   0.000000
    14  C    0.002103  -1.182405   0.016182   0.042496   0.004424   0.000196
    15  O    0.000432  -0.124680   0.002888   0.015858   0.000503   0.000002
    16  C    0.020576  -5.128318   0.000128   2.217073   0.034279  -0.006213
    17  C   -0.000534   1.815043  -0.102523  -1.519241   0.070406  -0.017905
    18  O   -0.000030  -0.012579   0.001614   0.042619  -0.001664   0.000057
    19  H   -0.000001   0.038503   0.000126  -0.007153   0.000084   0.000000
    20  C   -0.001349   1.393145  -0.201414  -1.377431  -0.156381   0.029118
    21  O   -0.000001  -0.010813   0.002753  -0.168919  -0.001620  -0.002054
    22  H    0.000000   0.003486  -0.000155   0.038873  -0.000349   0.000028
    23  C   -0.066174  -2.633448  -0.067593   0.082763  -0.007372   0.004361
    24  O    0.226471  -0.446848   0.019649   0.012080  -0.000333  -0.000010
    25  H    0.432268   0.048967  -0.000133  -0.001168   0.000008   0.000000
    26  C    0.048967  13.949235   0.315909  -1.483754  -0.122370   0.018799
    27  O   -0.000133   0.315909   8.315506   0.121242  -0.041043  -0.004197
    28  C   -0.001168  -1.483754   0.121242   6.679851   0.345352  -0.007055
    29  O    0.000008  -0.122370  -0.041043   0.345352   8.230889   0.220809
    30  H    0.000000   0.018799  -0.004197  -0.007055   0.220809   0.428928
    31  H    0.000001  -0.116323  -0.060179   0.469876  -0.041712  -0.008754
    32  H    0.000000  -0.063087   0.005479   0.006602  -0.008290   0.000464
    33  H    0.000000  -0.086558   0.003416   0.054854  -0.000629   0.000012
    34  H   -0.000608  -0.238637   0.004881   0.038630  -0.000173   0.000001
    35  H   -0.000143   0.083275  -0.037990   0.071539   0.000956  -0.000067
    36  H   -0.017303  -0.053068   0.009588   0.004282   0.000024   0.000000
    37  H    0.002543  -0.204761  -0.009034  -0.009483  -0.000183   0.000001
    38  H    0.000000  -0.000007   0.000000   0.000000   0.000000   0.000000
    39  H    0.000000   0.000012   0.000000  -0.000007   0.000000   0.000000
    40  H    0.000000   0.000022   0.000000   0.000004   0.000000   0.000000
    41  H    0.000000   0.000072   0.000000  -0.000109   0.000000   0.000000
    42  H    0.000000  -0.000238   0.000000  -0.000003   0.000000   0.000000
    43  H    0.000000  -0.001285   0.000000  -0.000030   0.000000   0.000000
    44  H   -0.000009  -0.001295   0.000009  -0.000119   0.000000   0.000000
    45  H   -0.000003   0.034306   0.000249  -0.001724  -0.000009   0.000000
             31         32         33         34         35         36
     1  O    0.000000   0.000000  -0.000001  -0.000002   0.000000   0.000000
     2  C    0.000014   0.000056   0.000010   0.001490   0.000169   0.000350
     3  C   -0.000049  -0.000025   0.000320  -0.011685  -0.001311   0.004823
     4  O    0.000000   0.000000  -0.000001   0.000031   0.000000  -0.000007
     5  H    0.000000   0.000000   0.000000   0.000000   0.000000   0.000000
     6  C    0.000245   0.000581  -0.009626  -0.014378  -0.001893   0.001034
     7  O    0.000002   0.000006  -0.000024   0.000821   0.000217   0.000443
     8  H    0.000000   0.000000   0.000000  -0.000011   0.000000  -0.000113
     9  C    0.000012   0.000029   0.005237   0.000833   0.000218  -0.000007
    10  O    0.000000   0.000000   0.000312   0.000006   0.000001   0.000000
    11  H    0.000000   0.000000   0.000001   0.000000   0.000000   0.000000
    12  C    0.000214   0.000345   0.011233   0.013895   0.002674  -0.001103
    13  O    0.000019   0.000024   0.004927   0.000836   0.000212  -0.000519
    14  C    0.005234   0.003116   0.020561   0.135879   0.068554  -0.012386
    15  O   -0.000001  -0.000151  -0.004138  -0.043473   0.010829  -0.000626
    16  C    0.138913   0.123697   0.137606   0.541652   0.114717  -0.062807
    17  C    0.030805  -0.007098   0.351810  -0.172496  -0.008415  -0.022420
    18  O   -0.000768  -0.005041  -0.045210   0.000314  -0.000735   0.000052
    19  H    0.000009   0.000514  -0.001563  -0.001787  -0.000008  -0.000004
    20  C   -0.212626   0.247387  -0.188474  -0.069736  -0.127069   0.002952
    21  O    0.006046  -0.045448  -0.006804  -0.000934  -0.000627   0.000008
    22  H   -0.000183  -0.012374   0.000358   0.000018  -0.000001   0.000000
    23  C    0.005169   0.011370   0.013380   0.059152   0.052316   0.495963
    24  O    0.000003   0.000138   0.000098   0.013455   0.007648  -0.040086
    25  H    0.000001   0.000000   0.000000  -0.000608  -0.000143  -0.017303
    26  C   -0.116323  -0.063087  -0.086558  -0.238637   0.083275  -0.053068
    27  O   -0.060179   0.005479   0.003416   0.004881  -0.037990   0.009588
    28  C    0.469876   0.006602   0.054854   0.038630   0.071539   0.004282
    29  O   -0.041712  -0.008290  -0.000629  -0.000173   0.000956   0.000024
    30  H   -0.008754   0.000464   0.000012   0.000001  -0.000067   0.000000
    31  H    0.641727   0.005410   0.001133  -0.000030   0.010791   0.000005
    32  H    0.005410   0.567827   0.005171   0.000808   0.000160   0.000003
    33  H    0.001133   0.005171   0.556383   0.004483   0.001567   0.000026
    34  H   -0.000030   0.000808   0.004483   0.543321   0.005410   0.000189
    35  H    0.010791   0.000160   0.001567   0.005410   0.615815  -0.001961
    36  H    0.000005   0.000003   0.000026   0.000189  -0.001961   0.599611
    37  H   -0.000066   0.000003   0.000003   0.000690  -0.001707  -0.046037
    38  H    0.000000   0.000000   0.000000   0.000000   0.000000   0.000000
    39  H    0.000000   0.000000   0.000000   0.000000   0.000000   0.000000
    40  H    0.000000   0.000000   0.000000   0.000000   0.000000   0.000000
    41  H    0.000000   0.000000   0.000008   0.000000   0.000000   0.000000
    42  H    0.000000   0.000000   0.000000   0.000000   0.000000   0.000000
    43  H    0.000000   0.000000  -0.000001  -0.000010   0.000000   0.000000
    44  H    0.000000   0.000000  -0.000001   0.000040   0.000000   0.000015
    45  H   -0.000001  -0.000009   0.000566   0.001607  -0.000024   0.000020
             37         38         39         40         41         42
     1  O    0.000000   0.230701  -0.002493   0.006499   0.006984  -0.036778
     2  C   -0.000040   0.098286   0.044199  -0.019374  -0.067052   0.410775
     3  C   -0.000966  -0.082539   0.013301  -0.021226  -0.030868  -0.077257
     4  O    0.000000   0.002794  -0.000029   0.000026   0.000669   0.002116
     5  H    0.000000  -0.004209  -0.000004   0.000003  -0.000104  -0.000559
     6  C   -0.005685   0.006882  -0.010836   0.012077  -0.023121  -0.007312
     7  O    0.001453  -0.000011   0.000001  -0.000002  -0.000082  -0.000346
     8  H    0.000003   0.000000   0.000000   0.000000   0.000001   0.000008
     9  C   -0.000001   0.029744   0.401167   0.621719   0.032968  -0.046365
    10  O    0.000000   0.000135  -0.048789  -0.060117  -0.000398  -0.000431
    11  H    0.000000  -0.000002  -0.007682  -0.002698  -0.000065  -0.000001
    12  C    0.000058  -0.022781  -0.132995  -0.196387   0.216550  -0.067158
    13  O    0.000009  -0.000640  -0.002511   0.005834  -0.052990   0.005145
    14  C    0.007689  -0.009761   0.035190  -0.026207   0.107090   0.068607
    15  O    0.000169   0.000000   0.000056  -0.000022   0.000045  -0.000180
    16  C   -0.001151  -0.000055  -0.000331   0.001057  -0.007096  -0.000685
    17  C   -0.001692   0.000011   0.001768  -0.001881   0.024557   0.001473
    18  O    0.000025   0.000000  -0.000014   0.000019  -0.000751  -0.000002
    19  H    0.000000   0.000000   0.000001  -0.000001  -0.000289  -0.000001
    20  C    0.009617   0.000000   0.000189  -0.000132   0.003515   0.000055
    21  O   -0.000008   0.000000   0.000000   0.000000   0.000005   0.000000
    22  H    0.000000   0.000000   0.000000   0.000000   0.000000   0.000000
    23  C    0.579463   0.000000   0.000006  -0.000002   0.000013   0.000066
    24  O   -0.068285   0.000000   0.000000   0.000000  -0.000007   0.000000
    25  H    0.002543   0.000000   0.000000   0.000000   0.000000   0.000000
    26  C   -0.204761  -0.000007   0.000012   0.000022   0.000072  -0.000238
    27  O   -0.009034   0.000000   0.000000   0.000000   0.000000   0.000000
    28  C   -0.009483   0.000000  -0.000007   0.000004  -0.000109  -0.000003
    29  O   -0.000183   0.000000   0.000000   0.000000   0.000000   0.000000
    30  H    0.000001   0.000000   0.000000   0.000000   0.000000   0.000000
    31  H   -0.000066   0.000000   0.000000   0.000000   0.000000   0.000000
    32  H    0.000003   0.000000   0.000000   0.000000   0.000000   0.000000
    33  H    0.000003   0.000000   0.000000   0.000000   0.000008   0.000000
    34  H    0.000690   0.000000   0.000000   0.000000   0.000000   0.000000
    35  H   -0.001707   0.000000   0.000000   0.000000   0.000000   0.000000
    36  H   -0.046037   0.000000   0.000000   0.000000   0.000000   0.000000
    37  H    0.615654   0.000000   0.000000   0.000000   0.000000   0.000000
    38  H    0.000000   0.391899   0.000051  -0.000719  -0.000230  -0.011246
    39  H    0.000000   0.000051   0.626128  -0.055457   0.008180   0.002302
    40  H    0.000000  -0.000719  -0.055457   0.588187  -0.010202  -0.000036
    41  H    0.000000  -0.000230   0.008180  -0.010202   0.645875   0.006643
    42  H    0.000000  -0.011246   0.002302  -0.000036   0.006643   0.585411
    43  H    0.000000   0.000375  -0.000021   0.000019   0.008035   0.006468
    44  H    0.000000   0.000025  -0.000007   0.000001   0.000266   0.003420
    45  H    0.000001   0.000000   0.000007   0.000005   0.014146   0.000048
             43         44         45
     1  O   -0.009317  -0.000624  -0.000229
     2  C    0.101872   0.024626  -0.044175
     3  C    0.240056  -0.101997   0.014911
     4  O   -0.054736   0.002765  -0.001408
     5  H   -0.002061  -0.000278  -0.000026
     6  C   -0.176563   0.525703  -0.087248
     7  O    0.002111  -0.065317   0.012261
     8  H   -0.000004  -0.001711  -0.000345
     9  C    0.030094   0.023361   0.035831
    10  O   -0.000026  -0.000001  -0.000005
    11  H    0.000000   0.000000   0.000001
    12  C    0.003635   0.062076   0.087950
    13  O   -0.000893   0.006762  -0.061555
    14  C    0.036364  -0.262479   0.118658
    15  O   -0.000722  -0.004691  -0.079158
    16  C   -0.008595  -0.011126  -0.004091
    17  C    0.010086   0.003956   0.087621
    18  O   -0.000150  -0.000139  -0.014405
    19  H   -0.000109   0.000005   0.020673
    20  C    0.000908   0.001021   0.027762
    21  O    0.000000   0.000000   0.000060
    22  H    0.000000   0.000000   0.000001
    23  C    0.000242   0.007059  -0.004493
    24  O   -0.000015  -0.000045  -0.000301
    25  H    0.000000  -0.000009  -0.000003
    26  C   -0.001285  -0.001295   0.034306
    27  O    0.000000   0.000009   0.000249
    28  C   -0.000030  -0.000119  -0.001724
    29  O    0.000000   0.000000  -0.000009
    30  H    0.000000   0.000000   0.000000
    31  H    0.000000   0.000000  -0.000001
    32  H    0.000000   0.000000  -0.000009
    33  H   -0.000001  -0.000001   0.000566
    34  H   -0.000010   0.000040   0.001607
    35  H    0.000000   0.000000  -0.000024
    36  H    0.000000   0.000015   0.000020
    37  H    0.000000   0.000000   0.000001
    38  H    0.000375   0.000025   0.000000
    39  H   -0.000021  -0.000007   0.000007
    40  H    0.000019   0.000001   0.000005
    41  H    0.008035   0.000266   0.014146
    42  H    0.006468   0.003420   0.000048
    43  H    0.664611   0.009679   0.009357
    44  H    0.009679   0.635131   0.009048
    45  H    0.009357   0.009048   0.794636
 Mulliken atomic charges:
              1
     1  O   -0.555190
     2  C   -0.198699
     3  C    0.184576
     4  O   -0.520217
     5  H    0.337540
     6  C    0.039692
     7  O   -0.558380
     8  H    0.386291
     9  C    0.015797
    10  O   -0.510903
    11  H    0.351334
    12  C    0.119505
    13  O   -0.337922
    14  C    0.052572
    15  O   -0.328520
    16  C   -0.102586
    17  C    0.343343
    18  O   -0.526491
    19  H    0.335953
    20  C   -0.216136
    21  O   -0.479114
    22  H    0.369174
    23  C   -0.358199
    24  O   -0.473380
    25  H    0.348051
    26  C    0.163571
    27  O   -0.291402
    28  C    0.316393
    29  O   -0.525957
    30  H    0.343480
    31  H    0.125062
    32  H    0.162335
    33  H    0.169556
    34  H    0.185518
    35  H    0.134884
    36  H    0.139061
    37  H    0.131716
    38  H    0.371295
    39  H    0.128616
    40  H    0.158993
    41  H    0.117742
    42  H    0.156062
    43  H    0.130628
    44  H    0.134875
    45  H    0.029485
 Sum of Mulliken atomic charges =   0.00000
 Mulliken charges with hydrogens summed into heavy atoms:
              1
     1  O   -0.183895
     2  C   -0.042637
     3  C    0.315203
     4  O   -0.182677
     6  C    0.174567
     7  O   -0.172090
     9  C    0.303407
    10  O   -0.159569
    12  C    0.237247
    13  O   -0.337922
    14  C    0.082057
    15  O   -0.328520
    16  C    0.082932
    17  C    0.512898
    18  O   -0.190538
    20  C   -0.053802
    21  O   -0.109940
    23  C   -0.087422
    24  O   -0.125329
    26  C    0.298455
    27  O   -0.291402
    28  C    0.441455
    29  O   -0.182477
 Sum of Mulliken charges with hydrogens summed into heavy atoms =   0.00000
 APT atomic charges:
              1
     1  O   -0.642011
     2  C    0.403514
     3  C    0.360084
     4  O   -0.643743
     5  H    0.273054
     6  C    0.332835
     7  O   -0.572617
     8  H    0.263913
     9  C    0.467745
    10  O   -0.594218
    11  H    0.247697
    12  C    0.448775
    13  O   -0.793824
    14  C    1.005045
    15  O   -0.880260
    16  C    0.401585
    17  C    0.314653
    18  O   -0.603340
    19  H    0.244604
    20  C    0.394082
    21  O   -0.605293
    22  H    0.272775
    23  C    0.434330
    24  O   -0.584705
    25  H    0.265749
    26  C    0.405507
    27  O   -0.727445
    28  C    0.874434
    29  O   -0.659246
    30  H    0.246587
    31  H   -0.069456
    32  H   -0.017945
    33  H   -0.024732
    34  H    0.002041
    35  H   -0.030385
    36  H   -0.016916
    37  H   -0.074258
    38  H    0.269861
    39  H   -0.067437
    40  H   -0.021456
    41  H   -0.040305
    42  H   -0.037319
    43  H   -0.063473
    44  H   -0.058350
    45  H   -0.100140
 Sum of APT charges=   0.00000
 APT Atomic charges with hydrogens summed into heavy atoms:
[...]
 00000167,0.00000255,0.00000910,0.00000165,0.00000323,-0.00000539,-0.00
 000275,-0.00000147,-0.00000642,0.00000022,-0.00000761,0.00000916,0.000
 00218,0.00000423,-0.00001184,-0.00000244,-0.00000763,0.00000306,-0.000
 00016,0.00000931,-0.00000077,0.00000136,-0.00000054,0.00000271,-0.0000
 0036,0.00000122,0.00000091,-0.00000087,-0.00000296,0.00000655,-0.00000
 229,0.00000075,-0.00000164,-0.00000522,0.00000075,0.00000180,-0.000001
 93,0.00000231,-0.00000101,-0.00000161,-0.00000242,0.00000229,0.0000022
 9,0.00000296,0.00038110,-0.00006397,0.00033148,0.00015741,-0.00064264,
 -0.00015017,0.00004097,0.00012185,0.00006921,0.00015216,-0.00071886,0.
 00052263,0.34644618,0.00006149,0.00069430,0.00049722,0.03682833,-0.049
 87608,-0.01167332,0.02850898,-0.00329474,-0.01359402,-0.00227075,0.003
 05922,0.00087091,0.00083714,-0.00004294,0.00051313,0.00163354,0.000763
 47,0.00160777,-0.00064209,-0.00005560,0.00009677,0.00011020,-0.0000159
 8,-0.00005586,-0.00051809,0.00239990,0.00038326,0.00039018,-0.00018116
 ,-0.00014271,0.00003570,-0.00010600,-0.00005358,-0.02486121,0.00513952
 ,0.00886597,0.00135830,0.00074592,-0.00163904,0.00028158,-0.00041861,-
 0.00008722,0.00002239,0.00006397,-0.00006279,-0.00000704,0.00001000,0.
 00001620,-0.00004896,-0.00000636,-0.00002393,0.00004053,0.00004111,0.0
 0004974,-0.00002457,-0.00008672,-0.00005480,0.00001071,0.00000084,0.00
 000562,0.00000499,0.00000527,0.00000335,0.00000040,0.00000068,-0.00000
 742,0.00000870,-0.00000790,0.00000463,-0.00000988,0.00000365,-0.000012
 54,0.00000824,0.00000678,0.00000995,0.00000288,0.00000698,-0.00000078,
 0.00000267,0.00000391,-0.00000455,-0.00000733,-0.00000847,0.00000120,0
 .00000218,0.00000160,0.00000290,-0.00000011,0.00000039,0.00000066,0.00
 000123,0.00000094,0.00000029,0.00000048,-0.00000047,-0.00000223,0.0000
 0335,0.,-0.00000377,-0.00000040,-0.00000028,0.00000895,-0.00000112,-0.
 00000008,-0.00000106,0.00000145,0.00000051,0.00000239,-0.00000129,0.00
 000217,-0.00000289,0.00027526,0.00107560,-0.00005097,0.00049010,-0.000
 43310,-0.00027991,-0.00003970,-0.00004942,-0.00003575,-0.00151785,-0.0
 0304198,0.00339198,-0.04087043,0.04806354,-0.03703598,0.00452583,-0.00
 105696,0.10636648,-0.01453017,-0.08339348,0.01700843,0.00051839,-0.006
 18900,-0.00145219,0.00015478,0.00165156,-0.00033357,-0.00051449,-0.000
 06648,0.00144545,0.00029832,0.00103269,-0.00047755,0.00009253,0.000093
 53,0.00009187,0.00000167,-0.00000451,-0.00056576,-0.00125436,-0.000037
 69,-0.00009894,0.00013111,0.00006266,-0.00004277,0.00006050,0.00002101
 ,0.02014849,-0.00389805,-0.00593789,-0.00127686,-0.00041602,0.00213583
 ,0.00051091,-0.00017639,-0.00019872,-0.00017951,0.00001631,-0.00023235
 ,-0.00003514,0.00001036,0.00004929,0.00010410,-0.00000910,0.00004270,-
 0.00008505,-0.00001986,-0.00008580,0.00002911,0.00004324,0.00009749,-0
 .00002284,-0.00000998,0.00001386,0.00000193,0.00001706,-0.00002739,-0.
 00000641,-0.00000845,0.00002012,0.00001391,0.00000335,-0.00000891,-0.0
 0002082,-0.00001224,-0.00001227,0.00001089,0.00000878,0.00000623,0.000
 02584,0.00000391,0.00003058,-0.00001417,-0.00000226,-0.00003015,0.0000
 1740,-0.00000174,0.00003274,0.00000047,-0.00000011,-0.00003305,0.00000
 017,-0.00000254,0.00000228,-0.00000378,0.00000098,-0.00000280,-0.00000
 197,0.00000166,0.00000495,-0.00000926,0.00000466,-0.00000121,0.0000039
 2,0.00001240,0.00000610,-0.00000509,0.00000285,-0.00000576,0.00000583,
 0.00000142,0.00000512,-0.00000576,-0.00000676,-0.00000734,-0.00133690,
 0.00000637,0.00413911,-0.00010003,0.00055058,0.00026655,0.00004725,0.0
 0020617,0.00002935,0.00105771,0.00250886,-0.00287938,-0.10312111,0.014
 58450,0.09246815,0.00203913,-0.00024644,-0.00089061,-0.01113058,0.0016
 3410,0.00268624,-0.32960570,0.00960151,0.07301174,0.00319084,-0.009751
 32,0.00770751,-0.00045687,-0.00068639,-0.00027830,-0.02607606,0.002079
 73,-0.00019026,0.00186668,-0.00166146,-0.00092860,-0.00026723,0.000072
 42,0.00004227,0.00096470,-0.00009049,-0.00042055,0.00002507,0.00009641
 ,0.00009183,0.00001556,0.00005185,-0.00002922,-0.00109335,-0.00261491,
 0.00112633,0.00108903,0.00058163,-0.00016545,-0.00193715,-0.00221549,0
 .00201462,0.00099836,-0.00011037,-0.00004441,-0.00003442,0.00009343,-0
 .00008158,-0.00016046,-0.00000752,-0.00012217,0.00018137,-0.00000379,0
 .00010446,-0.00007631,0.00006257,-0.00011648,0.00002456,0.00001206,-0.
 00000776,0.00001537,-0.00000183,0.00003275,0.00000272,0.00001227,-0.00
 002857,-0.00002374,-0.00002707,0.00006226,0.00002689,0.00003600,-0.000
 04818,-0.00001187,0.00002365,0.00006625,-0.00002777,-0.00003788,-0.000
 02124,0.00004293,0.00004333,0.00000490,-0.00004258,-0.00003888,-0.0000
 2404,0.00001302,0.00001019,0.00002687,-0.00000147,0.00000034,0.0000002
 4,0.00000787,0.00000124,0.00000390,0.00000353,-0.00000148,-0.00001106,
 0.00002305,-0.00000789,0.00000614,-0.00001460,-0.00005166,-0.00003185,
 0.00000957,-0.00000210,0.00000934,0.00001193,-0.00001044,0.00000499,0.
 00001005,0.00001387,-0.00000240,0.00027673,-0.00044553,-0.00046900,-0.
 00008488,-0.00048349,-0.00013704,-0.00001777,0.00002449,-0.00000196,0.
 00203255,-0.00090699,-0.00101155,0.00046276,0.00109707,0.00055723,0.35
 771759,-0.00080646,0.00184029,0.00223244,0.02946105,-0.00855904,-0.010
 42884,0.00383600,-0.03597655,-0.00815705,-0.03239438,-0.01788116,0.024
 69666,-0.00076005,-0.00087368,-0.00047544,-0.00668129,0.00348452,0.000
 36169,0.00104805,0.00067585,0.00116038,-0.00027040,-0.00015740,0.00020
 831,0.00029763,-0.00003602,-0.00011324,-0.00015336,-0.00001988,0.00012
 316,0.00002878,0.00000872,0.00000043,0.00410671,-0.00209412,-0.0023968
 9,-0.00082655,0.00004944,0.00010625,0.00110142,0.00013686,0.00098482,0
 .00003018,-0.00020430,-0.00017472,-0.00002850,0.00004556,0.00001234,0.
 00004308,-0.00000497,0.00001220,-0.00000371,-0.00000368,-0.00005339,-0
 .00001890,0.00000605,0.00008735,-0.00000782,0.00000546,0.00000252,0.00
 000019,-0.00000141,-0.00000709,-0.00000268,0.00000010,0.00000534,-0.00
 002485,0.00003009,-0.00000370,0.00003283,-0.00002045,0.00003204,-0.000
 02488,-0.00001118,-0.00002088,0.00000482,-0.00000132,0.00000515,0.0000
 0082,-0.00000671,-0.00000319,0.00000346,0.00000796,0.00000058,-0.00000
 030,-0.00000250,-0.00000272,-0.00000022,0.00000024,-0.00000073,-0.0000
 0008,-0.00000101,-0.00000032,0.00000047,0.00000043,-0.00000029,-0.0000
 0422,-0.00000299,0.00000155,0.00000213,0.00000933,-0.00001245,0.000000
 27,-0.00000327,-0.00000045,0.00000120,0.00000147,-0.00000408,0.0000053
 2,-0.00000620,0.00000435,0.00014411,0.00007802,0.00037492,-0.00023662,
 -0.00000011,0.00009828,-0.00000618,-0.00000680,-0.00003327,-0.00035909
 ,-0.00259807,0.00018263,-0.00007921,-0.00443527,-0.00280660,0.00326373
 ,0.06604275,0.00010371,0.00075145,0.00172200,0.02012167,-0.00731820,-0
 .00543792,0.07063667,-0.00943096,-0.06057068,0.02356522,0.01901087,-0.
 01366456,0.00158766,0.00059175,-0.00021512,-0.03404855,0.00156965,0.00
 314822,0.00240292,-0.00021966,0.00112307,-0.00012627,-0.00016545,-0.00
 016578,-0.00051506,0.00013377,0.00008464,-0.00009427,-0.00005988,-0.00
 002342,0.00001135,-0.00002610,0.00001569,0.00114859,0.00302263,-0.0003
 7283,0.00022749,-0.00032234,-0.00001130,-0.00328339,-0.00079885,0.0005
 4652,0.00044646,0.00001133,0.00012943,0.00005498,0.00000842,0.00002660
 ,-0.00001063,-0.00001387,-0.00003843,-0.00000932,-0.00002229,0.0000236
 9,0.00004420,0.00006164,-0.00003829,0.00000544,0.00000716,0.00000241,0
 .00000093,-0.00000069,0.00000027,0.00000236,0.00000198,-0.00000054,-0.
 00003468,0.00002886,0.00001410,0.00002327,-0.00002239,0.00001444,-0.00
 001044,0.00000493,-0.00000880,-0.00000494,-0.00001012,0.00001049,0.000
 00647,0.00000624,-0.00000649,-0.00000319,-0.00000547,0.00000440,0.0000
 0234,0.00000061,-0.00000311,-0.00000050,0.00000038,0.00000136,0.000000
 86,-0.00000049,0.00000086,0.00000156,0.00000001,-0.00000048,-0.0000032
 2,-0.00000141,0.00000181,0.00001155,-0.00001099,-0.00004009,0.00000028
 ,-0.00000197,0.00000494,0.00000691,0.00000715,0.00000609,0.00000624,-0
 .00000213,-0.00000438,0.00006183,0.00032562,0.00028458,-0.00002331,0.0
 0027297,0.00009933,0.00002126,-0.00003683,-0.00002933,-0.00101386,0.00
 095375,0.00096517,0.00005057,-0.00278574,-0.00184097,-0.07802250,-0.00
 570178,0.08019621,0.00053853,-0.00000854,-0.00031498,-0.00025064,0.001
 27269,0.00096887,-0.02632104,-0.00203533,0.00106499,0.00261425,0.00078
 580,0.00010374,-0.00003094,-0.00003544,0.00009976,-0.32859700,0.036032
 51,0.06959244,0.00628364,0.00704976,0.00401403,-0.00001225,0.00016350,
 0.00066373,0.00005935,-0.00001162,0.00005063,0.00005588,-0.00000631,-0
 .00000710,-0.00002161,0.00000042,-0.00000332,-0.00039898,-0.00021501,-
 0.00025609,0.00246465,0.00016146,-0.00102948,-0.01281282,0.00017446,0.
 00352905,0.00141695,-0.00022979,-0.00022154,0.00004812,0.00016916,0.00
 009442,-0.00008443,0.00002994,-0.00021708,0.00001345,-0.00007484,0.000
 03390,0.00007756,0.00009825,-0.00001927,0.00005816,0.00002615,0.000025
 29,0.00000430,-0.00001822,0.00001719,0.00000623,0.00001895,-0.00002566
 ,-0.00013370,0.00011836,-0.00002635,0.00013733,-0.00007714,0.00015458,
 -0.00007730,-0.00007453,-0.00016285,-0.00001449,0.00000517,-0.00001193
 ,0.00001327,-0.00002801,0.00003018,-0.00001837,0.00002375,-0.00003624,
 -0.00000144,-0.00001032,0.00004221,-0.00000204,0.00000760,-0.00000332,
 0.00000648,-0.00000411,0.00000485,0.00000533,-0.00000475,-0.00001768,0
 .00001520,-0.00003280,0.00001853,0.00007499,-0.00002977,-0.00011571,0.
 00000656,-0.00001606,0.00002537,-0.00000980,0.00002733,-0.00004462,0.0
 0002745,-0.00001122,0.00002418,-0.00004375,-0.00010493,-0.00012800,0.0
 0001246,-0.00007305,-0.00003472,0.00000842,0.00002787,0.00000669,0.000
 27347,0.00026150,-0.00002127,0.00038177,-0.00101902,-0.00081095,-0.001
 39645,-0.00094991,-0.00378044,0.35538330,-0.00000281,-0.00003472,0.000
 23854,-0.00070173,-0.00015895,-0.00025873,0.00044471,0.00341563,-0.000
 40795,-0.00005838,0.00041130,-0.00076857,-0.00010465,0.00003650,-0.000
 03615,0.03613303,-0.04123502,0.00092692,0.03117861,-0.02816906,-0.0288
 1517,0.00147206,0.00020743,-0.00069695,0.00000197,0.00000700,0.0000431
 0,0.00001692,-0.00000670,-0.00001250,-0.00000376,-0.00000146,-0.000005
 82,-0.00051255,-0.00021279,-0.00037967,0.00105666,0.00271453,0.0002329
 0,-0.02925410,0.00047647,0.00765917,0.00172293,0.00073425,-0.00176234,
 -0.00003261,0.00028127,-0.00006866,-0.00040290,0.00001072,-0.00045691,
 -0.00004511,-0.00013370,0.00055654,0.00051690,0.00014670,-0.00041377,0
 .00006927,0.00002538,0.00002879,0.00004274,0.00002823,0.00004400,0.000
 01443,0.00002841,-0.00005561,0.00022797,-0.00028861,0.00008760,-0.0002
 7163,0.00019291,-0.00036484,0.00030233,0.00012430,0.00029065,-0.000014
 16,-0.00001623,0.00000273,0.00003318,0.00007995,-0.00003073,-0.0000672
 3,-0.00011133,0.00000945,0.00002290,0.00002809,0.00002272,-0.00000043,
 -0.00000335,0.00000616,0.00001057,0.00001039,0.00000499,0.00000408,-0.
 00000686,-0.00001799,0.00005693,0.00000509,0.00000411,-0.00001787,-0.0
 0015623,0.00006620,0.00001400,0.00001972,0.00000058,0.00000891,0.00001
 131,0.00000997,-0.00004499,0.00005675,-0.00003244,0.00003259,0.0000688
 5,0.00003891,0.00000447,-0.00003569,-0.00001624,0.00000692,-0.00000093
 ,0.00000209,0.00028602,0.00002396,0.00005365,0.00001928,0.00011742,-0.
 00012089,-0.00026657,0.00045050,-0.00009923,-0.04015271,0.06503037,0.0
 0045565,0.00025365,-0.00012539,-0.00050257,0.00049925,0.00130224,-0.03
 628834,0.00150017,0.00259366,0.00222721,-0.00082792,0.00231629,0.00008
 257,-0.00029941,0.00028688,0.06880273,-0.00076681,-0.05608889,0.016946
 98,-0.02281355,-0.01180918,0.00016436,0.00041136,-0.00043653,-0.000052
 64,0.00006612,0.00000549,-0.00003264,-0.00005174,0.00001946,0.00000099
 ,0.00000125,0.00000870,-0.00035406,-0.00017945,-0.00000888,-0.00205760
 ,-0.00171050,0.00049144,0.02767623,0.00087171,-0.00681526,-0.00151930,
 -0.00061415,0.00239932,0.00025824,-0.00057257,-0.00025186,0.00023207,0
 .00000066,0.00049305,0.00004237,0.00018108,-0.00043418,-0.00042217,-0.
 00020342,0.00029795,-0.00007062,-0.00004376,-0.00003640,-0.00003180,-0
 .00000854,-0.00002398,-0.00001187,-0.00002814,0.00004127,0.00026286,-0
 .00024806,-0.00007726,-0.00023954,0.00016163,-0.00021394,0.00020593,0.
 00003906,0.00019041,-0.00004894,0.00005355,0.00001592,-0.00004564,-0.0
 0001826,0.00005030,0.00004757,0.00004393,0.00000811,-0.00001682,-0.000
 00629,-0.00002412,0.00000233,-0.00000473,-0.00000207,-0.00001041,0.000
 00012,-0.00000658,-0.00001053,0.00000568,0.00002220,-0.00003102,0.0000
 3789,-0.00001462,-0.00014701,0.00008786,0.00005239,-0.00001958,0.00002
 493,-0.00004849,-0.00003807,-0.00004807,-0.00007326,-0.00005345,0.0000
 2124,0.00000112,0.00010691,-0.00008807,-0.00011175,0.00000051,-0.00001
 894,0.00001674,-0.00000240,-0.00000906,-0.00000834,0.00016640,0.000027
 72,-0.00030413,0.00040646,-0.00030118,-0.00033750,-0.00361212,-0.00068
 386,-0.00511084,-0.07396479,0.02178699,0.07402587,0.00017712,-0.000047
 81,0.00046283,0.00044164,0.00041649,-0.00027530,-0.00074893,-0.0001501
 7,-0.00164029,0.00064949,0.00020145,-0.00018473,0.00002293,0.00002059,
 0.00007596,-0.01435891,0.00053868,0.00567109,0.00130176,-0.00090434,-0
 .00094165,-0.00008952,-0.00007225,-0.00013009,0.00064698,-0.00056902,0
 .00017485,0.00015078,0.00013299,-0.00007722,-0.00000794,-0.00001985,-0
 .00001805,0.00042192,-0.00120542,-0.00253618,-0.00506314,0.01219237,0.
 00814035,-0.32756008,0.00905618,0.05995223,-0.02237075,0.00106853,-0.0
 1526287,-0.00133578,0.00166913,0.00519884,-0.00184998,0.00013641,-0.00
 249244,-0.00196230,-0.00362330,0.00697798,0.00227387,0.00074200,-0.001
 07799,0.00047791,0.00005388,0.00028881,0.00023108,0.00012907,0.0001651
 3,0.00006249,0.00017598,-0.00030481,-0.00022840,0.00011494,0.00023172,
 0.00021691,-0.00007326,-0.00002682,-0.00004975,0.00005278,0.00005532,0
 .00029193,-0.00042653,-0.00008868,0.00015822,0.00020889,-0.00035359,-0
 .00033659,-0.00047823,0.00006134,0.00012310,0.00009249,0.00010801,-0.0
 0000767,0.00000556,0.00002569,0.00006899,0.00002557,0.00003728,0.00005
 092,-0.00002895,-0.00015642,0.00023334,-0.00021378,0.00019441,0.001223
 37,-0.00090290,-0.00065206,0.00017263,0.00001667,0.00034359,0.00016555
 ,0.00013386,-0.00005760,0.00006276,0.00001748,-0.00005104,0.00003010,-
 0.00000057,-0.00000397,-0.00010989,-0.00019300,-0.00019751,0.00002118,
 0.00022143,0.00006627,0.00109346,0.00000381,0.00164023,-0.00012349,-0.
 00017822,-0.00040498,0.00140737,0.00022741,0.00043174,0.00023995,-0.00
 174621,0.00149555,0.36378536,0.00004930,0.00037682,-0.00019781,-0.0005
 5145,-0.00050704,-0.00009032,-0.00222358,0.00030634,-0.00153389,0.0007
 2418,0.00000169,0.00001724,0.00002792,-0.00007608,-0.00003780,-0.02916
 426,0.00146566,0.01142557,0.00195356,0.00248098,-0.00097105,0.00025745
 ,0.00030940,0.00002156,-0.00019415,0.00014763,-0.00003036,-0.00008704,
 -0.00007333,0.00004195,0.00000299,0.00001420,0.00002458,0.00546079,0.0
 0055098,0.00399408,0.03339431,-0.01962366,-0.02186122,0.00889721,-0.04
 078447,0.00044961,0.00461385,0.00430230,0.00081703,-0.00097873,0.00105
 378,-0.00090993,0.00078364,0.00000499,0.00037184,-0.00105933,-0.000876
 12,0.00121980,-0.00268232,0.00054013,0.00238026,-0.00011530,-0.0000870
 9,0.00003441,-0.00000221,0.00002055,-0.00006901,-0.00003323,-0.0000302
 0,0.00006346,-0.00003417,0.00004373,-0.00003509,0.00004314,0.00001817,
 0.00000847,-0.00002188,0.00000021,0.00002788,0.00011862,-0.00011341,-0
 .00002469,-0.00002504,-0.00003824,-0.00002608,0.00009059,0.00009451,0.
 00002553,-0.00001693,-0.00001587,-0.00006815,0.00000091,-0.00000534,-0
 .00000409,-0.00001622,-0.00000649,-0.00001345,-0.00000072,0.00000740,-
 0.00000074,-0.00006784,-0.00004321,0.00001886,-0.00007808,-0.00012708,
 -0.00008553,0.00002937,-0.00000765,-0.00000674,-0.00001780,-0.00002027
 ,0.00002591,-0.00000955,-0.00001586,0.00001280,-0.00002811,0.00001819,
 -0.00002088,-0.00002947,0.00015881,0.00012650,-0.00009826,-0.00008294,
 0.00000620,-0.00171524,0.00077902,0.00015273,-0.00000298,-0.00014658,0
 .00002341,0.00085808,0.00003443,0.00028563,-0.00123120,-0.00417178,0.0
 0347066,-0.01682085,0.05412281,-0.00016443,0.00006005,-0.00027005,-0.0
 0022172,0.00024298,-0.00013890,0.00294521,0.00047196,0.00052853,-0.000
 68177,-0.00018626,0.00015873,0.00005129,-0.00002044,-0.00000439,0.0216
 8405,0.00253294,-0.00415315,-0.00104852,0.00055719,0.00077029,0.000075
 77,0.00001867,0.00011211,-0.00027724,0.00009374,-0.00009611,-0.0000570
 0,-0.00002680,0.00001912,0.00000111,0.00000958,0.00000350,0.00481776,-
 0.00118085,0.00308297,0.01585965,-0.01395422,-0.00941106,0.06291010,0.
 00002707,-0.05181036,-0.04059547,0.00248495,-0.01295274,-0.00379445,0.
 00088464,0.00260204,-0.00049762,0.00040919,-0.00046687,0.00199512,0.00
 209956,-0.00320669,0.00309404,0.00190843,-0.00039792,0.00003828,-0.000
 01218,-0.00004579,0.00001372,0.00000894,0.00003262,0.00000497,-0.00000
 653,0.00001092,-0.00017424,0.00012196,0.00010577,0.00012007,-0.0001381
 9,0.00003344,-0.00001411,0.00002329,-0.00005787,0.00001378,-0.00012885
 ,0.00007709,0.00012193,0.00002501,-0.00017715,-0.00012539,-0.00014862,
 0.00006936,0.00005509,0.00002979,-0.00004532,-0.00000228,-0.00000465,0
 .00001631,0.00001450,0.00000430,0.00001377,0.00000318,0.00000453,-0.00
 001724,0.00001206,-0.00009497,-0.00007199,0.00023825,-0.00049572,-0.00
 031157,0.00019398,-0.00007189,0.00008506,0.00013201,0.00012925,-0.0000
 7274,0.00004854,-0.00001779,-0.00006333,-0.00002982,0.00001183,0.00000
 109,-0.00004502,0.00017782,0.00007458,-0.00004671,-0.00008963,-0.00003
 005,-0.00141894,0.00024845,-0.00001569,-0.00021058,-0.00004135,0.00017
 771,-0.00086295,0.00038761,-0.00084295,0.00068876,0.00270438,-0.002275
 36,-0.06486494,0.00094085,0.07896028\\-0.00461473,-0.00195636,-0.00381
 769,0.00217821,-0.00475608,-0.02294307,0.02107677,-0.06084998,-0.00789
 311,-0.00380744,0.02802287,0.03018254,-0.00246746,-0.03132418,-0.01248
 356,-0.05245852,0.02904299,-0.00388871,0.02446688,-0.01941686,0.030456
 62,0.00498388,0.02402245,-0.01289588,-0.01787317,0.01997545,-0.0203006
 5,0.00092873,0.01536245,0.00558680,-0.00209621,-0.02958267,-0.01216459
 ,0.02940826,0.00481754,-0.01043245,-0.02186548,0.00591226,0.00266938,0
 .00045146,0.00346009,-0.02893525,-0.01999318,-0.00366987,0.02517549,0.
 03290617,0.04638937,-0.00428986,0.02250170,-0.01130274,-0.00919100,-0.
 00399177,-0.01765482,0.04355797,0.01565276,0.02054917,-0.02610597,-0.0
 0559010,0.00654106,0.02697361,0.02112936,-0.00680732,-0.00782856,-0.02
 950764,0.01017161,-0.00836074,-0.02842395,-0.01176220,-0.00647739,-0.0
 0630041,-0.00193985,0.02156940,0.02109306,0.01324953,-0.02346426,-0.00
 325940,-0.07943243,0.02848847,-0.00063808,0.04944300,0.02603480,0.0644
 2331,0.00097781,-0.04850790,-0.01708491,-0.00020703,0.00762579,-0.0041
 3532,-0.00184151,-0.00593178,-0.01885718,0.00704944,-0.00399955,0.0085
 5256,-0.01648444,-0.00608564,-0.01224329,0.01459655,0.00397036,0.00810
 131,-0.01589030,0.00002317,-0.01684914,0.00887165,0.00007535,-0.011621
 57,0.00606262,0.01279413,-0.01321243,-0.00550559,-0.01563763,-0.002086
 73,0.00404952,0.00575599,-0.01861460,0.00893463,0.00951919,0.00827556,
 -0.01020571,0.01311763,0.02417858,-0.00426963,-0.00301378,-0.01637792,
 0.00329505,0.00851285,0.02514294,0.00160499,-0.00082302,-0.02394309,0.
 00607026,0.00476355,0.02246223,-0.00361275,-0.00138100\\\@


 TERENCE, THIS IS STUPID STUFF:
 YOU EAT YOUR VICTUALS FAST ENOUGH;
 THERE CAN'T BE MUCH AMISS, 'TIS CLEAR
 TO SEE THE RATE YOU DRINK YOUR BEER.
 BUT OH, GOOD LORD, THE VERSE YOU MAKE,
 IT GIVES A CHAP THE BELLY-ACHE.
 THE COW, THE OLD COW, SHE IS DEAD;
 IT SLEEPS WELL, THE HORNED HEAD:
 WE POOR LADS, 'TIS OUR TURN NOW
 TO HEAR SUCH TUNES AS KILLED THE COW.
 PRETTY FRIENDSHIP 'TIS TO RHYME
 YOUR FRIENDS TO DEATH BEFORE THEIR TIME.
 MOPING, MELANCHOLY MAD:
 COME PIPE A TUNE TO DANCE TO, LAD.

     -- A. E. HOUSMAN
 Job cpu time:  0 days 13 hours 15 minutes 19.3 seconds.
 File lengths (MBytes):  RWF=   1374 Int=      0 D2E=      0 Chk=     19 Scr=      1
 Normal termination of Gaussian 09 at Tue Mar  1 16:54:17 2016.
Gaussian '09 finished on node021 at Tue Mar  1 16:54:17 EST 2016.
