Gaussian '09 started on node027 at Mon Feb  8 13:53:38 EST 2016.
 Entering Gaussian System, Link 0=/usr/local/gaussian/g09/g09
 Initial command:
 /usr/local/gaussian/g09/l1.exe /home/srmcgrat/thesis/gaussian/cellobiose/290/8000/1/2dfp/gaussian4080/Gau-4116.inp -scrdir=/home/srmcgrat/thesis/gaussian/cellobiose/290/8000/1/2dfp/gaussian4080/
 Entering Link 1 = /usr/local/gaussian/g09/l1.exe PID=      4118.
  
 Copyright (c) 1988,1990,1992,1993,1995,1998,2003,2009,2010,
            Gaussian, Inc.  All Rights Reserved.
  
 This is part of the Gaussian(R) 09 program.  It is based on
 the Gaussian(R) 03 system (copyright 2003, Gaussian, Inc.),
 the Gaussian(R) 98 system (copyright 1998, Gaussian, Inc.),
 the Gaussian(R) 94 system (copyright 1995, Gaussian, Inc.),
 the Gaussian 92(TM) system (copyright 1992, Gaussian, Inc.),
 the Gaussian 90(TM) system (copyright 1990, Gaussian, Inc.),
 the Gaussian 88(TM) system (copyright 1988, Gaussian, Inc.),
 the Gaussian 86(TM) system (copyright 1986, Carnegie Mellon
 University), and the Gaussian 82(TM) system (copyright 1983,
 Carnegie Mellon University). Gaussian is a federally registered
 trademark of Gaussian, Inc.
  
 This software contains proprietary and confidential information,
 including trade secrets, belonging to Gaussian, Inc.
  
 This software is provided under written license and may be
 used, copied, transmitted, or stored only in accord with that
 written license.
  
 The following legend is applicable only to US Government
 contracts under FAR:
  
                    RESTRICTED RIGHTS LEGEND
  
 Use, reproduction and disclosure by the US Government is
 subject to restrictions as set forth in subparagraphs (a)
 and (c) of the Commercial Computer Software - Restricted
 Rights clause in FAR 52.227-19.
  
 Gaussian, Inc.
 340 Quinnipiac St., Bldg. 40, Wallingford CT 06492
  
  
 ---------------------------------------------------------------
 Warning -- This program may not be used in any manner that
 competes with the business of Gaussian, Inc. or will provide
 assistance to any competitor of Gaussian, Inc.  The licensee
 of this program is prohibited from giving any competitor of
 Gaussian, Inc. access to this program.  By using this program,
 the user acknowledges that Gaussian, Inc. is engaged in the
 business of creating and licensing software in the field of
 computational chemistry and represents and warrants to the
 licensee that it is not a competitor of Gaussian, Inc. and that
 it will not use this program in any manner prohibited above.
 ---------------------------------------------------------------
  

 Cite this work as:
 Gaussian 09, Revision B.01,
 M. J. Frisch, G. W. Trucks, H. B. Schlegel, G. E. Scuseria, 
 M. A. Robb, J. R. Cheeseman, G. Scalmani, V. Barone, B. Mennucci, 
 G. A. Petersson, H. Nakatsuji, M. Caricato, X. Li, H. P. Hratchian, 
 A. F. Izmaylov, J. Bloino, G. Zheng, J. L. Sonnenberg, M. Hada, 
 M. Ehara, K. Toyota, R. Fukuda, J. Hasegawa, M. Ishida, T. Nakajima, 
 Y. Honda, O. Kitao, H. Nakai, T. Vreven, J. A. Montgomery, Jr., 
 J. E. Peralta, F. Ogliaro, M. Bearpark, J. J. Heyd, E. Brothers, 
 K. N. Kudin, V. N. Staroverov, T. Keith, R. Kobayashi, J. Normand, 
 K. Raghavachari, A. Rendell, J. C. Burant, S. S. Iyengar, J. Tomasi, 
 M. Cossi, N. Rega, J. M. Millam, M. Klene, J. E. Knox, J. B. Cross, 
 V. Bakken, C. Adamo, J. Jaramillo, R. Gomperts, R. E. Stratmann, 
 O. Yazyev, A. J. Austin, R. Cammi, C. Pomelli, J. W. Ochterski, 
 R. L. Martin, K. Morokuma, V. G. Zakrzewski, G. A. Voth, 
 P. Salvador, J. J. Dannenberg, S. Dapprich, A. D. Daniels, 
 O. Farkas, J. B. Foresman, J. V. Ortiz, J. Cioslowski, 
 and D. J. Fox, Gaussian, Inc., Wallingford CT, 2010.
 
 ******************************************
 Gaussian 09:  EM64L-G09RevB.01 12-Aug-2010
                 8-Feb-2016 
 ******************************************
 --------------------------------------------------
 # freq=raman b3lyp/6-31+g(2df,p) geom=connectivity
 --------------------------------------------------
 1/10=4,30=1,38=1,57=2/1,3;
 2/12=2,17=6,18=5,40=1/2;
 3/5=1,6=6,7=114,11=2,16=1,25=1,30=1,71=2,74=-5/1,2,3;
 4//1;
 5/5=2,38=5,98=1/2;
 8/6=4,10=90,11=11/1;
 10/13=10,15=4/2;
 11/6=3,8=1,9=11,15=111,16=1/1,2,10;
 10/6=1/2;
 6/7=2,8=2,9=2,10=2,18=1,28=1/1;
 7/8=1,10=1,25=1/1,2,3,16;
 1/10=4,30=1/3;
 99//99;
 ------------
 290 8000.com
 ------------
 Symbolic Z-matrix:
 Charge =  0 Multiplicity = 1
 O                     7.535     7.651     12.246 
 C                     8.08      7.935     13.543 
 C                     7.462     9.246     14.001 
 O                     7.448     10.316    13.045 
 H                     7.426     9.999     12.097 
 C                     8.024     9.604     15.367 
 O                     7.472     10.789    15.958 
 H                     7.687     10.921    16.926 
 C                     8.309     5.566     14.138 
 O                     7.786     4.828     13.024 
 H                     8.124     3.893     13.131 
 C                     7.718     6.892     14.587 
 O                     8.241     7.179     15.892 
 C                     7.758     8.458     16.329 
 O                     8.422     8.748     17.567 
 C                     7.894     8.304     18.826 
 C                     8.503     6.987     19.278 
 O                     8.441     5.902     18.341 
 H                     8.409     6.328     17.437 
 C                     7.871     6.658     20.621 
 O                     8.315     5.444     21.244 
 H                     8.063     5.317     22.204 
 C                     7.762     10.653    19.522 
 O                     8.109     11.517    18.43 
 H                     7.758     12.447    18.545 
 C                     8.388     9.308     19.854 
 O                     7.789     8.976     21.115 
 C                     8.222     7.718     21.653 
 O                     7.54022   7.45017   22.88115 
 H                     8.25079   7.51416   11.62108 
 H                     9.14339   8.03517   13.47918 
 H                     6.43018   9.02149   14.17375 
 H                     9.08226   9.73241   15.27483 
 H                     6.70492   8.39007   16.50596 
 H                     6.6532    6.80362   14.64427 
 H                     8.26998   4.91172   14.98375 
 H                     6.82514   8.2573    18.80979 
 H                     9.5407    7.17344   19.46053 
 H                     9.45569   9.35445   19.90663 
 H                     7.88769   11.24749   20.40273 
 H                     6.71684   10.45616   19.40456 
 H                     9.27931   7.73404   21.81653 
 H                     8.18325   7.2983    23.57759 
 H                     6.80787   6.62177   20.50551 
 H                     9.34211   5.74749   13.92673 
 

 GradGradGradGradGradGradGradGradGradGradGradGradGradGradGradGradGradGrad
 Berny optimization.
 Initialization pass.
 Trust Radius=3.00D-01 FncErr=1.00D-07 GrdErr=1.00D-07
 Number of steps in this run=      2 maximum allowed number of steps=      2.
 GradGradGradGradGradGradGradGradGradGradGradGradGradGradGradGradGradGrad

                          Input orientation:                          
 ---------------------------------------------------------------------
 Center     Atomic      Atomic             Coordinates (Angstroms)
 Number     Number       Type             X           Y           Z
 ---------------------------------------------------------------------
      1          8           0        7.535000    7.651000   12.246000
      2          6           0        8.080000    7.935000   13.543000
      3          6           0        7.462000    9.246000   14.001000
      4          8           0        7.448000   10.316000   13.045000
      5          1           0        7.426000    9.999000   12.097000
      6          6           0        8.024000    9.604000   15.367000
      7          8           0        7.472000   10.789000   15.958000
      8          1           0        7.687000   10.921000   16.926000
      9          6           0        8.309000    5.566000   14.138000
     10          8           0        7.786000    4.828000   13.024000
     11          1           0        8.124000    3.893000   13.131000
     12          6           0        7.718000    6.892000   14.587000
     13          8           0        8.241000    7.179000   15.892000
     14          6           0        7.758000    8.458000   16.329000
     15          8           0        8.422000    8.748000   17.567000
     16          6           0        7.894000    8.304000   18.826000
     17          6           0        8.503000    6.987000   19.278000
     18          8           0        8.441000    5.902000   18.341000
     19          1           0        8.409000    6.328000   17.437000
     20          6           0        7.871000    6.658000   20.621000
     21          8           0        8.315000    5.444000   21.244000
     22          1           0        8.063000    5.317000   22.204000
     23          6           0        7.762000   10.653000   19.522000
     24          8           0        8.109000   11.517000   18.430000
     25          1           0        7.758000   12.447000   18.545000
     26          6           0        8.388000    9.308000   19.854000
     27          8           0        7.789000    8.976000   21.115000
     28          6           0        8.222000    7.718000   21.653000
     29          8           0        7.540217    7.450174   22.881145
     30          1           0        8.250789    7.514164   11.621083
     31          1           0        9.143387    8.035172   13.479182
     32          1           0        6.430179    9.021491   14.173749
     33          1           0        9.082261    9.732410   15.274829
     34          1           0        6.704923    8.390067   16.505958
     35          1           0        6.653196    6.803616   14.644270
     36          1           0        8.269982    4.911718   14.983750
     37          1           0        6.825142    8.257301   18.809789
     38          1           0        9.540702    7.173436   19.460529
     39          1           0        9.455695    9.354453   19.906628
     40          1           0        7.887694   11.247493   20.402727
     41          1           0        6.716840   10.456157   19.404558
     42          1           0        9.279308    7.734042   21.816530
     43          1           0        8.183254    7.298298   23.577591
     44          1           0        6.807868    6.621775   20.505508
     45          1           0        9.342114    5.747490   13.926725
 ---------------------------------------------------------------------
                    Distance matrix (angstroms):
                    1          2          3          4          5
     1  O    0.000000
     2  C    1.435232   0.000000
     3  C    2.372631   1.520003   0.000000
     4  O    2.783558   2.513283   1.434933   0.000000
     5  H    2.355246   2.603599   2.047809   0.999838   0.000000
     6  C    3.714024   2.472989   1.519857   2.496078   3.347615
     7  O    4.861065   3.787770   2.492147   2.951250   3.941261
     8  H    5.711252   4.529386   3.378147   3.935137   4.923154
     9  C    2.919926   2.453289   3.778701   4.949593   4.959522
    10  O    2.938982   3.163739   4.536323   5.498439   5.265754
    11  H    3.905472   4.063182   5.463493   6.459048   6.232142
    12  C    2.467762   1.519483   2.439313   3.764896   3.992344
    13  O    3.743599   2.472905   2.907785   4.309876   4.797776
    14  C    4.167957   2.852895   2.475509   3.785884   4.516052
    15  O    5.504836   4.119528   3.726387   4.884238   5.698940
    16  C    6.622061   5.299136   4.935039   6.137346   6.954962
    17  C    7.129302   5.828195   5.833823   7.144617   7.861223
    18  O    6.405378   5.223429   5.565643   6.965419   7.536788
    19  H    5.427770   4.225391   4.606260   6.009769   6.554245
    20  C    8.440354   7.195311   7.119651   8.423519   9.166181
    21  O    9.297486   8.097265   8.224589   9.576621  10.256995
    22  H   10.241489   9.048046   9.115232  10.452536  11.156986
    23  C    7.874243   6.575492   5.705356   6.493358   7.461316
    24  O    7.315551   6.059235   5.019172   5.556757   6.548107
    25  H    7.920148   6.744022   5.566143   5.906544   6.905044
    26  C    7.832938   6.465966   5.926123   6.947096   7.846909
    27  O    8.971026   7.648761   7.126628   8.187599   9.083095
    28  C    9.432291   8.114145   7.839993   9.024763   9.856658
    29  O   10.637042   9.366289   9.060248  10.245546  11.081848
    30  H    0.960000   1.974851   3.047204   3.243809   2.661050
    31  H    2.062822   1.070000   2.136695   2.874897   2.952367
    32  H    2.610573   2.073696   1.070000   1.996443   2.502013
    33  H    3.987492   2.689692   2.117659   2.825513   3.593448
    34  H    4.402555   3.298036   2.753289   4.029840   4.748424
    35  H    2.692089   2.128050   2.652019   3.940333   4.158881
    36  H    3.941971   3.354413   4.517149   5.800058   5.909828
    37  H    6.629843   5.423800   4.950511   6.152965   6.961040
    38  H    7.503355   6.142539   6.198628   7.444067   8.165619
    39  H    8.079359   6.663568   6.234021   7.213692   8.094775
    40  H    8.921398   7.620068   6.720810   7.429478   8.411717
    41  H    7.731962   6.524745   5.587323   6.402985   7.356106
    42  H    9.728543   8.362417   8.165239   9.325231  10.150569
    43  H   11.355597  10.055300   9.799226  10.981010  11.818256
    44  H    8.355088   7.198569   7.044364   8.349625   9.082441
    45  H    3.116705   2.554482   3.972394   5.023583   5.009463
                    6          7          8          9         10
     6  C    0.000000
     7  O    1.434646   0.000000
     8  H    2.068463   1.000336   0.000000
     9  C    4.230498   5.593988   6.069255   0.000000
    10  O    5.325079   6.651351   7.236025   1.434980   0.000000
    11  H    6.133940   7.481434   7.999111   1.961429   0.999959
    12  C    2.838482   4.138450   4.658833   1.519591   2.589921
    13  O    2.490650   3.691587   3.921560   2.383885   3.736262
    14  C    1.519709   2.377603   2.535314   3.669843   4.909247
    15  O    2.393980   2.767140   2.381813   4.679309   6.034049
    16  C    3.697510   3.818211   3.240608   5.444834   6.764425
    17  C    4.730122   5.151754   4.655547   5.336336   6.654914
    18  O    4.766904   5.522718   5.268881   4.218475   5.463789
    19  H    3.894265   4.792278   4.677398   3.387336   4.702414
    20  C    6.025516   6.242430   5.644471   6.588900   7.814764
    21  O    7.206206   7.564487   7.002645   7.107050   8.260006
    22  H    8.069973   8.324937   7.707365   8.073591   9.197187
    23  C    4.293375   3.578364   2.610874   7.427263   8.726695
    24  O    3.612307   2.654531   1.671920   7.340004   8.606503
    25  H    4.272363   3.085989   2.225956   8.189836   9.409112
    26  C    4.511461   4.267462   3.415604   6.832383   8.190342
    27  O    5.786978   5.475592   4.619648   7.783125   9.092315
    28  C    6.565820   6.513568   5.734977   7.817538   9.110534
    29  O    7.831691   7.686505   6.894341   8.976844  10.202917
    30  H    4.295433   5.489983   6.329813   3.183332   3.065890
    31  H    2.697797   4.064683   4.725423   2.688318   3.512213
    32  H    2.074471   2.719012   3.572481   3.933404   4.554727
    33  H    1.070000   2.043537   2.466954   4.387401   5.549753
    34  H    2.123870   2.577508   2.747096   4.019408   5.097164
    35  H    3.200562   4.275467   4.819533   2.128307   2.794920
    36  H    4.714329   6.010689   6.342214   1.070000   2.020363
    37  H    3.886342   3.867897   3.374426   5.592007   6.794020
    38  H    4.996500   5.442384   4.889201   5.694757   7.071701
    39  H    4.766576   4.645926   3.803484   6.996024   8.405190
    40  H    5.298886   4.487606   3.497785   8.467801   9.780891
    41  H    4.328592   3.543982   2.701951   7.361062   8.575009
    42  H    6.831470   6.849928   6.050573   8.037520   9.379959
    43  H    8.529679   8.411245   7.590382   9.598049  10.846126
    44  H    6.064396   6.203762   5.662957   6.626704   7.755471
    45  H    4.322555   5.748063   6.204857   1.070000   2.020363
                   11         12         13         14         15
    11  H    0.000000
    12  C    3.358388   0.000000
    13  O    4.293554   1.434895   0.000000
    14  C    5.585730   2.342759   1.435304   0.000000
    15  O    6.583155   3.580608   2.302205   1.434448   0.000000
    16  C    7.207139   4.471447   3.161391   2.505438   1.435619
    17  C    6.892176   4.757177   3.401544   3.378678   2.456665
    18  O    5.592912   3.949094   2.769175   3.323818   2.949433
    19  H    4.955006   2.986315   1.771849   2.487642   2.423524
    20  C    7.988074   6.040474   4.771979   4.655538   3.741473
    21  O    8.262134   6.838769   5.626687   5.792380   4.944512
    22  H    9.184271   7.785778   6.583318   6.668923   5.779482
    23  C    9.309862   6.204940   5.047278   3.874699   2.808318
    24  O    9.284665   6.025957   5.027635   3.727584   2.917207
    25  H   10.129969   6.820952   5.918067   4.563198   3.883295
    26  C    8.636588   5.833288   4.500188   3.680357   2.354809
    27  O    9.470658   6.852947   5.541953   4.814050   3.611229
    28  C    9.341558   7.131946   5.786191   5.395171   4.218566
    29  O   10.395173   8.314807   7.029423   6.632778   5.540942
    30  H    3.925398   3.076949   4.284059   4.826816   6.074998
    31  H    4.279949   2.136781   2.714594   3.196802   4.211743
    32  H    5.500707   2.522695   3.102617   2.593403   3.944147
    33  H    6.293884   3.225251   2.758355   2.118741   2.580514
    34  H    5.798942   2.636841   2.050161   1.070000   2.049946
    35  H    3.595127   1.070000   2.053988   2.606894   3.930858
    36  H    2.119381   2.093708   2.442607   3.827263   4.627457
    37  H    7.278928   4.526940   3.417730   2.657972   2.082130
    38  H    7.268510   5.210829   3.797849   3.825520   2.704847
    39  H    8.803977   6.114057   4.724967   4.060199   2.628720
    40  H   10.345164   7.267860   6.084744   4.938961   3.817629
    41  H    9.187636   6.075722   5.039929   3.812571   3.033478
    42  H    9.566962   7.443979   6.040382   5.740338   4.452145
    43  H   10.987758   9.011784   7.686733   7.353082   6.187555
    44  H    7.972564   5.994172   4.863005   4.660224   3.970023
    45  H    2.357141   2.093708   2.669078   3.953126   4.806378
                   16         17         18         19         20
    16  C    0.000000
    17  C    1.519761   0.000000
    18  O    2.510784   1.434935   0.000000
    19  H    2.469640   1.957651   0.999858   0.000000
    20  C    2.435543   1.520301   2.468772   3.245951   0.000000
    21  O    3.768762   2.506262   2.941607   3.909417   1.434943
    22  H    4.512385   3.397643   3.925287   4.885297   2.083515
    23  C    2.453496   3.748089   4.942449   4.844735   4.144841
    24  O    3.244443   4.625499   5.625511   5.291670   5.335448
    25  H    4.154745   5.559129   6.583702   6.252490   6.151022
    26  C    1.519485   2.394168   3.727307   3.837021   2.806791
    27  O    2.387913   2.800087   4.191617   4.574275   2.371473
    28  C    2.905668   2.500789   3.783538   4.443166   1.520469
    29  O    4.159133   3.758209   4.880694   5.626080   2.417688
    30  H    7.256857   7.679186   6.913215   5.937753   9.048523
    31  H    5.497427   5.927482   5.355468   4.372423   7.383843
    32  H    4.929605   5.872744   5.580377   4.671128   7.016345
    33  H    4.007884   4.888578   4.948197   4.088798   6.284957
    34  H    2.608430   3.589693   3.545676   2.832461   4.614473
    35  H    4.612766   4.992680   4.204160   3.332926   6.101274
    36  H    5.139244   4.775111   3.504431   2.836128   5.915005
    37  H    1.070000   2.155943   2.894512   2.848746   2.632882
    38  H    2.095812   1.070000   2.019712   2.467829   2.097682
    39  H    2.170276   2.628238   3.924312   4.044014   3.208184
    40  H    3.339200   4.449204   5.755967   5.767903   4.594711
    41  H    2.520360   3.904028   4.984399   4.876102   4.151845
    42  H    3.344727   2.757691   4.017268   4.681311   2.137870
    43  H    4.865462   4.322687   5.425676   6.220875   3.041202
    44  H    2.613486   2.124532   2.805403   3.473567   1.070000
    45  H    5.712764   5.556675   4.507960   3.678277   6.914226
                   21         22         23         24         25
    21  O    0.000000
    22  H    1.000616   0.000000
    23  C    5.514052   5.979684   0.000000
    24  O    6.696444   7.258457   1.435050   0.000000
    25  H    7.525746   8.019863   2.042788   1.000663   0.000000
    26  C    4.107058   4.642866   1.520238   2.642971   3.458858
    27  O    3.573282   3.827438   2.313160   3.710567   4.318993
    28  C    2.312359   2.468539   3.656089   4.983262   5.677887
    29  O    2.702826   2.298317   4.646627   6.056012   6.619506
    30  H    9.843284  10.810224   8.515615   7.899630   8.515653
    31  H    8.227563   9.202073   6.728812   6.140333   6.859012
    32  H    8.144903   8.993013   5.747987   5.211686   5.710083
    33  H    7.389868   8.279381   4.541919   3.753279   4.451593
    34  H    5.806952   6.614816   3.915966   3.930786   4.661048
    35  H    6.940215   7.832438   6.311850   6.218288   6.948674
    36  H    6.283000   7.234578   7.335945   7.452000   8.350156
    37  H    4.007458   4.658147   2.669142   3.523942   4.300455
    38  H    2.770209   3.627201   3.908315   4.688103   5.641516
    39  H    4.287353   4.849592   2.168586   2.944593   3.781540
    40  H    5.879699   6.200489   1.070000   2.003312   2.215126
    41  H    5.573095   6.004995   1.070000   2.003312   2.405475
    42  H    2.549896   2.733428   4.010911   5.210468   5.935425
    43  H    2.983525   2.413867   5.280085   6.655873   7.212277
    44  H    2.050359   2.482472   4.257750   5.473930   6.219292
    45  H    7.395240   8.386581   7.607095   7.422082   8.289832
                   26         27         28         29         30
    26  C    0.000000
    27  O    1.434972   0.000000
    28  C    2.406669   1.435095   0.000000
    29  O    3.651556   2.347191   1.430000   0.000000
    30  H    8.427194   9.616896  10.034029  11.282642   0.000000
    31  H    6.544387   7.811865   8.231698   9.555589   2.126197
    32  H    6.015015   7.073148   7.800571   8.917397   3.478902
    33  H    4.650906   6.029285   6.743809   8.089657   4.354518
    34  H    3.858074   4.770934   5.407886   6.498009   5.197972
    35  H    6.035128   6.919512   7.240134   8.309690   3.492399
    36  H    6.562055   7.371700   7.235774   8.327375   4.252132
    37  H    2.153339   2.599913   3.213395   4.211737   7.366289
    38  H    2.457622   3.009148   2.615808   3.972296   7.952163
    39  H    1.070000   2.093146   2.692545   4.017846   8.572556
    40  H    2.076786   2.382594   3.759291   4.547849   9.549181
    41  H    2.076786   2.503199   3.849481   4.669106   8.461135
    42  H    2.668951   2.062916   1.070000   2.058744  10.249553
    43  H    4.236266   3.005740   1.970203   0.960000  11.958647
    44  H    3.183879   2.622304   2.125610   2.620350   9.044965
    45  H    6.979982   8.031608   8.051887   9.291265   3.102920
                   31         32         33         34         35
    31  H    0.000000
    32  H    2.969301   0.000000
    33  H    2.471579   2.958263   0.000000
    34  H    3.903003   2.431744   2.994878   0.000000
    35  H    3.012510   2.278179   3.856916   2.446504   0.000000
    36  H    3.575266   4.575064   4.897305   4.106755   2.511677
    37  H    5.817127   4.715172   4.445950   2.310782   4.415236
    38  H    6.056151   6.406302   4.927332   4.272157   5.627682
    39  H    6.568873   6.490802   4.662173   4.478989   6.484842
    40  H    7.735066   6.773448   5.478850   4.974800   7.377794
    41  H    6.845391   5.431556   4.813905   3.559600   6.000454
    42  H    8.343891   8.257552   6.842964   5.938013   7.694379
    43  H   10.170678   9.719820   8.698791   7.306532   9.076894
    44  H    7.538010   6.781774   6.496838   4.374226   5.866097
    45  H    2.339503   4.388561   4.214795   4.537668   2.976668
                   36         37         38         39         40
    36  H    0.000000
    37  H    5.283849   0.000000
    38  H    5.174133   2.995411   0.000000
    39  H    6.736360   3.053949   2.227794   0.000000
    40  H    8.345867   3.550734   4.496456   2.507657   0.000000
    41  H    7.259242   2.280449   4.330542   2.994521   1.730160
    42  H    7.461310   3.916276   2.435846   2.510891   4.034820
    43  H    8.919495   5.049365   4.336871   4.395776   5.075752
    44  H    5.962540   2.355994   2.977363   3.851905   4.751195
    45  H    1.722000   6.039752   5.718019   6.984434   8.619975
                   41         42         43         44         45
    41  H    0.000000
    42  H    4.449019   0.000000
    43  H    5.434763   2.119562   0.000000
    44  H    3.990347   3.010637   3.433229   0.000000
    45  H    7.685718   8.136298   9.843128   7.104024   0.000000
 Stoichiometry    C12H22O11
 Framework group  C1[X(C12H22O11)]
 Deg. of freedom   129
 Full point group                 C1      NOp   1
 Largest Abelian subgroup         C1      NOp   1
 Largest concise Abelian subgroup C1      NOp   1
                         Standard orientation:                         
 ---------------------------------------------------------------------
 Center     Atomic      Atomic             Coordinates (Angstroms)
 Number     Number       Type             X           Y           Z
 ---------------------------------------------------------------------
      1          8           0        5.039372   -0.360578   -0.287078
      2          6           0        3.722180   -0.128345    0.233461
      3          6           0        3.270770    1.220946   -0.301376
      4          8           0        4.215216    2.296889   -0.204424
      5          1           0        5.166762    1.990201   -0.217837
      6          6           0        1.883268    1.525149    0.239238
      7          8           0        1.298113    2.742814   -0.243562
      8          1           0        0.322207    2.850578   -0.052076
      9          6           0        3.145333   -2.512612    0.267293
     10          8           0        4.283766   -3.200721   -0.270895
     11          1           0        4.175707   -4.159003   -0.006441
     12          6           0        2.701869   -1.150285   -0.239226
     13          8           0        1.377372   -0.913499    0.259338
     14          6           0        0.942850    0.394071   -0.142592
     15          8           0       -0.319358    0.623974    0.498981
     16          6           0       -1.555483    0.209878   -0.102283
     17          6           0       -2.013168   -1.152225    0.392563
     18          8           0       -1.063087   -2.221917    0.282367
     19          1           0       -0.163131   -1.787287    0.312214
     20          6           0       -3.331051   -1.444642   -0.306715
     21          8           0       -3.955306   -2.693238    0.025510
     22          1           0       -4.905082   -2.809159   -0.267273
     23          6           0       -2.271841    2.556397   -0.084287
     24          8           0       -1.201151    3.401337    0.361883
     25          1           0       -1.314478    4.353766    0.076644
     26          6           0       -2.609858    1.166102    0.429475
     27          8           0       -3.846844    0.868929   -0.234378
     28          6           0       -4.385317   -0.422032    0.086500
     29          8           0       -5.587430   -0.648817   -0.654035
     30          1           0        5.641827   -0.544816    0.437287
     31          1           0        3.749899   -0.106555    1.302880
     32          1           0        3.134475    1.071933   -1.352146
     33          1           0        1.939190    1.575711    1.306579
     34          1           0        0.801374    0.402736   -1.203163
     35          1           0        2.680613   -1.160161   -1.308969
     36          1           0        2.308370   -3.169161    0.151810
     37          1           0       -1.503614    0.242476   -1.170528
     38          1           0       -2.231725   -1.044540    1.434454
     39          1           0       -2.698081    1.133045    1.495319
     40          1           0       -3.162533    3.132695    0.055171
     41          1           0       -2.117975    2.438348   -1.136565
     42          1           0       -4.583709   -0.485562    1.136026
     43          1           0       -6.302993   -0.853556   -0.047691
     44          1           0       -3.180260   -1.401205   -1.365146
     45          1           0        3.320548   -2.406277    1.317480
 ---------------------------------------------------------------------
 Rotational constants (GHZ):      0.4141525      0.1437288      0.1090388
 Standard basis: 6-31+G(2df,p) (6D, 7F)
 There are   846 symmetry adapted basis functions of A   symmetry.
 Integral buffers will be    131072 words long.
 Raffenetti 2 integral format.
 Two-electron integral symmetry is turned on.
   846 basis functions,  1258 primitive gaussians,   915 cartesian basis functions
    91 alpha electrons       91 beta electrons
       nuclear repulsion energy      2287.4940355071 Hartrees.
 NAtoms=   45 NActive=   45 NUniq=   45 SFac= 1.00D+00 NAtFMM=   50 NAOKFM=F Big=F
 One-electron integrals computed using PRISM.
 NBasis=   846 RedAO= T  NBF=   846
 NBsUse=   846 1.00D-06 NBFU=   846
 Harris functional with IExCor=  402 diagonalized for initial guess.
 ExpMin= 4.38D-02 ExpMax= 5.48D+03 ExpMxC= 8.25D+02 IAcc=2 IRadAn=         0 AccDes= 0.00D+00
 HarFok:  IExCor=  402 AccDes= 0.00D+00 IRadAn=         0 IDoV= 1
 ScaDFX=  1.000000  1.000000  1.000000  1.000000
 FoFCou: FMM=F IPFlag=           0 FMFlag=      100000 FMFlg1=           0
         NFxFlg=           0 DoJE=T BraDBF=F KetDBF=T FulRan=T
         Omega=  0.000000  0.000000  1.000000  0.000000  0.000000 ICntrl=     500 IOpCl=  0
         NMat0=    1 NMatS0=    1 NMatT0=    0 NMatD0=    1 NMtDS0=    0 NMtDT0=    0
         I1Cent=           4 NGrid=           0.
 Petite list used in FoFCou.
 Initial guess orbital symmetries:
       Occupied  (A) (A) (A) (A) (A) (A) (A) (A) (A) (A) (A) (A)
                 (A) (A) (A) (A) (A) (A) (A) (A) (A) (A) (A) (A)
                 (A) (A) (A) (A) (A) (A) (A) (A) (A) (A) (A) (A)
                 (A) (A) (A) (A) (A) (A) (A) (A) (A) (A) (A) (A)
                 (A) (A) (A) (A) (A) (A) (A) (A) (A) (A) (A) (A)
                 (A) (A) (A) (A) (A) (A) (A) (A) (A) (A) (A) (A)
                 (A) (A) (A) (A) (A) (A) (A) (A) (A) (A) (A) (A)
                 (A) (A) (A) (A) (A) (A) (A)
       Virtual   (A) (A) (A) (A) (A) (A) (A) (A) (A) (A) (A) (A)
                 (A) (A) (A) (A) (A) (A) (A) (A) (A) (A) (A) (A)
                 (A) (A) (A) (A) (A) (A) (A) (A) (A) (A) (A) (A)
                 (A) (A) (A) (A) (A) (A) (A) (A) (A) (A) (A) (A)
                 (A) (A) (A) (A) (A) (A) (A) (A) (A) (A) (A) (A)
                 (A) (A) (A) (A) (A) (A) (A) (A) (A) (A) (A) (A)
                 (A) (A) (A) (A) (A) (A) (A) (A) (A) (A) (A) (A)
                 (A) (A) (A) (A) (A) (A) (A) (A) (A) (A) (A) (A)
                 (A) (A) (A) (A) (A) (A) (A) (A) (A) (A) (A) (A)
                 (A) (A) (A) (A) (A) (A) (A) (A) (A) (A) (A) (A)
                 (A) (A) (A) (A) (A) (A) (A) (A) (A) (A) (A) (A)
                 (A) (A) (A) (A) (A) (A) (A) (A) (A) (A) (A) (A)
                 (A) (A) (A) (A) (A) (A) (A) (A) (A) (A) (A) (A)
                 (A) (A) (A) (A) (A) (A) (A) (A) (A) (A) (A) (A)
                 (A) (A) (A) (A) (A) (A) (A) (A) (A) (A) (A) (A)
                 (A) (A) (A) (A) (A) (A) (A) (A) (A) (A) (A) (A)
                 (A) (A) (A) (A) (A) (A) (A) (A) (A) (A) (A) (A)
                 (A) (A) (A) (A) (A) (A) (A) (A) (A) (A) (A) (A)
                 (A) (A) (A) (A) (A) (A) (A) (A) (A) (A) (A) (A)
                 (A) (A) (A) (A) (A) (A) (A) (A) (A) (A) (A) (A)
                 (A) (A) (A) (A) (A) (A) (A) (A) (A) (A) (A) (A)
                 (A) (A) (A) (A) (A) (A) (A) (A) (A) (A) (A) (A)
                 (A) (A) (A) (A) (A) (A) (A) (A) (A) (A) (A) (A)
                 (A) (A) (A) (A) (A) (A) (A) (A) (A) (A) (A) (A)
                 (A) (A) (A) (A) (A) (A) (A) (A) (A) (A) (A) (A)
                 (A) (A) (A) (A) (A) (A) (A) (A) (A) (A) (A) (A)
                 (A) (A) (A) (A) (A) (A) (A) (A) (A) (A) (A) (A)
                 (A) (A) (A) (A) (A) (A) (A) (A) (A) (A) (A) (A)
                 (A) (A) (A) (A) (A) (A) (A) (A) (A) (A) (A) (A)
                 (A) (A) (A) (A) (A) (A) (A) (A) (A) (A) (A) (A)
                 (A) (A) (A) (A) (A) (A) (A) (A) (A) (A) (A) (A)
                 (A) (A) (A) (A) (A) (A) (A) (A) (A) (A) (A) (A)
                 (A) (A) (A) (A) (A) (A) (A) (A) (A) (A) (A) (A)
                 (A) (A) (A) (A) (A) (A) (A) (A) (A) (A) (A) (A)
                 (A) (A) (A) (A) (A) (A) (A) (A) (A) (A) (A) (A)
                 (A) (A) (A) (A) (A) (A) (A) (A) (A) (A) (A) (A)
                 (A) (A) (A) (A) (A) (A) (A) (A) (A) (A) (A) (A)
                 (A) (A) (A) (A) (A) (A) (A) (A) (A) (A) (A) (A)
                 (A) (A) (A) (A) (A) (A) (A) (A) (A) (A) (A) (A)
                 (A) (A) (A) (A) (A) (A) (A) (A) (A) (A) (A) (A)
                 (A) (A) (A) (A) (A) (A) (A) (A) (A) (A) (A) (A)
                 (A) (A) (A) (A) (A) (A) (A) (A) (A) (A) (A) (A)
                 (A) (A) (A) (A) (A) (A) (A) (A) (A) (A) (A) (A)
                 (A) (A) (A) (A) (A) (A) (A) (A) (A) (A) (A) (A)
                 (A) (A) (A) (A) (A) (A) (A) (A) (A) (A) (A) (A)
                 (A) (A) (A) (A) (A) (A) (A) (A) (A) (A) (A) (A)
                 (A) (A) (A) (A) (A) (A) (A) (A) (A) (A) (A) (A)
                 (A) (A) (A) (A) (A) (A) (A) (A) (A) (A) (A) (A)
                 (A) (A) (A) (A) (A) (A) (A) (A) (A) (A) (A) (A)
                 (A) (A) (A) (A) (A) (A) (A) (A) (A) (A) (A) (A)
                 (A) (A) (A) (A) (A) (A) (A) (A) (A) (A) (A) (A)
                 (A) (A) (A) (A) (A) (A) (A) (A) (A) (A) (A) (A)
                 (A) (A) (A) (A) (A) (A) (A) (A) (A) (A) (A) (A)
                 (A) (A) (A) (A) (A) (A) (A) (A) (A) (A) (A) (A)
                 (A) (A) (A) (A) (A) (A) (A) (A) (A) (A) (A) (A)
                 (A) (A) (A) (A) (A) (A) (A) (A) (A) (A) (A) (A)
                 (A) (A) (A) (A) (A) (A) (A) (A) (A) (A) (A) (A)
                 (A) (A) (A) (A) (A) (A) (A) (A) (A) (A) (A) (A)
                 (A) (A) (A) (A) (A) (A) (A) (A) (A) (A) (A) (A)
                 (A) (A) (A) (A) (A) (A) (A) (A) (A) (A) (A) (A)
                 (A) (A) (A) (A) (A) (A) (A) (A) (A) (A) (A) (A)
                 (A) (A) (A) (A) (A) (A) (A) (A) (A) (A) (A) (A)
                 (A) (A) (A) (A) (A) (A) (A) (A) (A) (A) (A)
 The electronic state of the initial guess is 1-A.
 Requested convergence on RMS density matrix=1.00D-08 within 128 cycles.
 Requested convergence on MAX density matrix=1.00D-06.
 Requested convergence on             energy=1.00D-06.
 No special actions if energy rises.
 SCF Done:  E(RB3LYP) =  -1298.00007656     A.U. after   13 cycles
             Convg  =    0.4253D-08             -V/T =  2.0066
 Range of M.O.s used for correlation:     1   846
 NBasis=   846 NAE=    91 NBE=    91 NFC=     0 NFV=     0
 NROrb=    846 NOA=    91 NOB=    91 NVA=   755 NVB=   755

 **** Warning!!: The largest alpha MO coefficient is  0.82250264D+02

          Differentiating once with respect to electric field.
                with respect to dipole field.
          Electric field/nuclear overlap derivatives assumed to be zero.
          There are     3 degrees of freedom in the 1st order CPHF.  IDoFFX=0.
      3 vectors produced by pass  0 Test12= 2.29D-12 3.33D-08 XBig12= 1.25D+02 1.04D+00.
 AX will form     3 AO Fock derivatives at one time.
      3 vectors produced by pass  1 Test12= 2.29D-12 3.33D-08 XBig12= 2.25D+01 4.09D-01.
      3 vectors produced by pass  2 Test12= 2.29D-12 3.33D-08 XBig12= 8.78D+00 1.77D-01.
      3 vectors produced by pass  3 Test12= 2.29D-12 3.33D-08 XBig12= 1.15D+00 9.50D-02.
      3 vectors produced by pass  4 Test12= 2.29D-12 3.33D-08 XBig12= 3.37D-01 4.82D-02.
      3 vectors produced by pass  5 Test12= 2.29D-12 3.33D-08 XBig12= 6.11D-02 2.04D-02.
      3 vectors produced by pass  6 Test12= 2.29D-12 3.33D-08 XBig12= 2.29D-02 2.05D-02.
      3 vectors produced by pass  7 Test12= 2.29D-12 3.33D-08 XBig12= 3.01D-03 6.93D-03.
      3 vectors produced by pass  8 Test12= 2.29D-12 3.33D-08 XBig12= 5.10D-04 1.78D-03.
      3 vectors produced by pass  9 Test12= 2.29D-12 3.33D-08 XBig12= 1.54D-04 1.23D-03.
      3 vectors produced by pass 10 Test12= 2.29D-12 3.33D-08 XBig12= 3.63D-05 4.89D-04.
      3 vectors produced by pass 11 Test12= 2.29D-12 3.33D-08 XBig12= 1.06D-05 3.10D-04.
      3 vectors produced by pass 12 Test12= 2.29D-12 3.33D-08 XBig12= 9.86D-07 1.20D-04.
      3 vectors produced by pass 13 Test12= 2.29D-12 3.33D-08 XBig12= 2.56D-07 4.18D-05.
      3 vectors produced by pass 14 Test12= 2.29D-12 3.33D-08 XBig12= 4.71D-08 2.32D-05.
      3 vectors produced by pass 15 Test12= 2.29D-12 3.33D-08 XBig12= 1.24D-08 9.14D-06.
      3 vectors produced by pass 16 Test12= 2.29D-12 3.33D-08 XBig12= 1.40D-09 3.44D-06.
      3 vectors produced by pass 17 Test12= 2.29D-12 3.33D-08 XBig12= 1.09D-10 1.05D-06.
      3 vectors produced by pass 18 Test12= 2.29D-12 3.33D-08 XBig12= 2.02D-11 2.64D-07.
      3 vectors produced by pass 19 Test12= 2.29D-12 3.33D-08 XBig12= 1.49D-11 3.55D-07.
      3 vectors produced by pass 20 Test12= 2.29D-12 3.33D-08 XBig12= 6.94D-12 1.90D-07.
      2 vectors produced by pass 21 Test12= 2.29D-12 3.33D-08 XBig12= 2.44D-12 1.29D-07.
      2 vectors produced by pass 22 Test12= 2.29D-12 3.33D-08 XBig12= 6.44D-13 6.24D-08.
 Inverted reduced A of dimension    67 with in-core refinement.
 End of Minotr Frequency-dependent properties file   721 does not exist.
 End of Minotr Frequency-dependent properties file   722 does not exist.
 Symmetrizing basis deriv contribution to polar:
 IMax=3 JMax=2 DiffMx= 0.00D+00
 G2DrvN: will do     8 centers at a time, making    6 passes doing MaxLOS=3.
 Calling FoFCou, ICntrl=  3107 FMM=F I1Cent=   0 AccDes= 0.00D+00.
 Calling FoFCou, ICntrl=  3107 FMM=F I1Cent=   0 AccDes= 0.00D+00.
 Calling FoFCou, ICntrl=  3107 FMM=F I1Cent=   0 AccDes= 0.00D+00.
 Calling FoFCou, ICntrl=  3107 FMM=F I1Cent=   0 AccDes= 0.00D+00.
 Calling FoFCou, ICntrl=  3107 FMM=F I1Cent=   0 AccDes= 0.00D+00.
 Calling FoFCou, ICntrl=  3107 FMM=F I1Cent=   0 AccDes= 0.00D+00.
 FoFDir/FoFCou used for L=0 through L=3.
 End of G2Drv Frequency-dependent properties file   721 does not exist.
 End of G2Drv Frequency-dependent properties file   722 does not exist.
          IDoAtm=111111111111111111111111111111111111111111111
          Differentiating once with respect to electric field.
                with respect to dipole field.
          Differentiating once with respect to nuclear coordinates.
          There are   138 degrees of freedom in the 1st order CPHF.  IDoFFX=5.
 Will reuse    3 saved solutions.
    135 vectors produced by pass  0 Test12= 6.87D-14 1.00D-09 XBig12= 1.62D-01 6.46D-02.
 AX will form    27 AO Fock derivatives at one time.
    135 vectors produced by pass  1 Test12= 6.87D-14 1.00D-09 XBig12= 2.36D-02 1.21D-02.
    132 vectors produced by pass  2 Test12= 6.87D-14 1.00D-09 XBig12= 1.64D-04 1.19D-03.
    132 vectors produced by pass  3 Test12= 6.87D-14 1.00D-09 XBig12= 9.31D-07 6.76D-05.
    132 vectors produced by pass  4 Test12= 6.87D-14 1.00D-09 XBig12= 2.27D-09 2.96D-06.
    132 vectors produced by pass  5 Test12= 6.87D-14 1.00D-09 XBig12= 5.57D-12 1.10D-07.
     94 vectors produced by pass  6 Test12= 6.87D-14 1.00D-09 XBig12= 2.26D-13 2.78D-08.
      1 vectors produced by pass  7 Test12= 6.87D-14 1.00D-09 XBig12= 3.58D-16 1.06D-09.
 Inverted reduced A of dimension   893 with in-core refinement.
 Isotropic polarizability for W=    0.000000      192.16 Bohr**3.
 End of Minotr Frequency-dependent properties file   721 does not exist.
 End of Minotr Frequency-dependent properties file   722 does not exist.

 **********************************************************************

            Population analysis using the SCF density.

 **********************************************************************

 Orbital symmetries:
       Occupied  (A) (A) (A) (A) (A) (A) (A) (A) (A) (A) (A) (A)
                 (A) (A) (A) (A) (A) (A) (A) (A) (A) (A) (A) (A)
                 (A) (A) (A) (A) (A) (A) (A) (A) (A) (A) (A) (A)
                 (A) (A) (A) (A) (A) (A) (A) (A) (A) (A) (A) (A)
                 (A) (A) (A) (A) (A) (A) (A) (A) (A) (A) (A) (A)
                 (A) (A) (A) (A) (A) (A) (A) (A) (A) (A) (A) (A)
                 (A) (A) (A) (A) (A) (A) (A) (A) (A) (A) (A) (A)
                 (A) (A) (A) (A) (A) (A) (A)
       Virtual   (A) (A) (A) (A) (A) (A) (A) (A) (A) (A) (A) (A)
                 (A) (A) (A) (A) (A) (A) (A) (A) (A) (A) (A) (A)
                 (A) (A) (A) (A) (A) (A) (A) (A) (A) (A) (A) (A)
                 (A) (A) (A) (A) (A) (A) (A) (A) (A) (A) (A) (A)
                 (A) (A) (A) (A) (A) (A) (A) (A) (A) (A) (A) (A)
                 (A) (A) (A) (A) (A) (A) (A) (A) (A) (A) (A) (A)
                 (A) (A) (A) (A) (A) (A) (A) (A) (A) (A) (A) (A)
                 (A) (A) (A) (A) (A) (A) (A) (A) (A) (A) (A) (A)
                 (A) (A) (A) (A) (A) (A) (A) (A) (A) (A) (A) (A)
                 (A) (A) (A) (A) (A) (A) (A) (A) (A) (A) (A) (A)
                 (A) (A) (A) (A) (A) (A) (A) (A) (A) (A) (A) (A)
                 (A) (A) (A) (A) (A) (A) (A) (A) (A) (A) (A) (A)
                 (A) (A) (A) (A) (A) (A) (A) (A) (A) (A) (A) (A)
                 (A) (A) (A) (A) (A) (A) (A) (A) (A) (A) (A) (A)
                 (A) (A) (A) (A) (A) (A) (A) (A) (A) (A) (A) (A)
                 (A) (A) (A) (A) (A) (A) (A) (A) (A) (A) (A) (A)
                 (A) (A) (A) (A) (A) (A) (A) (A) (A) (A) (A) (A)
                 (A) (A) (A) (A) (A) (A) (A) (A) (A) (A) (A) (A)
                 (A) (A) (A) (A) (A) (A) (A) (A) (A) (A) (A) (A)
                 (A) (A) (A) (A) (A) (A) (A) (A) (A) (A) (A) (A)
                 (A) (A) (A) (A) (A) (A) (A) (A) (A) (A) (A) (A)
                 (A) (A) (A) (A) (A) (A) (A) (A) (A) (A) (A) (A)
                 (A) (A) (A) (A) (A) (A) (A) (A) (A) (A) (A) (A)
                 (A) (A) (A) (A) (A) (A) (A) (A) (A) (A) (A) (A)
                 (A) (A) (A) (A) (A) (A) (A) (A) (A) (A) (A) (A)
                 (A) (A) (A) (A) (A) (A) (A) (A) (A) (A) (A) (A)
                 (A) (A) (A) (A) (A) (A) (A) (A) (A) (A) (A) (A)
                 (A) (A) (A) (A) (A) (A) (A) (A) (A) (A) (A) (A)
                 (A) (A) (A) (A) (A) (A) (A) (A) (A) (A) (A) (A)
                 (A) (A) (A) (A) (A) (A) (A) (A) (A) (A) (A) (A)
                 (A) (A) (A) (A) (A) (A) (A) (A) (A) (A) (A) (A)
                 (A) (A) (A) (A) (A) (A) (A) (A) (A) (A) (A) (A)
                 (A) (A) (A) (A) (A) (A) (A) (A) (A) (A) (A) (A)
                 (A) (A) (A) (A) (A) (A) (A) (A) (A) (A) (A) (A)
                 (A) (A) (A) (A) (A) (A) (A) (A) (A) (A) (A) (A)
                 (A) (A) (A) (A) (A) (A) (A) (A) (A) (A) (A) (A)
                 (A) (A) (A) (A) (A) (A) (A) (A) (A) (A) (A) (A)
                 (A) (A) (A) (A) (A) (A) (A) (A) (A) (A) (A) (A)
                 (A) (A) (A) (A) (A) (A) (A) (A) (A) (A) (A) (A)
                 (A) (A) (A) (A) (A) (A) (A) (A) (A) (A) (A) (A)
                 (A) (A) (A) (A) (A) (A) (A) (A) (A) (A) (A) (A)
                 (A) (A) (A) (A) (A) (A) (A) (A) (A) (A) (A) (A)
                 (A) (A) (A) (A) (A) (A) (A) (A) (A) (A) (A) (A)
                 (A) (A) (A) (A) (A) (A) (A) (A) (A) (A) (A) (A)
                 (A) (A) (A) (A) (A) (A) (A) (A) (A) (A) (A) (A)
                 (A) (A) (A) (A) (A) (A) (A) (A) (A) (A) (A) (A)
                 (A) (A) (A) (A) (A) (A) (A) (A) (A) (A) (A) (A)
                 (A) (A) (A) (A) (A) (A) (A) (A) (A) (A) (A) (A)
                 (A) (A) (A) (A) (A) (A) (A) (A) (A) (A) (A) (A)
                 (A) (A) (A) (A) (A) (A) (A) (A) (A) (A) (A) (A)
                 (A) (A) (A) (A) (A) (A) (A) (A) (A) (A) (A) (A)
                 (A) (A) (A) (A) (A) (A) (A) (A) (A) (A) (A) (A)
                 (A) (A) (A) (A) (A) (A) (A) (A) (A) (A) (A) (A)
                 (A) (A) (A) (A) (A) (A) (A) (A) (A) (A) (A) (A)
                 (A) (A) (A) (A) (A) (A) (A) (A) (A) (A) (A) (A)
                 (A) (A) (A) (A) (A) (A) (A) (A) (A) (A) (A) (A)
                 (A) (A) (A) (A) (A) (A) (A) (A) (A) (A) (A) (A)
                 (A) (A) (A) (A) (A) (A) (A) (A) (A) (A) (A) (A)
                 (A) (A) (A) (A) (A) (A) (A) (A) (A) (A) (A) (A)
                 (A) (A) (A) (A) (A) (A) (A) (A) (A) (A) (A) (A)
                 (A) (A) (A) (A) (A) (A) (A) (A) (A) (A) (A) (A)
                 (A) (A) (A) (A) (A) (A) (A) (A) (A) (A) (A) (A)
                 (A) (A) (A) (A) (A) (A) (A) (A) (A) (A) (A)
 The electronic state is 1-A.
 Alpha  occ. eigenvalues --  -19.19700 -19.18886 -19.18723 -19.18366 -19.17954
 Alpha  occ. eigenvalues --  -19.17367 -19.16450 -19.15089 -19.14760 -19.13904
 Alpha  occ. eigenvalues --  -19.12654 -10.30833 -10.30737 -10.26793 -10.26127
 Alpha  occ. eigenvalues --  -10.25963 -10.25532 -10.25173 -10.24564 -10.24381
 Alpha  occ. eigenvalues --  -10.24329 -10.24141 -10.24014  -1.10453  -1.09352
 Alpha  occ. eigenvalues --   -1.05757  -1.05284  -1.04510  -1.04028  -1.02803
 Alpha  occ. eigenvalues --   -1.02015  -1.01160  -1.00336  -0.99272  -0.82973
 Alpha  occ. eigenvalues --   -0.81399  -0.79713  -0.78597  -0.71799  -0.69879
 Alpha  occ. eigenvalues --   -0.67445  -0.64387  -0.63277  -0.62812  -0.61890
 Alpha  occ. eigenvalues --   -0.61016  -0.56705  -0.56101  -0.55620  -0.55127
 Alpha  occ. eigenvalues --   -0.54351  -0.53842  -0.52786  -0.51392  -0.51139
 Alpha  occ. eigenvalues --   -0.50505  -0.50482  -0.49862  -0.48713  -0.46711
 Alpha  occ. eigenvalues --   -0.46375  -0.45557  -0.44804  -0.43871  -0.43358
 Alpha  occ. eigenvalues --   -0.42665  -0.41902  -0.41491  -0.40465  -0.39848
 Alpha  occ. eigenvalues --   -0.39688  -0.37608  -0.36951  -0.36643  -0.36039
 Alpha  occ. eigenvalues --   -0.35521  -0.34283  -0.33987  -0.33778  -0.33514
 Alpha  occ. eigenvalues --   -0.33030  -0.31584  -0.30696  -0.30170  -0.29969
 Alpha  occ. eigenvalues --   -0.29630  -0.28712  -0.27504  -0.27131  -0.26804
 Alpha  occ. eigenvalues --   -0.26678
 Alpha virt. eigenvalues --   -0.02268  -0.02150  -0.01957  -0.00335   0.00061
 Alpha virt. eigenvalues --    0.01055   0.01717   0.01918   0.03308   0.03651
 Alpha virt. eigenvalues --    0.03882   0.04399   0.04800   0.05245   0.05668
 Alpha virt. eigenvalues --    0.06200   0.06343   0.07265   0.07575   0.08147
 Alpha virt. eigenvalues --    0.08426   0.08618   0.09075   0.09574   0.09917
 Alpha virt. eigenvalues --    0.10441   0.11025   0.11292   0.11658   0.11824
 Alpha virt. eigenvalues --    0.12531   0.12662   0.13210   0.13685   0.13954
 Alpha virt. eigenvalues --    0.13981   0.14285   0.14619   0.14905   0.15109
 Alpha virt. eigenvalues --    0.15933   0.16176   0.16654   0.16989   0.17111
 Alpha virt. eigenvalues --    0.17144   0.17426   0.17592   0.17622   0.18365
 Alpha virt. eigenvalues --    0.18563   0.18884   0.19443   0.19694   0.20134
 Alpha virt. eigenvalues --    0.20416   0.20675   0.20949   0.21340   0.21555
 Alpha virt. eigenvalues --    0.22294   0.22384   0.22888   0.23037   0.23449
 Alpha virt. eigenvalues --    0.23688   0.23867   0.24118   0.24141   0.24411
 Alpha virt. eigenvalues --    0.24775   0.25070   0.25239   0.25505   0.25756
 Alpha virt. eigenvalues --    0.26254   0.26365   0.26518   0.26738   0.27045
 Alpha virt. eigenvalues --    0.27228   0.27953   0.28054   0.28412   0.28791
 Alpha virt. eigenvalues --    0.29263   0.29603   0.29829   0.30085   0.30609
 Alpha virt. eigenvalues --    0.30824   0.31037   0.31461   0.31586   0.31890
 Alpha virt. eigenvalues --    0.32537   0.32747   0.32992   0.33177   0.33535
 Alpha virt. eigenvalues --    0.33752   0.34365   0.34666   0.35109   0.35348
 Alpha virt. eigenvalues --    0.35741   0.36264   0.36564   0.37103   0.37330
 Alpha virt. eigenvalues --    0.37906   0.38261   0.38364   0.39026   0.39374
 Alpha virt. eigenvalues --    0.39607   0.40645   0.40732   0.40835   0.41710
 Alpha virt. eigenvalues --    0.42154   0.42224   0.42623   0.43348   0.43754
 Alpha virt. eigenvalues --    0.44237   0.45223   0.46112   0.46965   0.47203
 Alpha virt. eigenvalues --    0.47670   0.48897   0.49070   0.49435   0.49776
 Alpha virt. eigenvalues --    0.50543   0.51431   0.54140   0.56474   0.58173
 Alpha virt. eigenvalues --    0.59327   0.60081   0.60569   0.61104   0.61964
 Alpha virt. eigenvalues --    0.62566   0.62955   0.64174   0.64732   0.65764
 Alpha virt. eigenvalues --    0.66474   0.67305   0.67395   0.68163   0.69446
 Alpha virt. eigenvalues --    0.70034   0.70995   0.71212   0.71740   0.72444
 Alpha virt. eigenvalues --    0.74187   0.74496   0.75596   0.75860   0.76458
 Alpha virt. eigenvalues --    0.77159   0.77871   0.79405   0.80521   0.81378
 Alpha virt. eigenvalues --    0.82919   0.83073   0.83144   0.83795   0.84836
 Alpha virt. eigenvalues --    0.85128   0.86896   0.87481   0.88029   0.88713
 Alpha virt. eigenvalues --    0.89086   0.89905   0.90062   0.91118   0.91667
 Alpha virt. eigenvalues --    0.91807   0.92196   0.92316   0.92404   0.93138
 Alpha virt. eigenvalues --    0.93594   0.93917   0.94676   0.95480   0.95675
 Alpha virt. eigenvalues --    0.96104   0.97013   0.97409   0.97855   0.98278
 Alpha virt. eigenvalues --    0.98861   0.99379   0.99753   1.00781   1.01107
 Alpha virt. eigenvalues --    1.02545   1.03583   1.03971   1.04716   1.05306
 Alpha virt. eigenvalues --    1.05784   1.06236   1.06824   1.07618   1.08134
 Alpha virt. eigenvalues --    1.08550   1.09104   1.09450   1.09997   1.10770
 Alpha virt. eigenvalues --    1.11147   1.12073   1.12720   1.13628   1.14334
 Alpha virt. eigenvalues --    1.14732   1.15191   1.15256   1.15763   1.16275
 Alpha virt. eigenvalues --    1.17022   1.17612   1.18172   1.18679   1.18908
 Alpha virt. eigenvalues --    1.19636   1.19877   1.20521   1.21332   1.21596
 Alpha virt. eigenvalues --    1.22627   1.22916   1.23295   1.24195   1.24463
 Alpha virt. eigenvalues --    1.25224   1.25682   1.25917   1.26561   1.27373
 Alpha virt. eigenvalues --    1.27666   1.28375   1.28961   1.29847   1.30408
 Alpha virt. eigenvalues --    1.30609   1.31617   1.32248   1.32827   1.33780
 Alpha virt. eigenvalues --    1.34507   1.34944   1.36015   1.36237   1.36981
 Alpha virt. eigenvalues --    1.37724   1.37934   1.38744   1.38869   1.40164
 Alpha virt. eigenvalues --    1.40728   1.41078   1.41837   1.41983   1.43235
 Alpha virt. eigenvalues --    1.44493   1.44798   1.45830   1.46520   1.47076
 Alpha virt. eigenvalues --    1.47847   1.48523   1.49493   1.49715   1.51129
 Alpha virt. eigenvalues --    1.51360   1.52447   1.53365   1.54819   1.55507
 Alpha virt. eigenvalues --    1.56057   1.57434   1.57992   1.58592   1.60003
 Alpha virt. eigenvalues --    1.60697   1.61805   1.62273   1.63076   1.64154
 Alpha virt. eigenvalues --    1.64631   1.65572   1.65696   1.66823   1.67817
 Alpha virt. eigenvalues --    1.68081   1.69244   1.70572   1.70758   1.71387
 Alpha virt. eigenvalues --    1.71646   1.72932   1.73230   1.74671   1.76165
 Alpha virt. eigenvalues --    1.77447   1.78136   1.78768   1.80041   1.80724
 Alpha virt. eigenvalues --    1.81284   1.82608   1.83490   1.84231   1.85754
 Alpha virt. eigenvalues --    1.87304   1.87568   1.88193   1.89713   1.90551
 Alpha virt. eigenvalues --    1.91229   1.91785   1.92882   1.94657   1.95383
 Alpha virt. eigenvalues --    1.96617   1.97786   1.98521   2.00027   2.00708
 Alpha virt. eigenvalues --    2.00933   2.02147   2.03310   2.04268   2.06279
 Alpha virt. eigenvalues --    2.07598   2.09032   2.10396   2.11282   2.13466
 Alpha virt. eigenvalues --    2.14539   2.16042   2.17246   2.18406   2.20870
 Alpha virt. eigenvalues --    2.21338   2.22608   2.23197   2.24257   2.24928
 Alpha virt. eigenvalues --    2.27583   2.28204   2.29349   2.30947   2.31413
 Alpha virt. eigenvalues --    2.32576   2.35814   2.39951   2.41427   2.42106
 Alpha virt. eigenvalues --    2.43853   2.45885   2.46477   2.47459   2.49245
 Alpha virt. eigenvalues --    2.51263   2.52635   2.53311   2.53583   2.54547
 Alpha virt. eigenvalues --    2.55687   2.56925   2.58294   2.59309   2.60394
 Alpha virt. eigenvalues --    2.61150   2.62707   2.63220   2.64859   2.66058
 Alpha virt. eigenvalues --    2.66683   2.67594   2.68972   2.69866   2.70733
 Alpha virt. eigenvalues --    2.73075   2.74822   2.76945   2.77348   2.78488
 Alpha virt. eigenvalues --    2.80229   2.80873   2.81488   2.81618   2.83362
 Alpha virt. eigenvalues --    2.83911   2.84815   2.86286   2.87676   2.89282
 Alpha virt. eigenvalues --    2.90440   2.91056   2.91614   2.92223   2.92824
 Alpha virt. eigenvalues --    2.93335   2.94310   2.94870   2.95352   2.97446
 Alpha virt. eigenvalues --    2.97749   2.99032   2.99713   3.02586   3.03138
 Alpha virt. eigenvalues --    3.03616   3.04569   3.04879   3.06686   3.07144
 Alpha virt. eigenvalues --    3.07822   3.08547   3.09975   3.10569   3.10879
 Alpha virt. eigenvalues --    3.12265   3.13470   3.14846   3.17014   3.17550
 Alpha virt. eigenvalues --    3.18498   3.19930   3.20967   3.22239   3.23595
 Alpha virt. eigenvalues --    3.23859   3.24343   3.25801   3.27244   3.27542
 Alpha virt. eigenvalues --    3.29685   3.29896   3.31107   3.32450   3.33147
 Alpha virt. eigenvalues --    3.34434   3.34513   3.36510   3.36891   3.38244
 Alpha virt. eigenvalues --    3.39507   3.40387   3.42212   3.43731   3.45406
 Alpha virt. eigenvalues --    3.46962   3.47786   3.49358   3.52370   3.54481
 Alpha virt. eigenvalues --    3.55638   3.56351   3.58911   3.59552   3.59785
 Alpha virt. eigenvalues --    3.61168   3.62297   3.64200   3.65524   3.67645
 Alpha virt. eigenvalues --    3.68806   3.70066   3.72048   3.73083   3.73595
 Alpha virt. eigenvalues --    3.75024   3.77779   3.78230   3.78522   3.80093
 Alpha virt. eigenvalues --    3.81634   3.82830   3.84098   3.86501   3.86982
 Alpha virt. eigenvalues --    3.87335   3.88159   3.89649   3.91618   3.92784
 Alpha virt. eigenvalues --    3.97698   3.99207   3.99924   4.01766   4.04037
 Alpha virt. eigenvalues --    4.06420   4.07499   4.09702   4.11118   4.14209
 Alpha virt. eigenvalues --    4.16117   4.16820   4.17669   4.18002   4.18459
 Alpha virt. eigenvalues --    4.20506   4.22261   4.22973   4.24499   4.25065
 Alpha virt. eigenvalues --    4.25561   4.26250   4.26529   4.27977   4.28559
 Alpha virt. eigenvalues --    4.30041   4.31807   4.32559   4.33287   4.34310
 Alpha virt. eigenvalues --    4.34880   4.36084   4.36864   4.37472   4.39298
 Alpha virt. eigenvalues --    4.40117   4.41381   4.41835   4.42508   4.43276
 Alpha virt. eigenvalues --    4.43723   4.44598   4.45979   4.46684   4.47499
 Alpha virt. eigenvalues --    4.48534   4.48798   4.49131   4.49805   4.50632
 Alpha virt. eigenvalues --    4.51852   4.52083   4.53364   4.54410   4.54639
 Alpha virt. eigenvalues --    4.55850   4.55921   4.56926   4.57895   4.58647
 Alpha virt. eigenvalues --    4.59058   4.60061   4.60570   4.61042   4.62243
 Alpha virt. eigenvalues --    4.63477   4.63908   4.64925   4.65405   4.65797
 Alpha virt. eigenvalues --    4.66510   4.66872   4.67683   4.68047   4.68604
 Alpha virt. eigenvalues --    4.69922   4.70353   4.71292   4.71819   4.72472
 Alpha virt. eigenvalues --    4.73003   4.73912   4.74377   4.75203   4.75562
 Alpha virt. eigenvalues --    4.76347   4.77097   4.77494   4.78393   4.78512
 Alpha virt. eigenvalues --    4.79037   4.79461   4.80376   4.81428   4.81767
 Alpha virt. eigenvalues --    4.82595   4.83160   4.84208   4.86529   4.87053
 Alpha virt. eigenvalues --    4.87570   4.88860   4.89192   4.90139   4.91321
 Alpha virt. eigenvalues --    4.92651   4.93351   4.94365   4.95010   4.96049
 Alpha virt. eigenvalues --    4.97111   4.98409   5.00589   5.01138   5.01585
 Alpha virt. eigenvalues --    5.03244   5.04954   5.05742   5.08991   5.11053
 Alpha virt. eigenvalues --    5.12124   5.14012   5.15831   5.16509   5.17300
 Alpha virt. eigenvalues --    5.18383   5.18665   5.20172   5.21030   5.21921
 Alpha virt. eigenvalues --    5.23759   5.24625   5.24742   5.25122   5.27854
 Alpha virt. eigenvalues --    5.28952   5.30291   5.32442   5.32829   5.33928
 Alpha virt. eigenvalues --    5.35615   5.36203   5.37934   5.38899   5.39568
 Alpha virt. eigenvalues --    5.39818   5.40735   5.41493   5.42050   5.42478
 Alpha virt. eigenvalues --    5.43271   5.44286   5.46189   5.46379   5.47214
 Alpha virt. eigenvalues --    5.48446   5.48706   5.49790   5.50670   5.51170
 Alpha virt. eigenvalues --    5.52849   5.55482   5.56492   5.56836   5.59417
 Alpha virt. eigenvalues --    5.61352   5.62156   5.63145   5.64382   5.67016
 Alpha virt. eigenvalues --    5.67962   5.70452   5.72316   5.73062   5.76411
 Alpha virt. eigenvalues --    5.77758   5.79525   5.79828   5.81217   5.84082
 Alpha virt. eigenvalues --    5.84884   5.87687   5.88895   5.89794   5.90793
 Alpha virt. eigenvalues --    5.91966   5.92130   5.94276   5.95163   5.96163
 Alpha virt. eigenvalues --    5.96906   5.97177   5.97798   5.98779   6.00968
 Alpha virt. eigenvalues --    6.01439   6.01871   6.03241   6.05365   6.05625
 Alpha virt. eigenvalues --    6.07966   6.08247   6.09650   6.10370   6.12027
 Alpha virt. eigenvalues --    6.15506   6.18761   6.20181   6.22454   6.25498
 Alpha virt. eigenvalues --    6.26623   6.27577   6.28610   6.35543   6.41585
 Alpha virt. eigenvalues --    6.57170   6.72171   7.03798   7.08651   7.10965
 Alpha virt. eigenvalues --    7.16944   7.17353   7.23855   7.25707   7.30502
 Alpha virt. eigenvalues --    7.38011   7.41245   7.53696   7.59798   7.88267
 Alpha virt. eigenvalues --    8.12524   8.23120  12.04692  12.19127  12.25737
 Alpha virt. eigenvalues --   12.31848  12.43209  12.58220  12.83947  12.94663
 Alpha virt. eigenvalues --   12.99100  13.15208  13.36110  13.39555  13.46267
 Alpha virt. eigenvalues --   13.48540  13.51127  13.57574  13.60552  13.64937
 Alpha virt. eigenvalues --   13.68173  13.84823  13.97936  14.19621  14.23470
          Condensed to atoms (all electrons):
              1          2          3          4          5          6
     1  O    8.070621   0.238193  -0.073738  -0.018688   0.018422   0.035385
     2  C    0.238193   7.525968  -0.530629   0.064239  -0.062873  -1.591710
     3  C   -0.073738  -0.530629   7.262150   0.231608   0.013076   0.320724
     4  O   -0.018688   0.064239   0.231608   8.108978   0.240631  -0.176615
     5  H    0.018422  -0.062873   0.013076   0.240631   0.409674   0.012118
     6  C    0.035385  -1.591710   0.320724  -0.176615   0.012118   8.860808
     7  O   -0.000490   0.035755  -0.169455   0.015512  -0.000553   0.296241
     8  H    0.000006  -0.003719   0.015449  -0.000394   0.000008  -0.000656
     9  C   -0.004570   0.197128  -0.398730   0.012167  -0.002390   0.097444
    10  O   -0.014301   0.002618   0.004441  -0.000096   0.000003  -0.001040
    11  H    0.001117  -0.010187  -0.000935   0.000001   0.000000   0.000411
    12  C   -0.075663  -0.800255  -0.303073   0.011013   0.011254   0.428888
    13  O    0.000990  -0.077545  -0.017585  -0.000643  -0.000162   0.023742
    14  C   -0.011031   0.705175  -0.217091   0.008576   0.006443  -2.160116
    15  O   -0.000133  -0.007591   0.000476   0.000501   0.000002  -0.031840
    16  C    0.000574   0.052175  -0.042609  -0.000650   0.000404  -0.163047
    17  C    0.000088  -0.036100   0.004546   0.000538   0.000020   0.029421
    18  O    0.000023   0.007124   0.000749  -0.000010   0.000000  -0.000552
    19  H   -0.000017  -0.003339   0.002845   0.000004   0.000000   0.004404
    20  C    0.000033   0.002317  -0.000151  -0.000083   0.000001   0.077014
    21  O    0.000000   0.000018  -0.000057   0.000000   0.000000  -0.000374
    22  H    0.000000   0.000000   0.000001   0.000000   0.000000  -0.000027
    23  C   -0.000057   0.010195   0.003689  -0.000288  -0.000012  -0.097772
    24  O    0.000001   0.002394  -0.010267  -0.000002  -0.000002  -0.012886
    25  H    0.000000  -0.000063   0.001432   0.000001   0.000000   0.000307
    26  C    0.000077  -0.004753  -0.047305   0.000556   0.000003  -0.048117
    27  O    0.000000  -0.000031  -0.000048   0.000001   0.000000   0.001793
    28  C    0.000002   0.000256  -0.002235   0.000016   0.000000  -0.011652
    29  O    0.000000   0.000004   0.000011   0.000000   0.000000  -0.000307
    30  H    0.271041   0.043672  -0.041040   0.001681  -0.002234   0.003566
    31  H   -0.009574   0.314190  -0.019141   0.001540   0.000354  -0.039316
    32  H   -0.000359   0.012895   0.284596  -0.024364   0.000608  -0.232432
    33  H   -0.000122   0.037845  -0.159601   0.004757  -0.000200   0.329114
    34  H   -0.000017  -0.021952  -0.044145   0.000246  -0.000002   0.053586
    35  H    0.003990   0.069129  -0.058331   0.000783   0.000011  -0.018052
    36  H   -0.000366  -0.019500  -0.002511   0.000015   0.000000  -0.001447
    37  H   -0.000001  -0.002232   0.003881  -0.000001   0.000000   0.015201
    38  H    0.000000  -0.000062   0.000828   0.000000   0.000000   0.005904
    39  H    0.000000  -0.000050   0.000723   0.000000   0.000000  -0.002462
    40  H    0.000000   0.000015  -0.000018   0.000000   0.000000   0.001445
    41  H    0.000000   0.000067   0.000576   0.000000   0.000000  -0.007182
    42  H    0.000000   0.000005  -0.000005   0.000000   0.000000  -0.000203
    43  H    0.000000   0.000000   0.000000   0.000000   0.000000   0.000008
    44  H    0.000000   0.000110  -0.000018   0.000000   0.000000   0.000726
    45  H    0.002942   0.036729  -0.002643   0.000027  -0.000001   0.006149
              7          8          9         10         11         12
     1  O   -0.000490   0.000006  -0.004570  -0.014301   0.001117  -0.075663
     2  C    0.035755  -0.003719   0.197128   0.002618  -0.010187  -0.800255
     3  C   -0.169455   0.015449  -0.398730   0.004441  -0.000935  -0.303073
     4  O    0.015512  -0.000394   0.012167  -0.000096   0.000001   0.011013
     5  H   -0.000553   0.000008  -0.002390   0.000003   0.000000   0.011254
     6  C    0.296241  -0.000656   0.097444  -0.001040   0.000411   0.428888
     7  O    8.150287   0.250589   0.003522   0.000000   0.000000   0.012488
     8  H    0.250589   0.316187  -0.000175   0.000000   0.000000  -0.001550
     9  C    0.003522  -0.000175   6.844821   0.121252  -0.013527  -0.987967
    10  O    0.000000   0.000000   0.121252   8.118546   0.237258   0.031481
    11  H    0.000000   0.000000  -0.013527   0.237258   0.436823   0.024809
    12  C    0.012488  -0.001550  -0.987967   0.031481   0.024809   8.764237
    13  O    0.003672   0.000415  -0.016470   0.000199  -0.000711   0.085528
    14  C   -0.034788  -0.047664  -0.535816   0.014544  -0.004214  -1.029230
    15  O   -0.004001   0.011829  -0.002706   0.000051  -0.000002  -0.013888
    16  C    0.024462   0.023345  -0.091702  -0.000727  -0.000180  -0.065260
    17  C    0.003088  -0.001100   0.024955  -0.000055   0.000021  -0.079897
    18  O   -0.000055  -0.000008  -0.001233  -0.000105  -0.000003  -0.015428
    19  H   -0.000050  -0.000007   0.000819   0.000003   0.000000  -0.003119
    20  C    0.000606   0.001124  -0.000869  -0.000003   0.000002  -0.017960
    21  O   -0.000004   0.000000   0.000120   0.000000   0.000000   0.000091
    22  H    0.000000   0.000000   0.000001   0.000000   0.000000   0.000014
    23  C   -0.004727   0.006976   0.000013  -0.000005   0.000000   0.004820
    24  O   -0.041623  -0.011666   0.000113   0.000000   0.000000   0.001265
    25  H    0.002732  -0.002529  -0.000012   0.000000   0.000000  -0.000366
    26  C   -0.005899  -0.023832   0.012723   0.000002   0.000001   0.016654
    27  O   -0.000024  -0.000136   0.000026   0.000000   0.000000   0.000371
    28  C    0.000182  -0.000103  -0.001003   0.000000   0.000000   0.004943
    29  O   -0.000002   0.000000  -0.000002   0.000000   0.000000   0.000048
    30  H    0.000003   0.000000   0.007957  -0.000087  -0.000031  -0.022743
    31  H    0.000893  -0.000002  -0.042079  -0.000880  -0.000007  -0.055997
    32  H    0.007919  -0.000193   0.015213  -0.000314   0.000000   0.055261
    33  H   -0.027656  -0.001100   0.024281   0.000014   0.000000   0.087533
    34  H   -0.002898   0.000049   0.028536   0.000076   0.000000   0.103865
    35  H    0.000262   0.000002   0.076002  -0.000509  -0.000168   0.045175
    36  H   -0.000009   0.000000   0.421673  -0.022677  -0.011480  -0.040896
    37  H   -0.001361  -0.000110   0.000506   0.000001   0.000000   0.002944
    38  H   -0.000009  -0.000002  -0.000311   0.000000   0.000000  -0.001368
    39  H   -0.000261   0.000000   0.000053   0.000000   0.000000   0.000899
    40  H   -0.000725   0.000332   0.000000   0.000000   0.000000   0.000063
    41  H    0.000985  -0.000062  -0.000009   0.000000   0.000000   0.000292
    42  H    0.000000   0.000000   0.000002   0.000000   0.000000   0.000032
    43  H    0.000000   0.000000   0.000000   0.000000   0.000000  -0.000001
    44  H    0.000004   0.000000  -0.000060   0.000000   0.000000   0.000281
    45  H    0.000011   0.000000   0.554876  -0.050902  -0.000841  -0.253210
             13         14         15         16         17         18
     1  O    0.000990  -0.011031  -0.000133   0.000574   0.000088   0.000023
     2  C   -0.077545   0.705175  -0.007591   0.052175  -0.036100   0.007124
     3  C   -0.017585  -0.217091   0.000476  -0.042609   0.004546   0.000749
     4  O   -0.000643   0.008576   0.000501  -0.000650   0.000538  -0.000010
     5  H   -0.000162   0.006443   0.000002   0.000404   0.000020   0.000000
     6  C    0.023742  -2.160116  -0.031840  -0.163047   0.029421  -0.000552
     7  O    0.003672  -0.034788  -0.004001   0.024462   0.003088  -0.000055
     8  H    0.000415  -0.047664   0.011829   0.023345  -0.001100  -0.000008
     9  C   -0.016470  -0.535816  -0.002706  -0.091702   0.024955  -0.001233
    10  O    0.000199   0.014544   0.000051  -0.000727  -0.000055  -0.000105
    11  H   -0.000711  -0.004214  -0.000002  -0.000180   0.000021  -0.000003
    12  C    0.085528  -1.029230  -0.013888  -0.065260  -0.079897  -0.015428
    13  O    7.905748   0.228872  -0.005738   0.003649   0.014777  -0.007478
    14  C    0.228872   9.253295   0.256963  -0.818470  -0.016780   0.002339
    15  O   -0.005738   0.256963   7.869256   0.096532  -0.012272  -0.004273
    16  C    0.003649  -0.818470   0.096532  11.719113  -2.718652   0.057096
    17  C    0.014777  -0.016780  -0.012272  -2.718652   8.569947   0.234697
    18  O   -0.007478   0.002339  -0.004273   0.057096   0.234697   8.111620
    19  H    0.024404  -0.011140   0.011933  -0.057850   0.013941   0.235964
    20  C   -0.009284  -0.154138   0.013994  -1.241787   0.480810  -0.120142
    21  O   -0.000043   0.002089   0.000005   0.074201  -0.200971   0.011554
    22  H    0.000002  -0.000461   0.000005  -0.010862   0.024484  -0.000408
    23  C    0.005348   0.200885  -0.040878   0.495523  -0.435324   0.011168
    24  O   -0.001229   0.051736  -0.017953  -0.030962   0.001885  -0.000045
    25  H   -0.000013  -0.006840   0.002197  -0.004173  -0.000685   0.000000
    26  C   -0.033446  -0.228755  -0.045383  -2.510827   0.750174  -0.012131
    27  O    0.000316   0.014687   0.003646   0.133385  -0.050352  -0.000473
    28  C    0.002798  -0.050435   0.007595   1.066733  -0.709041   0.002162
    29  O    0.000018  -0.000782  -0.000048  -0.034196  -0.023962   0.000273
    30  H   -0.000508   0.000816   0.000002   0.000133  -0.000036   0.000000
    31  H    0.003748   0.099492   0.000219  -0.001385   0.001096   0.000046
    32  H    0.005401   0.090762   0.001065  -0.003744   0.001648   0.000053
    33  H    0.008788  -0.027421  -0.012882  -0.031239   0.000945   0.000106
    34  H   -0.042962   0.212147  -0.023651  -0.036932   0.010436  -0.000888
    35  H   -0.025121   0.149029  -0.000032   0.001411   0.004427  -0.000102
    36  H   -0.003343  -0.000565  -0.000081   0.002440   0.001845   0.000079
    37  H   -0.003243   0.009416  -0.005416   0.085939   0.050554   0.000721
    38  H   -0.002373   0.005736  -0.000351  -0.082236   0.257093  -0.021509
    39  H   -0.000321   0.045508   0.003340   0.027096  -0.034370   0.000453
    40  H    0.000014   0.005128  -0.000389  -0.005375   0.002392   0.000011
    41  H    0.000182   0.015429   0.004071   0.075124  -0.009451   0.000075
    42  H    0.000013   0.000576   0.000616   0.034555  -0.016655   0.000795
    43  H    0.000000   0.000068  -0.000003   0.002402   0.006887   0.000006
    44  H    0.000139  -0.006584   0.001230   0.139965  -0.243400   0.009756
    45  H   -0.004521   0.007488  -0.000455  -0.002264   0.001052  -0.000013
             19         20         21         22         23         24
     1  O   -0.000017   0.000033   0.000000   0.000000  -0.000057   0.000001
     2  C   -0.003339   0.002317   0.000018   0.000000   0.010195   0.002394
     3  C    0.002845  -0.000151  -0.000057   0.000001   0.003689  -0.010267
     4  O    0.000004  -0.000083   0.000000   0.000000  -0.000288  -0.000002
     5  H    0.000000   0.000001   0.000000   0.000000  -0.000012  -0.000002
     6  C    0.004404   0.077014  -0.000374  -0.000027  -0.097772  -0.012886
     7  O   -0.000050   0.000606  -0.000004   0.000000  -0.004727  -0.041623
     8  H   -0.000007   0.001124   0.000000   0.000000   0.006976  -0.011666
     9  C    0.000819  -0.000869   0.000120   0.000001   0.000013   0.000113
    10  O    0.000003  -0.000003   0.000000   0.000000  -0.000005   0.000000
    11  H    0.000000   0.000002   0.000000   0.000000   0.000000   0.000000
    12  C   -0.003119  -0.017960   0.000091   0.000014   0.004820   0.001265
    13  O    0.024404  -0.009284  -0.000043   0.000002   0.005348  -0.001229
    14  C   -0.011140  -0.154138   0.002089  -0.000461   0.200885   0.051736
    15  O    0.011933   0.013994   0.000005   0.000005  -0.040878  -0.017953
    16  C   -0.057850  -1.241787   0.074201  -0.010862   0.495523  -0.030962
    17  C    0.013941   0.480810  -0.200971   0.024484  -0.435324   0.001885
    18  O    0.235964  -0.120142   0.011554  -0.000408   0.011168  -0.000045
    19  H    0.343315   0.004137  -0.000470   0.000008  -0.003807   0.000021
    20  C    0.004137   7.328063   0.239604  -0.033827  -0.061686  -0.001623
    21  O   -0.000470   0.239604   8.108398   0.246872   0.003782   0.000001
    22  H    0.000008  -0.033827   0.246872   0.408687  -0.000238   0.000000
    23  C   -0.003807  -0.061686   0.003782  -0.000238   6.165972   0.133519
    24  O    0.000021  -0.001623   0.000001   0.000000   0.133519   8.247993
    25  H    0.000000   0.000421   0.000000   0.000000  -0.044390   0.263048
    26  C    0.013829   0.556903  -0.031062   0.006405  -0.954497   0.020141
    27  O   -0.000017  -0.148360   0.003899   0.000056  -0.089638   0.002946
    28  C   -0.000196  -1.040888   0.048410  -0.006458  -0.033060   0.002028
    29  O   -0.000003  -0.025494  -0.015580   0.017115   0.007772  -0.000011
    30  H    0.000000   0.000001   0.000000   0.000000   0.000003   0.000000
    31  H   -0.000017  -0.000007   0.000000   0.000000   0.000030   0.000008
    32  H    0.000003  -0.000154   0.000000   0.000000   0.000192   0.000060
    33  H   -0.000011  -0.000129   0.000000   0.000000   0.002699  -0.000170
    34  H   -0.000476   0.007766   0.000003   0.000000  -0.002455  -0.000187
    35  H   -0.000007   0.000551  -0.000001   0.000000   0.000023   0.000002
    36  H    0.000663  -0.000379   0.000002   0.000000  -0.000007   0.000000
    37  H    0.000433   0.029949  -0.000199   0.000003  -0.034780   0.000946
    38  H    0.000846  -0.016778   0.001756  -0.000235   0.014064  -0.000043
    39  H    0.000039  -0.034840   0.000332   0.000003   0.084387   0.000576
    40  H    0.000000   0.000791  -0.000008   0.000000   0.425958  -0.024559
    41  H   -0.000001  -0.004801   0.000013   0.000000   0.586022  -0.064494
    42  H   -0.000005  -0.128306   0.001769  -0.000120   0.004237   0.000029
    43  H    0.000000  -0.018958  -0.001306  -0.002993  -0.000199   0.000000
    44  H   -0.000235   0.266154  -0.017867  -0.002398   0.012670   0.000022
    45  H    0.000017   0.000043   0.000000   0.000000  -0.000008   0.000000
             25         26         27         28         29         30
     1  O    0.000000   0.000077   0.000000   0.000002   0.000000   0.271041
     2  C   -0.000063  -0.004753  -0.000031   0.000256   0.000004   0.043672
     3  C    0.001432  -0.047305  -0.000048  -0.002235   0.000011  -0.041040
     4  O    0.000001   0.000556   0.000001   0.000016   0.000000   0.001681
     5  H    0.000000   0.000003   0.000000   0.000000   0.000000  -0.002234
     6  C    0.000307  -0.048117   0.001793  -0.011652  -0.000307   0.003566
     7  O    0.002732  -0.005899  -0.000024   0.000182  -0.000002   0.000003
     8  H   -0.002529  -0.023832  -0.000136  -0.000103   0.000000   0.000000
     9  C   -0.000012   0.012723   0.000026  -0.001003  -0.000002   0.007957
    10  O    0.000000   0.000002   0.000000   0.000000   0.000000  -0.000087
    11  H    0.000000   0.000001   0.000000   0.000000   0.000000  -0.000031
    12  C   -0.000366   0.016654   0.000371   0.004943   0.000048  -0.022743
    13  O   -0.000013  -0.033446   0.000316   0.002798   0.000018  -0.000508
    14  C   -0.006840  -0.228755   0.014687  -0.050435  -0.000782   0.000816
    15  O    0.002197  -0.045383   0.003646   0.007595  -0.000048   0.000002
    16  C   -0.004173  -2.510827   0.133385   1.066733  -0.034196   0.000133
    17  C   -0.000685   0.750174  -0.050352  -0.709041  -0.023962  -0.000036
    18  O    0.000000  -0.012131  -0.000473   0.002162   0.000273   0.000000
    19  H    0.000000   0.013829  -0.000017  -0.000196  -0.000003   0.000000
    20  C    0.000421   0.556903  -0.148360  -1.040888  -0.025494   0.000001
    21  O    0.000000  -0.031062   0.003899   0.048410  -0.015580   0.000000
    22  H    0.000000   0.006405   0.000056  -0.006458   0.017115   0.000000
    23  C   -0.044390  -0.954497  -0.089638  -0.033060   0.007772   0.000003
    24  O    0.263048   0.020141   0.002946   0.002028  -0.000011   0.000000
    25  H    0.392987   0.036753  -0.000642  -0.000361  -0.000001   0.000000
    26  C    0.036753   9.232370   0.063016  -0.751708   0.009380  -0.000004
    27  O   -0.000642   0.063016   7.926129   0.277547  -0.016419   0.000000
    28  C   -0.000361  -0.751708   0.277547   6.407620   0.290715   0.000000
    29  O   -0.000001   0.009380  -0.016419   0.290715   8.020554   0.000000
    30  H    0.000000  -0.000004   0.000000   0.000000   0.000000   0.398404
    31  H    0.000000  -0.000088   0.000000  -0.000006   0.000000  -0.012359
    32  H    0.000000  -0.000289   0.000000  -0.000012   0.000000  -0.000028
    33  H   -0.000009  -0.000533  -0.000001  -0.000024   0.000000   0.000030
    34  H    0.000006   0.012359   0.000222  -0.000331  -0.000001   0.000003
    35  H    0.000000  -0.000146   0.000000  -0.000038   0.000000  -0.000200
    36  H    0.000000   0.000217   0.000000   0.000016   0.000000   0.000022
    37  H   -0.000016   0.095831   0.003172  -0.004612  -0.000302   0.000000
    38  H    0.000000   0.076562   0.002052  -0.021410   0.000590   0.000000
    39  H   -0.000124   0.133335  -0.015627   0.041696  -0.000176   0.000000
    40  H   -0.009042  -0.061247  -0.009046  -0.004297  -0.000120   0.000000
    41  H   -0.000740  -0.317309   0.004991   0.006228  -0.000066   0.000000
    42  H    0.000000  -0.005034  -0.041413   0.435757  -0.017553   0.000000
    43  H    0.000000  -0.001190   0.001525  -0.007047   0.273343   0.000000
    44  H    0.000000  -0.019340   0.001219   0.099014   0.000313   0.000000
    45  H    0.000000  -0.000117   0.000000  -0.000004   0.000000  -0.000467
             31         32         33         34         35         36
     1  O   -0.009574  -0.000359  -0.000122  -0.000017   0.003990  -0.000366
     2  C    0.314190   0.012895   0.037845  -0.021952   0.069129  -0.019500
     3  C   -0.019141   0.284596  -0.159601  -0.044145  -0.058331  -0.002511
     4  O    0.001540  -0.024364   0.004757   0.000246   0.000783   0.000015
     5  H    0.000354   0.000608  -0.000200  -0.000002   0.000011   0.000000
     6  C   -0.039316  -0.232432   0.329114   0.053586  -0.018052  -0.001447
     7  O    0.000893   0.007919  -0.027656  -0.002898   0.000262  -0.000009
     8  H   -0.000002  -0.000193  -0.001100   0.000049   0.000002   0.000000
     9  C   -0.042079   0.015213   0.024281   0.028536   0.076002   0.421673
    10  O   -0.000880  -0.000314   0.000014   0.000076  -0.000509  -0.022677
    11  H   -0.000007   0.000000   0.000000   0.000000  -0.000168  -0.011480
    12  C   -0.055997   0.055261   0.087533   0.103865   0.045175  -0.040896
    13  O    0.003748   0.005401   0.008788  -0.042962  -0.025121  -0.003343
    14  C    0.099492   0.090762  -0.027421   0.212147   0.149029  -0.000565
    15  O    0.000219   0.001065  -0.012882  -0.023651  -0.000032  -0.000081
    16  C   -0.001385  -0.003744  -0.031239  -0.036932   0.001411   0.002440
    17  C    0.001096   0.001648   0.000945   0.010436   0.004427   0.001845
    18  O    0.000046   0.000053   0.000106  -0.000888  -0.000102   0.000079
    19  H   -0.000017   0.000003  -0.000011  -0.000476  -0.000007   0.000663
    20  C   -0.000007  -0.000154  -0.000129   0.007766   0.000551  -0.000379
    21  O    0.000000   0.000000   0.000000   0.000003  -0.000001   0.000002
    22  H    0.000000   0.000000   0.000000   0.000000   0.000000   0.000000
    23  C    0.000030   0.000192   0.002699  -0.002455   0.000023  -0.000007
    24  O    0.000008   0.000060  -0.000170  -0.000187   0.000002   0.000000
    25  H    0.000000   0.000000  -0.000009   0.000006   0.000000   0.000000
    26  C   -0.000088  -0.000289  -0.000533   0.012359  -0.000146   0.000217
    27  O    0.000000   0.000000  -0.000001   0.000222   0.000000   0.000000
    28  C   -0.000006  -0.000012  -0.000024  -0.000331  -0.000038   0.000016
    29  O    0.000000   0.000000   0.000000  -0.000001   0.000000   0.000000
    30  H   -0.012359  -0.000028   0.000030   0.000003  -0.000200   0.000022
    31  H    0.608831   0.006816   0.003378  -0.000025   0.006005   0.000162
    32  H    0.006816   0.651110   0.007809   0.003492   0.002507   0.000009
    33  H    0.003378   0.007809   0.621498   0.005364  -0.000131   0.000001
    34  H   -0.000025   0.003492   0.005364   0.600072   0.002371  -0.000037
    35  H    0.006005   0.002507  -0.000131   0.002371   0.606808  -0.003012
    36  H    0.000162   0.000009   0.000001  -0.000037  -0.003012   0.578283
    37  H    0.000000  -0.000002  -0.000005   0.006373  -0.000002   0.000000
    38  H    0.000000   0.000000  -0.000004  -0.000014   0.000000   0.000000
    39  H    0.000000   0.000000   0.000000  -0.000005   0.000000   0.000000
    40  H    0.000000   0.000000   0.000000   0.000001   0.000000   0.000000
    41  H    0.000000   0.000000   0.000001   0.000064   0.000000   0.000000
    42  H    0.000000   0.000000   0.000000   0.000000   0.000000   0.000000
    43  H    0.000000   0.000000   0.000000   0.000000   0.000000   0.000000
    44  H    0.000000   0.000000   0.000000  -0.000007   0.000000   0.000000
    45  H    0.003803  -0.000009  -0.000047  -0.000019   0.006301  -0.046541
             37         38         39         40         41         42
[...]
 3,0.00002243,0.00002136,-0.00007580,-0.00004710,0.00001024,0.00009648,
 0.00012023,0.00004228,-0.00009514,-0.00035226,0.00021558,0.00044640,0.
 00022917,-0.00042636,-0.00039740,0.00079093,0.00035084,0.00011844,0.00
 023252,0.00004238,0.00004405,-0.00006826,-0.00976542,0.00114893,-0.003
 30274,0.00251890,0.00045144,0.00162938,-0.00057943,-0.00014171,0.00011
 574,0.00042611,-0.00010258,-0.00006368,-0.00003025,0.00023571,-0.00015
 897,0.00000025,-0.00001912,-0.00002997,0.00003505,-0.00034853,0.001068
 09,-0.00661601,0.01042333,-0.00644638,-0.34629225,-0.01578874,-0.04962
 887,-0.01502860,-0.00396808,0.00704777,-0.00000335,0.00000206,0.000002
 70,0.00000343,0.00000050,-0.00000245,0.00000420,0.00000144,0.00000021,
 0.00000910,-0.00000161,-0.00000388,0.00000597,-0.00000718,-0.00000641,
 0.00000333,0.00000018,-0.00000072,-0.00000399,-0.00000250,0.00000114,0
 .00008013,-0.00015998,0.00022615,0.00099105,0.00043172,-0.00051575,0.0
 0035191,0.00047632,-0.00130937,-0.00000762,-0.00005364,0.00000145,0.00
 012070,-0.00019536,0.00011344,0.37246742,0.00000135,0.00001537,0.00001
 599,0.00000408,-0.00001821,-0.00000789,-0.00001388,0.00000157,-0.00001
 758,-0.00000026,0.00000322,0.00002081,0.00000117,-0.00000247,-0.000002
 11,0.00003719,-0.00004464,-0.00001278,-0.00000408,0.00007299,0.0001209
 6,-0.00002390,-0.00005899,-0.00017030,0.00000199,-0.00001702,0.0000090
 7,0.00000426,0.00001433,-0.00000031,-0.00000360,-0.00000173,0.00000399
 ,-0.00001496,0.00001192,-0.00000900,-0.00000629,0.00012282,0.00002485,
 -0.00010249,-0.00010278,-0.00011611,0.00002829,0.00032623,0.00040313,-
 0.00025530,-0.00070208,0.00022308,-0.00118709,-0.00001733,0.00151616,0
 .00051892,-0.00000135,-0.00028884,0.00009626,-0.00006758,0.00009215,-0
 .02311102,-0.00090455,-0.00721899,0.00059700,0.00297845,0.00002249,-0.
 00051263,-0.00026269,0.00016021,0.00015835,0.00025261,-0.00015634,-0.0
 0016476,-0.00033077,0.00029567,-0.00001966,0.00004741,0.00002341,0.003
 75981,0.00172277,-0.00403283,0.03610942,-0.01448645,0.01634949,-0.0154
 6584,-0.04159697,-0.00468201,-0.00648761,0.00369837,0.00339954,0.00000
 089,-0.00000250,-0.00000184,0.00000030,0.00000067,-0.00000043,0.000001
 68,-0.00000078,0.00000033,-0.00000586,0.00000653,-0.00000041,0.0000101
 5,0.,0.00000316,0.00000235,-0.00000360,0.00000280,-0.00000107,0.000006
 98,-0.00000090,-0.00001871,-0.00016336,0.00001332,0.00066271,0.0002692
 6,-0.00023773,-0.00129043,0.00014160,0.00019247,0.00004962,0.00004764,
 -0.00000894,-0.00025817,0.00002930,-0.00000026,0.00812183,0.05168145,-
 0.00000053,-0.00000529,-0.00002837,-0.00000711,0.00000532,0.00001738,0
 .00000804,-0.00000679,0.00002688,0.00000017,0.00001196,-0.00002968,-0.
 00000171,-0.00000064,0.00000359,-0.00002160,-0.00000782,-0.00000099,0.
 00000876,-0.00000283,-0.00004882,0.00000088,0.00000192,0.00005470,-0.0
 0000561,0.00001322,0.00001315,0.00000208,-0.00001692,-0.00001683,-0.00
 000231,0.00000367,0.00000207,0.00001211,0.00000850,0.00003655,0.000008
 07,-0.00004456,-0.00007738,0.00003761,0.00007232,0.00012959,0.00008811
 ,0.00003525,-0.00034838,-0.00008263,-0.00027372,-0.00013828,-0.0022866
 4,-0.00006041,0.00133678,0.00075294,0.00004234,-0.00000336,-0.00000876
 ,0.00002584,0.00006276,-0.02464383,-0.00220657,-0.00390436,0.00189389,
 0.00170579,0.00146429,0.00026056,-0.00043174,-0.00004067,-0.00004188,-
 0.00002407,0.00006335,0.00007185,0.00014685,-0.00012864,-0.00000112,-0
 .00002543,-0.00000821,-0.00217831,-0.00030758,0.00285764,-0.01165082,0
 .00915078,-0.00304528,-0.05652612,-0.00702123,-0.05423560,0.03969285,0
 .00544264,-0.01156532,-0.00000275,0.00000149,0.00000423,0.00000173,0.0
 0000039,-0.00000240,0.00000307,0.00000057,0.00000021,0.00000505,0.0000
 0070,-0.00000383,0.00000415,-0.00000831,0.00000550,0.00000060,-0.00000
 074,-0.00000160,-0.00000273,0.00000222,-0.00000033,0.00023970,0.000018
 59,0.00008851,0.00076108,0.00007505,-0.00041067,0.00074084,0.00000440,
 -0.00018448,0.00000370,-0.00004380,-0.00000220,0.00015289,-0.00003787,
 -0.00003609,0.05071937,-0.00290435,0.06744575,-0.00000138,0.00000241,0
 .00001845,0.00000893,-0.00000066,-0.00000940,-0.00000559,0.00000370,-0
 .00001507,-0.00000239,-0.00000740,0.00001741,0.00000235,0.00000052,-0.
 00000183,0.00001952,0.00000335,-0.00000227,-0.00000482,0.00000222,0.00
 003364,-0.00000370,-0.00000332,-0.00003947,0.00000632,-0.00000628,-0.0
 0000973,-0.00000307,0.00001004,0.00001159,0.00000306,-0.00000171,-0.00
 000137,-0.00001238,-0.00001178,-0.00002744,0.00000361,0.00000997,0.000
 07237,-0.00003517,-0.00002092,-0.00006375,0.00001811,-0.00000038,0.000
 16904,-0.00011746,-0.00000599,-0.00016150,0.00068604,0.00068577,0.0001
 6261,-0.00015162,-0.00000570,0.00044678,-0.00002754,0.00008751,-0.0000
 0726,-0.00190632,-0.00165401,0.00251990,-0.00048042,0.00056976,-0.0004
 6471,0.00073618,-0.00010550,0.00000444,-0.00019999,0.00009321,0.000175
 08,0.00003680,-0.00015346,0.00005416,0.00000564,-0.00000016,0.00002980
 ,0.00077499,-0.00062612,0.00030281,-0.00129382,-0.00092118,0.00252515,
 0.00979272,-0.00324943,0.02464096,-0.27360807,0.05488554,-0.27019924,0
 .00000268,-0.00000096,-0.00000217,-0.00000168,-0.00000017,0.00000123,-
 0.00000200,-0.00000038,-0.00000004,-0.00000357,0.00000087,0.00000163,0
 .00000158,0.00000271,0.00000171,0.00000077,0.00000079,0.00000300,0.000
 00128,-0.00000273,-0.00000005,-0.00000323,-0.00001016,0.00001862,-0.00
 003454,0.00000848,-0.00007595,-0.00003557,0.00001096,-0.00004877,-0.00
 000045,-0.00001108,-0.00000237,0.00000249,0.00000906,-0.00000238,0.000
 65528,-0.00072524,0.00247183,0.26487797,0.00000034,-0.00000965,0.00000
 124,-0.00000053,0.00000362,-0.00000423,-0.00000089,0.00000364,-0.00000
 539,0.00000136,-0.00001294,0.00000742,-0.00000029,0.00000363,-0.000000
 72,0.00000044,0.00002524,0.00001339,0.00000173,-0.00003078,-0.00001927
 ,0.00000341,0.00002042,0.00002121,0.00000284,0.00000893,-0.00000250,-0
 .00000361,-0.00000864,0.00000341,0.00000218,0.00000329,-0.00000545,0.0
 0000096,0.00001213,0.00000154,0.00000110,-0.00000883,0.00000230,-0.000
 02828,0.00001801,-0.00002609,0.00001505,-0.00002340,0.00011776,-0.0001
 3091,-0.00012744,0.00003868,0.00008249,-0.00092822,0.00023838,0.000107
 90,-0.00010640,-0.00050996,0.00004815,-0.00009333,-0.00004334,0.000164
 84,0.00259396,-0.00449551,0.00084537,-0.00053373,0.00170325,-0.0009504
 5,-0.00212618,-0.00229245,-0.00026955,0.00019443,0.00030612,0.00004762
 ,-0.00019330,-0.00002904,0.00001319,-0.00000556,0.00006965,0.00035651,
 -0.00099956,0.00009145,-0.00161695,-0.00342682,0.00541402,0.00822733,-
 0.00299675,0.00004585,0.04171890,-0.00768184,0.06629181,0.00000032,0.0
 0000431,-0.00000166,0.00000003,0.00000049,0.00000030,-0.00000155,-0.00
 000020,0.00000031,0.00000167,-0.00000087,-0.00000029,0.00000306,0.0000
 0176,0.00000275,-0.00000052,0.00000065,-0.00000081,-0.00000059,-0.0000
 0224,0.00000292,-0.00000466,0.00001497,0.00000486,0.00000356,0.0000594
 2,-0.00004583,-0.00009689,-0.00003332,0.00016006,-0.00002224,-0.000070
 32,-0.00000368,0.00000407,0.00000711,-0.00000303,0.00015580,0.00039024
 ,-0.00032838,-0.04890834,0.01614396,0.00000863,0.00000854,0.00008368,0
 .00001004,-0.00001049,-0.00005092,-0.00002219,0.00002605,-0.00007010,0
 .00000695,-0.00004108,0.00007872,-0.00000008,0.00000566,-0.00001158,0.
 00002308,0.00002262,0.00000237,0.00000526,-0.00001703,0.00009562,-0.00
 001814,0.00000839,-0.00010296,-0.00000321,-0.00003372,-0.00005022,0.00
 000987,0.00004935,0.00006051,0.00000123,-0.00001160,-0.00001184,-0.000
 04466,-0.00003245,-0.00010364,0.00000796,0.00006572,0.00020619,-0.0000
 9409,-0.00009528,-0.00028511,0.00004313,-0.00005569,0.00043505,0.00001
 709,0.00006924,-0.00007145,-0.00032542,-0.00116574,-0.00014475,0.00010
 430,0.00016654,-0.00002825,0.00004509,-0.00004632,-0.00016747,0.002664
 95,0.00170949,-0.00486972,0.00034809,0.00085376,0.00149716,-0.00054371
 ,-0.00224631,-0.00011814,0.00012464,0.00020660,-0.00017425,-0.00002917
 ,-0.00019781,0.00019768,-0.00000328,0.00004392,0.00000945,-0.00015760,
 0.00032902,-0.00038121,0.00209997,-0.00157830,-0.00071485,-0.02743447,
 0.00421621,-0.02556159,-0.21549019,0.06475005,-0.28446754,0.00000482,-
 0.00000222,-0.00001564,0.00000023,0.00000037,0.00000257,-0.00000349,-0
 .00000097,0.00000232,-0.00000160,0.00000127,-0.00000144,0.00000706,0.0
 0001281,0.00001006,0.00000641,0.00000045,0.00000785,0.00000018,-0.0000
 1113,0.00000449,-0.00001449,-0.00001032,0.00001402,0.00018657,0.000077
 32,-0.00004195,0.00002197,0.00006793,-0.00001882,-0.00001219,0.0000061
 1,0.00001307,-0.00000648,-0.00002409,0.00001064,0.00068172,-0.00049911
 ,0.00340748,0.23745547,-0.06703413,0.31077910,0.00000466,-0.00000919,-
 0.00001569,-0.00000197,0.00001093,0.00001554,-0.00001112,-0.00001263,0
 .00002612,0.00001003,0.00000876,-0.00002336,-0.00000492,0.00000053,0.0
 0000345,0.00000932,-0.00000511,0.00001704,0.00003116,-0.00000077,-0.00
 002670,-0.00001885,-0.00001184,0.00001676,-0.00001544,0.00001101,-0.00
 000293,0.00001787,-0.00000733,-0.00000230,-0.00000806,0.00000120,0.,-0
 .00002562,-0.00001212,0.00001962,0.00006773,-0.00007330,-0.00000833,-0
 .00015017,0.00004773,0.00016446,0.00082317,0.00006512,-0.00001654,-0.0
 0090046,0.00157678,-0.00085266,-0.01741186,-0.00470755,-0.00145768,0.0
 0201404,0.00100772,0.00013200,-0.00009983,0.00012907,-0.00009942,-0.34
 952101,-0.02268902,-0.02773410,-0.00709710,0.01121103,-0.00824388,-0.0
 0025062,0.00053497,0.00053779,-0.00006982,-0.00007678,-0.00000094,0.00
 005656,0.00005017,-0.00004174,-0.00001415,-0.00001540,-0.00000056,0.00
 000377,-0.00006526,-0.00002020,0.00209897,-0.00041687,0.00077936,-0.01
 005797,0.00029120,-0.00033450,0.00139470,-0.00022660,-0.00001914,-0.00
 000315,0.00000209,0.00000292,0.00000604,0.00000174,-0.00000553,0.00000
 947,0.00000129,-0.00000010,0.00000926,0.00000903,-0.00001158,0.0000395
 6,-0.00002167,0.00002915,0.00001328,-0.00000152,0.00000915,-0.00001112
 ,-0.00000313,0.00000134,0.00113236,-0.00082722,0.00024519,-0.00045560,
 -0.00079635,0.00274232,0.00012765,0.00025341,0.00000329,0.00001151,-0.
 00001128,0.00001566,0.00006554,-0.00006126,0.00002012,0.00040600,-0.00
 049618,-0.00048034,0.00030121,0.00022679,0.00031956,0.37746518,0.00000
 102,-0.00000411,0.00000897,-0.00000013,0.00000600,-0.00000456,-0.00000
 167,0.00000625,-0.00000287,0.00000191,-0.00000756,0.00000328,-0.000000
 51,0.00000220,-0.00000142,-0.00000047,0.00000643,-0.00000091,0.0000117
 9,-0.00000961,-0.00001023,-0.00001111,0.00000023,0.00000454,0.00000055
 ,0.00000273,-0.00001396,-0.00000396,0.00000268,0.00001228,0.00000466,-
 0.00000179,-0.00000407,0.00000116,-0.00000800,-0.00001053,0.00002224,-
 0.00004647,0.00003517,-0.00002703,0.00008588,0.00001168,0.00015928,-0.
 00013267,-0.00017838,-0.00159929,-0.00005147,0.00077177,-0.00518185,0.
 00092823,0.00006766,0.00033180,0.00051979,0.00073200,-0.00003335,0.000
 05469,-0.00006178,-0.02145569,-0.03857593,-0.00694510,0.03696930,-0.01
 403529,0.01404563,0.00159756,0.00070469,-0.00052069,-0.00007725,0.0000
 1434,0.00001461,0.00004174,-0.00000135,-0.00002847,-0.00000678,-0.0000
 0472,0.00000402,-0.00025762,-0.00023552,0.00006906,0.00096993,0.002290
 89,0.00024693,-0.02740615,-0.00298568,-0.00319155,0.00177882,0.0013456
 6,0.00159171,0.00000067,0.00000024,-0.00000199,0.00000016,-0.00000080,
 0.00000021,-0.00000020,0.00000064,0.00000085,0.00000287,0.00000100,-0.
 00000432,0.00001447,0.00000327,0.00001142,-0.00000039,0.00000432,-0.00
 000003,0.00000412,-0.00000587,0.00000077,-0.00005768,-0.00038448,0.000
 55320,-0.00037065,0.00013317,0.00114224,0.00017693,0.00007734,-0.00000
 209,0.00000608,0.00000036,-0.00000741,0.00004745,-0.00005210,0.0000309
 6,-0.00080418,-0.00305795,-0.00301075,0.00004715,-0.00008969,0.0004142
 7,0.01510598,0.05350256,-0.00000241,-0.00000669,-0.00000732,-0.0000014
 0,0.00000548,0.00000360,0.00001013,0.00000868,0.00000651,-0.00000195,-
 0.00000281,-0.00000930,0.00000004,0.00000191,-0.00000010,-0.00000827,-
 0.00000669,0.00000048,-0.00001253,-0.00000270,-0.00001685,0.00001155,-
 0.00000388,0.00001526,0.00000484,0.00001346,-0.00000763,-0.00000784,-0
 .00001161,-0.00000002,0.00000362,0.00000186,-0.00000459,0.00002082,0.0
 0000195,0.00001858,-0.00001406,-0.00007479,0.00000400,0.00004170,0.000
 08504,0.00011375,-0.00055171,-0.00005078,-0.00014033,0.00198794,-0.001
 09356,0.00087227,0.03263821,0.00524932,0.00065773,-0.00225493,-0.00017
 537,0.00215780,-0.00004804,0.00013418,0.00008968,-0.02762933,-0.007023
 01,-0.04619873,-0.01549167,0.01063063,-0.00329073,-0.00128234,0.000019
 43,0.00019317,0.00001023,-0.00000807,0.00008576,0.00000013,0.00000568,
 -0.00001305,-0.00000675,-0.00000466,0.00000212,0.00039985,0.00021759,-
 0.00038238,0.00170043,0.00147288,0.00082519,-0.02578822,-0.00461834,-0
 .00356624,0.00123611,0.00081586,0.00237060,0.00000002,0.00000203,0.000
 00049,-0.00000231,-0.00000070,0.00000289,-0.00000314,0.00000040,-0.000
 00176,-0.00000213,-0.00000603,0.00000857,-0.00003689,-0.00000019,-0.00
 004933,-0.00000817,0.00000263,-0.00001008,0.00000366,-0.00000394,0.000
 00130,-0.00050545,0.00060520,-0.00018331,0.00256247,0.00172838,-0.0050
 6610,-0.00016580,0.00002037,-0.00012989,-0.00001485,0.00002609,0.00000
 777,-0.00001665,0.00003066,0.00000555,-0.00107186,-0.00252269,-0.00275
 495,-0.00000545,0.00031332,0.00054247,0.03430653,-0.00577503,0.0538423
 3,0.00036359,-0.00008132,-0.00032202,0.00033608,-0.00248478,0.00090504
 ,0.00063310,0.00006489,0.00009278,0.00011764,0.00006248,-0.00005574,-0
 .00007427,0.00002454,-0.00000599,-0.00015017,-0.00001444,0.00015196,0.
 00007159,0.00001244,-0.00009713,-0.00001051,-0.00002007,0.00002291,-0.
 32374957,-0.04323895,0.07144060,-0.01282175,-0.01317206,-0.01211518,-0
 .00074900,0.00020833,-0.00052651,-0.02055794,-0.00061048,0.00553526,0.
 00130003,0.00044562,0.00065171,0.00023669,-0.00019499,0.00005054,0.000
 12996,0.00019099,0.00022365,-0.00000747,0.00004462,-0.00005095,-0.0000
 2888,0.00000314,-0.00000135,0.00013813,-0.00003228,0.00002499,-0.00018
 170,0.00005402,-0.00006750,-0.00001383,-0.00000059,-0.00000365,0.00002
 061,-0.00000005,0.00000719,-0.00000620,-0.00000323,-0.00000242,-0.0000
 1122,-0.00001940,0.00000839,0.00001143,0.00001387,-0.00001859,-0.00000
 631,-0.00000150,0.00000164,-0.00002387,-0.00002226,-0.00000016,0.00001
 551,0.00000644,0.00001481,-0.00001466,0.00000304,-0.00000547,0.0000071
 5,0.00000091,-0.00000088,-0.00029662,0.00024802,-0.00036952,0.00097254
 ,0.00097783,-0.00063466,0.00028994,-0.00032066,-0.00014099,0.00006901,
 0.00005059,0.00000429,0.00010069,-0.00018926,-0.00014004,-0.00017297,0
 .00301701,0.00092884,-0.00079907,0.00037511,0.00135661,0.00000986,-0.0
 0000806,-0.00000145,0.00001056,0.00001230,0.00002068,0.00000592,0.0000
 0266,0.00000610,0.00000019,0.00000333,-0.00000082,0.00000619,0.0000003
 5,-0.00000135,0.00000483,0.00000139,0.00000289,-0.00000275,-0.00000074
 ,0.00000021,0.00000978,-0.00000170,-0.00000414,0.35481773,-0.00028943,
 0.00022287,0.00038704,0.00263692,0.00156456,-0.00109061,0.00057334,0.0
 0012458,-0.00045949,-0.00020855,0.00000632,0.00024625,0.00001069,-0.00
 007783,0.00000868,0.00002561,0.00007370,-0.00000835,-0.00003447,-0.000
 00298,0.00004974,-0.00000033,0.00001781,0.00000269,-0.04649993,-0.0507
 0937,0.01856821,-0.02182193,-0.00801754,-0.01189634,-0.00130626,-0.000
 19010,0.00001383,0.03355683,-0.00185760,-0.00767463,-0.00094302,0.0015
 2910,0.00138743,0.00018477,0.00005094,0.00012320,-0.00012855,-0.000070
 86,-0.00013310,-0.00001846,-0.00002823,0.00007433,0.00000987,-0.000022
 81,-0.00002252,0.00006813,0.00007462,0.00001543,-0.00010084,-0.0001269
 0,-0.00000175,-0.00000630,-0.00000537,0.00000954,0.00000946,0.00001563
 ,-0.00000616,-0.00000417,-0.00000266,-0.00000114,0.00000073,0.00000880
 ,0.00000254,0.00000081,-0.00000822,0.00000042,0.00000061,0.00000240,-0
 .00000121,-0.00000458,0.00001080,0.00001221,0.00000231,0.00000821,-0.0
 0002484,-0.00000215,-0.00001687,0.00001564,0.00000519,0.00000469,-0.00
 001089,0.00001042,-0.00019229,0.00020060,-0.00025617,-0.00069245,0.000
 11753,-0.00039141,-0.00023122,0.00010978,-0.00004410,-0.00003393,-0.00
 002536,-0.00019595,0.00005452,0.00004978,0.00202111,-0.00497148,-0.002
 13773,-0.02146193,-0.00209110,0.00656396,0.00000430,0.00000047,0.00000
 217,0.00000402,0.00001632,0.00001434,0.00000119,-0.00000041,-0.0000012
 0,-0.00000137,-0.00000215,-0.00000095,-0.00000100,0.00000072,0.0000022
 5,0.00000079,0.00000205,-0.00000001,-0.00000094,-0.00000020,0.00000207
 ,0.00000181,-0.00000253,-0.00000154,0.05459292,0.06556598,0.00017996,-
 0.00010750,0.00031202,-0.00080412,0.00088556,-0.00001819,-0.00015262,0
 .00001767,0.00001811,0.00001108,-0.00013526,0.00002089,-0.00000678,0.0
 0004597,-0.00001386,0.00005595,0.00004441,0.00003305,-0.00002665,-0.00
 004224,-0.00006925,0.00001837,0.00001350,0.00004361,0.07394142,0.01797
 033,-0.05879657,-0.03815447,-0.01831342,-0.00536552,-0.00098507,0.0003
 4300,0.00037676,0.00792605,0.00067129,0.00054616,-0.00048119,0.0003284
 1,0.00084534,0.00008831,-0.00007813,0.00013828,-0.00010173,-0.00000942
 ,-0.00009652,0.00001172,-0.00002231,0.00001980,0.00001518,0.00002940,0
 .00003948,-0.00017488,-0.00003765,-0.00008363,0.00028045,0.00007289,0.
 00008667,0.00000847,-0.00001393,0.00001063,-0.00001969,0.00001280,-0.0
 0001997,0.00000473,-0.00000066,0.00000414,0.00000347,-0.00000127,0.000
 00403,-0.00001573,-0.00000980,-0.00002544,0.00000507,0.00000427,0.0000
 0280,0.00001584,0.00000478,0.00001817,-0.00001129,0.00000636,-0.000021
 00,0.00001202,-0.00000398,0.00002323,-0.00000039,0.00000063,-0.0000174
 0,-0.00011628,0.00015823,-0.00015112,-0.00030480,-0.00009699,0.0003315
 6,-0.00007080,0.00010855,0.00001396,-0.00002481,-0.00003382,0.00000162
 ,-0.00014026,0.00004953,-0.00000125,-0.00024874,-0.00151254,-0.0002493
 6,0.02618921,0.00415410,-0.00447835,-0.00001069,0.00000613,0.00000460,
 -0.00001360,-0.00002554,-0.00003282,-0.00000407,-0.00000224,-0.0000065
 9,0.00000008,-0.00000279,-0.00000339,-0.00000336,0.00000216,0.00000199
 ,-0.00000422,-0.00000134,-0.00000371,0.00000252,-0.00000023,0.00000295
 ,-0.00000910,0.00000292,0.00000479,-0.06688459,-0.00448187,0.06654930\
 \-0.00018495,0.00146163,-0.00879570,0.01394399,-0.02685664,0.00569611,
 0.01654771,-0.01609578,0.01289216,-0.01778053,0.00413904,0.01264146,0.
 00105608,0.00181918,-0.03537849,-0.00090461,-0.02584903,-0.01879473,0.
 00903121,0.00829757,0.01183395,-0.00669399,0.00778403,0.01954567,-0.01
 102018,0.02466208,-0.00817184,0.00241159,0.01446291,-0.00264462,0.0122
 9165,-0.03188239,0.00319078,-0.00239715,0.02431157,0.02613703,0.000409
 46,-0.01276733,0.01917275,-0.02219357,0.00603349,-0.03072401,0.0044557
 7,0.00438793,0.01712953,-0.03330303,0.01090434,0.01127860,-0.00263909,
 0.03290988,0.00995850,0.01305612,-0.02272877,0.00809037,-0.00314359,0.
 01626605,-0.01908260,-0.00590159,0.02160775,-0.04033110,-0.00897858,0.
 02223553,0.00029758,0.00175674,-0.01775197,0.03617025,0.01818956,-0.03
 506121,-0.01700627,-0.01371795,-0.01138636,0.00921252,-0.00949173,0.03
 498111,-0.00443971,0.02919682,-0.00938295,0.01445220,-0.00624640,-0.00
 996864,-0.01377099,0.02715368,-0.01195733,0.01031577,-0.00310280,-0.00
 852428,0.02038508,-0.00042635,0.00468152,-0.00062311,-0.01905891,0.000
 54527,0.00079720,0.02323330,0.00502068,-0.00187957,-0.02187536,-0.0015
 3163,0.00047019,0.02100862,0.00276381,-0.00338151,0.02028551,0.0002590
 4,-0.00089905,-0.00080320,0.00877768,-0.01823342,0.01779455,-0.0019681
 5,0.00151847,-0.02196999,-0.00337706,-0.00128583,-0.01774816,0.0019459
 7,-0.00055806,0.00078033,-0.00725488,-0.01819738,0.01930595,0.00448868
 ,-0.00366269,-0.01904459,-0.00088306,-0.00371114,-0.00220074,-0.005206
 15,-0.00094512,0.02019470,0.00032499,0.00101618,-0.02127630,-0.0046380
 9,0.00031459\\\@


 THE MORE ACCURATE THE CALCULATIONS BECOME, THE MORE THE CONCEPTS
 TEND TO VANISH INTO THIN AIR.
     -- R.S. MULLIKEN, J.C.P. 43,S2(1965)
 Job cpu time:  3 days 23 hours 13 minutes 47.3 seconds.
 File lengths (MBytes):  RWF=   2340 Int=      0 D2E=      0 Chk=     43 Scr=      1
 Normal termination of Gaussian 09 at Fri Feb 12 13:09:39 2016.
Gaussian '09 finished on node027 at Fri Feb 12 13:09:39 EST 2016.
