Gaussian '09 started on node006 at Thu Mar 31 03:00:02 EDT 2016.
 Entering Gaussian System, Link 0=/usr/local/gaussian/g09/g09
 Initial command:
 /usr/local/gaussian/g09/l1.exe /home/srmcgrat/thesis/gaussian/cellobiose/500K/5403ps/1/2dp/gaussian21960/Gau-21996.inp -scrdir=/home/srmcgrat/thesis/gaussian/cellobiose/500K/5403ps/1/2dp/gaussian21960/
 Entering Link 1 = /usr/local/gaussian/g09/l1.exe PID=     21998.
  
 Copyright (c) 1988,1990,1992,1993,1995,1998,2003,2009,2010,
            Gaussian, Inc.  All Rights Reserved.
  
 This is part of the Gaussian(R) 09 program.  It is based on
 the Gaussian(R) 03 system (copyright 2003, Gaussian, Inc.),
 the Gaussian(R) 98 system (copyright 1998, Gaussian, Inc.),
 the Gaussian(R) 94 system (copyright 1995, Gaussian, Inc.),
 the Gaussian 92(TM) system (copyright 1992, Gaussian, Inc.),
 the Gaussian 90(TM) system (copyright 1990, Gaussian, Inc.),
 the Gaussian 88(TM) system (copyright 1988, Gaussian, Inc.),
 the Gaussian 86(TM) system (copyright 1986, Carnegie Mellon
 University), and the Gaussian 82(TM) system (copyright 1983,
 Carnegie Mellon University). Gaussian is a federally registered
 trademark of Gaussian, Inc.
  
 This software contains proprietary and confidential information,
 including trade secrets, belonging to Gaussian, Inc.
  
 This software is provided under written license and may be
 used, copied, transmitted, or stored only in accord with that
 written license.
  
 The following legend is applicable only to US Government
 contracts under FAR:
  
                    RESTRICTED RIGHTS LEGEND
  
 Use, reproduction and disclosure by the US Government is
 subject to restrictions as set forth in subparagraphs (a)
 and (c) of the Commercial Computer Software - Restricted
 Rights clause in FAR 52.227-19.
  
 Gaussian, Inc.
 340 Quinnipiac St., Bldg. 40, Wallingford CT 06492
  
  
 ---------------------------------------------------------------
 Warning -- This program may not be used in any manner that
 competes with the business of Gaussian, Inc. or will provide
 assistance to any competitor of Gaussian, Inc.  The licensee
 of this program is prohibited from giving any competitor of
 Gaussian, Inc. access to this program.  By using this program,
 the user acknowledges that Gaussian, Inc. is engaged in the
 business of creating and licensing software in the field of
 computational chemistry and represents and warrants to the
 licensee that it is not a competitor of Gaussian, Inc. and that
 it will not use this program in any manner prohibited above.
 ---------------------------------------------------------------
  

 Cite this work as:
 Gaussian 09, Revision B.01,
 M. J. Frisch, G. W. Trucks, H. B. Schlegel, G. E. Scuseria, 
 M. A. Robb, J. R. Cheeseman, G. Scalmani, V. Barone, B. Mennucci, 
 G. A. Petersson, H. Nakatsuji, M. Caricato, X. Li, H. P. Hratchian, 
 A. F. Izmaylov, J. Bloino, G. Zheng, J. L. Sonnenberg, M. Hada, 
 M. Ehara, K. Toyota, R. Fukuda, J. Hasegawa, M. Ishida, T. Nakajima, 
 Y. Honda, O. Kitao, H. Nakai, T. Vreven, J. A. Montgomery, Jr., 
 J. E. Peralta, F. Ogliaro, M. Bearpark, J. J. Heyd, E. Brothers, 
 K. N. Kudin, V. N. Staroverov, T. Keith, R. Kobayashi, J. Normand, 
 K. Raghavachari, A. Rendell, J. C. Burant, S. S. Iyengar, J. Tomasi, 
 M. Cossi, N. Rega, J. M. Millam, M. Klene, J. E. Knox, J. B. Cross, 
 V. Bakken, C. Adamo, J. Jaramillo, R. Gomperts, R. E. Stratmann, 
 O. Yazyev, A. J. Austin, R. Cammi, C. Pomelli, J. W. Ochterski, 
 R. L. Martin, K. Morokuma, V. G. Zakrzewski, G. A. Voth, 
 P. Salvador, J. J. Dannenberg, S. Dapprich, A. D. Daniels, 
 O. Farkas, J. B. Foresman, J. V. Ortiz, J. Cioslowski, 
 and D. J. Fox, Gaussian, Inc., Wallingford CT, 2010.
 
 ******************************************
 Gaussian 09:  EM64L-G09RevB.01 12-Aug-2010
                31-Mar-2016 
 ******************************************
 -------------------------------------------------
 # freq=raman b3lyp/6-31+g(2d,p) geom=connectivity
 -------------------------------------------------
 1/10=4,30=1,38=1,57=2/1,3;
 2/12=2,17=6,18=5,40=1/2;
 3/5=1,6=6,7=112,11=2,16=1,25=1,30=1,71=2,74=-5/1,2,3;
 4//1;
 5/5=2,38=5,98=1/2;
 8/6=4,10=90,11=11/1;
 10/13=10,15=4/2;
 11/6=3,8=1,9=11,15=111,16=1/1,2,10;
 10/6=1/2;
 6/7=2,8=2,9=2,10=2,18=1,28=1/1;
 7/8=1,10=1,25=1/1,2,3,16;
 1/10=4,30=1/3;
 99//99;
 -----------------
 500 5403/5403.com
 -----------------
 Symbolic Z-matrix:
 Charge =  0 Multiplicity = 1
 O                     8.821     7.479     12.051 
 C                     9.422     7.595     13.349 
 C                     8.918     8.937     13.855 
 O                     9.187     10.073    13.021 
 H                     9.178     9.729     12.082 
 C                     9.541     9.23      15.21 
 O                     9.25      10.519    15.768 
 H                     9.701     11.303    15.34 
 C                     9.023     5.151     13.982 
 O                     8.512     4.276     14.998 
 H                     8.603     3.389     14.546 
 C                     8.887     6.612     14.377 
 O                     9.414     6.911     15.678 
 C                     9.126     8.197     16.245 
 O                     9.863     8.159     17.476 
 C                     9.135     7.951     18.696 
 C                     9.231     6.471     19.026 
 O                     8.559     5.652     18.058 
 H                     9.005     5.599     17.165 
 C                     8.492     6.365     20.351 
 O                     8.214     4.991     20.656 
 H                     7.766     4.731     19.801 
 C                     10.163    10.12     19.556 
 O                     10.653    10.981    20.594 
 H                     10.446    11.93     20.358 
 C                     9.956     8.631     19.779 
 O                     9.446     8.394     21.099 
 C                     9.327     7.007     21.447 
 O                     8.661     6.922     22.715 
 H                     9.31414   6.87494   23.41699 
 H                     10.29304   6.54987   21.49893 
 H                     7.56508   6.89349   20.27093 
 H                     10.25226   6.17146   19.13652 
 H                     8.12677   8.30633   18.65014 
 H                     10.9271   8.183     19.74504 
 H                     9.22043   10.5189   19.24401 
 H                     10.83731   10.21728   18.73093 
 H                     9.50889   7.41939   11.38403 
 H                     10.05686   4.92895   13.81851 
 H                     8.48247   4.98372   13.07384 
 H                     7.83508   6.79806   14.43825 
 H                     10.49045   7.5727    13.29598 
 H                     7.85828   8.86458   13.98403 
 H                     10.6026   9.16275   15.09433 
 H                     8.07862   8.28048   16.44729 
 

 GradGradGradGradGradGradGradGradGradGradGradGradGradGradGradGradGradGrad
 Berny optimization.
 Initialization pass.
 Trust Radius=3.00D-01 FncErr=1.00D-07 GrdErr=1.00D-07
 Number of steps in this run=      2 maximum allowed number of steps=      2.
 GradGradGradGradGradGradGradGradGradGradGradGradGradGradGradGradGradGrad

                          Input orientation:                          
 ---------------------------------------------------------------------
 Center     Atomic      Atomic             Coordinates (Angstroms)
 Number     Number       Type             X           Y           Z
 ---------------------------------------------------------------------
      1          8           0        8.821000    7.479000   12.051000
      2          6           0        9.422000    7.595000   13.349000
      3          6           0        8.918000    8.937000   13.855000
      4          8           0        9.187000   10.073000   13.021000
      5          1           0        9.178000    9.729000   12.082000
      6          6           0        9.541000    9.230000   15.210000
      7          8           0        9.250000   10.519000   15.768000
      8          1           0        9.701000   11.303000   15.340000
      9          6           0        9.023000    5.151000   13.982000
     10          8           0        8.512000    4.276000   14.998000
     11          1           0        8.603000    3.389000   14.546000
     12          6           0        8.887000    6.612000   14.377000
     13          8           0        9.414000    6.911000   15.678000
     14          6           0        9.126000    8.197000   16.245000
     15          8           0        9.863000    8.159000   17.476000
     16          6           0        9.135000    7.951000   18.696000
     17          6           0        9.231000    6.471000   19.026000
     18          8           0        8.559000    5.652000   18.058000
     19          1           0        9.005000    5.599000   17.165000
     20          6           0        8.492000    6.365000   20.351000
     21          8           0        8.214000    4.991000   20.656000
     22          1           0        7.766000    4.731000   19.801000
     23          6           0       10.163000   10.120000   19.556000
     24          8           0       10.653000   10.981000   20.594000
     25          1           0       10.446000   11.930000   20.358000
     26          6           0        9.956000    8.631000   19.779000
     27          8           0        9.446000    8.394000   21.099000
     28          6           0        9.327000    7.007000   21.447000
     29          8           0        8.661000    6.922000   22.715000
     30          1           0        9.314142    6.874942   23.416990
     31          1           0       10.293040    6.549868   21.498930
     32          1           0        7.565078    6.893493   20.270931
     33          1           0       10.252256    6.171464   19.136522
     34          1           0        8.126767    8.306335   18.650135
     35          1           0       10.927103    8.182999   19.745041
     36          1           0        9.220429   10.518899   19.244006
     37          1           0       10.837308   10.217280   18.730927
     38          1           0        9.508889    7.419394   11.384025
     39          1           0       10.056859    4.928946   13.818514
     40          1           0        8.482471    4.983722   13.073845
     41          1           0        7.835083    6.798064   14.438248
     42          1           0       10.490453    7.572701   13.295985
     43          1           0        7.858279    8.864581   13.984026
     44          1           0       10.602601    9.162752   15.094328
     45          1           0        8.078617    8.280482   16.447286
 ---------------------------------------------------------------------
                    Distance matrix (angstroms):
                    1          2          3          4          5
     1  O    0.000000
     2  C    1.435082   0.000000
     3  C    2.321549   1.520203   0.000000
     4  O    2.793509   2.510636   1.434717   0.000000
     5  H    2.278357   2.493748   1.959182   1.000069   0.000000
     6  C    3.682890   2.480062   1.519869   2.372274   3.188284
     7  O    4.820968   3.798805   2.504499   2.783684   3.770395
     8  H    5.120049   4.217960   2.901081   2.674856   3.655895
     9  C    3.031361   2.555978   3.789584   5.017619   4.959043
    10  O    4.363427   3.816158   4.816244   6.161929   6.219471
    11  H    4.795899   4.449046   5.599733   6.880591   6.826238
    12  C    2.483208   1.519637   2.383080   3.729243   3.881674
    13  O    3.718790   2.427377   2.770202   4.136354   4.574717
    14  C    4.265933   2.972682   2.510570   3.730586   4.436248
    15  O    5.565859   4.188640   3.822296   4.895651   5.659449
    16  C    6.669138   5.366518   4.945156   6.058978   6.848951
    17  C    7.059376   5.790353   5.737453   7.002597   7.670496
    18  O    6.284156   5.166691   5.346524   6.731344   7.260693
    19  H    5.451720   4.326634   4.701693   6.101027   6.551619
    20  C    8.380885   7.169784   6.999620   8.243858   8.953405
    21  O    8.978007   7.850626   7.894310   9.223160   9.843344
    22  H    8.290177   7.250733   7.373768   8.747834   9.303586
    23  C    8.068511   6.741777   5.954067   6.607648   7.548760
    24  O    9.412921   8.091377   7.252743   7.766849   8.729105
    25  H    9.563382   8.304630   7.319962   7.672359   8.657043
    26  C    7.895398   6.534780   6.022031   6.952790   7.813751
    27  O    9.115599   7.791115   7.283486   8.254708   9.119229
    28  C    9.421446   8.119875   7.844147   8.967577   9.753702
    29  O   10.679735   9.420934   9.089878  10.206817  11.009415
    30  H   11.392709  10.094283   9.789825  10.877516  11.689576
    31  H    9.606954   8.262710   8.125195   9.247220  10.001438
    32  H    8.335912   7.200930   6.868077   8.080928   8.814772
    33  H    7.345936   6.017574   6.109248   7.331873   7.973479
    34  H    6.686930   5.503241   4.900726   5.994361   6.802166
    35  H    8.008093   6.597000   6.268779   7.198110   8.010722
    36  H    7.819199   6.583382   5.624523   6.239051   7.205559
    37  H    7.495672   6.151795   5.394212   5.945385   6.870222
    38  H    0.960000   1.974719   2.959391   3.134474   2.435352
    39  H    3.339794   2.780527   4.166873   5.277686   5.179613
    40  H    2.717945   2.788763   4.053184   5.138084   4.897467
    41  H    2.671078   2.083236   2.467374   3.815950   3.993209
    42  H    2.084668   1.070000   2.155555   2.833037   2.801056
    43  H    2.565786   2.111946   1.070000   2.037939   2.471151
    44  H    3.907809   2.626373   2.103516   2.670425   3.379977
    45  H    4.529993   3.445858   2.802771   4.022570   4.728908
                    6          7          8          9         10
     6  C    0.000000
     7  O    1.434422   0.000000
     8  H    2.083226   1.000620   0.000000
     9  C    4.291218   5.661868   6.336478   0.000000
    10  O    5.064178   6.333450   7.135083   1.434922   0.000000
    11  H    5.952984   7.262836   8.029162   1.897140   0.999677
    12  C    2.824098   4.163088   4.857514   1.519553   2.446050
    13  O    2.369159   3.612847   4.414326   2.475257   2.866920
    14  C    1.520046   2.373729   3.285862   3.796037   4.160078
    15  O    2.526951   2.977017   3.804402   4.686331   4.800351
    16  C    3.735354   3.896285   4.776923   5.484008   5.250615
    17  C    4.719114   5.196271   6.095549   5.218007   4.643250
    18  O    4.677340   5.423031   6.373813   4.132804   3.355471
    19  H    4.158543   5.120355   6.029151   3.214423   2.586362
    20  C    5.978169   6.231707   7.138322   6.505376   5.746210
    21  O    7.027728   7.451485   8.385247   6.724757   5.710779
    22  H    6.668501   7.208903   8.175324   5.968016   4.881839
    23  C    4.479587   3.916850   4.403134   7.553809   7.592990
    24  O    5.769749   5.046992   5.349253   8.964616   8.992003
    25  H    5.883105   4.948680   5.111602   9.414518   9.542205
    26  C    4.626747   4.488998   5.187420   6.825401   6.626396
    27  O    5.948802   5.742265   6.457042   7.832475   7.419736
    28  C    6.624779   6.677658   7.476024   7.698271   7.050687
    29  O    7.901031   7.845135   8.640913   8.918115   8.159388
    30  H    8.541221   8.472917   9.219280   9.595613   8.847448
    31  H    6.877450   7.048794   7.802256   7.750746   7.113696
    32  H    5.914098   6.021598   6.951258   6.686738   5.962527
    33  H    5.027734   5.590396   6.407037   5.396436   4.873258
    34  H    3.832459   3.803189   4.734470   5.705336   5.452531
    35  H    4.856345   4.907793   5.535532   6.784634   6.605434
    36  H    4.247026   3.476132   4.010864   7.519443   7.583154
    37  H    3.879699   3.374836   3.737428   7.177131   7.391929
    38  H    4.232896   5.375297   5.546985   3.482983   4.892395
    39  H    4.549880   5.974966   6.562783   1.070000   2.050394
    40  H    4.869756   6.203779   6.823016   1.070000   2.050394
    41  H    3.069213   4.197094   4.958755   2.081376   2.670645
    42  H    2.703988   4.041071   4.326241   2.913533   4.204685
    43  H    2.113786   2.802954   3.343676   3.891949   4.744531
    44  H    1.070000   2.030461   2.335359   4.452704   5.316036
    45  H    2.137996   2.616206   3.604695   4.094282   4.280669
                   11         12         13         14         15
    11  H    0.000000
    12  C    3.239899   0.000000
    13  O    3.787298   1.435176   0.000000
    14  C    5.126109   2.461457   1.434653   0.000000
    15  O    5.738066   3.598553   2.234258   1.435261   0.000000
    16  C    6.190102   4.528596   3.204335   2.463331   1.435844
    17  C    5.473893   4.663842   3.381744   3.274761   2.377240
    18  O    4.178187   3.818238   2.824979   3.175765   2.885167
    19  H    3.450343   2.968676   2.024795   2.758740   2.717809
    20  C    6.524333   5.992137   4.794281   4.540640   3.655640
    21  O    6.328493   6.519694   5.468719   5.528752   4.782031
    22  H    5.487856   5.849323   4.946457   5.148582   4.642652
    23  C    8.534639   6.384065   5.088965   3.966865   2.874356
    24  O    9.920649   7.801154   6.501313   5.384811   4.278984
    25  H   10.494030   8.153770   6.939581   5.709156   4.781867
    26  C    7.529506   5.865213   4.479996   3.656010   2.352710
    27  O    8.288696   6.976624   5.620281   4.868524   3.654483
    28  C    7.825465   7.094683   5.770455   5.340160   4.169321
    29  O    8.900450   8.346821   7.077182   6.610806   5.515623
    30  H    9.557823   9.053895   7.739719   7.295251   6.102902
    31  H    7.822439   7.259662   5.897996   5.628393   4.354102
    32  H    6.792171   6.046911   4.951145   4.510402   3.833222
    33  H    5.615607   4.971021   3.634689   3.705691   2.618999
    34  H    6.422687   4.659229   3.526686   2.606741   2.101144
    35  H    7.444052   5.953648   4.521978   3.936299   2.506279
    36  H    8.560838   6.250023   5.076496   3.793965   3.017924
    37  H    8.314515   5.979835   4.719921   3.631795   2.600122
    38  H    5.202191   3.161729   4.325007   4.937646   6.146915
    39  H    2.239280   2.124417   2.792758   4.175465   4.883445
    40  H    2.173685   2.124417   3.371020   4.560210   5.600645
    41  H    3.496144   1.070000   2.010651   2.624470   3.897760
    42  H    4.756929   2.159306   2.696404   3.308802   4.267314
    43  H    5.554495   2.507352   3.017663   2.676711   4.087864
    44  H    6.134760   3.156610   2.612247   2.106437   2.688288
    45  H    5.274131   2.779100   2.061681   1.070000   2.063258
                   16         17         18         19         20
    16  C    0.000000
    17  C    1.519380   0.000000
    18  O    2.454429   1.435050   0.000000
    19  H    2.809407   2.067554   0.999587   0.000000
    20  C    2.380729   1.520849   2.402230   3.316703   0.000000
    21  O    3.667621   2.425199   2.702878   3.630761   1.434638
    22  H    3.669276   2.403009   2.124886   3.039250   1.870704
    23  C    2.549695   3.803252   4.977936   5.243785   4.186202
    24  O    3.884280   4.982049   6.262138   6.590893   5.102590
    25  H    4.507040   5.749011   6.947233   7.235557   5.898084
    26  C    1.519648   2.399632   3.713205   4.114659   2.757759
    27  O    2.463205   2.835751   4.189632   4.845912   2.363570
    28  C    2.914790   2.481482   3.729768   4.519034   1.520067
    29  O    4.175629   3.759923   4.828142   5.715870   2.434606
    30  H    4.845384   4.410315   5.548388   6.388347   3.215005
    31  H    3.340755   2.692496   3.956395   4.620189   2.143750
    32  H    2.462394   2.122180   2.725115   3.660040   1.070000
    33  H    2.146874   1.070000   2.073685   2.402137   2.147303
    34  H    1.070000   2.174640   2.753715   3.210387   2.606744
    35  H    2.089484   2.514901   3.854864   4.126517   3.098715
    36  H    2.627112   4.053779   5.052802   5.345473   4.360152
    37  H    2.834625   4.086797   5.146387   5.209414   4.792199
    38  H    7.340802   7.705612   6.969068   6.081727   9.085838
    39  H    5.811412   5.493441   4.554079   3.571323   6.869091
    40  H    6.390553   6.180651   5.029340   4.170031   7.407092
    41  H    4.598641   4.806561   3.865246   3.200256   5.964874
    42  H    5.580370   5.969342   5.486018   4.590354   7.431393
    43  H    4.966623   5.747616   5.235356   4.700807   6.869342
    44  H    4.073603   4.958313   5.028423   4.420446   6.317805
    45  H    2.506236   3.354397   3.119949   2.926370   4.367945
                   21         22         23         24         25
    21  O    0.000000
    22  H    0.999664   0.000000
    23  C    5.596002   5.903131   0.000000
    24  O    6.467818   6.930088   1.434875   0.000000
    25  H    7.295228   7.701834   1.999848   0.999573   0.000000
    26  C    4.129563   4.472872   1.519769   2.583125   3.385076
    27  O    3.646160   4.233766   2.423637   2.899042   3.748650
    28  C    2.434893   3.213443   3.737050   4.275343   5.164689
    29  O    2.857980   3.754051   4.739461   4.994215   5.815646
    30  H    3.518895   4.479801   5.114509   5.159605   6.015990
    31  H    2.731851   3.546432   4.066661   4.536893   5.501903
    32  H    2.046670   2.222067   4.203650   5.132967   5.802904
    33  H    2.802997   2.949226   3.971758   5.041475   5.889846
    34  H    3.875893   3.773283   2.873363   4.161045   4.628887
    35  H    4.287148   4.681026   2.090828   2.936780   3.827166
    36  H    5.793470   5.993779   1.070000   2.021949   2.175824
    37  H    6.156432   6.377873   1.070000   2.021949   2.394556
    38  H    9.671781   9.006142   8.631472   9.940708  10.087417
    39  H    7.081751   6.409162   7.738027   9.104392   9.588069
    40  H    7.586910   6.769920   8.439424   9.860592  10.255006
    41  H    6.486101   5.747751   6.530379   7.958071   8.258155
    42  H    8.125100   7.603495   6.766369   8.056298   8.298198
    43  H    7.723108   7.136679   6.159115   7.482075   7.531310
    44  H    7.351267   7.059709   4.584331   5.792664   5.948817
    45  H    5.343435   4.893256   4.170442   5.578126   5.849545
                   26         27         28         29         30
    26  C    0.000000
    27  O    1.434806   0.000000
    28  C    2.411481   1.434933   0.000000
    29  O    3.635630   2.322599   1.434784   0.000000
    30  H    4.090317   2.774527   1.974454   0.960000   0.000000
    31  H    2.720821   2.068392   1.070000   2.069025   2.177813
    32  H    2.996236   2.544619   2.121412   2.678681   3.599619
    33  H    2.559270   3.072626   2.625362   3.987593   4.438169
    34  H    2.173899   2.782984   3.309272   4.327229   5.116801
    35  H    1.070000   2.017770   2.615334   3.942842   4.218515
    36  H    2.095578   2.829678   4.147044   5.029756   5.540848
    37  H    2.095578   3.296643   4.468107   5.609637   5.954028
    38  H    8.493733   9.763941  10.073064  11.373535  12.046851
    39  H    7.017320   8.086113   7.940076   9.223240   9.821878
    40  H    7.773869   8.772771   8.655438   9.835684  10.547467
    41  H    6.031714   7.036170   7.168827   8.318782   9.100074
    42  H    6.590533   7.915331   8.253041   9.617076  10.212998
    43  H    6.167391   7.305146   7.829669   8.980417   9.749821
    44  H    4.758887   6.163180   6.828680   8.177128   8.727022
    45  H    3.840280   4.849852   5.308235   6.439634   7.216568
                   31         32         33         34         35
    31  H    0.000000
    32  H    3.011285   0.000000
    33  H    2.392869   3.004851   0.000000
    34  H    3.986671   2.222295   3.051548   0.000000
    35  H    2.478968   3.639038   2.207258   3.009304   0.000000
    36  H    4.689177   4.115620   4.469498   2.538547   2.936018
    37  H    4.626876   4.911889   4.107971   3.317419   2.274817
    38  H   10.182449   9.112193   7.887404   7.449382   8.514752
    39  H    7.853150   7.190418   5.464728   6.202949   6.816884
    40  H    8.758598   7.502459   6.426424   6.500869   7.792077
    41  H    7.480400   5.839709   5.320633   4.483298   6.296085
    42  H    8.268825   7.594012   6.010997   5.898488   6.492568
    43  H    8.231630   6.595174   6.287465   4.707048   6.562890
    44  H    6.924010   6.416642   5.040822   4.416670   4.763858
    45  H    5.780814   4.099722   4.050266   2.203528   4.358734
                   36         37         38         39         40
    36  H    0.000000
    37  H    1.722939   0.000000
    38  H    8.453961   7.973069   0.000000
    39  H    7.834741   7.259985   3.525526   0.000000
    40  H    8.321879   8.058410   3.137120   1.742478   0.000000
    41  H    6.233708   6.255517   3.537789   2.968831   2.360623
    42  H    6.758106   6.054147   2.154660   2.729557   3.283924
    43  H    5.679754   5.765195   3.401924   4.511139   4.034739
    44  H    4.579232   3.793675   4.242859   4.455407   5.103097
    45  H    3.759773   4.071435   5.331394   4.696454   4.734113
                   41         42         43         44         45
    41  H    0.000000
    42  H    2.992627   0.000000
    43  H    2.115975   3.011759   0.000000
    44  H    3.698831   2.403097   2.975396   0.000000
    45  H    2.508606   4.030956   2.541135   2.996564   0.000000
 Stoichiometry    C12H22O11
 Framework group  C1[X(C12H22O11)]
 Deg. of freedom   129
 Full point group                 C1      NOp   1
 Largest Abelian subgroup         C1      NOp   1
 Largest concise Abelian subgroup C1      NOp   1
                         Standard orientation:                         
 ---------------------------------------------------------------------
 Center     Atomic      Atomic             Coordinates (Angstroms)
 Number     Number       Type             X           Y           Z
 ---------------------------------------------------------------------
      1          8           0        5.229094   -0.280401   -0.189026
      2          6           0        3.916301   -0.027451    0.332559
      3          6           0        3.432224    1.159568   -0.484553
      4          8           0        4.265794    2.327135   -0.465608
      5          1           0        5.202551    1.990732   -0.368355
      6          6           0        2.062964    1.589749    0.015521
      7          8           0        1.520908    2.774986   -0.583607
      8          1           0        1.941604    3.642737   -0.316653
      9          6           0        3.279008   -2.497155    0.498227
     10          8           0        2.271565   -3.467518    0.178138
     11          1           0        2.715476   -4.308625    0.486092
     12          6           0        2.896832   -1.108434    0.014038
     13          8           0        1.584144   -0.694837    0.420878
     14          6           0        1.032993    0.488183   -0.174879
     15          8           0       -0.217399    0.623180    0.516690
     16          6           0       -1.418856    0.250624   -0.175663
     17          6           0       -1.760462   -1.166055    0.254271
     18          8           0       -0.780013   -2.119201   -0.181162
     19          1           0        0.100453   -2.066367    0.289116
     20          6           0       -3.065954   -1.442024   -0.475465
     21          8           0       -3.371957   -2.843007   -0.433117
     22          1           0       -2.506964   -3.200313   -0.784469
     23          6           0       -2.292452    2.599603    0.293456
     24          8           0       -3.337770    3.551054    0.540269
     25          1           0       -3.090465    4.425476    0.123890
     26          6           0       -2.519089    1.103405    0.433911
     27          8           0       -3.826490    0.753562   -0.042514
     28          6           0       -4.179790   -0.622923    0.156237
     29          8           0       -5.430116   -0.861408   -0.505892
     30          1           0       -6.149521   -0.754707    0.120743
     31          1           0       -4.260248   -0.841723    1.200532
     32          1           0       -2.957966   -1.144693   -1.497635
     33          1           0       -1.899983   -1.218732    1.313827
     34          1           0       -1.343969    0.360585   -1.237360
     35          1           0       -2.513767    0.894683    1.483343
     36          1           0       -1.953013    2.767314   -0.707321
     37          1           0       -1.485032    2.851884    0.948687
     38          1           0        5.877141   -0.177522    0.511725
     39          1           0        3.413539   -2.471497    1.559426
     40          1           0        4.200175   -2.785912    0.036738
     41          1           0        2.864760   -1.173286   -1.053513
     42          1           0        3.940719    0.200496    1.377712
     43          1           0        3.331004    0.841551   -1.501175
     44          1           0        2.149919    1.772401    1.066224
     45          1           0        0.859179    0.324620   -1.217921
 ---------------------------------------------------------------------
 Rotational constants (GHZ):      0.3887822      0.1479597      0.1102991
 Standard basis: 6-31+G(2d,p) (6D, 7F)
 There are   685 symmetry adapted basis functions of A   symmetry.
 Integral buffers will be    131072 words long.
 Raffenetti 2 integral format.
 Two-electron integral symmetry is turned on.
   685 basis functions,  1028 primitive gaussians,   685 cartesian basis functions
    91 alpha electrons       91 beta electrons
       nuclear repulsion energy      2277.1605909342 Hartrees.
 NAtoms=   45 NActive=   45 NUniq=   45 SFac= 1.00D+00 NAtFMM=   50 NAOKFM=F Big=F
 One-electron integrals computed using PRISM.
 NBasis=   685 RedAO= T  NBF=   685
 NBsUse=   685 1.00D-06 NBFU=   685
 Harris functional with IExCor=  402 diagonalized for initial guess.
 ExpMin= 4.38D-02 ExpMax= 5.48D+03 ExpMxC= 8.25D+02 IAcc=2 IRadAn=         0 AccDes= 0.00D+00
 HarFok:  IExCor=  402 AccDes= 0.00D+00 IRadAn=         0 IDoV= 1
 ScaDFX=  1.000000  1.000000  1.000000  1.000000
 FoFCou: FMM=F IPFlag=           0 FMFlag=      100000 FMFlg1=           0
         NFxFlg=           0 DoJE=T BraDBF=F KetDBF=T FulRan=T
         Omega=  0.000000  0.000000  1.000000  0.000000  0.000000 ICntrl=     500 IOpCl=  0
         NMat0=    1 NMatS0=    1 NMatT0=    0 NMatD0=    1 NMtDS0=    0 NMtDT0=    0
         I1Cent=           4 NGrid=           0.
 Petite list used in FoFCou.
 Initial guess orbital symmetries:
       Occupied  (A) (A) (A) (A) (A) (A) (A) (A) (A) (A) (A) (A)
                 (A) (A) (A) (A) (A) (A) (A) (A) (A) (A) (A) (A)
                 (A) (A) (A) (A) (A) (A) (A) (A) (A) (A) (A) (A)
                 (A) (A) (A) (A) (A) (A) (A) (A) (A) (A) (A) (A)
                 (A) (A) (A) (A) (A) (A) (A) (A) (A) (A) (A) (A)
                 (A) (A) (A) (A) (A) (A) (A) (A) (A) (A) (A) (A)
                 (A) (A) (A) (A) (A) (A) (A) (A) (A) (A) (A) (A)
                 (A) (A) (A) (A) (A) (A) (A)
       Virtual   (A) (A) (A) (A) (A) (A) (A) (A) (A) (A) (A) (A)
                 (A) (A) (A) (A) (A) (A) (A) (A) (A) (A) (A) (A)
                 (A) (A) (A) (A) (A) (A) (A) (A) (A) (A) (A) (A)
                 (A) (A) (A) (A) (A) (A) (A) (A) (A) (A) (A) (A)
                 (A) (A) (A) (A) (A) (A) (A) (A) (A) (A) (A) (A)
                 (A) (A) (A) (A) (A) (A) (A) (A) (A) (A) (A) (A)
                 (A) (A) (A) (A) (A) (A) (A) (A) (A) (A) (A) (A)
                 (A) (A) (A) (A) (A) (A) (A) (A) (A) (A) (A) (A)
                 (A) (A) (A) (A) (A) (A) (A) (A) (A) (A) (A) (A)
                 (A) (A) (A) (A) (A) (A) (A) (A) (A) (A) (A) (A)
                 (A) (A) (A) (A) (A) (A) (A) (A) (A) (A) (A) (A)
                 (A) (A) (A) (A) (A) (A) (A) (A) (A) (A) (A) (A)
                 (A) (A) (A) (A) (A) (A) (A) (A) (A) (A) (A) (A)
                 (A) (A) (A) (A) (A) (A) (A) (A) (A) (A) (A) (A)
                 (A) (A) (A) (A) (A) (A) (A) (A) (A) (A) (A) (A)
                 (A) (A) (A) (A) (A) (A) (A) (A) (A) (A) (A) (A)
                 (A) (A) (A) (A) (A) (A) (A) (A) (A) (A) (A) (A)
                 (A) (A) (A) (A) (A) (A) (A) (A) (A) (A) (A) (A)
                 (A) (A) (A) (A) (A) (A) (A) (A) (A) (A) (A) (A)
                 (A) (A) (A) (A) (A) (A) (A) (A) (A) (A) (A) (A)
                 (A) (A) (A) (A) (A) (A) (A) (A) (A) (A) (A) (A)
                 (A) (A) (A) (A) (A) (A) (A) (A) (A) (A) (A) (A)
                 (A) (A) (A) (A) (A) (A) (A) (A) (A) (A) (A) (A)
                 (A) (A) (A) (A) (A) (A) (A) (A) (A) (A) (A) (A)
                 (A) (A) (A) (A) (A) (A) (A) (A) (A) (A) (A) (A)
                 (A) (A) (A) (A) (A) (A) (A) (A) (A) (A) (A) (A)
                 (A) (A) (A) (A) (A) (A) (A) (A) (A) (A) (A) (A)
                 (A) (A) (A) (A) (A) (A) (A) (A) (A) (A) (A) (A)
                 (A) (A) (A) (A) (A) (A) (A) (A) (A) (A) (A) (A)
                 (A) (A) (A) (A) (A) (A) (A) (A) (A) (A) (A) (A)
                 (A) (A) (A) (A) (A) (A) (A) (A) (A) (A) (A) (A)
                 (A) (A) (A) (A) (A) (A) (A) (A) (A) (A) (A) (A)
                 (A) (A) (A) (A) (A) (A) (A) (A) (A) (A) (A) (A)
                 (A) (A) (A) (A) (A) (A) (A) (A) (A) (A) (A) (A)
                 (A) (A) (A) (A) (A) (A) (A) (A) (A) (A) (A) (A)
                 (A) (A) (A) (A) (A) (A) (A) (A) (A) (A) (A) (A)
                 (A) (A) (A) (A) (A) (A) (A) (A) (A) (A) (A) (A)
                 (A) (A) (A) (A) (A) (A) (A) (A) (A) (A) (A) (A)
                 (A) (A) (A) (A) (A) (A) (A) (A) (A) (A) (A) (A)
                 (A) (A) (A) (A) (A) (A) (A) (A) (A) (A) (A) (A)
                 (A) (A) (A) (A) (A) (A) (A) (A) (A) (A) (A) (A)
                 (A) (A) (A) (A) (A) (A) (A) (A) (A) (A) (A) (A)
                 (A) (A) (A) (A) (A) (A) (A) (A) (A) (A) (A) (A)
                 (A) (A) (A) (A) (A) (A) (A) (A) (A) (A) (A) (A)
                 (A) (A) (A) (A) (A) (A) (A) (A) (A) (A) (A) (A)
                 (A) (A) (A) (A) (A) (A) (A) (A) (A) (A) (A) (A)
                 (A) (A) (A) (A) (A) (A) (A) (A) (A) (A) (A) (A)
                 (A) (A) (A) (A) (A) (A) (A) (A) (A) (A) (A) (A)
                 (A) (A) (A) (A) (A) (A) (A) (A) (A) (A) (A) (A)
                 (A) (A) (A) (A) (A) (A)
 The electronic state of the initial guess is 1-A.
 Requested convergence on RMS density matrix=1.00D-08 within 128 cycles.
 Requested convergence on MAX density matrix=1.00D-06.
 Requested convergence on             energy=1.00D-06.
 No special actions if energy rises.
 SCF Done:  E(RB3LYP) =  -1297.98702304     A.U. after   14 cycles
             Convg  =    0.1164D-08             -V/T =  2.0064
 Range of M.O.s used for correlation:     1   685
 NBasis=   685 NAE=    91 NBE=    91 NFC=     0 NFV=     0
 NROrb=    685 NOA=    91 NOB=    91 NVA=   594 NVB=   594

 **** Warning!!: The largest alpha MO coefficient is  0.83898751D+02

          Differentiating once with respect to electric field.
                with respect to dipole field.
          Electric field/nuclear overlap derivatives assumed to be zero.
          There are     3 degrees of freedom in the 1st order CPHF.  IDoFFX=0.
      3 vectors produced by pass  0 Test12= 1.80D-12 3.33D-08 XBig12= 1.22D+02 1.19D+00.
 AX will form     3 AO Fock derivatives at one time.
      3 vectors produced by pass  1 Test12= 1.80D-12 3.33D-08 XBig12= 2.20D+01 3.77D-01.
      3 vectors produced by pass  2 Test12= 1.80D-12 3.33D-08 XBig12= 8.95D+00 2.16D-01.
      3 vectors produced by pass  3 Test12= 1.80D-12 3.33D-08 XBig12= 1.03D+00 8.43D-02.
      3 vectors produced by pass  4 Test12= 1.80D-12 3.33D-08 XBig12= 2.67D-01 3.05D-02.
      3 vectors produced by pass  5 Test12= 1.80D-12 3.33D-08 XBig12= 6.29D-02 1.65D-02.
      3 vectors produced by pass  6 Test12= 1.80D-12 3.33D-08 XBig12= 1.98D-02 1.25D-02.
      3 vectors produced by pass  7 Test12= 1.80D-12 3.33D-08 XBig12= 2.95D-03 6.57D-03.
      3 vectors produced by pass  8 Test12= 1.80D-12 3.33D-08 XBig12= 7.64D-04 2.08D-03.
      3 vectors produced by pass  9 Test12= 1.80D-12 3.33D-08 XBig12= 1.88D-04 1.49D-03.
      3 vectors produced by pass 10 Test12= 1.80D-12 3.33D-08 XBig12= 5.32D-05 5.70D-04.
      3 vectors produced by pass 11 Test12= 1.80D-12 3.33D-08 XBig12= 7.41D-06 3.47D-04.
      3 vectors produced by pass 12 Test12= 1.80D-12 3.33D-08 XBig12= 1.04D-06 9.75D-05.
      3 vectors produced by pass 13 Test12= 1.80D-12 3.33D-08 XBig12= 1.69D-07 2.89D-05.
      3 vectors produced by pass 14 Test12= 1.80D-12 3.33D-08 XBig12= 3.57D-08 1.62D-05.
      3 vectors produced by pass 15 Test12= 1.80D-12 3.33D-08 XBig12= 1.09D-08 9.36D-06.
      3 vectors produced by pass 16 Test12= 1.80D-12 3.33D-08 XBig12= 1.07D-09 3.48D-06.
      3 vectors produced by pass 17 Test12= 1.80D-12 3.33D-08 XBig12= 2.59D-10 1.53D-06.
      3 vectors produced by pass 18 Test12= 1.80D-12 3.33D-08 XBig12= 3.98D-11 4.01D-07.
      3 vectors produced by pass 19 Test12= 1.80D-12 3.33D-08 XBig12= 1.21D-11 2.43D-07.
      3 vectors produced by pass 20 Test12= 1.80D-12 3.33D-08 XBig12= 8.42D-12 1.90D-07.
      1 vectors produced by pass 21 Test12= 1.80D-12 3.33D-08 XBig12= 3.44D-12 1.34D-07.
 Inverted reduced A of dimension    64 with in-core refinement.
 End of Minotr Frequency-dependent properties file   721 does not exist.
 End of Minotr Frequency-dependent properties file   722 does not exist.
 Symmetrizing basis deriv contribution to polar:
 IMax=3 JMax=2 DiffMx= 0.00D+00
 G2DrvN: will do    16 centers at a time, making    3 passes doing MaxLOS=2.
 Calling FoFCou, ICntrl=  3107 FMM=F I1Cent=   0 AccDes= 0.00D+00.
 Calling FoFCou, ICntrl=  3107 FMM=F I1Cent=   0 AccDes= 0.00D+00.
 Calling FoFCou, ICntrl=  3107 FMM=F I1Cent=   0 AccDes= 0.00D+00.
 FoFDir/FoFCou used for L=0 through L=2.
 End of G2Drv Frequency-dependent properties file   721 does not exist.
 End of G2Drv Frequency-dependent properties file   722 does not exist.
          IDoAtm=111111111111111111111111111111111111111111111
          Differentiating once with respect to electric field.
                with respect to dipole field.
          Differentiating once with respect to nuclear coordinates.
          There are   138 degrees of freedom in the 1st order CPHF.  IDoFFX=5.
 Will reuse    3 saved solutions.
    135 vectors produced by pass  0 Test12= 5.41D-14 1.00D-09 XBig12= 1.73D-01 7.45D-02.
 AX will form    45 AO Fock derivatives at one time.
    135 vectors produced by pass  1 Test12= 5.41D-14 1.00D-09 XBig12= 1.71D-02 1.30D-02.
