Gaussian '09 started on node014 at Thu Jan 21 05:06:34 EST 2016.
 Entering Gaussian System, Link 0=/usr/local/gaussian/g09/g09
 Initial command:
 /usr/local/gaussian/g09/l1.exe /home/srmcgrat/thesis/gaussian/cellobiose/500/7000/gaussian22696/Gau-22732.inp -scrdir=/home/srmcgrat/thesis/gaussian/cellobiose/500/7000/gaussian22696/
 Entering Link 1 = /usr/local/gaussian/g09/l1.exe PID=     22734.
  
 Copyright (c) 1988,1990,1992,1993,1995,1998,2003,2009,2010,
            Gaussian, Inc.  All Rights Reserved.
  
 This is part of the Gaussian(R) 09 program.  It is based on
 the Gaussian(R) 03 system (copyright 2003, Gaussian, Inc.),
 the Gaussian(R) 98 system (copyright 1998, Gaussian, Inc.),
 the Gaussian(R) 94 system (copyright 1995, Gaussian, Inc.),
 the Gaussian 92(TM) system (copyright 1992, Gaussian, Inc.),
 the Gaussian 90(TM) system (copyright 1990, Gaussian, Inc.),
 the Gaussian 88(TM) system (copyright 1988, Gaussian, Inc.),
 the Gaussian 86(TM) system (copyright 1986, Carnegie Mellon
 University), and the Gaussian 82(TM) system (copyright 1983,
 Carnegie Mellon University). Gaussian is a federally registered
 trademark of Gaussian, Inc.
  
 This software contains proprietary and confidential information,
 including trade secrets, belonging to Gaussian, Inc.
  
 This software is provided under written license and may be
 used, copied, transmitted, or stored only in accord with that
 written license.
  
 The following legend is applicable only to US Government
 contracts under FAR:
  
                    RESTRICTED RIGHTS LEGEND
  
 Use, reproduction and disclosure by the US Government is
 subject to restrictions as set forth in subparagraphs (a)
 and (c) of the Commercial Computer Software - Restricted
 Rights clause in FAR 52.227-19.
  
 Gaussian, Inc.
 340 Quinnipiac St., Bldg. 40, Wallingford CT 06492
  
  
 ---------------------------------------------------------------
 Warning -- This program may not be used in any manner that
 competes with the business of Gaussian, Inc. or will provide
 assistance to any competitor of Gaussian, Inc.  The licensee
 of this program is prohibited from giving any competitor of
 Gaussian, Inc. access to this program.  By using this program,
 the user acknowledges that Gaussian, Inc. is engaged in the
 business of creating and licensing software in the field of
 computational chemistry and represents and warrants to the
 licensee that it is not a competitor of Gaussian, Inc. and that
 it will not use this program in any manner prohibited above.
 ---------------------------------------------------------------
  

 Cite this work as:
 Gaussian 09, Revision B.01,
 M. J. Frisch, G. W. Trucks, H. B. Schlegel, G. E. Scuseria, 
 M. A. Robb, J. R. Cheeseman, G. Scalmani, V. Barone, B. Mennucci, 
 G. A. Petersson, H. Nakatsuji, M. Caricato, X. Li, H. P. Hratchian, 
 A. F. Izmaylov, J. Bloino, G. Zheng, J. L. Sonnenberg, M. Hada, 
 M. Ehara, K. Toyota, R. Fukuda, J. Hasegawa, M. Ishida, T. Nakajima, 
 Y. Honda, O. Kitao, H. Nakai, T. Vreven, J. A. Montgomery, Jr., 
 J. E. Peralta, F. Ogliaro, M. Bearpark, J. J. Heyd, E. Brothers, 
 K. N. Kudin, V. N. Staroverov, T. Keith, R. Kobayashi, J. Normand, 
 K. Raghavachari, A. Rendell, J. C. Burant, S. S. Iyengar, J. Tomasi, 
 M. Cossi, N. Rega, J. M. Millam, M. Klene, J. E. Knox, J. B. Cross, 
 V. Bakken, C. Adamo, J. Jaramillo, R. Gomperts, R. E. Stratmann, 
 O. Yazyev, A. J. Austin, R. Cammi, C. Pomelli, J. W. Ochterski, 
 R. L. Martin, K. Morokuma, V. G. Zakrzewski, G. A. Voth, 
 P. Salvador, J. J. Dannenberg, S. Dapprich, A. D. Daniels, 
 O. Farkas, J. B. Foresman, J. V. Ortiz, J. Cioslowski, 
 and D. J. Fox, Gaussian, Inc., Wallingford CT, 2010.
 
 ******************************************
 Gaussian 09:  EM64L-G09RevB.01 12-Aug-2010
                21-Jan-2016 
 ******************************************
 ------------------------------------------------
 # freq=raman b3lyp/6-31+g(d,p) geom=connectivity
 ------------------------------------------------
 1/10=4,30=1,38=1,57=2/1,3;
 2/12=2,17=6,18=5,40=1/2;
 3/5=1,6=6,7=111,11=2,16=1,25=1,30=1,71=2,74=-5/1,2,3;
 4//1;
 5/5=2,38=5,98=1/2;
 8/6=4,10=90,11=11/1;
 10/13=10,15=4/2;
 11/6=3,8=1,9=11,15=111,16=1/1,2,10;
 10/6=1/2;
 6/7=2,8=2,9=2,10=2,18=1,28=1/1;
 7/8=1,10=1,25=1/1,2,3,16;
 1/10=4,30=1/3;
 99//99;
 ------------
 500 7000.com
 ------------
 Symbolic Z-matrix:
 Charge =  0 Multiplicity = 1
 O                     8.922     7.246     12.288 
 C                     9.741     7.372     13.459 
 C                     9.532     8.762     14.036 
 O                     9.759     9.87      13.152 
 H                     9.123     9.674     12.406 
 C                     10.232    8.889     15.379 
 O                     9.902     10.074    16.118 
 H                     9.669     10.759    15.427 
 C                     9.878     4.896     14.039 
 O                     9.669     3.773     14.908 
 H                     9.653     2.911     14.401 
 C                     9.257     6.246     14.358 
 O                     9.89      6.49      15.623 
 C                     9.846     7.75      16.308 
 O                     10.781    7.655     17.393 
 C                     10.163    7.082     18.554 
 C                     10.174    5.583     18.81 
 O                     9.432     4.901     17.788 
 H                     9.783     5.047     16.864 
 C                     9.447     5.317     20.117 
 O                     8.642     4.148     20.332 
 H                     8.251     3.957     19.432 
 C                     10.832    9.224     19.693 
 O                     11.426    10.182    20.581 
 H                     11.485    11.095    20.179 
 C                     10.785    7.708     19.792 
 O                     10.189    7.271     21.022 
 C                     10.318    5.858     21.239 
 O                     9.609     5.693     22.476 
 H                     10.23789   5.5971    23.19496 
 H                     11.32636   5.50008   21.24258 
 H                     8.67905   6.0609    20.075 
 H                     11.17779   5.21532   18.85598 
 H                     9.13601   7.38151   18.53195 
 H                     11.80194   7.37619   19.81712 
 H                     10.3501   9.63892   18.83247 
 H                     11.3139   8.80908   20.55353 
 H                     9.4824    7.16261   11.51301 
 H                     10.93512   5.04565   13.96827 
 H                     9.52857   4.61123   13.06859 
 H                     8.19085   6.20361   14.43822 
 H                     10.77053   7.22681   13.20623 
 H                     8.48762   8.80858   14.26403 
 H                     11.2899   8.8635    15.22055 
 H                     8.86191   7.91665   16.69361 
 

 GradGradGradGradGradGradGradGradGradGradGradGradGradGradGradGradGradGrad
 Berny optimization.
 Initialization pass.
 Trust Radius=3.00D-01 FncErr=1.00D-07 GrdErr=1.00D-07
 Number of steps in this run=      2 maximum allowed number of steps=      2.
 GradGradGradGradGradGradGradGradGradGradGradGradGradGradGradGradGradGrad

                          Input orientation:                          
 ---------------------------------------------------------------------
 Center     Atomic      Atomic             Coordinates (Angstroms)
 Number     Number       Type             X           Y           Z
 ---------------------------------------------------------------------
      1          8           0        8.922000    7.246000   12.288000
      2          6           0        9.741000    7.372000   13.459000
      3          6           0        9.532000    8.762000   14.036000
      4          8           0        9.759000    9.870000   13.152000
      5          1           0        9.123000    9.674000   12.406000
      6          6           0       10.232000    8.889000   15.379000
      7          8           0        9.902000   10.074000   16.118000
      8          1           0        9.669000   10.759000   15.427000
      9          6           0        9.878000    4.896000   14.039000
     10          8           0        9.669000    3.773000   14.908000
     11          1           0        9.653000    2.911000   14.401000
     12          6           0        9.257000    6.246000   14.358000
     13          8           0        9.890000    6.490000   15.623000
     14          6           0        9.846000    7.750000   16.308000
     15          8           0       10.781000    7.655000   17.393000
     16          6           0       10.163000    7.082000   18.554000
     17          6           0       10.174000    5.583000   18.810000
     18          8           0        9.432000    4.901000   17.788000
     19          1           0        9.783000    5.047000   16.864000
     20          6           0        9.447000    5.317000   20.117000
     21          8           0        8.642000    4.148000   20.332000
     22          1           0        8.251000    3.957000   19.432000
     23          6           0       10.832000    9.224000   19.693000
     24          8           0       11.426000   10.182000   20.581000
     25          1           0       11.485000   11.095000   20.179000
     26          6           0       10.785000    7.708000   19.792000
     27          8           0       10.189000    7.271000   21.022000
     28          6           0       10.318000    5.858000   21.239000
     29          8           0        9.609000    5.693000   22.476000
     30          1           0       10.237888    5.597100   23.194960
     31          1           0       11.326356    5.500083   21.242579
     32          1           0        8.679051    6.060902   20.074999
     33          1           0       11.177791    5.215320   18.855984
     34          1           0        9.136011    7.381513   18.531954
     35          1           0       11.801944    7.376195   19.817119
     36          1           0       10.350098    9.638924   18.832472
     37          1           0       11.313902    8.809076   20.553528
     38          1           0        9.482397    7.162611   11.513015
     39          1           0       10.935120    5.045651   13.968270
     40          1           0        9.528567    4.611229   13.068586
     41          1           0        8.190854    6.203610   14.438218
     42          1           0       10.770527    7.226810   13.206227
     43          1           0        8.487618    8.808576   14.264028
     44          1           0       11.289896    8.863503   15.220550
     45          1           0        8.861908    7.916646   16.693607
 ---------------------------------------------------------------------
                    Distance matrix (angstroms):
                    1          2          3          4          5
     1  O    0.000000
     2  C    1.434531   0.000000
     3  C    2.392877   1.519444   0.000000
     4  O    2.886597   2.516859   1.435496   0.000000
     5  H    2.439162   2.605751   1.912047   0.999714   0.000000
     6  C    3.737624   2.495750   1.519795   2.479036   3.268767
     7  O    4.860749   3.794339   2.488567   2.976444   3.813894
     8  H    4.769958   3.917905   2.437552   2.444186   3.256038
     9  C    3.082602   2.546713   3.881453   5.053870   5.105487
    10  O    4.414084   3.880411   5.066485   6.345474   6.432723
    11  H    4.877638   4.560222   5.863622   7.070991   7.071004
    12  C    2.323171   1.519978   2.551385   3.852248   3.947080
    13  O    3.553982   2.341585   2.794408   4.188962   4.590777
    14  C    4.155501   2.875884   2.506935   3.802934   4.410228
    15  O    5.448320   4.078976   3.748986   4.892524   5.629875
    16  C    6.389815   5.120665   4.861367   6.092435   6.752627
    17  C    6.846134   5.658729   5.771419   7.110806   7.671512
    18  O    6.000760   4.994153   5.384684   6.803704   7.200204
    19  H    5.149437   4.123277   4.675661   6.086119   6.458985
    20  C    8.080217   6.974125   6.989550   8.326967   8.862728
    21  O    8.624497   7.670730   7.856253   9.248858   9.674167
    22  H    7.893320   7.039819   7.337970   8.756485   9.099953
    23  C    7.899026   6.594160   5.822808   6.659829   7.498236
    24  O    9.146801   7.839529   6.959933   7.620123   8.508378
    25  H    9.146128   7.877859   6.855184   7.338830   8.247291
    26  C    7.745594   6.427264   5.984351   7.058082   7.821790
    27  O    8.825456   7.576930   7.173488   8.299193   9.008120
    28  C    9.164920   7.946919   7.806037   9.044788   9.695967
    29  O   10.328559   9.172936   8.980996  10.217965  10.839255
    30  H   11.109104   9.908889   9.716039  10.924653  11.587309
    31  H    9.434704   8.160976   8.111387   9.327929  10.018058
    32  H    7.880408   6.827749   6.670305   7.975176   8.489118
    33  H    7.235376   5.986909   6.206433   7.497629   8.105818
    34  H    6.249090   5.108910   4.719762   5.960251   6.540870
    35  H    8.062175   6.683800   6.363524   7.403817   8.208614
    36  H    7.113063   5.863800   4.944130   5.715816   6.542671
    37  H    8.745476   7.407532   6.756890   7.637139   8.481177
    38  H    0.960000   1.974228   2.987634   3.176907   2.689547
    39  H    3.423082   2.664053   3.972981   5.032285   5.210190
    40  H    2.814117   2.796320   4.262018   5.264478   5.122026
    41  H    2.498918   2.174157   2.916473   4.189971   4.128246
    42  H    2.064112   1.070000   2.139926   2.830651   3.056705
    43  H    2.556368   2.069490   1.070000   1.994903   2.145912
    44  H    4.101596   2.779697   2.122182   2.763255   3.643355
    45  H    4.456765   3.395898   2.868191   4.142867   4.641124
                    6          7          8          9         10
     6  C    0.000000
     7  O    1.435007   0.000000
     8  H    1.953503   1.000497   0.000000
     9  C    4.226697   5.579830   6.028681   0.000000
    10  O    5.168391   6.420357   7.005252   1.435260   0.000000
    11  H    6.085081   7.370119   7.914799   2.030245   1.000174
    12  C    2.996417   4.262301   4.656144   1.519836   2.566705
    13  O    2.435508   3.618042   4.279208   2.247229   2.818183
    14  C    1.519657   2.332426   3.140314   3.646190   4.219936
    15  O    2.424944   2.872251   3.838817   4.435855   4.741486
    16  C    3.653852   3.867077   4.852061   5.024445   4.948417
    17  C    4.764951   5.243084   6.204087   4.829288   4.330904
    18  O    4.727306   5.456164   6.320337   3.775439   3.102088
    19  H    4.143403   5.083444   5.891087   2.830627   2.337094
    20  C    5.985320   6.231218   7.187541   6.107789   5.437545
    21  O    7.038280   7.379896   8.295726   6.456706   5.533094
    22  H    6.683995   7.150251   8.019847   5.710805   4.744592
    23  C    4.368389   3.790518   4.680550   7.183969   7.345896
    24  O    5.491656   4.717267   5.475737   8.551951   8.737577
    25  H    5.429221   4.476612   5.098260   8.871846   9.202879
    26  C    4.601645   4.458242   5.441257   6.467380   6.370490
    27  O    5.870538   5.655828   6.613665   7.382387   7.063101
    28  C    6.598027   6.646228   7.630226   7.277296   6.697013
    29  O    7.808326   7.726783   8.680804   8.478829   7.807985
    30  H    8.480912   8.380860   9.343984   9.189813   8.504391
    31  H    6.860316   7.015042   8.013988   7.372530   6.771746
    32  H    5.697561   5.767010   6.682516   6.263207   5.736931
    33  H    5.145859   5.721099   6.690797   4.999476   4.465794
    34  H    3.662626   3.696403   4.618683   5.187963   5.141837
    35  H    4.944715   4.956957   5.938516   6.575682   6.452280
    36  H    3.535930   2.785398   3.649069   6.759851   7.090447
    37  H    5.287025   4.823630   5.726185   7.733890   7.742076
    38  H    4.299787   5.464260   5.318657   3.416816   4.801063
    39  H    4.154018   5.565336   6.031029   1.070000   2.026275
    40  H    4.912449   6.267395   6.586116   1.070000   2.026275
    41  H    3.501810   4.552978   4.890214   2.171562   2.883310
    42  H    2.788159   4.164043   4.315271   2.631119   4.004771
    43  H    2.071835   2.653109   2.559750   4.158372   5.212235
    44  H    1.070000   2.048652   2.502565   4.373853   5.351468
    45  H    2.133264   2.463187   3.214758   4.147732   4.583622
                   11         12         13         14         15
    11  H    0.000000
    12  C    3.358704   0.000000
    13  O    3.789287   1.435427   0.000000
    14  C    5.204788   2.532082   1.434838   0.000000
    15  O    5.721012   3.676830   2.298697   1.435435   0.000000
    16  C    5.908024   4.373345   3.002625   2.364578   1.434634
    17  C    5.181728   4.593557   3.325699   3.326181   2.582542
    18  O    3.934553   3.688435   2.724318   3.237066   3.091980
    19  H    3.262785   2.827422   1.906247   2.760310   2.842096
    20  C    6.205153   5.836542   4.665642   4.537309   3.829618
    21  O    6.142398   6.361486   5.405289   5.533227   5.050950
    22  H    5.326414   5.656592   4.859104   5.166261   4.922766
    23  C    8.321615   6.309622   4.992697   3.821400   2.784666
    24  O    9.705842   7.676092   6.369609   5.164257   4.118871
    25  H   10.184270   7.896887   6.671371   5.372149   4.482300
    26  C    7.304486   5.831002   4.434536   3.608565   2.399589
    27  O    7.945724   6.806478   5.463384   4.750672   3.696966
    28  C    7.475646   6.973122   5.667633   5.302566   4.270280
    29  O    8.540907   8.144424   6.904910   6.506277   5.573142
    30  H    9.213629   8.914879   7.632357   7.226255   6.180021
    31  H    7.504044   7.227452   5.884108   5.621713   4.445260
    32  H    6.562372   5.749119   4.633662   4.290117   3.761976
    33  H    5.242305   4.998360   3.706130   3.832818   2.872247
    34  H    6.108809   4.327346   3.134535   2.363438   2.019406
    35  H    7.340999   6.128300   4.693773   4.034770   2.645073
    36  H    8.086338   5.720813   4.519749   3.192978   2.488717
    37  H    8.683288   7.013185   5.631671   4.615288   3.406583
    38  H    5.142544   2.997486   4.184558   4.844493   6.041775
    39  H    2.527414   2.099717   2.432396   3.738184   4.308274
    40  H    2.163698   2.099717   3.191464   4.521775   5.434490
    41  H    3.602851   1.070000   2.091131   2.937162   4.188810
    42  H    4.615470   2.139937   2.675632   3.278639   4.208625
    43  H    6.013176   2.677233   3.031382   2.672753   4.047321
    44  H    6.227630   3.424614   2.784814   2.123034   2.537517
    45  H    5.562227   2.898658   2.058760   1.070000   2.059253
                   16         17         18         19         20
    16  C    0.000000
    17  C    1.520743   0.000000
    18  O    2.424434   1.435330   0.000000
    19  H    2.672401   2.055990   0.999146   0.000000
    20  C    2.463909   1.519057   2.365908   3.281433   0.000000
    21  O    3.752743   2.592823   2.768221   3.759934   1.435553
    22  H    3.767261   2.593972   2.233525   3.182727   1.936296
    23  C    2.516554   3.803884   4.927205   5.152763   4.166851
    24  O    3.913298   5.084756   6.298083   6.548570   5.272567
    25  H    4.526862   5.828810   6.949628   7.103825   6.127199
    26  C    1.520330   2.419353   3.704845   4.081435   2.759121
    27  O    2.475363   2.782537   4.080282   4.732861   2.277653
    28  C    2.954899   2.448755   3.689207   4.481581   1.519936
    29  O    4.197418   3.710914   4.757724   5.651737   2.394264
    30  H    4.873299   4.385448   5.510828   6.371074   3.190266
    31  H    3.329312   2.692999   3.985173   4.664675   2.198278
    32  H    2.357581   2.015809   2.672577   3.543616   1.070000
    33  H    2.146040   1.070000   2.070549   2.437576   2.143861
    34  H    1.070000   2.095085   2.606535   2.941193   2.621316
    35  H    2.090014   2.622983   3.982530   4.268746   3.142606
    36  H    2.578840   4.059808   4.937788   5.028146   4.598329
    37  H    2.881923   3.840160   5.144196   5.487211   3.983776
    38  H    7.074263   7.497965   6.670297   5.761876   8.799778
    39  H    5.076594   4.930557   4.107387   3.116510   6.332062
    40  H    6.049543   5.858733   4.729287   3.828811   7.084130
    41  H    4.647644   4.840507   3.802404   3.123635   5.883243
    42  H    5.384119   5.870284   5.309773   4.371051   7.290945
    43  H    4.918519   5.823580   5.345969   4.752612   6.882500
    44  H    3.944051   4.989096   5.073954   4.420108   6.320536
    45  H    2.418788   3.412713   3.258346   3.018661   4.338215
                   21         22         23         24         25
    21  O    0.000000
    22  H    0.999681   0.000000
    23  C    5.565087   5.871198   0.000000
    24  O    6.649948   7.081769   1.434972   0.000000
    25  H    7.507787   7.871963   2.040403   0.999327   0.000000
    26  C    4.190185   4.541008   1.519956   2.674711   3.480164
    27  O    3.552807   4.155303   2.448244   3.193520   4.124711
    28  C    2.560415   3.339392   3.739555   4.511940   5.469155
    29  O    2.814045   3.758164   4.659268   5.200350   6.162564
    30  H    3.583753   4.560429   5.076524   5.409778   6.393607
    31  H    3.140550   3.888074   4.063636   4.729478   5.697321
    32  H    1.930444   2.241222   3.845297   4.978476   5.764227
    33  H    3.122184   3.237479   4.109705   5.263572   6.034516
    34  H    3.733607   3.649742   2.760283   4.157567   4.692600
    35  H    4.546602   4.944533   2.090593   2.932131   3.749790
    36  H    5.942763   6.086864   1.070000   2.123640   2.285016
    37  H    5.377152   5.846523   1.070000   1.377767   2.322713
    38  H    9.357812   8.631489   8.543004   9.753084   9.724886
    39  H    6.823579   6.184012   7.088142   8.387564   8.687356
    40  H    7.331968   6.523283   8.176763   9.543065   9.819618
    41  H    6.258253   5.476197   6.611441   8.001721   8.230047
    42  H    8.048996   7.469935   6.787546   7.971830   8.005807
    43  H    7.652783   7.092370   5.928106   7.101022   7.014195
    44  H    7.441387   7.144576   4.510259   5.521901   5.440944
    45  H    5.242991   4.852917   3.819266   5.178631   5.397269
                   26         27         28         29         30
    26  C    0.000000
    27  O    1.434951   0.000000
    28  C    2.394660   1.435374   0.000000
    29  O    3.556270   2.222746   1.435296   0.000000
    30  H    4.041703   2.743371   1.974909   0.960000   0.000000
    31  H    2.696691   2.116219   1.070000   2.123171   2.237401
    32  H    2.688502   2.154320   2.020451   2.600954   3.518414
    33  H    2.691442   3.145656   2.613626   3.974141   4.455994
    34  H    2.100827   2.705795   3.323596   4.316282   5.112913
    35  H    1.070000   2.016033   2.555142   3.835595   4.125682
    36  H    2.199614   3.229094   4.481941   5.421701   5.948128
    37  H    1.439455   1.962281   3.189129   4.038876   4.295551
    38  H    8.398561   9.535819   9.848606  11.061773  11.810564
    39  H    6.405190   7.433974   7.341952   8.634762   9.269413
    40  H    7.508189   8.412333   8.302608   9.469748  10.198947
    41  H    6.136430   6.962622   7.134062   8.177885   9.013253
    42  H    6.603345   7.837502   8.161119   9.467334  10.134813
    43  H    6.086683   7.136458   7.791433   8.854422   9.650832
    44  H    4.742179   6.115951   6.797012   8.094384   8.681435
    45  H    3.652650   4.573075   5.197963   6.240097   7.038551
                   31         32         33         34         35
    31  H    0.000000
    32  H    2.947200   0.000000
    33  H    2.408111   2.905978   0.000000
    34  H    3.960414   2.081782   2.994370   0.000000
    35  H    2.403729   3.398376   2.445961   2.959539   0.000000
    36  H    4.887914   4.139869   4.500433   2.580741   2.863098
    37  H    3.379997   3.837173   3.976840   3.296650   1.683339
    38  H   10.041345   8.669873   7.783669   7.030890   8.624620
    39  H    7.298982   6.588833   4.896675   5.433254   6.355459
    40  H    8.416428   7.205071   6.048044   6.138156   7.639108
    41  H    7.525002   5.659682   5.423576   4.363423   6.583883
    42  H    8.238537   7.274177   6.010966   5.573055   6.692536
    43  H    8.228289   6.430688   6.421416   4.546660   6.623692
    44  H    6.897736   6.183588   5.151523   4.219113   4.858264
    45  H    5.710204   3.861481   4.163694   1.934171   4.323450
                   36         37         38         39         40
    36  H    0.000000
    37  H    2.140000   0.000000
    38  H    7.775570   9.369959   0.000000
    39  H    6.715718   7.594238   3.552493   0.000000
    40  H    7.692530   8.765482   2.988559   1.725266   0.000000
    41  H    5.981070   7.344311   3.338350   3.015413   2.490190
    42  H    6.135935   7.535360   2.128466   2.316302   2.898736
    43  H    5.002898   6.895338   3.356614   4.498593   4.486689
    44  H    3.811887   5.333310   4.461603   4.033616   5.080852
    45  H    3.123411   4.659151   5.271822   4.468588   4.950857
                   41         42         43         44         45
    41  H    0.000000
    42  H    3.036355   0.000000
    43  H    2.627596   2.971970   0.000000
    44  H    4.158261   2.646886   2.961539   0.000000
    45  H    2.910599   4.034913   2.615050   2.993586   0.000000
 Stoichiometry    C12H22O11
 Framework group  C1[X(C12H22O11)]
 Deg. of freedom   129
 Full point group                 C1      NOp   1
 Largest Abelian subgroup         C1      NOp   1
 Largest concise Abelian subgroup C1      NOp   1
                         Standard orientation:                         
 ---------------------------------------------------------------------
 Center     Atomic      Atomic             Coordinates (Angstroms)
 Number     Number       Type             X           Y           Z
 ---------------------------------------------------------------------
      1          8           0        5.007780   -0.595607   -0.533539
      2          6           0        3.809002   -0.162741    0.124820
      3          6           0        3.441380    1.209404   -0.414424
      4          8           0        4.448376    2.228872   -0.329018
      5          1           0        5.204612    1.816642   -0.836562
      6          6           0        2.081261    1.638228    0.110898
      7          8           0        1.534511    2.804853   -0.521000
      8          1           0        2.326537    3.339179   -0.817960
      9          6           0        2.891725   -2.468197    0.698594
     10          8           0        1.896242   -3.500170    0.635213
     11          1           0        2.282053   -4.399400    0.842297
     12          6           0        2.803120   -1.252297   -0.208950
     13          8           0        1.540671   -0.733271    0.235216
     14          6           0        1.036972    0.560312   -0.127675
     15          8           0       -0.114944    0.793205    0.696537
     16          6           0       -1.295511    0.242589    0.095490
     17          6           0       -1.751678   -1.179541    0.382051
     18          8           0       -0.780721   -2.118127   -0.104231
     19          1           0        0.127059   -2.010536    0.299069
     20          6           0       -3.027292   -1.438220   -0.401165
     21          8           0       -3.340066   -2.717626   -0.972219
     22          1           0       -2.448472   -3.091220   -1.226877
     23          6           0       -2.179757    2.596081    0.206083
     24          8           0       -2.970445    3.755440    0.505822
     25          1           0       -2.454113    4.606668    0.419420
     26          6           0       -2.478917    1.126774    0.454895
     27          8           0       -3.710885    0.720865   -0.158764
     28          6           0       -4.125331   -0.597423    0.229372
     29          8           0       -5.319417   -0.762502   -0.549719
     30          1           0       -6.087833   -0.638177    0.012136
     31          1           0       -4.249259   -0.730919    1.283754
     32          1           0       -2.830462   -0.883839   -1.294932
     33          1           0       -1.918505   -1.318503    1.429791
     34          1           0       -1.159887    0.313308   -0.963521
     35          1           0       -2.621221    1.022957    1.510296
     36          1           0       -1.238868    2.795807   -0.262677
     37          1           0       -3.120647    2.396355    0.674844
     38          1           0        5.722359   -0.648809    0.105325
     39          1           0        2.906277   -2.107596    1.705895
     40          1           0        3.837275   -2.932237    0.510173
     41          1           0        2.794319   -1.509621   -1.247510
     42          1           0        3.965626   -0.115408    1.182236
     43          1           0        3.296959    1.060341   -1.464102
     44          1           0        2.158801    1.818761    1.162704
     45          1           0        0.748724    0.558988   -1.158117
 ---------------------------------------------------------------------
 Rotational constants (GHZ):      0.3755054      0.1552622      0.1143579
 Standard basis: 6-31+G(d,p) (6D, 7F)
 There are   547 symmetry adapted basis functions of A   symmetry.
 Integral buffers will be    131072 words long.
 Raffenetti 2 integral format.
 Two-electron integral symmetry is turned on.
   547 basis functions,   890 primitive gaussians,   547 cartesian basis functions
    91 alpha electrons       91 beta electrons
       nuclear repulsion energy      2291.0893942853 Hartrees.
 NAtoms=   45 NActive=   45 NUniq=   45 SFac= 1.00D+00 NAtFMM=   50 NAOKFM=F Big=F
 One-electron integrals computed using PRISM.
 NBasis=   547 RedAO= T  NBF=   547
 NBsUse=   547 1.00D-06 NBFU=   547
 Harris functional with IExCor=  402 diagonalized for initial guess.
 ExpMin= 4.38D-02 ExpMax= 5.48D+03 ExpMxC= 8.25D+02 IAcc=2 IRadAn=         0 AccDes= 0.00D+00
 HarFok:  IExCor=  402 AccDes= 0.00D+00 IRadAn=         0 IDoV= 1
 ScaDFX=  1.000000  1.000000  1.000000  1.000000
 FoFCou: FMM=F IPFlag=           0 FMFlag=      100000 FMFlg1=           0
         NFxFlg=           0 DoJE=T BraDBF=F KetDBF=T FulRan=T
         Omega=  0.000000  0.000000  1.000000  0.000000  0.000000 ICntrl=     500 IOpCl=  0
         NMat0=    1 NMatS0=    1 NMatT0=    0 NMatD0=    1 NMtDS0=    0 NMtDT0=    0
         I1Cent=           4 NGrid=           0.
 Petite list used in FoFCou.
 Initial guess orbital symmetries:
       Occupied  (A) (A) (A) (A) (A) (A) (A) (A) (A) (A) (A) (A)
                 (A) (A) (A) (A) (A) (A) (A) (A) (A) (A) (A) (A)
                 (A) (A) (A) (A) (A) (A) (A) (A) (A) (A) (A) (A)
                 (A) (A) (A) (A) (A) (A) (A) (A) (A) (A) (A) (A)
                 (A) (A) (A) (A) (A) (A) (A) (A) (A) (A) (A) (A)
                 (A) (A) (A) (A) (A) (A) (A) (A) (A) (A) (A) (A)
                 (A) (A) (A) (A) (A) (A) (A) (A) (A) (A) (A) (A)
                 (A) (A) (A) (A) (A) (A) (A)
       Virtual   (A) (A) (A) (A) (A) (A) (A) (A) (A) (A) (A) (A)
                 (A) (A) (A) (A) (A) (A) (A) (A) (A) (A) (A) (A)
                 (A) (A) (A) (A) (A) (A) (A) (A) (A) (A) (A) (A)
                 (A) (A) (A) (A) (A) (A) (A) (A) (A) (A) (A) (A)
                 (A) (A) (A) (A) (A) (A) (A) (A) (A) (A) (A) (A)
                 (A) (A) (A) (A) (A) (A) (A) (A) (A) (A) (A) (A)
                 (A) (A) (A) (A) (A) (A) (A) (A) (A) (A) (A) (A)
                 (A) (A) (A) (A) (A) (A) (A) (A) (A) (A) (A) (A)
                 (A) (A) (A) (A) (A) (A) (A) (A) (A) (A) (A) (A)
                 (A) (A) (A) (A) (A) (A) (A) (A) (A) (A) (A) (A)
                 (A) (A) (A) (A) (A) (A) (A) (A) (A) (A) (A) (A)
                 (A) (A) (A) (A) (A) (A) (A) (A) (A) (A) (A) (A)
                 (A) (A) (A) (A) (A) (A) (A) (A) (A) (A) (A) (A)
                 (A) (A) (A) (A) (A) (A) (A) (A) (A) (A) (A) (A)
                 (A) (A) (A) (A) (A) (A) (A) (A) (A) (A) (A) (A)
                 (A) (A) (A) (A) (A) (A) (A) (A) (A) (A) (A) (A)
                 (A) (A) (A) (A) (A) (A) (A) (A) (A) (A) (A) (A)
                 (A) (A) (A) (A) (A) (A) (A) (A) (A) (A) (A) (A)
                 (A) (A) (A) (A) (A) (A) (A) (A) (A) (A) (A) (A)
                 (A) (A) (A) (A) (A) (A) (A) (A) (A) (A) (A) (A)
                 (A) (A) (A) (A) (A) (A) (A) (A) (A) (A) (A) (A)
                 (A) (A) (A) (A) (A) (A) (A) (A) (A) (A) (A) (A)
                 (A) (A) (A) (A) (A) (A) (A) (A) (A) (A) (A) (A)
                 (A) (A) (A) (A) (A) (A) (A) (A) (A) (A) (A) (A)
                 (A) (A) (A) (A) (A) (A) (A) (A) (A) (A) (A) (A)
                 (A) (A) (A) (A) (A) (A) (A) (A) (A) (A) (A) (A)
                 (A) (A) (A) (A) (A) (A) (A) (A) (A) (A) (A) (A)
                 (A) (A) (A) (A) (A) (A) (A) (A) (A) (A) (A) (A)
                 (A) (A) (A) (A) (A) (A) (A) (A) (A) (A) (A) (A)
                 (A) (A) (A) (A) (A) (A) (A) (A) (A) (A) (A) (A)
                 (A) (A) (A) (A) (A) (A) (A) (A) (A) (A) (A) (A)
                 (A) (A) (A) (A) (A) (A) (A) (A) (A) (A) (A) (A)
                 (A) (A) (A) (A) (A) (A) (A) (A) (A) (A) (A) (A)
                 (A) (A) (A) (A) (A) (A) (A) (A) (A) (A) (A) (A)
                 (A) (A) (A) (A) (A) (A) (A) (A) (A) (A) (A) (A)
                 (A) (A) (A) (A) (A) (A) (A) (A) (A) (A) (A) (A)
                 (A) (A) (A) (A) (A) (A) (A) (A) (A) (A) (A) (A)
                 (A) (A) (A) (A) (A) (A) (A) (A) (A) (A) (A) (A)
 The electronic state of the initial guess is 1-A.
 Requested convergence on RMS density matrix=1.00D-08 within 128 cycles.
 Requested convergence on MAX density matrix=1.00D-06.
 Requested convergence on             energy=1.00D-06.
 No special actions if energy rises.
 Restarting incremental Fock formation.
 SCF Done:  E(RB3LYP) =  -1297.62543322     A.U. after   22 cycles
             Convg  =    0.5269D-08             -V/T =  2.0083
 Range of M.O.s used for correlation:     1   547
 NBasis=   547 NAE=    91 NBE=    91 NFC=     0 NFV=     0
 NROrb=    547 NOA=    91 NOB=    91 NVA=   456 NVB=   456

 **** Warning!!: The largest alpha MO coefficient is  0.90433024D+02


 **** Warning!!: The smallest alpha delta epsilon is  0.80806341D-01

          Differentiating once with respect to electric field.
                with respect to dipole field.
          Electric field/nuclear overlap derivatives assumed to be zero.
          There are     3 degrees of freedom in the 1st order CPHF.  IDoFFX=0.
      3 vectors produced by pass  0 Test12= 1.38D-12 3.33D-08 XBig12= 1.95D+02 3.20D+00.
 AX will form     3 AO Fock derivatives at one time.
      3 vectors produced by pass  1 Test12= 1.38D-12 3.33D-08 XBig12= 5.75D+01 4.81D+00.
      3 vectors produced by pass  2 Test12= 1.38D-12 3.33D-08 XBig12= 1.23D+01 8.85D-01.
      3 vectors produced by pass  3 Test12= 1.38D-12 3.33D-08 XBig12= 4.53D+00 1.06D+00.
      3 vectors produced by pass  4 Test12= 1.38D-12 3.33D-08 XBig12= 2.40D+00 5.52D-01.
      3 vectors produced by pass  5 Test12= 1.38D-12 3.33D-08 XBig12= 8.14D-01 2.09D-01.
      3 vectors produced by pass  6 Test12= 1.38D-12 3.33D-08 XBig12= 3.61D-01 1.47D-01.
      3 vectors produced by pass  7 Test12= 1.38D-12 3.33D-08 XBig12= 5.42D-02 5.69D-02.
      3 vectors produced by pass  8 Test12= 1.38D-12 3.33D-08 XBig12= 1.65D-02 1.94D-02.
      3 vectors produced by pass  9 Test12= 1.38D-12 3.33D-08 XBig12= 2.88D-03 8.22D-03.
      3 vectors produced by pass 10 Test12= 1.38D-12 3.33D-08 XBig12= 5.24D-04 3.03D-03.
      3 vectors produced by pass 11 Test12= 1.38D-12 3.33D-08 XBig12= 1.61D-04 1.38D-03.
      3 vectors produced by pass 12 Test12= 1.38D-12 3.33D-08 XBig12= 2.51D-05 5.82D-04.
      3 vectors produced by pass 13 Test12= 1.38D-12 3.33D-08 XBig12= 7.07D-06 2.59D-04.
      3 vectors produced by pass 14 Test12= 1.38D-12 3.33D-08 XBig12= 7.52D-07 8.46D-05.
      3 vectors produced by pass 15 Test12= 1.38D-12 3.33D-08 XBig12= 2.31D-07 4.88D-05.
      3 vectors produced by pass 16 Test12= 1.38D-12 3.33D-08 XBig12= 4.38D-08 2.14D-05.
      3 vectors produced by pass 17 Test12= 1.38D-12 3.33D-08 XBig12= 6.07D-09 6.18D-06.
      3 vectors produced by pass 18 Test12= 1.38D-12 3.33D-08 XBig12= 7.29D-10 2.79D-06.
      3 vectors produced by pass 19 Test12= 1.38D-12 3.33D-08 XBig12= 1.46D-10 1.03D-06.
      3 vectors produced by pass 20 Test12= 1.38D-12 3.33D-08 XBig12= 2.28D-11 1.02D-06.
      2 vectors produced by pass 21 Test12= 1.38D-12 3.33D-08 XBig12= 8.36D-12 3.12D-07.
      2 vectors produced by pass 22 Test12= 1.38D-12 3.33D-08 XBig12= 2.02D-12 1.82D-07.
 Inverted reduced A of dimension    67 with in-core refinement.
 End of Minotr Frequency-dependent properties file   721 does not exist.
 End of Minotr Frequency-dependent properties file   722 does not exist.
 Symmetrizing basis deriv contribution to polar:
 IMax=3 JMax=2 DiffMx= 0.00D+00
 G2DrvN: will do    23 centers at a time, making    2 passes doing MaxLOS=2.
 Calling FoFCou, ICntrl=  3107 FMM=F I1Cent=   0 AccDes= 0.00D+00.
 Calling FoFCou, ICntrl=  3107 FMM=F I1Cent=   0 AccDes= 0.00D+00.
 FoFDir/FoFCou used for L=0 through L=2.
 End of G2Drv Frequency-dependent properties file   721 does not exist.
 End of G2Drv Frequency-dependent properties file   722 does not exist.
          IDoAtm=111111111111111111111111111111111111111111111
          Differentiating once with respect to electric field.
                with respect to dipole field.
          Differentiating once with respect to nuclear coordinates.
          There are   138 degrees of freedom in the 1st order CPHF.  IDoFFX=5.
 Will reuse    3 saved solutions.
    135 vectors produced by pass  0 Test12= 4.15D-14 1.00D-09 XBig12= 3.75D-01 2.33D-01.
 AX will form    68 AO Fock derivatives at one time.
    135 vectors produced by pass  1 Test12= 4.15D-14 1.00D-09 XBig12= 3.07D-02 1.83D-02.
    132 vectors produced by pass  2 Test12= 4.15D-14 1.00D-09 XBig12= 1.74D-04 1.36D-03.
    132 vectors produced by pass  3 Test12= 4.15D-14 1.00D-09 XBig12= 5.69D-07 7.03D-05.
    132 vectors produced by pass  4 Test12= 4.15D-14 1.00D-09 XBig12= 1.30D-09 2.67D-06.
    131 vectors produced by pass  5 Test12= 4.15D-14 1.00D-09 XBig12= 4.64D-12 2.37D-07.
     85 vectors produced by pass  6 Test12= 4.15D-14 1.00D-09 XBig12= 1.79D-13 2.41D-08.
      1 vectors produced by pass  7 Test12= 4.15D-14 1.00D-09 XBig12= 2.53D-16 1.08D-09.
 Inverted reduced A of dimension   883 with in-core refinement.
 Isotropic polarizability for W=    0.000000      206.59 Bohr**3.
 End of Minotr Frequency-dependent properties file   721 does not exist.
 End of Minotr Frequency-dependent properties file   722 does not exist.

 **********************************************************************

            Population analysis using the SCF density.

 **********************************************************************

 Orbital symmetries:
       Occupied  (A) (A) (A) (A) (A) (A) (A) (A) (A) (A) (A) (A)
                 (A) (A) (A) (A) (A) (A) (A) (A) (A) (A) (A) (A)
                 (A) (A) (A) (A) (A) (A) (A) (A) (A) (A) (A) (A)
                 (A) (A) (A) (A) (A) (A) (A) (A) (A) (A) (A) (A)
                 (A) (A) (A) (A) (A) (A) (A) (A) (A) (A) (A) (A)
                 (A) (A) (A) (A) (A) (A) (A) (A) (A) (A) (A) (A)
                 (A) (A) (A) (A) (A) (A) (A) (A) (A) (A) (A) (A)
                 (A) (A) (A) (A) (A) (A) (A)
       Virtual   (A) (A) (A) (A) (A) (A) (A) (A) (A) (A) (A) (A)
                 (A) (A) (A) (A) (A) (A) (A) (A) (A) (A) (A) (A)
                 (A) (A) (A) (A) (A) (A) (A) (A) (A) (A) (A) (A)
                 (A) (A) (A) (A) (A) (A) (A) (A) (A) (A) (A) (A)
                 (A) (A) (A) (A) (A) (A) (A) (A) (A) (A) (A) (A)
                 (A) (A) (A) (A) (A) (A) (A) (A) (A) (A) (A) (A)
                 (A) (A) (A) (A) (A) (A) (A) (A) (A) (A) (A) (A)
                 (A) (A) (A) (A) (A) (A) (A) (A) (A) (A) (A) (A)
                 (A) (A) (A) (A) (A) (A) (A) (A) (A) (A) (A) (A)
                 (A) (A) (A) (A) (A) (A) (A) (A) (A) (A) (A) (A)
                 (A) (A) (A) (A) (A) (A) (A) (A) (A) (A) (A) (A)
                 (A) (A) (A) (A) (A) (A) (A) (A) (A) (A) (A) (A)
                 (A) (A) (A) (A) (A) (A) (A) (A) (A) (A) (A) (A)
                 (A) (A) (A) (A) (A) (A) (A) (A) (A) (A) (A) (A)
                 (A) (A) (A) (A) (A) (A) (A) (A) (A) (A) (A) (A)
                 (A) (A) (A) (A) (A) (A) (A) (A) (A) (A) (A) (A)
                 (A) (A) (A) (A) (A) (A) (A) (A) (A) (A) (A) (A)
                 (A) (A) (A) (A) (A) (A) (A) (A) (A) (A) (A) (A)
                 (A) (A) (A) (A) (A) (A) (A) (A) (A) (A) (A) (A)
                 (A) (A) (A) (A) (A) (A) (A) (A) (A) (A) (A) (A)
                 (A) (A) (A) (A) (A) (A) (A) (A) (A) (A) (A) (A)
                 (A) (A) (A) (A) (A) (A) (A) (A) (A) (A) (A) (A)
                 (A) (A) (A) (A) (A) (A) (A) (A) (A) (A) (A) (A)
                 (A) (A) (A) (A) (A) (A) (A) (A) (A) (A) (A) (A)
                 (A) (A) (A) (A) (A) (A) (A) (A) (A) (A) (A) (A)
                 (A) (A) (A) (A) (A) (A) (A) (A) (A) (A) (A) (A)
                 (A) (A) (A) (A) (A) (A) (A) (A) (A) (A) (A) (A)
                 (A) (A) (A) (A) (A) (A) (A) (A) (A) (A) (A) (A)
                 (A) (A) (A) (A) (A) (A) (A) (A) (A) (A) (A) (A)
                 (A) (A) (A) (A) (A) (A) (A) (A) (A) (A) (A) (A)
                 (A) (A) (A) (A) (A) (A) (A) (A) (A) (A) (A) (A)
                 (A) (A) (A) (A) (A) (A) (A) (A) (A) (A) (A) (A)
                 (A) (A) (A) (A) (A) (A) (A) (A) (A) (A) (A) (A)
                 (A) (A) (A) (A) (A) (A) (A) (A) (A) (A) (A) (A)
                 (A) (A) (A) (A) (A) (A) (A) (A) (A) (A) (A) (A)
                 (A) (A) (A) (A) (A) (A) (A) (A) (A) (A) (A) (A)
                 (A) (A) (A) (A) (A) (A) (A) (A) (A) (A) (A) (A)
                 (A) (A) (A) (A) (A) (A) (A) (A) (A) (A) (A) (A)
 The electronic state is 1-A.
 Alpha  occ. eigenvalues --  -19.20370 -19.20327 -19.19322 -19.19018 -19.18716
 Alpha  occ. eigenvalues --  -19.18583 -19.18132 -19.15888 -19.15682 -19.14763
 Alpha  occ. eigenvalues --  -19.14611 -10.31450 -10.29305 -10.28457 -10.28260
 Alpha  occ. eigenvalues --  -10.27842 -10.27547 -10.26596 -10.26155 -10.26116
 Alpha  occ. eigenvalues --  -10.24789 -10.22862 -10.18568  -1.10124  -1.08159
 Alpha  occ. eigenvalues --   -1.07622  -1.06026  -1.05265  -1.04794  -1.03712
 Alpha  occ. eigenvalues --   -1.03462  -1.01850  -1.00636  -0.99314  -0.83143
 Alpha  occ. eigenvalues --   -0.82406  -0.80581  -0.79610  -0.72930  -0.71109
 Alpha  occ. eigenvalues --   -0.67992  -0.65163  -0.64560  -0.62716  -0.61379
 Alpha  occ. eigenvalues --   -0.60833  -0.57409  -0.56974  -0.55848  -0.55196
 Alpha  occ. eigenvalues --   -0.53874  -0.53696  -0.53266  -0.52724  -0.51960
 Alpha  occ. eigenvalues --   -0.51578  -0.49578  -0.48871  -0.48345  -0.47276
 Alpha  occ. eigenvalues --   -0.46309  -0.45709  -0.45267  -0.44415  -0.43721
 Alpha  occ. eigenvalues --   -0.43191  -0.41383  -0.40360  -0.39936  -0.39405
 Alpha  occ. eigenvalues --   -0.38367  -0.37737  -0.37191  -0.36578  -0.35961
 Alpha  occ. eigenvalues --   -0.35531  -0.35467  -0.35070  -0.33961  -0.33711
 Alpha  occ. eigenvalues --   -0.33026  -0.31527  -0.31354  -0.30755  -0.30377
 Alpha  occ. eigenvalues --   -0.29679  -0.29160  -0.28141  -0.27114  -0.24910
 Alpha  occ. eigenvalues --   -0.13102
 Alpha virt. eigenvalues --   -0.05022  -0.03643  -0.02512  -0.01173   0.00248
 Alpha virt. eigenvalues --    0.00647   0.01324   0.01989   0.02503   0.02768
 Alpha virt. eigenvalues --    0.03431   0.04056   0.04203   0.04780   0.05696
 Alpha virt. eigenvalues --    0.05933   0.06172   0.06493   0.07187   0.07578
 Alpha virt. eigenvalues --    0.07910   0.08648   0.09170   0.09549   0.09971
 Alpha virt. eigenvalues --    0.10177   0.10310   0.10934   0.11034   0.11507
 Alpha virt. eigenvalues --    0.11692   0.12375   0.12695   0.13144   0.13416
 Alpha virt. eigenvalues --    0.13664   0.13966   0.14643   0.15007   0.15190
 Alpha virt. eigenvalues --    0.15356   0.15823   0.16034   0.16458   0.16853
 Alpha virt. eigenvalues --    0.17169   0.17388   0.17867   0.18055   0.18228
 Alpha virt. eigenvalues --    0.18734   0.19131   0.19422   0.19789   0.19901
 Alpha virt. eigenvalues --    0.20433   0.20837   0.21237   0.21302   0.21756
 Alpha virt. eigenvalues --    0.21978   0.22297   0.22642   0.22872   0.23122
 Alpha virt. eigenvalues --    0.23564   0.23833   0.23958   0.24386   0.24455
 Alpha virt. eigenvalues --    0.24763   0.25086   0.25319   0.25434   0.25802
 Alpha virt. eigenvalues --    0.25946   0.26175   0.26702   0.26777   0.27165
 Alpha virt. eigenvalues --    0.27453   0.28051   0.28240   0.28498   0.28803
 Alpha virt. eigenvalues --    0.29091   0.29811   0.30236   0.30501   0.30820
 Alpha virt. eigenvalues --    0.31110   0.31419   0.31806   0.31853   0.32045
 Alpha virt. eigenvalues --    0.32457   0.32857   0.33098   0.33412   0.33663
 Alpha virt. eigenvalues --    0.34411   0.34716   0.34915   0.35326   0.35680
 Alpha virt. eigenvalues --    0.35904   0.36529   0.37415   0.37772   0.38023
 Alpha virt. eigenvalues --    0.38191   0.38909   0.39126   0.39758   0.40121
 Alpha virt. eigenvalues --    0.40693   0.41157   0.41624   0.41826   0.42230
 Alpha virt. eigenvalues --    0.42436   0.42866   0.43420   0.44028   0.44606
 Alpha virt. eigenvalues --    0.45058   0.45903   0.46548   0.46806   0.47148
 Alpha virt. eigenvalues --    0.48011   0.48957   0.50317   0.50560   0.51006
 Alpha virt. eigenvalues --    0.51609   0.53017   0.54194   0.60526   0.61653
 Alpha virt. eigenvalues --    0.65772   0.66574   0.69142   0.69798   0.70449
 Alpha virt. eigenvalues --    0.71169   0.72059   0.72606   0.73643   0.75008
 Alpha virt. eigenvalues --    0.76351   0.77175   0.77306   0.77397   0.78612
 Alpha virt. eigenvalues --    0.80650   0.81751   0.82413   0.83549   0.84759
 Alpha virt. eigenvalues --    0.86089   0.87187   0.87911   0.89144   0.90111
 Alpha virt. eigenvalues --    0.92070   0.92685   0.93608   0.95414   0.96388
 Alpha virt. eigenvalues --    0.96638   0.98005   0.99434   0.99875   1.00966
 Alpha virt. eigenvalues --    1.02028   1.02366   1.02848   1.03301   1.03904
 Alpha virt. eigenvalues --    1.04519   1.04671   1.05017   1.05921   1.06332
 Alpha virt. eigenvalues --    1.06838   1.07960   1.08343   1.09652   1.10115
 Alpha virt. eigenvalues --    1.10554   1.11152   1.12444   1.13224   1.14540
 Alpha virt. eigenvalues --    1.15009   1.16661   1.18772   1.19525   1.20738
 Alpha virt. eigenvalues --    1.21097   1.21851   1.23399   1.24409   1.24965
 Alpha virt. eigenvalues --    1.25710   1.26176   1.27155   1.27444   1.28048
 Alpha virt. eigenvalues --    1.28392   1.29581   1.30469   1.30939   1.31163
 Alpha virt. eigenvalues --    1.31676   1.32286   1.32858   1.33469   1.33684
 Alpha virt. eigenvalues --    1.35076   1.35513   1.36255   1.36431   1.37790
 Alpha virt. eigenvalues --    1.38056   1.39289   1.40856   1.41435   1.41594
 Alpha virt. eigenvalues --    1.43679   1.44787   1.46168   1.47338   1.48276
 Alpha virt. eigenvalues --    1.49369   1.49635   1.50907   1.51847   1.52306
 Alpha virt. eigenvalues --    1.53627   1.54580   1.54876   1.56170   1.58287
 Alpha virt. eigenvalues --    1.58818   1.59166   1.59901   1.60447   1.61036
 Alpha virt. eigenvalues --    1.61480   1.62185   1.62603   1.64132   1.64526
 Alpha virt. eigenvalues --    1.64785   1.65572   1.66915   1.67872   1.68817
 Alpha virt. eigenvalues --    1.69530   1.70044   1.70574   1.71569   1.72384
 Alpha virt. eigenvalues --    1.72853   1.73977   1.75099   1.75636   1.77100
 Alpha virt. eigenvalues --    1.77194   1.78466   1.78906   1.79765   1.81222
 Alpha virt. eigenvalues --    1.81663   1.83080   1.84634   1.84774   1.85080
 Alpha virt. eigenvalues --    1.87558   1.87880   1.89286   1.89765   1.90592
 Alpha virt. eigenvalues --    1.91282   1.92446   1.93224   1.93691   1.94230
 Alpha virt. eigenvalues --    1.94535   1.95306   1.95887   1.97147   1.98399
 Alpha virt. eigenvalues --    1.99010   2.00432   2.00848   2.01896   2.02808
 Alpha virt. eigenvalues --    2.03985   2.04080   2.05385   2.06518   2.08232
 Alpha virt. eigenvalues --    2.09189   2.09790   2.10890   2.11653   2.12122
 Alpha virt. eigenvalues --    2.12404   2.13056   2.13820   2.14471   2.14983
 Alpha virt. eigenvalues --    2.16896   2.18947   2.20740   2.22326   2.23334
 Alpha virt. eigenvalues --    2.24920   2.26368   2.28023   2.29201   2.29783
 Alpha virt. eigenvalues --    2.30981   2.31548   2.32597   2.32809   2.33863
 Alpha virt. eigenvalues --    2.35972   2.36287   2.36938   2.37632   2.39720
 Alpha virt. eigenvalues --    2.40981   2.41600   2.42071   2.42872   2.43780
 Alpha virt. eigenvalues --    2.44082   2.46480   2.47443   2.48921   2.49055
 Alpha virt. eigenvalues --    2.50492   2.51997   2.52483   2.53577   2.54125
 Alpha virt. eigenvalues --    2.55906   2.57139   2.58619   2.59323   2.59475
 Alpha virt. eigenvalues --    2.60602   2.61523   2.62724   2.63233   2.64765
 Alpha virt. eigenvalues --    2.65378   2.66684   2.67330   2.68535   2.69913
 Alpha virt. eigenvalues --    2.70405   2.72615   2.72870   2.75219   2.75524
 Alpha virt. eigenvalues --    2.76833   2.77933   2.79028   2.80173   2.80917
 Alpha virt. eigenvalues --    2.81344   2.82175   2.82758   2.83222   2.83983
 Alpha virt. eigenvalues --    2.84698   2.86007   2.86693   2.89319   2.89467
 Alpha virt. eigenvalues --    2.91181   2.92022   2.93649   2.94246   2.95536
 Alpha virt. eigenvalues --    2.96035   2.97772   2.98554   3.00572   3.01101
 Alpha virt. eigenvalues --    3.02952   3.04212   3.05463   3.05866   3.07109
 Alpha virt. eigenvalues --    3.09022   3.09869   3.11575   3.13823   3.14336
 Alpha virt. eigenvalues --    3.16668   3.20867   3.22558   3.23976   3.24919
 Alpha virt. eigenvalues --    3.29569   3.32148   3.36895   3.39896   3.40850
 Alpha virt. eigenvalues --    3.41944   3.42594   3.44994   3.47124   3.49906
 Alpha virt. eigenvalues --    3.49945   3.50456   3.52785   3.54168   3.57102
 Alpha virt. eigenvalues --    3.58088   3.58847   3.60662   3.63601   3.65517
 Alpha virt. eigenvalues --    3.70280   3.75238   4.00775   4.29573   4.31541
 Alpha virt. eigenvalues --    4.34705   4.35722   4.37357   4.45652   4.47724
 Alpha virt. eigenvalues --    4.50808   4.50979   4.52514   4.53534   4.55811
 Alpha virt. eigenvalues --    4.59457   4.60216   4.63521   4.72802   4.79358
 Alpha virt. eigenvalues --    4.83736   4.84433   4.85157   4.94719   4.96282
 Alpha virt. eigenvalues --    5.03094
          Condensed to atoms (all electrons):
              1          2          3          4          5          6
     1  O    8.338797   0.371148  -0.236091   0.008346   0.026781   0.023551
     2  C    0.371148   8.199631  -1.310490  -0.099053  -0.096400  -0.777236
     3  C   -0.236091  -1.310490  10.163865   0.195272   0.024498  -0.322007
     4  O    0.008346  -0.099053   0.195272   8.231007   0.219463  -0.047274
     5  H    0.026781  -0.096400   0.024498   0.219463   0.401747   0.045312
     6  C    0.023551  -0.777236  -0.322007  -0.047274   0.045312  10.706486
     7  O   -0.000166  -0.036338   0.032003  -0.013185   0.000088   0.229471
     8  H   -0.000172   0.032651  -0.070687   0.014395  -0.000561   0.053733
     9  C    0.004980   0.458657  -0.367796   0.007034  -0.002188   0.323545
    10  O    0.000820   0.010914  -0.001108   0.000061   0.000001  -0.010939
    11  H   -0.000009  -0.003136   0.001911   0.000000   0.000000   0.000549
    12  C   -0.215873  -1.968624  -0.455107   0.023385   0.018080  -0.146711
    13  O    0.011333  -0.021626   0.039361  -0.002046  -0.000207   0.088741
    14  C    0.023133   0.488359  -0.629430   0.021464   0.004129  -3.936676
    15  O    0.000332  -0.021921  -0.036436  -0.000164   0.000076   0.146280
    16  C    0.001080   0.195028  -0.710202  -0.003070   0.001600  -0.213136
    17  C    0.001679  -0.030363  -0.149932   0.000481   0.000056   0.332233
    18  O    0.000157   0.000577  -0.004164  -0.000004   0.000000   0.018491
    19  H   -0.000049   0.006600  -0.002284   0.000001   0.000000   0.001416
    20  C    0.000186   0.011435  -0.012958  -0.000128   0.000003   0.098423
    21  O    0.000000   0.000041   0.000152   0.000000   0.000000  -0.000550
    22  H    0.000000  -0.000108   0.000050   0.000000   0.000000   0.000444
    23  C    0.000106   0.014536  -0.045101  -0.000381  -0.000009   0.089166
    24  O    0.000000  -0.000030   0.000426   0.000002   0.000000  -0.009259
    25  H    0.000000   0.000032  -0.000352   0.000000   0.000000   0.000828
    26  C   -0.000033  -0.008853  -0.075652   0.001372   0.000028  -0.825310
    27  O    0.000000   0.000045   0.000584   0.000000   0.000000  -0.007609
    28  C   -0.000035  -0.002124   0.014270  -0.000006   0.000000  -0.033222
    29  O    0.000000  -0.000012   0.000030   0.000000   0.000000   0.000022
    30  H    0.000000   0.000000   0.000001   0.000000   0.000000   0.000009
    31  H    0.000000  -0.000004   0.000016   0.000000   0.000000   0.000369
    32  H    0.000000   0.000137  -0.000081   0.000000   0.000000   0.000634
    33  H    0.000000   0.000604  -0.000048   0.000000   0.000000   0.004480
    34  H    0.000001   0.000206   0.000802   0.000006   0.000000   0.019826
    35  H    0.000000   0.000117   0.000382   0.000000   0.000000   0.014850
    36  H    0.000000   0.000189   0.003068  -0.000013   0.000000   0.019928
    37  H    0.000000   0.000023  -0.000508   0.000000   0.000000   0.006383
    38  H    0.228100   0.073392  -0.038942   0.000108  -0.001771   0.006035
    39  H    0.000067   0.027476  -0.019165   0.000085   0.000000   0.022946
    40  H    0.006015   0.066433  -0.004991  -0.000047   0.000000  -0.009352
    41  H    0.005669   0.020408  -0.059039  -0.000330   0.000016   0.019058
    42  H   -0.036127   0.368163  -0.076297   0.002748   0.000034  -0.005240
    43  H    0.001910  -0.025063   0.335871  -0.058895  -0.007827  -0.150127
    44  H   -0.000989   0.031165  -0.019449  -0.004922  -0.000113   0.429032
    45  H    0.000076   0.027772  -0.036730  -0.000655   0.000012  -0.089313
              7          8          9         10         11         12
     1  O   -0.000166  -0.000172   0.004980   0.000820  -0.000009  -0.215873
     2  C   -0.036338   0.032651   0.458657   0.010914  -0.003136  -1.968624
     3  C    0.032003  -0.070687  -0.367796  -0.001108   0.001911  -0.455107
     4  O   -0.013185   0.014395   0.007034   0.000061   0.000000   0.023385
     5  H    0.000088  -0.000561  -0.002188   0.000001   0.000000   0.018080
     6  C    0.229471   0.053733   0.323545  -0.010939   0.000549  -0.146711
     7  O    8.286650   0.183779  -0.003403  -0.000006   0.000000   0.023755
     8  H    0.183779   0.421620   0.000827   0.000000   0.000000  -0.004964
     9  C   -0.003403   0.000827   6.763356   0.227417  -0.005196  -2.201225
    10  O   -0.000006   0.000000   0.227417   8.361702   0.214553  -0.143535
    11  H    0.000000   0.000000  -0.005196   0.214553   0.399585   0.018154
    12  C    0.023755  -0.004964  -2.201225  -0.143535   0.018154  11.660769
    13  O    0.015948  -0.001342   0.063972   0.025288  -0.000214  -0.324737
    14  C   -0.151344  -0.000407  -0.143558  -0.011935   0.000176  -0.292377
    15  O   -0.004184   0.001659   0.003535  -0.001830   0.000012   0.019683
    16  C   -0.038453   0.001986  -0.192932   0.020293   0.000609   0.515338
    17  C    0.003993  -0.000740   0.111669  -0.004794  -0.001402  -0.425200
    18  O    0.000486  -0.000007   0.015187  -0.015059   0.001736  -0.046484
    19  H   -0.000049   0.000000  -0.000954   0.005349  -0.000029  -0.002584
    20  C    0.003933  -0.000195  -0.003933   0.005454  -0.000756  -0.034070
    21  O    0.000000   0.000000  -0.000027  -0.000167   0.000004   0.000858
    22  H    0.000000   0.000000  -0.000356   0.000013   0.000000   0.000035
    23  C   -0.001785  -0.001762   0.001812  -0.000077   0.000001  -0.016850
    24  O    0.000856   0.000008  -0.000018   0.000000   0.000000   0.000292
    25  H   -0.000317  -0.000003   0.000004   0.000000   0.000000  -0.000050
    26  C    0.010310   0.003048   0.025349   0.001692  -0.000117   0.054189
    27  O   -0.000022  -0.000001  -0.000451   0.000015   0.000000   0.002585
    28  C   -0.000110   0.000062  -0.009306   0.000503   0.000006   0.029019
    29  O   -0.000006   0.000000   0.000035   0.000001   0.000000  -0.000011
    30  H    0.000000   0.000000   0.000000   0.000000   0.000000  -0.000002
    31  H    0.000000   0.000000   0.000027   0.000000   0.000000  -0.000014
    32  H    0.000018   0.000000   0.000328   0.000011   0.000000   0.000694
    33  H    0.000037   0.000000   0.001143   0.000255  -0.000001  -0.001521
    34  H    0.000216  -0.000007   0.001333   0.000019   0.000000  -0.004967
    35  H   -0.000263   0.000000   0.000293  -0.000003   0.000000  -0.001335
    36  H   -0.002646  -0.000251   0.000151   0.000000   0.000000  -0.001238
    37  H   -0.000152   0.000000   0.000038   0.000000   0.000000  -0.000351
    38  H   -0.000025   0.000001  -0.000728   0.000040   0.000000  -0.016808
    39  H    0.000003   0.000000   0.620584  -0.068721   0.001225  -0.290773
    40  H   -0.000006   0.000000   0.430402  -0.041642  -0.012209  -0.142050
    41  H    0.000006  -0.000003   0.060360   0.006383  -0.000018   0.197647
    42  H    0.000389  -0.000013   0.037337   0.000844  -0.000007  -0.095880
    43  H    0.004246  -0.001743   0.014143   0.000040   0.000000   0.003835
    44  H   -0.045374   0.000180   0.002439   0.000003   0.000000  -0.000727
    45  H    0.008169  -0.000003   0.004254  -0.000180  -0.000001  -0.025635
             13         14         15         16         17         18
     1  O    0.011333   0.023133   0.000332   0.001080   0.001679   0.000157
     2  C   -0.021626   0.488359  -0.021921   0.195028  -0.030363   0.000577
     3  C    0.039361  -0.629430  -0.036436  -0.710202  -0.149932  -0.004164
     4  O   -0.002046   0.021464  -0.000164  -0.003070   0.000481  -0.000004
     5  H   -0.000207   0.004129   0.000076   0.001600   0.000056   0.000000
     6  C    0.088741  -3.936676   0.146280  -0.213136   0.332233   0.018491
     7  O    0.015948  -0.151344  -0.004184  -0.038453   0.003993   0.000486
     8  H   -0.001342  -0.000407   0.001659   0.001986  -0.000740  -0.000007
     9  C    0.063972  -0.143558   0.003535  -0.192932   0.111669   0.015187
    10  O    0.025288  -0.011935  -0.001830   0.020293  -0.004794  -0.015059
    11  H   -0.000214   0.000176   0.000012   0.000609  -0.001402   0.001736
    12  C   -0.324737  -0.292377   0.019683   0.515338  -0.425200  -0.046484
    13  O    8.740068  -0.081510  -0.047377   0.018599  -0.022708  -0.003812
    14  C   -0.081510  15.329851   0.100689  -1.874149  -1.176796  -0.047675
    15  O   -0.047377   0.100689   8.162802   0.043980  -0.044233  -0.011382
    16  C    0.018599  -1.874149   0.043980  26.513446  -8.547403  -0.425970
    17  C   -0.022708  -1.176796  -0.044233  -8.547403  14.419383   0.577933
    18  O   -0.003812  -0.047675  -0.011382  -0.425970   0.577933   8.304596
    19  H    0.021473  -0.023452   0.006540  -0.037274   0.044433   0.203608
    20  C   -0.000044  -0.516495  -0.007080  -3.585663   1.386012  -0.049189
    21  O    0.000007  -0.002163   0.000234  -0.034341  -0.010481  -0.003844
    22  H    0.000033   0.011805   0.000008   0.013729  -0.104813   0.022844
    23  C    0.007597  -0.550742  -0.107901   1.367689   0.105514   0.021164
    24  O    0.000066   0.022567   0.000633  -0.096287  -0.049876  -0.000081
    25  H   -0.000004  -0.009997  -0.001333   0.038684   0.008271   0.000005
    26  C   -0.016126  -1.924597   0.148251 -11.195227   2.319646   0.046071
    27  O    0.000938  -0.024091   0.014052  -0.028475  -0.443119  -0.005298
    28  C    0.000748   0.407778   0.024843   3.140375  -2.482990  -0.032918
    29  O   -0.000007   0.004844  -0.000091  -0.019274   0.054367  -0.000279
    30  H    0.000000   0.000633   0.000003   0.009651   0.002151   0.000013
    31  H    0.000002   0.006087   0.000054   0.122785  -0.026815   0.000068
    32  H    0.000133  -0.000961  -0.000162   0.335433  -0.339250   0.007376
    33  H    0.000022   0.022459  -0.002662   0.046832   0.228330  -0.037210
    34  H   -0.008157   0.012255  -0.054755   0.316565  -0.007757   0.006097
    35  H   -0.001109   0.026459  -0.012164   0.136333   0.103299   0.002166
    36  H   -0.000455  -0.011403  -0.006733   0.168791   0.024864   0.000312
    37  H   -0.000070  -0.014044  -0.007215   0.129460   0.074549   0.000355
    38  H   -0.001349  -0.001280  -0.000020   0.000272  -0.000055  -0.000001
    39  H    0.000409  -0.004219   0.000245  -0.006588   0.005286   0.000564
    40  H    0.007830   0.003430  -0.000025   0.002474  -0.000229  -0.000546
    41  H   -0.036623   0.036216  -0.001301  -0.009012   0.008957   0.001284
    42  H    0.015865   0.034489  -0.000360  -0.004511   0.002287   0.000098
    43  H    0.010163   0.068217  -0.000641   0.003666   0.001575   0.000105
    44  H    0.013146  -0.198413  -0.006055   0.042538   0.004979   0.000040
    45  H   -0.062189   0.412337  -0.063111   0.009808   0.026860   0.000551
             19         20         21         22         23         24
     1  O   -0.000049   0.000186   0.000000   0.000000   0.000106   0.000000
     2  C    0.006600   0.011435   0.000041  -0.000108   0.014536  -0.000030
     3  C   -0.002284  -0.012958   0.000152   0.000050  -0.045101   0.000426
     4  O    0.000001  -0.000128   0.000000   0.000000  -0.000381   0.000002
     5  H    0.000000   0.000003   0.000000   0.000000  -0.000009   0.000000
     6  C    0.001416   0.098423  -0.000550   0.000444   0.089166  -0.009259
     7  O   -0.000049   0.003933   0.000000   0.000000  -0.001785   0.000856
     8  H    0.000000  -0.000195   0.000000   0.000000  -0.001762   0.000008
     9  C   -0.000954  -0.003933  -0.000027  -0.000356   0.001812  -0.000018
    10  O    0.005349   0.005454  -0.000167   0.000013  -0.000077   0.000000
    11  H   -0.000029  -0.000756   0.000004   0.000000   0.000001   0.000000
    12  C   -0.002584  -0.034070   0.000858   0.000035  -0.016850   0.000292
    13  O    0.021473  -0.000044   0.000007   0.000033   0.007597   0.000066
    14  C   -0.023452  -0.516495  -0.002163   0.011805  -0.550742   0.022567
    15  O    0.006540  -0.007080   0.000234   0.000008  -0.107901   0.000633
    16  C   -0.037274  -3.585663  -0.034341   0.013729   1.367689  -0.096287
    17  C    0.044433   1.386012  -0.010481  -0.104813   0.105514  -0.049876
    18  O    0.203608  -0.049189  -0.003844   0.022844   0.021164  -0.000081
    19  H    0.326603   0.009222   0.001231  -0.000529  -0.002699   0.000000
    20  C    0.009222   8.690599   0.388413   0.035773   0.281299  -0.019472
    21  O    0.001231   0.388413   8.235598   0.202643  -0.008870  -0.000001
    22  H   -0.000529   0.035773   0.202643   0.404616  -0.000275   0.000000
    23  C   -0.002699   0.281299  -0.008870  -0.000275   7.958601  -0.263000
    24  O    0.000000  -0.019472  -0.000001   0.000000  -0.263000   8.575772
    25  H    0.000000   0.002641   0.000000   0.000000   0.108477   0.130698
    26  C    0.007414   1.485519   0.047208  -0.028471  -2.732192   0.166692
    27  O   -0.000018  -0.316377   0.008951  -0.000094  -0.169802   0.042788
    28  C   -0.000955  -1.582367  -0.293688   0.078174  -0.640073   0.067516
    29  O    0.000032  -0.062013   0.004155  -0.001250  -0.007189  -0.000946
    30  H    0.000000   0.011556  -0.000990   0.000018   0.001763  -0.000030
    31  H    0.000004  -0.142817   0.006929  -0.000152   0.000663  -0.000149
    32  H   -0.000219   0.331455  -0.070938  -0.003355   0.039713   0.000061
    33  H   -0.005004  -0.070172   0.000229   0.000109   0.021151   0.000042
    34  H   -0.000242   0.018118  -0.001619   0.000132   0.021326  -0.000629
    35  H    0.000029  -0.014479  -0.000283  -0.000005  -0.020452  -0.004573
    36  H   -0.000001   0.003662  -0.000006   0.000000   0.572011  -0.051321
    37  H    0.000000   0.027334  -0.000018   0.000000   0.460330  -0.074275
    38  H    0.000000   0.000000   0.000000   0.000000   0.000003   0.000000
    39  H    0.000101   0.000071   0.000000   0.000000   0.000002   0.000000
    40  H    0.000142   0.000099   0.000000   0.000000  -0.000004   0.000000
    41  H    0.000321   0.000469   0.000001   0.000000   0.000108   0.000000
    42  H   -0.000007   0.000003   0.000000   0.000000   0.000083   0.000000
    43  H    0.000002   0.000104   0.000000   0.000000   0.000956  -0.000001
    44  H   -0.000009   0.000845   0.000000   0.000000   0.005319   0.000001
    45  H    0.000261   0.012438  -0.000003   0.000000   0.012357  -0.000002
             25         26         27         28         29         30
     1  O    0.000000  -0.000033   0.000000  -0.000035   0.000000   0.000000
     2  C    0.000032  -0.008853   0.000045  -0.002124  -0.000012   0.000000
     3  C   -0.000352  -0.075652   0.000584   0.014270   0.000030   0.000001
     4  O    0.000000   0.001372   0.000000  -0.000006   0.000000   0.000000
     5  H    0.000000   0.000028   0.000000   0.000000   0.000000   0.000000
     6  C    0.000828  -0.825310  -0.007609  -0.033222   0.000022   0.000009
     7  O   -0.000317   0.010310  -0.000022  -0.000110  -0.000006   0.000000
     8  H   -0.000003   0.003048  -0.000001   0.000062   0.000000   0.000000
     9  C    0.000004   0.025349  -0.000451  -0.009306   0.000035   0.000000
    10  O    0.000000   0.001692   0.000015   0.000503   0.000001   0.000000
    11  H    0.000000  -0.000117   0.000000   0.000006   0.000000   0.000000
    12  C   -0.000050   0.054189   0.002585   0.029019  -0.000011  -0.000002
    13  O   -0.000004  -0.016126   0.000938   0.000748  -0.000007   0.000000
    14  C   -0.009997  -1.924597  -0.024091   0.407778   0.004844   0.000633
    15  O   -0.001333   0.148251   0.014052   0.024843  -0.000091   0.000003
    16  C    0.038684 -11.195227  -0.028475   3.140375  -0.019274   0.009651
    17  C    0.008271   2.319646  -0.443119  -2.482990   0.054367   0.002151
    18  O    0.000005   0.046071  -0.005298  -0.032918  -0.000279   0.000013
    19  H    0.000000   0.007414  -0.000018  -0.000955   0.000032   0.000000
    20  C    0.002641   1.485519  -0.316377  -1.582367  -0.062013   0.011556
    21  O    0.000000   0.047208   0.008951  -0.293688   0.004155  -0.000990
    22  H    0.000000  -0.028471  -0.000094   0.078174  -0.001250   0.000018
    23  C    0.108477  -2.732192  -0.169802  -0.640073  -0.007189   0.001763
    24  O    0.130698   0.166692   0.042788   0.067516  -0.000946  -0.000030
    25  H    0.459851  -0.091668  -0.000640  -0.009362   0.000018   0.000000
    26  C   -0.091668  21.181862   0.340492  -2.030905  -0.017546  -0.012080
    27  O   -0.000640   0.340492   8.825922   0.364765  -0.086149  -0.005586
    28  C   -0.009362  -2.030905   0.364765   7.795569   0.265385   0.007237
    29  O    0.000018  -0.017546  -0.086149   0.265385   8.173526   0.227878
    30  H    0.000000  -0.012080  -0.005586   0.007237   0.227878   0.427760
    31  H    0.000000  -0.053072  -0.061678   0.415185  -0.036792  -0.008960
    32  H    0.000000  -0.081419  -0.016469  -0.009579   0.001087   0.000025
    33  H    0.000000  -0.024099   0.006420   0.019380  -0.000154  -0.000003
    34  H    0.000017  -0.092002  -0.001648   0.002147  -0.000369   0.000003
    35  H    0.000388   0.095523  -0.099020  -0.055827   0.001277   0.000024
    36  H   -0.000251  -0.391290   0.001220  -0.014997   0.000103   0.000000
    37  H    0.014153  -0.260368  -0.080800  -0.092472   0.001161   0.000039
    38  H    0.000000  -0.000005   0.000000   0.000000   0.000000   0.000000
    39  H    0.000000   0.000151   0.000000  -0.000029   0.000000   0.000000
    40  H    0.000000   0.000134   0.000000  -0.000002   0.000000   0.000000
    41  H    0.000000  -0.000028  -0.000001  -0.000111   0.000000   0.000000
    42  H    0.000000  -0.000482   0.000000  -0.000010   0.000000   0.000000
    43  H    0.000000  -0.001391   0.000000  -0.000028   0.000000   0.000000
    44  H    0.000000  -0.010474   0.000002  -0.000115   0.000000   0.000000
    45  H    0.000000   0.001608   0.000004  -0.001068  -0.000006   0.000000
             31         32         33         34         35         36
     1  O    0.000000   0.000000   0.000000   0.000001   0.000000   0.000000
     2  C   -0.000004   0.000137   0.000604   0.000206   0.000117   0.000189
     3  C    0.000016  -0.000081  -0.000048   0.000802   0.000382   0.003068
     4  O    0.000000   0.000000   0.000000   0.000006   0.000000  -0.000013
     5  H    0.000000   0.000000   0.000000   0.000000   0.000000   0.000000
     6  C    0.000369   0.000634   0.004480   0.019826   0.014850   0.019928
     7  O    0.000000   0.000018   0.000037   0.000216  -0.000263  -0.002646
     8  H    0.000000   0.000000   0.000000  -0.000007   0.000000  -0.000251
     9  C    0.000027   0.000328   0.001143   0.001333   0.000293   0.000151
    10  O    0.000000   0.000011   0.000255   0.000019  -0.000003   0.000000
    11  H    0.000000   0.000000  -0.000001   0.000000   0.000000   0.000000
    12  C   -0.000014   0.000694  -0.001521  -0.004967  -0.001335  -0.001238
    13  O    0.000002   0.000133   0.000022  -0.008157  -0.001109  -0.000455
    14  C    0.006087  -0.000961   0.022459   0.012255   0.026459  -0.011403
    15  O    0.000054  -0.000162  -0.002662  -0.054755  -0.012164  -0.006733
    16  C    0.122785   0.335433   0.046832   0.316565   0.136333   0.168791
    17  C   -0.026815  -0.339250   0.228330  -0.007757   0.103299   0.024864
    18  O    0.000068   0.007376  -0.037210   0.006097   0.002166   0.000312
    19  H    0.000004  -0.000219  -0.005004  -0.000242   0.000029  -0.000001
    20  C   -0.142817   0.331455  -0.070172   0.018118  -0.014479   0.003662
    21  O    0.006929  -0.070938   0.000229  -0.001619  -0.000283  -0.000006
    22  H   -0.000152  -0.003355   0.000109   0.000132  -0.000005   0.000000
    23  C    0.000663   0.039713   0.021151   0.021326  -0.020452   0.572011
    24  O   -0.000149   0.000061   0.000042  -0.000629  -0.004573  -0.051321
    25  H    0.000000   0.000000   0.000000   0.000017   0.000388  -0.000251
    26  C   -0.053072  -0.081419  -0.024099  -0.092002   0.095523  -0.391290
    27  O   -0.061678  -0.016469   0.006420  -0.001648  -0.099020   0.001220
    28  C    0.415185  -0.009579   0.019380   0.002147  -0.055827  -0.014997
    29  O   -0.036792   0.001087  -0.000154  -0.000369   0.001277   0.000103
    30  H   -0.008960   0.000025  -0.000003   0.000003   0.000024   0.000000
    31  H    0.637875   0.006514   0.003595  -0.000050   0.007745   0.000002
    32  H    0.006514   0.640307   0.008694   0.003883   0.000115  -0.000032
    33  H    0.003595   0.008694   0.636116   0.005921   0.002223  -0.000028
    34  H   -0.000050   0.003883   0.005921   0.603075   0.006895   0.001780
    35  H    0.007745   0.000115   0.002223   0.006895   0.639257   0.006416
    36  H    0.000002  -0.000032  -0.000028   0.001780   0.006416   0.516724
    37  H   -0.000293  -0.000215  -0.000145   0.000620   0.019542  -0.000170
    38  H    0.000000   0.000000   0.000000   0.000000   0.000000   0.000000
    39  H    0.000000   0.000000  -0.000002   0.000000   0.000000   0.000000
    40  H    0.000000   0.000000   0.000000   0.000000   0.000000   0.000000
    41  H    0.000000   0.000000  -0.000001  -0.000003   0.000000   0.000000
    42  H    0.000000   0.000000   0.000000   0.000000   0.000000   0.000000
    43  H    0.000000   0.000000   0.000000  -0.000003   0.000000   0.000002
    44  H    0.000000   0.000000  -0.000001   0.000020  -0.000002   0.000030
    45  H    0.000000  -0.000089  -0.000023   0.014403  -0.000018  -0.000080
             37         38         39         40         41         42
     1  O    0.000000   0.228100   0.000067   0.006015   0.005669  -0.036127
     2  C    0.000023   0.073392   0.027476   0.066433   0.020408   0.368163
     3  C   -0.000508  -0.038942  -0.019165  -0.004991  -0.059039  -0.076297
     4  O    0.000000   0.000108   0.000085  -0.000047  -0.000330   0.002748
     5  H    0.000000  -0.001771   0.000000   0.000000   0.000016   0.000034
     6  C    0.006383   0.006035   0.022946  -0.009352   0.019058  -0.005240
     7  O   -0.000152  -0.000025   0.000003  -0.000006   0.000006   0.000389
     8  H    0.000000   0.000001   0.000000   0.000000  -0.000003  -0.000013
     9  C    0.000038  -0.000728   0.620584   0.430402   0.060360   0.037337
    10  O    0.000000   0.000040  -0.068721  -0.041642   0.006383   0.000844
    11  H    0.000000   0.000000   0.001225  -0.012209  -0.000018  -0.000007
    12  C   -0.000351  -0.016808  -0.290773  -0.142050   0.197647  -0.095880
    13  O   -0.000070  -0.001349   0.000409   0.007830  -0.036623   0.015865
    14  C   -0.014044  -0.001280  -0.004219   0.003430   0.036216   0.034489
    15  O   -0.007215  -0.000020   0.000245  -0.000025  -0.001301  -0.000360
    16  C    0.129460   0.000272  -0.006588   0.002474  -0.009012  -0.004511
    17  C    0.074549  -0.000055   0.005286  -0.000229   0.008957   0.002287
    18  O    0.000355  -0.000001   0.000564  -0.000546   0.001284   0.000098
    19  H    0.000000   0.000000   0.000101   0.000142   0.000321  -0.000007
    20  C    0.027334   0.000000   0.000071   0.000099   0.000469   0.000003
    21  O   -0.000018   0.000000   0.000000   0.000000   0.000001   0.000000
    22  H    0.000000   0.000000   0.000000   0.000000   0.000000   0.000000
    23  C    0.460330   0.000003   0.000002  -0.000004   0.000108   0.000083
    24  O   -0.074275   0.000000   0.000000   0.000000   0.000000   0.000000
    25  H    0.014153   0.000000   0.000000   0.000000   0.000000   0.000000
    26  C   -0.260368  -0.000005   0.000151   0.000134  -0.000028  -0.000482
    27  O   -0.080800   0.000000   0.000000   0.000000  -0.000001   0.000000
    28  C   -0.092472   0.000000  -0.000029  -0.000002  -0.000111  -0.000010
    29  O    0.001161   0.000000   0.000000   0.000000   0.000000   0.000000
    30  H    0.000039   0.000000   0.000000   0.000000   0.000000   0.000000
    31  H   -0.000293   0.000000   0.000000   0.000000   0.000000   0.000000
    32  H   -0.000215   0.000000   0.000000   0.000000   0.000000   0.000000
    33  H   -0.000145   0.000000  -0.000002   0.000000  -0.000001   0.000000
    34  H    0.000620   0.000000   0.000000   0.000000  -0.000003   0.000000
    35  H    0.019542   0.000000   0.000000   0.000000   0.000000   0.000000
    36  H   -0.000170   0.000000   0.000000   0.000000   0.000000   0.000000
    37  H    0.463691   0.000000   0.000000   0.000000   0.000000   0.000000
    38  H    0.000000   0.398857   0.000260  -0.000574   0.000281  -0.011290
    39  H    0.000000   0.000260   0.601504  -0.048494   0.005842   0.006444
    40  H    0.000000  -0.000574  -0.048494   0.616267  -0.002877  -0.000433
    41  H    0.000000   0.000281   0.005842  -0.002877   0.584394   0.005048
    42  H    0.000000  -0.011290   0.006444  -0.000433   0.005048   0.610244
    43  H    0.000000   0.000024   0.000012  -0.000021   0.003475   0.007380
    44  H    0.000000   0.000020  -0.000030   0.000000  -0.000005   0.003389
    45  H   -0.000012   0.000002  -0.000002   0.000014   0.003137   0.000039
             43         44         45
     1  O    0.001910  -0.000989   0.000076
     2  C   -0.025063   0.031165   0.027772
     3  C    0.335871  -0.019449  -0.036730
     4  O   -0.058895  -0.004922  -0.000655
     5  H   -0.007827  -0.000113   0.000012
     6  C   -0.150127   0.429032  -0.089313
     7  O    0.004246  -0.045374   0.008169
     8  H   -0.001743   0.000180  -0.000003
     9  C    0.014143   0.002439   0.004254
    10  O    0.000040   0.000003  -0.000180
    11  H    0.000000   0.000000  -0.000001
    12  C    0.003835  -0.000727  -0.025635
    13  O    0.010163   0.013146  -0.062189
    14  C    0.068217  -0.198413   0.412337
    15  O   -0.000641  -0.006055  -0.063111
    16  C    0.003666   0.042538   0.009808
    17  C    0.001575   0.004979   0.026860
    18  O    0.000105   0.000040   0.000551
    19  H    0.000002  -0.000009   0.000261
    20  C    0.000104   0.000845   0.012438
    21  O    0.000000   0.000000  -0.000003
    22  H    0.000000   0.000000   0.000000
    23  C    0.000956   0.005319   0.012357
    24  O   -0.000001   0.000001  -0.000002
    25  H    0.000000   0.000000   0.000000
    26  C   -0.001391  -0.010474   0.001608
    27  O    0.000000   0.000002   0.000004
    28  C   -0.000028  -0.000115  -0.001068
    29  O    0.000000   0.000000  -0.000006
    30  H    0.000000   0.000000   0.000000
    31  H    0.000000   0.000000   0.000000
    32  H    0.000000   0.000000  -0.000089
    33  H    0.000000  -0.000001  -0.000023
    34  H   -0.000003   0.000020   0.014403
    35  H    0.000000  -0.000002  -0.000018
    36  H    0.000002   0.000030  -0.000080
    37  H    0.000000   0.000000  -0.000012
    38  H    0.000024   0.000020   0.000002
    39  H    0.000012  -0.000030  -0.000002
    40  H   -0.000021   0.000000   0.000014
    41  H    0.003475  -0.000005   0.003137
    42  H    0.007380   0.003389   0.000039
    43  H    0.639473   0.007013   0.003850
    44  H    0.007013   0.588004   0.005348
    45  H    0.003850   0.005348   0.619158
 Mulliken atomic charges:
              1
     1  O   -0.564724
     2  C   -0.004356
     3  C   -0.127519
     4  O   -0.495056
     5  H    0.367151
     6  C   -0.118279
     7  O   -0.506520
     8  H    0.368910
     9  C   -0.248140
    10  O   -0.581676
    11  H    0.384573
    12  C    0.291383
    13  O   -0.450025
    14  C    0.590339
    15  O   -0.234777
    16  C   -0.175075
    17  C    0.020146
    18  O   -0.547961
    19  H    0.441577
    20  C   -0.386854
    21  O   -0.468665
    22  H    0.368979
    23  C   -0.522581
    24  O   -0.438469
    25  H    0.349911
    26  C   -0.063152
    27  O   -0.261438
    28  C    0.659339
    29  O   -0.501825
    30  H    0.338887
    31  H    0.122875
    32  H    0.146152
    33  H    0.133030
    34  H    0.136542
    35  H    0.146198
    36  H    0.161660
    37  H    0.333429
    38  H    0.365455
    39  H    0.144746
    40  H    0.130266
    41  H    0.150273
    42  H    0.135770
    43  H    0.139676
    44  H    0.153165
    45  H    0.116661
 Sum of Mulliken atomic charges =   0.00000
 Mulliken charges with hydrogens summed into heavy atoms:
              1
     1  O   -0.199269
     2  C    0.131415
     3  C    0.012158
     4  O   -0.127905
     6  C    0.034885
     7  O   -0.137610
     9  C    0.026872
    10  O   -0.197103
    12  C    0.441656
    13  O   -0.450025
    14  C    0.707000
    15  O   -0.234777
    16  C   -0.038533
    17  C    0.153176
    18  O   -0.106385
    20  C   -0.240702
    21  O   -0.099687
    23  C   -0.027492
    24  O   -0.088559
    26  C    0.083046
    27  O   -0.261438
    28  C    0.782214
    29  O   -0.162938
 Sum of Mulliken charges with hydrogens summed into heavy atoms =   0.00000
 APT atomic charges:
              1
     1  O   -0.645885
     2  C    0.399550
     3  C    0.398887
     4  O   -0.630377
     5  H    0.275183
     6  C    0.328436
     7  O   -0.567266
     8  H    0.258321
     9  C    0.472732
    10  O   -0.620936
    11  H    0.260651
    12  C    0.455371
    13  O   -0.877566
    14  C    0.936353
    15  O   -0.787640
    16  C    0.478061
    17  C    0.397147
    18  O   -0.773427
    19  H    0.412933
    20  C    0.382180
    21  O   -0.610832
    22  H    0.282591
    23  C   -0.457583
    24  O   -0.402045
    25  H    0.086928
    26  C    0.753659
    27  O   -0.809472
    28  C    0.847194
    29  O   -0.634035
    30  H    0.249893
    31  H   -0.076458
    32  H   -0.036070
    33  H   -0.066409
    34  H   -0.017931
    35  H   -0.099268
    36  H    0.099129
    37  H    0.393067
    38  H    0.254640
    39  H   -0.038374
    40  H   -0.049060
    41  H   -0.043783
[...]
 8,0.00181601,0.00055702,0.00020774,-0.00014688,-0.00017297,0.00006143,
 0.00009079,-0.00000511,0.00005540,-0.00000754,0.00001051,0.00000869,-0
 .00000886,0.00001442,-0.00000530,0.00002477,-0.00002864,-0.00001046,-0
 .00004208,0.00003746,0.00002755,-0.00000750,-0.00000517,0.00000384,0.0
 0001445,0.00000054,-0.00000247,-0.00001302,0.00000371,0.00000003,0.000
 01625,-0.00000374,-0.00001315,0.00000678,0.00000341,0.00000394,-0.0000
 0635,-0.00000052,0.00000225,-0.00001107,0.00000429,0.00000622,0.000008
 69,-0.00000144,-0.00000079,-0.00000739,0.00000202,0.00000275,0.0000040
 0,-0.00000102,-0.00000421,-0.00000094,0.00000054,0.00000095,0.00000275
 ,0.00000004,0.00000058,0.00000233,-0.00000295,-0.00000251,0.00000861,-
 0.00000188,0.00000828,0.00000732,-0.00000126,-0.00000576,0.00000603,-0
 .00000466,0.00000491,-0.00000907,0.00000106,0.00000329,-0.00000560,0.0
 0000069,-0.00000061,0.00061265,-0.00001775,-0.00017362,0.00103612,-0.0
 0048987,-0.00024753,-0.00010473,-0.00011257,0.00003731,0.00017809,-0.0
 0072214,0.00089542,0.36032360,-0.00341720,0.00114854,-0.00053523,0.044
 57637,-0.05216285,-0.01038314,0.03200908,-0.00482979,-0.01156683,-0.00
 241855,0.00297409,0.00130488,0.00038265,-0.00005070,-0.00003383,0.0013
 3987,0.00073247,0.00137380,-0.00087288,-0.00017523,-0.00010230,0.00022
 742,0.00021639,0.00000451,-0.00231965,-0.00004452,0.00072306,0.0005965
 8,0.00058071,-0.00057777,-0.00005030,-0.00001699,-0.00005805,-0.025413
 31,0.00226339,0.00735232,0.00122859,0.00048114,-0.00136455,0.00015742,
 -0.00056589,-0.00007463,-0.00001545,0.00013091,-0.00000318,-0.00002166
 ,0.00002133,-0.00000667,0.00001002,0.00000322,-0.00000712,0.00001907,-
 0.00002355,-0.00001599,-0.00004081,0.00006282,0.00001752,-0.00000527,-
 0.00000113,0.00000247,0.00000775,-0.00000025,-0.00000293,-0.00000853,0
 .00000315,0.00000005,-0.00000606,0.00000068,0.00000756,-0.00001034,-0.
 00000699,-0.00000788,0.00000720,-0.00000146,0.00000037,0.00000115,0.00
 000269,0.00000053,-0.00000177,0.00000046,-0.00000386,0.00000084,-0.000
 00002,0.00000514,0.00000031,-0.00000036,-0.00000526,0.00000014,0.00000
 042,0.00000098,0.00000036,0.00000076,0.00000023,0.00000008,-0.00000116
 ,-0.00000028,0.00000302,0.00000323,0.00000523,-0.00000158,-0.00000783,
 0.00000836,-0.00000155,0.00000398,-0.00000295,0.00000601,-0.00000232,0
 .00000400,0.00000430,0.00000578,0.00000739,-0.00014280,0.00148729,0.00
 013829,0.00071000,-0.00027146,0.00031373,-0.00004012,-0.00013733,-0.00
 020726,-0.00093185,-0.00303671,0.00268620,-0.04554602,0.05648559,-0.04
 088887,0.00290558,-0.00593257,0.08457053,-0.01208019,-0.06694719,0.016
 15590,-0.00167190,-0.00353685,-0.00149773,-0.00044117,0.00158055,-0.00
 019564,-0.00035100,-0.00030607,0.00135079,0.00011380,0.00092713,-0.000
 53150,0.00003928,-0.00006400,0.00012457,0.00012458,0.00006049,0.000874
 20,-0.00120278,0.00024840,-0.00032714,-0.00016426,0.00002332,-0.000039
 22,-0.00003055,0.00004971,0.02081939,-0.00153037,-0.00354321,-0.000816
 31,-0.00009441,0.00140596,0.00030064,-0.00012574,-0.00016251,-0.000123
 41,0.00004747,-0.00014214,-0.00000721,-0.00003268,0.00000637,0.0000343
 5,0.00000704,0.00002920,-0.00005354,0.00001463,-0.00003763,0.00007801,
 -0.00003771,0.00001660,-0.00000254,0.00000055,0.00000037,-0.00000450,0
 .00000640,-0.00000658,0.00000528,-0.00000819,0.00000819,-0.00000909,0.
 00000796,0.00000469,-0.00001425,-0.00001656,-0.00001041,0.00000733,-0.
 00000268,0.00000113,0.00000853,-0.00000676,-0.00000729,-0.00000857,0.0
 0000897,-0.00001317,0.00000968,-0.00000856,0.00001691,0.00000062,0.000
 00384,-0.00001176,0.00000069,-0.00000209,0.00000128,-0.00000270,0.0000
 0049,-0.00000218,-0.00000415,0.00000399,0.00000422,-0.00001528,0.00000
 142,-0.00001612,-0.00001253,0.00000265,0.00001484,-0.00000859,0.000004
 18,-0.00000682,0.00000749,0.00000083,0.00000268,0.00000825,0.00000945,
 0.00000830,-0.00227355,0.00057793,0.00405987,-0.00063694,0.00039262,0.
 00015154,-0.00016131,0.00025106,0.00005637,0.00022628,0.00243666,-0.00
 232173,-0.07635101,0.01397918,0.07544173,0.00186526,-0.00032617,-0.000
 07766,-0.00917988,0.00296823,0.00067913,-0.33784370,0.02088360,0.05807
 177,-0.00300262,-0.00901889,0.00917984,0.00078121,-0.00080846,-0.00006
 687,-0.02234424,0.00365319,-0.00012971,0.00336847,-0.00003669,0.000965
 63,-0.00075587,-0.00084904,0.00003144,0.00040010,0.00021076,-0.0001573
 4,-0.00001524,0.00010914,0.00005006,-0.00000202,0.00002870,-0.00001582
 ,-0.00010582,-0.00079090,0.00066151,0.00014853,0.00084799,-0.00050310,
 -0.00110108,-0.00123459,0.00120612,0.00067400,-0.00011450,-0.00017464,
 -0.00003848,0.00011325,-0.00007689,-0.00000012,-0.00001103,-0.00004990
 ,0.00005648,-0.00000736,0.00000670,-0.00003904,-0.00001780,0.00004158,
 -0.00001763,0.00001039,0.00000397,0.00002054,-0.00000046,-0.00000106,-
 0.00001492,0.00000867,-0.00000348,0.00004305,0.00000793,-0.00006472,0.
 00002848,0.00001994,0.00002915,-0.00002172,0.00000015,0.00001006,0.000
 00026,0.00000724,0.00002914,0.00001361,-0.00000414,-0.00000927,-0.0000
 1320,-0.00000088,-0.00000675,0.00000531,-0.00000074,0.00000320,-0.0000
 0130,0.00000073,-0.00000051,0.00000472,0.00000014,0.00000161,0.0000040
 1,-0.00000518,-0.00000334,0.00001236,-0.00000441,0.00000924,0.00000938
 ,0.00001829,-0.00006411,0.00000931,-0.00001326,0.00001512,-0.00004195,
 -0.00000010,0.00002624,-0.00000832,-0.00001316,-0.00002066,0.00026390,
 -0.00038045,-0.00019151,0.00009841,-0.00025686,-0.00004384,0.00000919,
 -0.00002209,0.00000243,0.00052785,0.00059152,-0.00030818,0.00072611,0.
 00082187,0.00001592,0.36523409,-0.00134526,0.00209968,0.00206201,0.034
 52819,-0.00887039,-0.00882178,0.02245875,-0.03988115,-0.00875363,-0.03
 374117,-0.01481856,0.02338484,-0.00083436,0.00031274,-0.00111106,-0.00
 489017,0.00157643,-0.00049623,-0.00015512,0.00081206,0.00113775,-0.000
 65697,-0.00044210,0.00010396,0.00027962,0.00004949,-0.00024766,-0.0001
 9604,-0.00012952,0.00015071,-0.00000482,0.00002211,0.00000272,0.001491
 52,0.00174499,-0.00086933,-0.00019096,-0.00048800,0.00061661,0.0010611
 3,0.00027112,0.00026503,-0.00009548,-0.00005086,-0.00004820,0.00001946
 ,-0.00000241,-0.00000388,-0.00000344,-0.00000922,-0.00000571,-0.000021
 17,0.00000443,0.00002502,0.00001897,-0.00000348,-0.00002867,0.00000305
 ,0.00000505,-0.00000230,-0.00000816,-0.00000349,0.00000192,0.00000607,
 -0.00000111,0.00000009,-0.00000933,-0.00001474,0.00000437,0.00001577,0
 .00000703,0.00000323,-0.00000625,-0.00000003,-0.00000469,0.00001454,0.
 00001868,-0.00001462,-0.00000658,-0.00001159,0.00000788,0.00000290,0.0
 0000714,-0.00000705,-0.00000242,-0.00000278,0.00000698,0.00000038,0.00
 000056,-0.00000174,-0.00000080,-0.00000051,0.00000022,-0.00000152,0.00
 000066,0.00000132,-0.00000307,0.00000308,-0.00000173,-0.00000936,0.000
 00626,0.00000960,0.00000057,-0.00000491,-0.00000045,-0.00001027,0.0000
 0749,-0.00000575,-0.00000561,0.00000116,0.00000024,0.00010539,0.000210
 50,0.00046805,-0.00035058,0.00000670,0.00004722,0.00003248,0.00001901,
 0.00000623,-0.00062032,-0.00038648,0.00025356,0.00052069,-0.00522487,-
 0.00313248,-0.01671062,0.06264800,0.00006932,0.00120460,0.00165878,0.0
 1752737,-0.00665500,-0.00266181,0.05534934,-0.00895249,-0.05341323,0.0
 2661529,0.01777395,-0.01545562,0.00222841,0.00065002,0.00044466,-0.035
 31280,0.00196685,0.00222068,0.00201887,0.00157613,0.00249185,-0.000095
 80,-0.00061372,-0.00005956,-0.00003679,-0.00012034,-0.00000817,-0.0000
 3423,-0.00008694,-0.00000150,-0.00001362,-0.00001170,0.00000854,-0.000
 15947,0.00116578,0.00030342,0.00019202,0.00005284,-0.00010318,-0.00142
 857,-0.00043786,0.00106494,0.00033264,-0.00009415,-0.00001889,0.000104
 51,0.00002086,0.00002977,0.00000134,-0.00001628,-0.00002370,0.00000712
 ,0.00000067,0.00002166,-0.00000308,0.00001091,-0.00001290,-0.00000058,
 0.00000541,0.00000096,0.00000251,0.00000427,-0.00000195,0.00000157,0.0
 0000046,-0.00000226,0.00002025,0.00002192,-0.00006581,0.00000977,0.000
 00669,0.00002861,-0.00001720,-0.00001649,0.00000996,-0.00001243,-0.000
 00021,0.00004026,0.00000096,-0.00000406,-0.00001109,-0.00000337,-0.000
 00482,0.00000680,0.00000240,0.00000101,-0.00000311,-0.00000072,-0.0000
 0002,0.00000128,0.00000036,-0.00000041,-0.00000071,0.00000029,0.000002
 12,0.00000196,0.00000260,-0.00000037,0.00000407,0.00002311,0.00002115,
 -0.00005666,0.00000067,-0.00001372,0.00001068,-0.00002830,0.00000548,0
 .00000591,0.00001464,0.00000358,-0.00002920,-0.00000717,0.00035552,0.0
 0020202,-0.00012706,0.00010420,0.00001812,0.00001010,0.00001563,-0.000
 01223,-0.00030450,-0.00033710,0.00021635,0.00025927,-0.00268558,-0.001
 05924,-0.06515692,-0.00421812,0.06981510,0.00049099,-0.00021421,-0.000
 23845,-0.00069062,0.00135138,0.00044437,-0.01827772,-0.00250662,0.0005
 9737,0.00174002,0.00058808,-0.00020527,0.00020831,-0.00000978,0.000180
 43,-0.35390887,-0.00362997,0.04077338,-0.00204964,0.01031318,0.0060226
 6,-0.00063869,-0.00025225,0.00084427,-0.00015344,-0.00005432,0.0000491
 8,0.00006210,0.00003649,-0.00004545,-0.00000931,-0.00001058,-0.0000026
 2,0.00012005,-0.00003578,0.00012974,0.00111987,-0.00104057,-0.00061101
 ,-0.00996851,0.00040530,0.00187563,0.00115610,0.00041530,-0.00116147,0
 .00020700,0.00001782,0.00017377,0.00004964,0.00001597,-0.00007787,0.00
 003434,-0.00004247,-0.00000673,-0.00004113,0.00001798,-0.00001101,-0.0
 0000855,0.00003624,0.00001323,0.00001501,-0.00000156,-0.00001666,-0.00
 001308,0.00000533,0.00000008,0.00003046,-0.00001993,-0.00009753,0.0000
 6246,0.00001120,0.00005128,-0.00004356,-0.00003161,-0.00000679,0.00005
 783,0.00005010,-0.00001745,-0.00002197,-0.00004375,0.00001621,-0.00000
 158,0.00002587,0.00000605,-0.00000114,-0.00001196,0.00000237,-0.000000
 69,0.00000209,-0.00000063,0.00000237,-0.00000289,-0.00000029,0.0000017
 0,-0.00000269,0.00000049,0.00000912,-0.00001407,0.00001625,0.00004261,
 0.00010455,-0.00026822,0.00001835,-0.00003726,0.00004365,-0.00008602,0
 .00003276,-0.00001182,0.00000222,0.00001666,-0.00003452,-0.00005681,-0
 .00009264,-0.00010388,0.00007105,-0.00004676,-0.00002670,0.00002348,-0
 .00000516,-0.00000727,0.00008168,0.00015272,-0.00001182,0.00055250,-0.
 00072189,-0.00050104,-0.00039072,-0.00054138,-0.00256280,0.37992988,0.
 00009780,0.00008861,0.00011826,-0.00068794,0.00007833,0.00024937,-0.00
 235935,0.00240693,0.00107926,0.00034994,0.00055244,-0.00094761,-0.0001
 0226,0.00000055,0.00003387,-0.00340595,-0.04060639,0.00540561,0.034527
 51,-0.01493141,-0.01504520,0.00192199,-0.00033755,-0.00118917,-0.00010
 118,0.00000815,0.00000257,0.00003162,-0.00001101,-0.00001888,-0.000003
 01,-0.00000255,-0.00000223,-0.00003244,-0.00013026,0.00010449,0.001672
 69,0.00117937,-0.00043303,-0.02917651,0.00048558,0.00527585,0.00101149
 ,0.00104755,-0.00215534,-0.00035830,0.00022677,0.00011679,0.00005367,-
 0.00003166,-0.00018393,0.00007869,-0.00007450,0.00007862,-0.00004199,0
 .00006826,-0.00001182,-0.00000313,0.00004460,0.00001478,0.00001744,0.0
 0000925,-0.00000070,-0.00000135,0.00000852,-0.00001382,-0.00002652,0.0
 0004535,0.00004134,-0.00006262,-0.00000511,-0.00001802,0.00005656,0.00
 001458,0.00000154,0.00005977,-0.00004178,0.00003483,0.00002319,0.00002
 936,-0.00006476,-0.00000886,-0.00003441,-0.00000308,0.00000600,0.00000
 997,0.00000014,-0.00000007,-0.00000083,0.00000079,0.00000232,0.0000041
 3,0.00000304,0.00001191,-0.00000443,-0.00000865,0.00001845,-0.00003834
 ,0.00001776,0.00030782,-0.00008252,-0.00004912,0.00001009,0.00005697,0
 .00000756,0.00009019,-0.00004196,0.00006660,0.00000262,-0.00001229,0.0
 0002181,0.00001895,0.00004650,0.00000167,0.00002896,-0.00003985,-0.000
 02086,0.00001708,-0.00002215,-0.00000805,0.00006621,0.00002627,0.00002
 662,0.00006074,0.00001657,-0.00001597,-0.00012028,0.00040566,-0.000824
 63,-0.00355397,0.05297968,0.00050850,0.00000931,-0.00033407,-0.0007339
 3,0.00141376,0.00135313,-0.03488562,-0.00208444,0.00244843,0.00250489,
 0.00005215,0.00230142,0.00020160,-0.00036088,0.00048065,0.03882800,0.0
 0533793,-0.04822444,0.01852377,-0.01272805,-0.00479712,0.00051946,0.00
 026427,-0.00102393,0.00002902,0.00003965,0.00009096,-0.00000529,-0.000
 02929,0.00000798,0.00000681,0.00000110,0.00001116,-0.00046205,-0.00012
 557,-0.00051744,-0.00134668,0.00041541,0.00049909,0.02425773,0.0021821
 9,-0.00375926,-0.00031738,-0.00092768,0.00208970,0.00031474,-0.0001870
 5,-0.00039107,-0.00005740,0.00003045,0.00019812,-0.00006241,0.00004699
 ,-0.00009095,0.00003188,-0.00008010,0.00007255,0.00000645,-0.00005531,
 -0.00003105,-0.00003192,-0.00001976,0.00001570,0.00000883,-0.00000568,
 0.00000917,-0.00012618,-0.00010202,0.00028838,-0.00004162,-0.00004743,
 -0.00012861,0.00007742,0.00006882,-0.00004482,-0.00007745,0.00000358,-
 0.00014003,-0.00000483,0.00001925,0.00007381,0.00001772,0.00003453,-0.
 00002079,-0.00001304,-0.00000561,0.00000966,0.00000237,0.00000106,-0.0
 0000326,-0.00000349,-0.00000210,-0.00000183,-0.00000757,0.00000249,0.0
 0000660,-0.00002046,0.00003763,-0.00001786,-0.00033885,0.00003071,0.00
 007774,-0.00002140,0.00004645,-0.00008620,0.00015116,-0.00003259,-0.00
 005111,-0.00004469,-0.00000758,0.00012916,0.00005328,-0.00016708,-0.00
 008670,0.00001714,-0.00002849,0.00000670,-0.00000671,0.00004031,0.0000
 1355,0.00010869,-0.00003677,-0.00007764,0.00043279,-0.00034431,-0.0001
 0879,-0.00309530,-0.00074416,-0.00532999,-0.04557926,0.00562199,0.0572
 3718,0.00004743,-0.00004594,0.00005903,0.00001551,0.00012388,-0.000137
 06,-0.00033724,-0.00032946,-0.00027844,0.00031679,0.00002419,-0.000071
 85,-0.00003622,-0.00002209,0.00011006,-0.00679097,0.00184891,0.0049206
 6,0.00168654,0.00077225,-0.00112314,0.00015286,-0.00004483,-0.00016441
 ,0.00026467,-0.00008045,0.00020876,0.00003435,0.00005041,-0.00000825,-
 0.00001316,-0.00000906,0.00000032,0.00034358,0.00056860,0.00058639,0.0
 0746983,0.00260068,0.00158811,-0.31063112,0.03755502,0.10587277,-0.029
 63710,0.00493531,-0.00682186,-0.00079140,-0.00243540,0.00553874,0.0003
 4270,0.00013474,-0.00048686,0.00022541,-0.00026533,-0.00011282,-0.0001
 9196,-0.00004178,0.00017433,-0.00003265,0.00018706,0.00010012,0.000082
 53,0.00002141,-0.00006451,-0.00003320,0.00001217,-0.00001139,0.0001206
 0,0.00015834,-0.00056429,0.00012710,-0.00001418,0.00016258,-0.00007031
 ,-0.00009519,0.00002585,0.00081616,-0.00016141,-0.00006477,-0.00008690
 ,-0.00008092,-0.00019595,-0.00001390,-0.00004354,0.00004691,0.00001146
 ,0.00000259,-0.00002147,-0.00000124,-0.00000098,0.00000380,0.00000758,
 0.00000703,0.00000177,0.00004177,-0.00000912,-0.00004001,0.00002274,-0
 .00025697,0.00011561,0.00208929,0.00009144,-0.00104186,0.00020777,-0.0
 0000042,0.00046199,-0.00024112,0.00001362,0.00013020,0.00004882,-0.000
 00214,-0.00011600,-0.00000622,0.00000590,0.00000067,-0.00002755,-0.000
 09809,-0.00010581,-0.00005204,0.00007162,0.00003073,-0.00019134,0.0004
 1862,0.00083893,-0.00000609,-0.00012251,-0.00011182,0.00063322,-0.0001
 3822,0.00051070,0.00027293,-0.00049799,0.00068129,0.33381010,-0.000030
 88,0.00048415,-0.00031221,-0.00032526,-0.00103969,-0.00007205,-0.00141
 783,-0.00000076,-0.00155991,0.00053983,-0.00003186,0.00038911,0.000081
 56,-0.00017185,0.00002819,-0.02263912,0.00193204,0.01149356,0.00030831
 ,0.00224457,0.00027593,-0.00009753,0.00023190,-0.00005961,-0.00033507,
 0.00003676,-0.00085592,-0.00004411,-0.00016232,0.00017003,0.00000693,0
 .00007653,-0.00001414,0.00365817,0.00082465,0.00285319,0.02683107,-0.0
 2084896,-0.02437931,0.03620467,-0.04583777,-0.00920416,0.00186795,0.00
 462330,0.00088985,0.00212308,-0.00047570,0.00026360,0.00009080,-0.0002
 0013,0.00011172,-0.00048236,0.00031332,0.00032602,0.00046273,0.0002329
 4,-0.00094176,0.00002281,-0.00006218,0.00001942,0.00000182,0.00008434,
 -0.00001881,0.00001793,-0.00005532,0.00000184,-0.00003028,-0.00009507,
 0.00012157,0.00008264,-0.00005868,-0.00004970,-0.00001003,0.00001789,-
 0.00001693,-0.00013053,0.00013920,-0.00017075,-0.00003713,-0.00000392,
 0.00001155,0.00002092,-0.00000098,0.00007654,0.00000617,-0.00000103,-0
 .00004127,-0.00000048,-0.00000320,0.00000652,-0.00001254,-0.00000674,-
 0.00001300,-0.00005237,0.00003477,0.00004123,-0.00006906,0.00005905,-0
 .00002695,-0.00003200,0.00033830,0.00088903,-0.00003551,-0.00004735,-0
 .00004711,-0.00016852,-0.00002716,-0.00006335,-0.00005185,0.00008712,0
 .00009541,-0.00001375,0.00000041,-0.00001091,-0.00024320,0.00013501,0.
 00008504,-0.00015285,-0.00045979,-0.00013853,-0.00089754,0.00012818,-0
 .00027720,0.00001879,-0.00006419,0.00001547,0.00044635,0.00010616,0.00
 012395,-0.00067495,-0.00339097,0.00242191,-0.04480776,0.06091499,-0.00
 015356,0.00008922,-0.00029878,0.00010223,-0.00010968,0.00001285,0.0018
 4034,-0.00043396,0.00126576,-0.00063834,0.00011202,0.00007621,-0.00000
 071,-0.00000069,-0.00008183,0.02175311,-0.00056781,-0.00633958,-0.0019
 5993,-0.00167455,0.00121769,-0.00008223,-0.00012058,0.00006080,-0.0001
 4439,-0.00001689,-0.00025212,-0.00003005,-0.00009206,0.00006664,0.0000
 1190,0.00003970,-0.00001407,0.00178940,0.00060919,0.00255060,0.0136252
 1,-0.01525402,-0.00830638,0.11476055,-0.00995562,-0.08702048,-0.031078
 81,0.00697650,-0.00669371,-0.00886415,-0.00028760,0.00275636,0.0004391
 7,-0.00004444,-0.00057410,-0.00004848,0.00003558,0.00045232,0.00010979
 ,0.00025090,-0.00052324,-0.00000923,0.00013353,0.00008078,0.00005843,0
 .00003669,-0.00002562,0.00000558,-0.00000001,-0.00002402,0.00016335,0.
 00003984,-0.00025655,0.00006928,-0.00000680,0.00006692,-0.00000864,-0.
 00006179,0.00001556,-0.00056142,0.00007416,-0.00007557,0.00014084,0.00
 002263,-0.00006227,-0.00001671,-0.00011093,0.00005753,0.00001459,0.000
 01749,-0.00002442,-0.00000137,-0.00000599,0.00000659,-0.00000537,0.000
 00623,0.00000910,0.00003794,-0.00000592,-0.00003095,0.00011712,-0.0001
 5851,0.00001620,0.00075012,0.00014009,-0.00135602,0.00016878,-0.000117
 08,-0.00004097,-0.00021233,0.00003933,0.00008957,0.00000144,0.00007275
 ,0.00000608,-0.00001556,-0.00000841,0.00001386,-0.00018017,0.00010073,
 0.00005020,-0.00009158,-0.00018076,-0.00006183,-0.00065585,0.00015149,
 -0.00024220,-0.00012038,0.00005379,0.00011641,-0.00081830,-0.00004031,
 -0.00027556,0.00036615,0.00268968,-0.00215387,-0.11062776,0.01756289,0
 .10574612\\0.00178355,-0.00764512,0.01161471,0.01885298,0.00882180,0.0
 2582339,0.01609673,-0.00044119,-0.01875256,0.00616757,0.02209816,0.014
 93850,-0.01845328,-0.01064619,-0.01675487,-0.00277407,-0.01247949,-0.0
 1056422,0.01036488,-0.02041730,0.03440168,-0.00791322,0.01460563,-0.02
 221446,0.00213695,0.02142927,0.02789545,0.01129748,0.00781901,-0.00027
 840,-0.00011539,-0.03230230,-0.01253937,-0.03517635,-0.00195272,-0.041
 23100,-0.00606909,-0.00193479,-0.02260661,-0.02378082,0.01824001,0.005
 63349,0.02081512,0.01572465,0.01700232,0.00316076,-0.02573755,-0.00704
 168,0.00971070,0.02704271,0.04083436,-0.00450374,0.00307079,0.00676086
 ,0.00531133,-0.00060528,-0.02511425,0.03565971,-0.01217229,-0.00282884
 ,-0.02220039,0.01590878,0.02952852,-0.01204248,-0.00235563,-0.02222022
 ,0.06104976,-0.03364775,0.09315658,-0.03534702,-0.05063865,-0.01731353
 ,-0.01081260,0.02324741,0.00526953,-0.07191171,-0.02211718,0.00576277,
 -0.00922927,0.00015318,-0.00677969,0.06495885,-0.00818418,-0.02766264,
 -0.01596811,0.01165657,0.01685741,-0.00396191,-0.00090450,-0.00427565,
 -0.01860076,0.00311613,-0.00437536,0.01320372,-0.01567724,-0.00538143,
 -0.02090858,0.00782207,0.00430453,0.01816570,-0.00335508,-0.00097621,-
 0.02679028,0.02420647,-0.00259509,0.02578674,0.00027414,-0.00608990,0.
 01609352,0.04237420,-0.08058535,-0.00124912,0.00018017,0.00525638,-0.0
 1879544,-0.00591820,0.00056476,0.00552444,0.00219157,0.02024606,0.0189
 5721,-0.00236239,-0.00063488,-0.01864783,0.00330793,0.00351097,0.02397
 864,0.00119027,-0.00543661,-0.02114813,0.00103345,0.00140253,0.0173232
 5,-0.00401937,-0.00651198\\\@


 WORK FAITHFULLY FOR EIGHT HOURS A DAY AND DON'T WORRY.
 IN TIME YOU MAY BECOME BOSS AND WORK TWELVE HOURS A DAY
 AND HAVE ALL THE WORRY.
 Job cpu time:  0 days 13 hours 56 minutes 46.2 seconds.
 File lengths (MBytes):  RWF=   1332 Int=      0 D2E=      0 Chk=     19 Scr=      1
 Normal termination of Gaussian 09 at Thu Jan 21 19:03:31 2016.
Gaussian '09 finished on node014 at Thu Jan 21 19:03:31 EST 2016.
