Gaussian '09 started on node011 at Tue Mar  1 03:30:58 EST 2016.
 Entering Gaussian System, Link 0=/usr/local/gaussian/g09/g09
 Initial command:
 /usr/local/gaussian/g09/l1.exe /home/srmcgrat/thesis/gaussian/cellobiose/500/6000/2/gdp/gaussian26069/Gau-26105.inp -scrdir=/home/srmcgrat/thesis/gaussian/cellobiose/500/6000/2/gdp/gaussian26069/
 Entering Link 1 = /usr/local/gaussian/g09/l1.exe PID=     26107.
  
 Copyright (c) 1988,1990,1992,1993,1995,1998,2003,2009,2010,
            Gaussian, Inc.  All Rights Reserved.
  
 This is part of the Gaussian(R) 09 program.  It is based on
 the Gaussian(R) 03 system (copyright 2003, Gaussian, Inc.),
 the Gaussian(R) 98 system (copyright 1998, Gaussian, Inc.),
 the Gaussian(R) 94 system (copyright 1995, Gaussian, Inc.),
 the Gaussian 92(TM) system (copyright 1992, Gaussian, Inc.),
 the Gaussian 90(TM) system (copyright 1990, Gaussian, Inc.),
 the Gaussian 88(TM) system (copyright 1988, Gaussian, Inc.),
 the Gaussian 86(TM) system (copyright 1986, Carnegie Mellon
 University), and the Gaussian 82(TM) system (copyright 1983,
 Carnegie Mellon University). Gaussian is a federally registered
 trademark of Gaussian, Inc.
  
 This software contains proprietary and confidential information,
 including trade secrets, belonging to Gaussian, Inc.
  
 This software is provided under written license and may be
 used, copied, transmitted, or stored only in accord with that
 written license.
  
 The following legend is applicable only to US Government
 contracts under FAR:
  
                    RESTRICTED RIGHTS LEGEND
  
 Use, reproduction and disclosure by the US Government is
 subject to restrictions as set forth in subparagraphs (a)
 and (c) of the Commercial Computer Software - Restricted
 Rights clause in FAR 52.227-19.
  
 Gaussian, Inc.
 340 Quinnipiac St., Bldg. 40, Wallingford CT 06492
  
  
 ---------------------------------------------------------------
 Warning -- This program may not be used in any manner that
 competes with the business of Gaussian, Inc. or will provide
 assistance to any competitor of Gaussian, Inc.  The licensee
 of this program is prohibited from giving any competitor of
 Gaussian, Inc. access to this program.  By using this program,
 the user acknowledges that Gaussian, Inc. is engaged in the
 business of creating and licensing software in the field of
 computational chemistry and represents and warrants to the
 licensee that it is not a competitor of Gaussian, Inc. and that
 it will not use this program in any manner prohibited above.
 ---------------------------------------------------------------
  

 Cite this work as:
 Gaussian 09, Revision B.01,
 M. J. Frisch, G. W. Trucks, H. B. Schlegel, G. E. Scuseria, 
 M. A. Robb, J. R. Cheeseman, G. Scalmani, V. Barone, B. Mennucci, 
 G. A. Petersson, H. Nakatsuji, M. Caricato, X. Li, H. P. Hratchian, 
 A. F. Izmaylov, J. Bloino, G. Zheng, J. L. Sonnenberg, M. Hada, 
 M. Ehara, K. Toyota, R. Fukuda, J. Hasegawa, M. Ishida, T. Nakajima, 
 Y. Honda, O. Kitao, H. Nakai, T. Vreven, J. A. Montgomery, Jr., 
 J. E. Peralta, F. Ogliaro, M. Bearpark, J. J. Heyd, E. Brothers, 
 K. N. Kudin, V. N. Staroverov, T. Keith, R. Kobayashi, J. Normand, 
 K. Raghavachari, A. Rendell, J. C. Burant, S. S. Iyengar, J. Tomasi, 
 M. Cossi, N. Rega, J. M. Millam, M. Klene, J. E. Knox, J. B. Cross, 
 V. Bakken, C. Adamo, J. Jaramillo, R. Gomperts, R. E. Stratmann, 
 O. Yazyev, A. J. Austin, R. Cammi, C. Pomelli, J. W. Ochterski, 
 R. L. Martin, K. Morokuma, V. G. Zakrzewski, G. A. Voth, 
 P. Salvador, J. J. Dannenberg, S. Dapprich, A. D. Daniels, 
 O. Farkas, J. B. Foresman, J. V. Ortiz, J. Cioslowski, 
 and D. J. Fox, Gaussian, Inc., Wallingford CT, 2010.
 
 ******************************************
 Gaussian 09:  EM64L-G09RevB.01 12-Aug-2010
                 1-Mar-2016 
 ******************************************
 ------------------------------------------------
 # freq=raman b3lyp/6-31+g(d,p) geom=connectivity
 ------------------------------------------------
 1/10=4,30=1,38=1,57=2/1,3;
 2/12=2,17=6,18=5,40=1/2;
 3/5=1,6=6,7=111,11=2,16=1,25=1,30=1,71=2,74=-5/1,2,3;
 4//1;
 5/5=2,38=5,98=1/2;
 8/6=4,10=90,11=11/1;
 10/13=10,15=4/2;
 11/6=3,8=1,9=11,15=111,16=1/1,2,10;
 10/6=1/2;
 6/7=2,8=2,9=2,10=2,18=1,28=1/1;
 7/8=1,10=1,25=1/1,2,3,16;
 1/10=4,30=1/3;
 99//99;
 ------------
 500 6000.com
 ------------
 Symbolic Z-matrix:
 Charge =  0 Multiplicity = 1
 O                     8.7       6.659     22.895 
 C                     9.543     6.992     24.008 
 C                     9.326     8.419     24.484 
 O                     10.132    9.072     23.493 
 H                     9.665     8.935     22.62 
 C                     9.978     8.715     25.825 
 O                     9.764     10.027    26.365 
 H                     10.196    10.82     25.934 
 C                     9.604     4.64      24.734 
 O                     8.947     3.558     25.41 
 H                     8.793     2.845     24.725 
 C                     9.076     6.022     25.081 
 O                     9.733     6.355     26.313 
 C                     9.423     7.674     26.784 
 O                     10.156    7.464     28. 
 C                     9.422     7.362     29.228 
 C                     9.357     5.918     29.701 
 O                     8.863     4.946     28.768 
 H                     9.274     5.102     27.87 
 C                     8.527     5.79      30.968 
 O                     8.679     4.413     31.342 
 H                     8.242     3.974     30.556 
 C                     10.304    9.548     29.868 
 O                     10.8      10.326    30.967 
 H                     10.665    11.286    30.722 
 C                     9.989     8.157     30.393 
 O                     9.229     7.951     31.592 
 C                     9.28      6.583     32.023 
 O                     8.71      6.657     33.338 
 H                     9.41355   6.6937    33.99013 
 H                     10.29629   6.25293   32.07871 
 H                     7.50789   6.09261   30.84659 
 H                     10.3568   5.62942   29.95005 
 H                     8.42322   7.70076   29.04749 
 H                     10.94331   7.71909   30.59897 
 H                     11.04815   9.48678   29.10158 
 H                     9.41566   9.99796   29.47648 
 H                     9.24462   6.4324    22.13761 
 H                     10.64556   4.60631   24.97672 
 H                     9.49708   4.49324   23.67952 
 H                     8.01112   6.0252    25.18553 
 H                     10.57193   6.8232    23.76776 
 H                     8.30023   8.72017   24.43931 
 H                     11.03219   8.55902   25.7288 
 H                     8.37491   7.7959    26.96164 
 

 GradGradGradGradGradGradGradGradGradGradGradGradGradGradGradGradGradGrad
 Berny optimization.
 Initialization pass.
 Trust Radius=3.00D-01 FncErr=1.00D-07 GrdErr=1.00D-07
 Number of steps in this run=      2 maximum allowed number of steps=      2.
 GradGradGradGradGradGradGradGradGradGradGradGradGradGradGradGradGradGrad

                          Input orientation:                          
 ---------------------------------------------------------------------
 Center     Atomic      Atomic             Coordinates (Angstroms)
 Number     Number       Type             X           Y           Z
 ---------------------------------------------------------------------
      1          8           0        8.700000    6.659000   22.895000
      2          6           0        9.543000    6.992000   24.008000
      3          6           0        9.326000    8.419000   24.484000
      4          8           0       10.132000    9.072000   23.493000
      5          1           0        9.665000    8.935000   22.620000
      6          6           0        9.978000    8.715000   25.825000
      7          8           0        9.764000   10.027000   26.365000
      8          1           0       10.196000   10.820000   25.934000
      9          6           0        9.604000    4.640000   24.734000
     10          8           0        8.947000    3.558000   25.410000
     11          1           0        8.793000    2.845000   24.725000
     12          6           0        9.076000    6.022000   25.081000
     13          8           0        9.733000    6.355000   26.313000
     14          6           0        9.423000    7.674000   26.784000
     15          8           0       10.156000    7.464000   28.000000
     16          6           0        9.422000    7.362000   29.228000
     17          6           0        9.357000    5.918000   29.701000
     18          8           0        8.863000    4.946000   28.768000
     19          1           0        9.274000    5.102000   27.870000
     20          6           0        8.527000    5.790000   30.968000
     21          8           0        8.679000    4.413000   31.342000
     22          1           0        8.242000    3.974000   30.556000
     23          6           0       10.304000    9.548000   29.868000
     24          8           0       10.800000   10.326000   30.967000
     25          1           0       10.665000   11.286000   30.722000
     26          6           0        9.989000    8.157000   30.393000
     27          8           0        9.229000    7.951000   31.592000
     28          6           0        9.280000    6.583000   32.023000
     29          8           0        8.710000    6.657000   33.338000
     30          1           0        9.413549    6.693698   33.990129
     31          1           0       10.296294    6.252934   32.078711
     32          1           0        7.507890    6.092615   30.846594
     33          1           0       10.356800    5.629423   29.950045
     34          1           0        8.423221    7.700758   29.047488
     35          1           0       10.943310    7.719088   30.598974
     36          1           0       11.048149    9.486776   29.101584
     37          1           0        9.415658    9.997960   29.476484
     38          1           0        9.244619    6.432395   22.137610
     39          1           0       10.645563    4.606313   24.976718
     40          1           0        9.497076    4.493235   23.679520
     41          1           0        8.011123    6.025197   25.185530
     42          1           0       10.571926    6.823197   23.767758
     43          1           0        8.300231    8.720165   24.439306
     44          1           0       11.032189    8.559018   25.728801
     45          1           0        8.374913    7.795896   26.961639
 ---------------------------------------------------------------------
                    Distance matrix (angstroms):
                    1          2          3          4          5
     1  O    0.000000
     2  C    1.435377   0.000000
     3  C    2.452427   1.519866   0.000000
     4  O    2.868937   2.222284   1.434617   0.000000
     5  H    2.487373   2.390957   1.963587   0.999493   0.000000
     6  C    3.800700   2.541543   1.520198   2.364189   3.227754
     7  O    4.951406   3.849093   2.513099   3.048907   3.902216
     8  H    5.365394   4.334682   2.936699   3.003012   3.849387
     9  C    2.876717   2.462255   3.797450   4.632655   4.787457
    10  O    4.000304   3.756751   4.962906   5.956787   6.100144
    11  H    4.231329   4.274833   5.604609   6.487393   6.502270
    12  C    2.307757   1.519973   2.482845   3.597135   3.858628
    13  O    3.583606   2.398936   2.787649   3.936202   4.505471
    14  C    4.083782   2.861066   2.419594   3.645239   4.357474
    15  O    5.369263   4.066278   3.736734   4.785320   5.599047
    16  C    6.412674   5.234495   4.861276   6.026477   6.796988
    17  C    6.877672   5.796406   5.785590   7.006255   7.703098
    18  O    6.119891   5.225525   5.534325   6.816147   7.372464
    19  H    5.244459   4.308074   4.740273   5.971197   6.512086
    20  C    8.121479   7.135731   7.042180   8.320047   8.993062
    21  O    8.740524   7.822103   7.968614   9.242526   9.873903
    22  H    8.130800   7.326475   7.602780   8.913342   9.466602
    23  C    7.716338   6.438312   5.587359   6.395059   7.301890
    24  O    9.111206   7.818138   6.916546   7.607852   8.537887
    25  H    9.302273   8.048299   6.994659   7.579204   8.495270
    26  C    7.754065   6.505718   5.951848   6.961873   7.818554
    27  O    8.808343   7.650839   7.124051   8.225926   9.036323
    28  C    9.146724   8.029737   7.759480   8.926473   9.700337
    29  O   10.443005   9.373101   9.048614  10.236129  10.998947
    30  H   11.118104   9.987424   9.661823  10.787131  11.591656
    31  H    9.330251   8.139413   7.956943   9.038172   9.851864
    32  H    8.060383   7.191449   7.014285   8.356916   8.967114
    33  H    7.319746   6.150349   6.222696   7.320882   8.070625
    34  H    6.246197   5.210824   4.707049   5.970977   6.661679
    35  H    8.093667   6.777202   6.363842   7.278974   8.171692
    36  H    7.213308   5.868047   5.042621   5.698033   6.650450
    37  H    7.414630   6.241500   5.236988   6.096935   6.942868
    38  H    0.960000   1.974981   3.075511   3.097102   2.583109
    39  H    3.511736   2.800993   4.064554   4.733659   5.025252
    40  H    2.437487   2.520681   4.010996   4.626338   4.569470
    41  H    2.474427   2.160540   2.819812   4.079925   4.217133
    42  H    2.071901   1.070000   2.147539   2.307843   2.568964
    43  H    2.606357   2.171878   1.070000   2.091569   2.284430
    44  H    4.132748   2.763039   2.116652   2.464204   3.416901
    45  H    4.235063   3.276378   2.726081   4.092340   4.670301
                    6          7          8          9         10
     6  C    0.000000
     7  O    1.434831   0.000000
     8  H    2.119063   1.000617   0.000000
     9  C    4.235066   5.630766   6.323200   0.000000
    10  O    5.275399   6.589953   7.387234   1.435043   0.000000
    11  H    6.088606   7.430583   8.187229   1.969728   1.000655
    12  C    2.935880   4.261693   5.000281   1.519578   2.489212
    13  O    2.422348   3.672499   4.504912   2.334761   3.042436
    14  C    1.520325   2.414219   3.349231   3.666117   4.365307
    15  O    2.515414   3.065266   3.941154   4.352750   4.840105
    16  C    3.704073   3.926316   4.838107   5.257228   5.410468
    17  C    4.819982   5.308336   6.238895   5.134723   4.914304
    18  O    4.910177   5.692343   6.656750   4.112891   3.634524
    19  H    4.210868   5.173079   6.106857   3.186980   2.922750
    20  C    6.091919   6.377299   7.309420   6.430022   6.004131
    21  O    7.115609   7.580551   8.520411   6.676288   5.999289
    22  H    6.919042   7.517963   8.488152   6.016169   5.210700
    23  C    4.140775   3.576598   4.135941   7.136976   7.589158
    24  O    5.450795   4.726637   5.093127   8.521226   8.950960
    25  H    5.573385   4.623887   4.833432   9.008395   9.533669
    26  C    4.601968   4.446606   5.197798   6.673964   6.860529
    27  O    5.865406   5.649560   6.417103   7.624665   7.589143
    28  C    6.591497   6.641412   7.474433   7.550480   7.279649
    29  O    7.892297   7.816044   8.623107   8.882361   8.515466
    30  H    8.430516   8.329244   9.085142   9.483136   9.147069
    31  H    6.728445   6.868289   7.656737   7.551530   7.318126
    32  H    6.180191   6.376057   7.328553   6.623260   6.168620
    33  H    5.165295   5.704617   6.564798   5.362163   5.185590
    34  H    3.718932   3.795370   4.750392   5.419286   5.537879
    35  H    4.971368   4.964249   5.651205   6.758140   6.944448
    36  H    3.532260   3.070794   3.540796   6.682260   7.293353
    37  H    3.910952   3.131057   3.719391   7.157818   7.630794
    38  H    4.398293   5.573308   5.879522   3.175386   4.365692
    39  H    4.248121   5.664656   6.303047   1.070000   2.042501
    40  H    4.760007   6.156753   6.752713   1.070000   2.042501
    41  H    3.393018   4.525280   5.322033   2.158682   2.648266
    42  H    2.857256   4.202709   4.561618   2.576209   3.999857
    43  H    2.176025   2.749315   3.199587   4.293531   5.292306
    44  H    1.070000   2.041574   2.419372   4.288130   5.427691
    45  H    2.169467   2.695063   3.676630   4.053727   4.549134
                   11         12         13         14         15
    11  H    0.000000
    12  C    3.209385   0.000000
    13  O    3.965532   1.435396   0.000000
    14  C    5.287308   2.397858   1.434469   0.000000
    15  O    5.823964   3.430208   2.062712   1.435286   0.000000
    16  C    6.409051   4.371833   3.099677   2.463835   1.434275
    17  C    5.875543   4.629706   3.436697   3.405405   2.433499
    18  O    4.556857   3.846702   2.961285   3.419333   2.932916
    19  H    3.900825   2.943489   2.050595   2.795851   2.524652
    20  C    6.907882   5.917093   4.841765   4.675268   3.776896
    21  O    6.801199   6.476620   5.493007   5.653585   4.760157
    22  H    5.964797   5.904700   5.088742   5.414125   4.730394
    23  C    8.582761   6.070917   4.812413   3.714713   2.802567
    24  O    9.947662   7.492769   6.210237   5.140693   4.172394
    25  H   10.522304   7.877531   6.680020   5.486069   4.719751
    26  C    7.859643   5.797339   4.467565   3.684905   2.496915
    27  O    8.568373   6.792464   5.537967   4.819879   3.741519
    28  C    8.214050   6.967618   5.732477   5.353303   4.210471
    29  O    9.419236   8.289465   7.105516   6.670650   5.588954
    30  H   10.051874   8.940788   7.691233   7.272508   6.084919
    31  H    8.243238   7.107067   5.794060   5.551219   4.257023
    32  H    7.047867   5.975453   5.057019   4.761628   4.122655
    33  H    6.123690   5.049967   3.760810   3.882798   2.684897
    34  H    6.511453   4.356303   3.317229   2.474601   2.038580
    35  H    7.929952   6.067536   4.657807   4.106995   2.727562
    36  H    8.267610   5.662079   4.394751   3.361319   2.470028
    37  H    8.609828   5.936657   4.835234   3.556727   3.024742
    38  H    4.446117   2.976643   4.204568   4.812727   6.021831
    39  H    2.568574   2.116264   2.382505   3.764523   4.188828
    40  H    2.074953   2.116264   3.233735   4.445284   5.284522
    41  H    3.307124   1.070000   2.084423   2.695748   3.819934
    42  H    4.461720   2.145767   2.720527   3.337906   4.300639
    43  H    5.902712   2.879876   3.340294   2.802260   4.207181
    44  H    6.218648   3.268453   2.624286   2.118063   2.669291
    45  H    5.448735   2.678625   2.083582   1.070000   2.088210
                   16         17         18         19         20
    16  C    0.000000
    17  C    1.520885   0.000000
    18  O    2.522129   1.435029   0.000000
    19  H    2.640770   2.006317   0.999830   0.000000
    20  C    2.509942   1.520057   2.380175   3.260208   0.000000
    21  O    3.703734   2.327572   2.635037   3.589363   1.434960
    22  H    3.825510   2.398622   2.127761   3.090632   1.883833
    23  C    2.442564   3.755209   4.946199   4.981949   4.300034
    24  O    3.702472   4.807855   6.126334   6.261810   5.073640
    25  H    4.378911   5.618606   6.874658   6.950586   5.902336
    26  C    1.520112   2.427222   3.770812   4.026137   2.840908
    27  O    2.443904   2.779452   4.139922   4.687442   2.356290
    28  C    2.905001   2.416576   3.667245   4.409173   1.519501
    29  O    4.230375   3.767293   4.882195   5.712718   2.530233
    30  H    4.808801   4.359074   5.534273   6.325263   3.276568
    31  H    3.181347   2.578364   3.837084   4.481404   2.139716
    32  H    2.809805   2.182220   2.733423   3.600080   1.070000
    33  H    2.096908   1.070000   2.023792   2.403585   2.100044
    34  H    1.070000   2.115950   2.803606   2.977221   2.711112
    35  H    2.078814   2.562549   3.920482   4.133164   3.113859
    36  H    2.678622   3.994427   5.050228   4.887808   4.848284
    37  H    2.647653   4.086554   5.131245   5.154734   4.552061
    38  H    7.153269   7.581695   6.805665   5.884821   8.882761
    39  H    5.211940   5.069493   4.203182   3.240057   6.464123
    40  H    6.246685   6.189329   5.147783   4.240339   7.466230
    41  H    4.485441   4.712997   3.837245   3.107013   5.810198
    42  H    5.605969   6.123626   5.607738   4.634169   7.555972
    43  H    5.102408   6.054281   5.770496   5.080257   7.159689
    44  H    4.033603   5.055650   5.195768   4.430230   6.433711
    45  H    2.533979   3.463392   3.409263   2.981703   4.483044
                   21         22         23         24         25
    21  O    0.000000
    22  H    1.000743   0.000000
    23  C    5.584042   5.982864   0.000000
    24  O    6.293078   6.860043   1.434957   0.000000
    25  H    7.180997   7.704793   1.969843   0.999925   0.000000
    26  C    4.078509   4.536085   1.519780   2.385741   3.218052
    27  O    3.589212   4.226582   2.584223   2.915354   3.733794
    28  C    2.352416   3.168030   3.805762   4.175594   5.072380
    29  O    3.003417   3.893204   4.789532   4.842654   5.665079
    30  H    3.571237   4.534592   5.092336   4.924954   5.773737
    31  H    2.558073   3.425246   3.967967   4.251998   5.225740
    32  H    2.106663   2.260949   4.551435   5.364143   6.078990
    33  H    2.496444   2.753177   3.919792   4.825812   5.717322
    34  H    4.017407   4.024571   2.760955   4.028089   4.547914
    35  H    4.075464   4.617858   2.070739   2.636659   3.579868
    36  H    6.031213   6.354565   1.070000   2.060498   2.451481
    37  H    5.934188   6.231446   1.070000   2.060498   2.184311
    38  H    9.440269   8.827131   8.401679   9.774329   9.963268
    39  H    6.664950   6.107808   6.961435   8.283849   8.810611
    40  H    7.706444   7.009336   8.031130   9.424761   9.854046
    41  H    6.399012   5.753491   6.292293   7.726586   8.085271
    42  H    8.170763   7.721834   6.686501   8.009416   8.263580
    43  H    8.145080   7.742314   5.845607   7.172053   7.186647
    44  H    7.364439   7.218684   4.317559   5.533070   5.701166
    45  H    5.542925   5.248236   3.903611   5.322161   5.618331
                   26         27         28         29         30
    26  C    0.000000
    27  O    1.434447   0.000000
    28  C    2.374249   1.435195   0.000000
    29  O    3.543849   2.234348   1.435131   0.000000
    30  H    3.925778   2.714017   1.974762   0.960000   0.000000
    31  H    2.561546   2.063839   1.070000   2.065286   2.151053
    32  H    3.259347   2.640349   2.182838   2.823243   3.724868
    33  H    2.592322   3.059031   2.523083   3.904626   4.283069
    34  H    2.114290   2.680754   3.291978   4.424948   5.140488
    35  H    1.070000   1.994678   2.466809   3.690253   3.858953
    36  H    2.134914   3.445299   4.482515   5.605515   5.862685
    37  H    2.134914   2.949626   4.262053   5.154733   5.593849
    38  H    8.466394   9.575589   9.886601  11.215392  11.856603
    39  H    6.509575   7.546889   7.444605   8.823988   9.333628
    40  H    7.663940   8.639175   8.603946   9.929129  10.543133
    41  H    5.964422   6.799617   6.976545   8.206727   8.940618
    42  H    6.783264   8.018364   8.359174   9.751099  10.288609
    43  H    6.214143   7.253638   7.939763   9.143923   9.826712
    44  H    4.796312   6.164274   6.825815   8.179862   8.622584
    45  H    3.809188   4.711026   5.282772   6.485935   7.189804
                   31         32         33         34         35
    31  H    0.000000
    32  H    3.052705   0.000000
    33  H    2.218928   3.022356   0.000000
    34  H    3.846154   2.580841   2.973847   0.000000
    35  H    2.181251   3.809047   2.265349   2.959441   0.000000
    36  H    4.459406   5.205653   4.009617   3.175379   2.319027
    37  H    4.644601   4.557247   4.493787   2.538918   2.964281
    38  H    9.998186   8.886962   7.931952   7.073179   8.725584
    39  H    7.298743   6.819790   5.085678   5.575443   6.433334
    40  H    8.618683   7.608011   6.430360   6.344797   7.770236
    41  H    7.265659   5.683787   5.325358   4.229899   6.385324
    42  H    8.335053   7.748032   6.300164   5.767374   6.899715
    43  H    8.272364   6.970307   6.644578   4.721193   6.777134
    44  H    6.795654   6.685479   5.182430   4.307785   4.942870
    45  H    5.679512   4.329639   4.189517   2.088577   4.453400
                   36         37         38         39         40
    36  H    0.000000
    37  H    1.751253   0.000000
    38  H    7.815299   8.160979   0.000000
    39  H    6.402774   7.129545   3.654826   0.000000
    40  H    7.532599   7.994586   2.490294   1.736240   0.000000
    41  H    6.044960   6.013971   3.313177   2.999518   2.612093
    42  H    5.980898   6.633674   2.138189   2.526180   2.567452
    43  H    5.465857   5.315082   3.379876   4.765834   4.458324
    44  H    3.498093   4.327684   4.540329   4.042151   4.804864
    45  H    3.818983   3.500954   5.087905   4.389670   4.789480
                   41         42         43         44         45
    41  H    0.000000
    42  H    3.033908   0.000000
    43  H    2.811279   3.034809   0.000000
    44  H    3.980231   2.659061   3.025287   0.000000
    45  H    2.534222   3.996734   2.687381   3.027104   0.000000
 Stoichiometry    C12H22O11
 Framework group  C1[X(C12H22O11)]
 Deg. of freedom   129
 Full point group                 C1      NOp   1
 Largest Abelian subgroup         C1      NOp   1
 Largest concise Abelian subgroup C1      NOp   1
                         Standard orientation:                         
 ---------------------------------------------------------------------
 Center     Atomic      Atomic             Coordinates (Angstroms)
 Number     Number       Type             X           Y           Z
 ---------------------------------------------------------------------
      1          8           0       -4.960231   -0.554971    0.726139
      2          6           0       -3.855437   -0.040864   -0.032433
      3          6           0       -3.357720    1.288834    0.509947
      4          8           0       -4.351801    2.124223   -0.100015
      5          1           0       -5.219586    1.887881    0.335966
      6          6           0       -2.022657    1.719383   -0.075916
      7          8           0       -1.462497    2.937527    0.435048
      8          1           0       -1.889383    3.814574    0.211908
      9          6           0       -3.161180   -2.317092   -0.664487
     10          8           0       -2.489821   -3.530682   -0.295942
     11          1           0       -3.181745   -4.253511   -0.304363
     12          6           0       -2.788473   -1.104045    0.171409
     13          8           0       -1.561979   -0.635371   -0.408607
     14          6           0       -1.069310    0.567322    0.198442
     15          8           0        0.132985    0.526937   -0.584438
     16          6           0        1.370161    0.241625    0.082746
     17          6           0        1.825167   -1.180528   -0.206287
     18          8           0        0.886886   -2.233648    0.058057
     19          1           0       -0.014921   -1.975923   -0.288330
     20          6           0        3.102401   -1.514333    0.547250
     21          8           0        3.456125   -2.818783    0.065171
     22          1           0        2.670941   -3.342054    0.398577
     23          6           0        2.025670    2.568878   -0.264122
     24          8           0        3.127357    3.432549   -0.579495
     25          1           0        2.896915    4.334905   -0.215487
     26          6           0        2.537017    1.138123   -0.298667
     27          8           0        3.744222    0.745881    0.369496
     28          6           0        4.156530   -0.574428   -0.013350
     29          8           0        5.480587   -0.650528    0.534995
     30          1           0        6.122771   -0.453174   -0.150754
     31          1           0        4.193044   -0.653215   -1.079821
     32          1           0        2.999888   -1.462272    1.611055
     33          1           0        2.055761   -1.224734   -1.250209
     34          1           0        1.208727    0.334175    1.136441
     35          1           0        2.723265    0.938446   -1.333240
     36          1           0        1.247709    2.693856   -0.988040
     37          1           0        1.653108    2.797686    0.712476
     38          1           0       -5.728407   -0.638246    0.156428
     39          1           0       -2.934195   -2.103753   -1.688139
     40          1           0       -4.215808   -2.475415   -0.577344
     41          1           0       -2.668333   -1.355744    1.204421
     42          1           0       -4.112899    0.042688   -1.067629
     43          1           0       -3.383458    1.337195    1.578543
     44          1           0       -2.136305    1.820083   -1.135088
     45          1           0       -0.874771    0.434225    1.242157
 ---------------------------------------------------------------------
 Rotational constants (GHZ):      0.3892840      0.1510580      0.1122383
 Standard basis: 6-31+G(d,p) (6D, 7F)
 There are   547 symmetry adapted basis functions of A   symmetry.
 Integral buffers will be    131072 words long.
 Raffenetti 2 integral format.
 Two-electron integral symmetry is turned on.
   547 basis functions,   890 primitive gaussians,   547 cartesian basis functions
    91 alpha electrons       91 beta electrons
       nuclear repulsion energy      2286.5768227852 Hartrees.
 NAtoms=   45 NActive=   45 NUniq=   45 SFac= 1.00D+00 NAtFMM=   50 NAOKFM=F Big=F
 One-electron integrals computed using PRISM.
 NBasis=   547 RedAO= T  NBF=   547
 NBsUse=   547 1.00D-06 NBFU=   547
 Harris functional with IExCor=  402 diagonalized for initial guess.
 ExpMin= 4.38D-02 ExpMax= 5.48D+03 ExpMxC= 8.25D+02 IAcc=2 IRadAn=         0 AccDes= 0.00D+00
 HarFok:  IExCor=  402 AccDes= 0.00D+00 IRadAn=         0 IDoV= 1
 ScaDFX=  1.000000  1.000000  1.000000  1.000000
 FoFCou: FMM=F IPFlag=           0 FMFlag=      100000 FMFlg1=           0
         NFxFlg=           0 DoJE=T BraDBF=F KetDBF=T FulRan=T
         Omega=  0.000000  0.000000  1.000000  0.000000  0.000000 ICntrl=     500 IOpCl=  0
         NMat0=    1 NMatS0=    1 NMatT0=    0 NMatD0=    1 NMtDS0=    0 NMtDT0=    0
         I1Cent=           4 NGrid=           0.
 Petite list used in FoFCou.
 Initial guess orbital symmetries:
       Occupied  (A) (A) (A) (A) (A) (A) (A) (A) (A) (A) (A) (A)
                 (A) (A) (A) (A) (A) (A) (A) (A) (A) (A) (A) (A)
                 (A) (A) (A) (A) (A) (A) (A) (A) (A) (A) (A) (A)
                 (A) (A) (A) (A) (A) (A) (A) (A) (A) (A) (A) (A)
                 (A) (A) (A) (A) (A) (A) (A) (A) (A) (A) (A) (A)
                 (A) (A) (A) (A) (A) (A) (A) (A) (A) (A) (A) (A)
                 (A) (A) (A) (A) (A) (A) (A) (A) (A) (A) (A) (A)
                 (A) (A) (A) (A) (A) (A) (A)
       Virtual   (A) (A) (A) (A) (A) (A) (A) (A) (A) (A) (A) (A)
                 (A) (A) (A) (A) (A) (A) (A) (A) (A) (A) (A) (A)
                 (A) (A) (A) (A) (A) (A) (A) (A) (A) (A) (A) (A)
                 (A) (A) (A) (A) (A) (A) (A) (A) (A) (A) (A) (A)
                 (A) (A) (A) (A) (A) (A) (A) (A) (A) (A) (A) (A)
                 (A) (A) (A) (A) (A) (A) (A) (A) (A) (A) (A) (A)
                 (A) (A) (A) (A) (A) (A) (A) (A) (A) (A) (A) (A)
                 (A) (A) (A) (A) (A) (A) (A) (A) (A) (A) (A) (A)
                 (A) (A) (A) (A) (A) (A) (A) (A) (A) (A) (A) (A)
                 (A) (A) (A) (A) (A) (A) (A) (A) (A) (A) (A) (A)
                 (A) (A) (A) (A) (A) (A) (A) (A) (A) (A) (A) (A)
                 (A) (A) (A) (A) (A) (A) (A) (A) (A) (A) (A) (A)
                 (A) (A) (A) (A) (A) (A) (A) (A) (A) (A) (A) (A)
                 (A) (A) (A) (A) (A) (A) (A) (A) (A) (A) (A) (A)
                 (A) (A) (A) (A) (A) (A) (A) (A) (A) (A) (A) (A)
                 (A) (A) (A) (A) (A) (A) (A) (A) (A) (A) (A) (A)
                 (A) (A) (A) (A) (A) (A) (A) (A) (A) (A) (A) (A)
                 (A) (A) (A) (A) (A) (A) (A) (A) (A) (A) (A) (A)
                 (A) (A) (A) (A) (A) (A) (A) (A) (A) (A) (A) (A)
                 (A) (A) (A) (A) (A) (A) (A) (A) (A) (A) (A) (A)
                 (A) (A) (A) (A) (A) (A) (A) (A) (A) (A) (A) (A)
                 (A) (A) (A) (A) (A) (A) (A) (A) (A) (A) (A) (A)
                 (A) (A) (A) (A) (A) (A) (A) (A) (A) (A) (A) (A)
                 (A) (A) (A) (A) (A) (A) (A) (A) (A) (A) (A) (A)
                 (A) (A) (A) (A) (A) (A) (A) (A) (A) (A) (A) (A)
                 (A) (A) (A) (A) (A) (A) (A) (A) (A) (A) (A) (A)
                 (A) (A) (A) (A) (A) (A) (A) (A) (A) (A) (A) (A)
                 (A) (A) (A) (A) (A) (A) (A) (A) (A) (A) (A) (A)
                 (A) (A) (A) (A) (A) (A) (A) (A) (A) (A) (A) (A)
                 (A) (A) (A) (A) (A) (A) (A) (A) (A) (A) (A) (A)
                 (A) (A) (A) (A) (A) (A) (A) (A) (A) (A) (A) (A)
                 (A) (A) (A) (A) (A) (A) (A) (A) (A) (A) (A) (A)
                 (A) (A) (A) (A) (A) (A) (A) (A) (A) (A) (A) (A)
                 (A) (A) (A) (A) (A) (A) (A) (A) (A) (A) (A) (A)
                 (A) (A) (A) (A) (A) (A) (A) (A) (A) (A) (A) (A)
                 (A) (A) (A) (A) (A) (A) (A) (A) (A) (A) (A) (A)
                 (A) (A) (A) (A) (A) (A) (A) (A) (A) (A) (A) (A)
                 (A) (A) (A) (A) (A) (A) (A) (A) (A) (A) (A) (A)
 The electronic state of the initial guess is 1-A.
 Requested convergence on RMS density matrix=1.00D-08 within 128 cycles.
 Requested convergence on MAX density matrix=1.00D-06.
 Requested convergence on             energy=1.00D-06.
 No special actions if energy rises.
 SCF Done:  E(RB3LYP) =  -1297.91824066     A.U. after   14 cycles
             Convg  =    0.2265D-08             -V/T =  2.0085
 Range of M.O.s used for correlation:     1   547
 NBasis=   547 NAE=    91 NBE=    91 NFC=     0 NFV=     0
 NROrb=    547 NOA=    91 NOB=    91 NVA=   456 NVB=   456

 **** Warning!!: The largest alpha MO coefficient is  0.74772719D+02

          Differentiating once with respect to electric field.
                with respect to dipole field.
          Electric field/nuclear overlap derivatives assumed to be zero.
          There are     3 degrees of freedom in the 1st order CPHF.  IDoFFX=0.
      3 vectors produced by pass  0 Test12= 1.38D-12 3.33D-08 XBig12= 1.19D+02 1.14D+00.
 AX will form     3 AO Fock derivatives at one time.
      3 vectors produced by pass  1 Test12= 1.38D-12 3.33D-08 XBig12= 2.34D+01 4.02D-01.
      3 vectors produced by pass  2 Test12= 1.38D-12 3.33D-08 XBig12= 9.93D+00 2.12D-01.
      3 vectors produced by pass  3 Test12= 1.38D-12 3.33D-08 XBig12= 9.99D-01 8.08D-02.
      3 vectors produced by pass  4 Test12= 1.38D-12 3.33D-08 XBig12= 3.21D-01 4.15D-02.
      3 vectors produced by pass  5 Test12= 1.38D-12 3.33D-08 XBig12= 6.46D-02 1.94D-02.
      3 vectors produced by pass  6 Test12= 1.38D-12 3.33D-08 XBig12= 2.06D-02 1.41D-02.
      3 vectors produced by pass  7 Test12= 1.38D-12 3.33D-08 XBig12= 2.20D-03 6.29D-03.
      3 vectors produced by pass  8 Test12= 1.38D-12 3.33D-08 XBig12= 5.32D-04 2.04D-03.
      3 vectors produced by pass  9 Test12= 1.38D-12 3.33D-08 XBig12= 1.15D-04 1.30D-03.
      3 vectors produced by pass 10 Test12= 1.38D-12 3.33D-08 XBig12= 2.28D-05 3.86D-04.
      3 vectors produced by pass 11 Test12= 1.38D-12 3.33D-08 XBig12= 4.90D-06 2.03D-04.
      3 vectors produced by pass 12 Test12= 1.38D-12 3.33D-08 XBig12= 6.92D-07 8.57D-05.
      3 vectors produced by pass 13 Test12= 1.38D-12 3.33D-08 XBig12= 9.83D-08 2.68D-05.
      3 vectors produced by pass 14 Test12= 1.38D-12 3.33D-08 XBig12= 2.36D-08 1.21D-05.
      3 vectors produced by pass 15 Test12= 1.38D-12 3.33D-08 XBig12= 4.89D-09 4.94D-06.
      3 vectors produced by pass 16 Test12= 1.38D-12 3.33D-08 XBig12= 8.50D-10 2.29D-06.
      3 vectors produced by pass 17 Test12= 1.38D-12 3.33D-08 XBig12= 1.01D-10 7.15D-07.
      3 vectors produced by pass 18 Test12= 1.38D-12 3.33D-08 XBig12= 1.79D-11 2.89D-07.
      3 vectors produced by pass 19 Test12= 1.38D-12 3.33D-08 XBig12= 1.31D-11 2.79D-07.
      3 vectors produced by pass 20 Test12= 1.38D-12 3.33D-08 XBig12= 4.41D-12 1.21D-07.
      2 vectors produced by pass 21 Test12= 1.38D-12 3.33D-08 XBig12= 2.41D-12 9.59D-08.
      1 vectors produced by pass 22 Test12= 1.38D-12 3.33D-08 XBig12= 1.15D-12 7.55D-08.
 Inverted reduced A of dimension    66 with in-core refinement.
 End of Minotr Frequency-dependent properties file   721 does not exist.
 End of Minotr Frequency-dependent properties file   722 does not exist.
 Symmetrizing basis deriv contribution to polar:
 IMax=3 JMax=2 DiffMx= 0.00D+00
 G2DrvN: will do    23 centers at a time, making    2 passes doing MaxLOS=2.
 Calling FoFCou, ICntrl=  3107 FMM=F I1Cent=   0 AccDes= 0.00D+00.
 Calling FoFCou, ICntrl=  3107 FMM=F I1Cent=   0 AccDes= 0.00D+00.
 FoFDir/FoFCou used for L=0 through L=2.
 End of G2Drv Frequency-dependent properties file   721 does not exist.
 End of G2Drv Frequency-dependent properties file   722 does not exist.
          IDoAtm=111111111111111111111111111111111111111111111
          Differentiating once with respect to electric field.
                with respect to dipole field.
          Differentiating once with respect to nuclear coordinates.
          There are   138 degrees of freedom in the 1st order CPHF.  IDoFFX=5.
 Will reuse    3 saved solutions.
    135 vectors produced by pass  0 Test12= 4.15D-14 1.00D-09 XBig12= 2.50D-01 8.42D-02.
 AX will form    68 AO Fock derivatives at one time.
    135 vectors produced by pass  1 Test12= 4.15D-14 1.00D-09 XBig12= 2.84D-02 1.70D-02.
    132 vectors produced by pass  2 Test12= 4.15D-14 1.00D-09 XBig12= 1.75D-04 1.72D-03.
    132 vectors produced by pass  3 Test12= 4.15D-14 1.00D-09 XBig12= 5.13D-07 6.36D-05.
    132 vectors produced by pass  4 Test12= 4.15D-14 1.00D-09 XBig12= 1.13D-09 2.51D-06.
    132 vectors produced by pass  5 Test12= 4.15D-14 1.00D-09 XBig12= 5.23D-12 1.80D-07.
     77 vectors produced by pass  6 Test12= 4.15D-14 1.00D-09 XBig12= 1.49D-13 2.16D-08.
 Inverted reduced A of dimension   875 with in-core refinement.
 Isotropic polarizability for W=    0.000000      186.22 Bohr**3.
 End of Minotr Frequency-dependent properties file   721 does not exist.
 End of Minotr Frequency-dependent properties file   722 does not exist.

 **********************************************************************

            Population analysis using the SCF density.

 **********************************************************************

 Orbital symmetries:
       Occupied  (A) (A) (A) (A) (A) (A) (A) (A) (A) (A) (A) (A)
                 (A) (A) (A) (A) (A) (A) (A) (A) (A) (A) (A) (A)
                 (A) (A) (A) (A) (A) (A) (A) (A) (A) (A) (A) (A)
                 (A) (A) (A) (A) (A) (A) (A) (A) (A) (A) (A) (A)
                 (A) (A) (A) (A) (A) (A) (A) (A) (A) (A) (A) (A)
                 (A) (A) (A) (A) (A) (A) (A) (A) (A) (A) (A) (A)
                 (A) (A) (A) (A) (A) (A) (A) (A) (A) (A) (A) (A)
                 (A) (A) (A) (A) (A) (A) (A)
       Virtual   (A) (A) (A) (A) (A) (A) (A) (A) (A) (A) (A) (A)
                 (A) (A) (A) (A) (A) (A) (A) (A) (A) (A) (A) (A)
                 (A) (A) (A) (A) (A) (A) (A) (A) (A) (A) (A) (A)
                 (A) (A) (A) (A) (A) (A) (A) (A) (A) (A) (A) (A)
                 (A) (A) (A) (A) (A) (A) (A) (A) (A) (A) (A) (A)
                 (A) (A) (A) (A) (A) (A) (A) (A) (A) (A) (A) (A)
                 (A) (A) (A) (A) (A) (A) (A) (A) (A) (A) (A) (A)
                 (A) (A) (A) (A) (A) (A) (A) (A) (A) (A) (A) (A)
                 (A) (A) (A) (A) (A) (A) (A) (A) (A) (A) (A) (A)
                 (A) (A) (A) (A) (A) (A) (A) (A) (A) (A) (A) (A)
                 (A) (A) (A) (A) (A) (A) (A) (A) (A) (A) (A) (A)
                 (A) (A) (A) (A) (A) (A) (A) (A) (A) (A) (A) (A)
                 (A) (A) (A) (A) (A) (A) (A) (A) (A) (A) (A) (A)
                 (A) (A) (A) (A) (A) (A) (A) (A) (A) (A) (A) (A)
                 (A) (A) (A) (A) (A) (A) (A) (A) (A) (A) (A) (A)
                 (A) (A) (A) (A) (A) (A) (A) (A) (A) (A) (A) (A)
                 (A) (A) (A) (A) (A) (A) (A) (A) (A) (A) (A) (A)
                 (A) (A) (A) (A) (A) (A) (A) (A) (A) (A) (A) (A)
                 (A) (A) (A) (A) (A) (A) (A) (A) (A) (A) (A) (A)
                 (A) (A) (A) (A) (A) (A) (A) (A) (A) (A) (A) (A)
                 (A) (A) (A) (A) (A) (A) (A) (A) (A) (A) (A) (A)
                 (A) (A) (A) (A) (A) (A) (A) (A) (A) (A) (A) (A)
                 (A) (A) (A) (A) (A) (A) (A) (A) (A) (A) (A) (A)
                 (A) (A) (A) (A) (A) (A) (A) (A) (A) (A) (A) (A)
                 (A) (A) (A) (A) (A) (A) (A) (A) (A) (A) (A) (A)
                 (A) (A) (A) (A) (A) (A) (A) (A) (A) (A) (A) (A)
                 (A) (A) (A) (A) (A) (A) (A) (A) (A) (A) (A) (A)
                 (A) (A) (A) (A) (A) (A) (A) (A) (A) (A) (A) (A)
                 (A) (A) (A) (A) (A) (A) (A) (A) (A) (A) (A) (A)
                 (A) (A) (A) (A) (A) (A) (A) (A) (A) (A) (A) (A)
                 (A) (A) (A) (A) (A) (A) (A) (A) (A) (A) (A) (A)
                 (A) (A) (A) (A) (A) (A) (A) (A) (A) (A) (A) (A)
                 (A) (A) (A) (A) (A) (A) (A) (A) (A) (A) (A) (A)
                 (A) (A) (A) (A) (A) (A) (A) (A) (A) (A) (A) (A)
                 (A) (A) (A) (A) (A) (A) (A) (A) (A) (A) (A) (A)
                 (A) (A) (A) (A) (A) (A) (A) (A) (A) (A) (A) (A)
                 (A) (A) (A) (A) (A) (A) (A) (A) (A) (A) (A) (A)
                 (A) (A) (A) (A) (A) (A) (A) (A) (A) (A) (A) (A)
 The electronic state is 1-A.
 Alpha  occ. eigenvalues --  -19.20232 -19.19008 -19.18815 -19.18695 -19.17824
 Alpha  occ. eigenvalues --  -19.17474 -19.15948 -19.15876 -19.15362 -19.15181
 Alpha  occ. eigenvalues --  -19.14588 -10.31862 -10.28907 -10.27626 -10.27153
 Alpha  occ. eigenvalues --  -10.27064 -10.25546 -10.24836 -10.24586 -10.23939
 Alpha  occ. eigenvalues --  -10.23593 -10.23296 -10.22929  -1.10595  -1.07964
 Alpha  occ. eigenvalues --   -1.06728  -1.05387  -1.03752  -1.03555  -1.02860
 Alpha  occ. eigenvalues --   -1.02259  -1.01315  -0.99934  -0.99462  -0.82217
 Alpha  occ. eigenvalues --   -0.82017  -0.78745  -0.77157  -0.71902  -0.69559
 Alpha  occ. eigenvalues --   -0.67569  -0.64656  -0.63192  -0.62548  -0.60729
 Alpha  occ. eigenvalues --   -0.60247  -0.57717  -0.56842  -0.55101  -0.54156
 Alpha  occ. eigenvalues --   -0.53547  -0.53282  -0.52379  -0.51904  -0.51406
 Alpha  occ. eigenvalues --   -0.50604  -0.49566  -0.47880  -0.47197  -0.46637
 Alpha  occ. eigenvalues --   -0.46415  -0.44662  -0.44467  -0.43511  -0.43303
 Alpha  occ. eigenvalues --   -0.42921  -0.41931  -0.40807  -0.40360  -0.39297
 Alpha  occ. eigenvalues --   -0.38431  -0.37999  -0.36653  -0.36261  -0.36089
 Alpha  occ. eigenvalues --   -0.35197  -0.34939  -0.34206  -0.33751  -0.33687
 Alpha  occ. eigenvalues --   -0.32103  -0.31975  -0.30479  -0.30228  -0.29946
 Alpha  occ. eigenvalues --   -0.29528  -0.28085  -0.27916  -0.27449  -0.26407
 Alpha  occ. eigenvalues --   -0.25306
 Alpha virt. eigenvalues --   -0.03652  -0.02102  -0.01236  -0.00468   0.00310
 Alpha virt. eigenvalues --    0.00769   0.01385   0.01932   0.02460   0.02969
 Alpha virt. eigenvalues --    0.03642   0.04174   0.05160   0.05644   0.05676
 Alpha virt. eigenvalues --    0.05913   0.06685   0.06985   0.07534   0.08156
 Alpha virt. eigenvalues --    0.08730   0.09093   0.09523   0.09912   0.10120
 Alpha virt. eigenvalues --    0.10424   0.10817   0.11104   0.11899   0.12090
 Alpha virt. eigenvalues --    0.12471   0.12663   0.12747   0.13105   0.14018
 Alpha virt. eigenvalues --    0.14232   0.14509   0.14714   0.14820   0.15228
 Alpha virt. eigenvalues --    0.15596   0.15907   0.16022   0.16499   0.17051
 Alpha virt. eigenvalues --    0.17201   0.17620   0.17958   0.18424   0.18550
 Alpha virt. eigenvalues --    0.18909   0.19740   0.19940   0.20098   0.20358
 Alpha virt. eigenvalues --    0.20416   0.20781   0.21033   0.21269   0.21788
 Alpha virt. eigenvalues --    0.21943   0.22304   0.22514   0.23170   0.23319
 Alpha virt. eigenvalues --    0.23768   0.23853   0.23973   0.24194   0.24621
 Alpha virt. eigenvalues --    0.24822   0.25216   0.25384   0.26038   0.26240
 Alpha virt. eigenvalues --    0.26624   0.26701   0.27252   0.27483   0.27762
 Alpha virt. eigenvalues --    0.28145   0.28316   0.28639   0.29166   0.29196
 Alpha virt. eigenvalues --    0.29558   0.29835   0.30154   0.30257   0.30736
 Alpha virt. eigenvalues --    0.30871   0.31518   0.31718   0.31924   0.32309
 Alpha virt. eigenvalues --    0.32622   0.32985   0.33435   0.33815   0.34273
 Alpha virt. eigenvalues --    0.34324   0.35101   0.35342   0.35564   0.35933
 Alpha virt. eigenvalues --    0.36458   0.36600   0.37211   0.37439   0.37774
 Alpha virt. eigenvalues --    0.37936   0.38733   0.38933   0.39343   0.39561
 Alpha virt. eigenvalues --    0.40219   0.40683   0.40848   0.41632   0.41878
 Alpha virt. eigenvalues --    0.42071   0.42454   0.42988   0.43554   0.44803
 Alpha virt. eigenvalues --    0.45090   0.45492   0.45920   0.46303   0.46325
 Alpha virt. eigenvalues --    0.46897   0.47392   0.48665   0.49215   0.50059
 Alpha virt. eigenvalues --    0.51482   0.52781   0.56772   0.63845   0.64225
 Alpha virt. eigenvalues --    0.65811   0.67127   0.67996   0.68640   0.70112
 Alpha virt. eigenvalues --    0.70822   0.71286   0.72559   0.73958   0.74993
 Alpha virt. eigenvalues --    0.75131   0.75661   0.77039   0.78428   0.78859
 Alpha virt. eigenvalues --    0.79315   0.80174   0.82179   0.83165   0.83953
 Alpha virt. eigenvalues --    0.84372   0.86466   0.86929   0.88354   0.91322
 Alpha virt. eigenvalues --    0.91402   0.92746   0.93033   0.94278   0.95000
 Alpha virt. eigenvalues --    0.95734   0.97755   0.98108   0.99221   1.00649
 Alpha virt. eigenvalues --    1.01052   1.01338   1.01676   1.02614   1.03842
 Alpha virt. eigenvalues --    1.04471   1.04922   1.05727   1.06620   1.07271
 Alpha virt. eigenvalues --    1.07723   1.08271   1.09044   1.09906   1.10229
 Alpha virt. eigenvalues --    1.11210   1.12583   1.14128   1.14495   1.15803
 Alpha virt. eigenvalues --    1.16507   1.16853   1.18571   1.20020   1.20488
 Alpha virt. eigenvalues --    1.22192   1.22884   1.23617   1.24420   1.25678
 Alpha virt. eigenvalues --    1.25996   1.26712   1.27774   1.28345   1.28632
 Alpha virt. eigenvalues --    1.29577   1.30191   1.30897   1.31327   1.31632
 Alpha virt. eigenvalues --    1.31977   1.33199   1.34011   1.34471   1.34757
 Alpha virt. eigenvalues --    1.35476   1.37090   1.37219   1.37455   1.39447
 Alpha virt. eigenvalues --    1.39779   1.40653   1.41203   1.41758   1.42842
 Alpha virt. eigenvalues --    1.43788   1.44696   1.45112   1.45912   1.48268
 Alpha virt. eigenvalues --    1.50650   1.51237   1.51623   1.51951   1.53208
 Alpha virt. eigenvalues --    1.54260   1.54829   1.55729   1.56745   1.57971
 Alpha virt. eigenvalues --    1.58130   1.58393   1.59992   1.60977   1.61819
 Alpha virt. eigenvalues --    1.62203   1.62578   1.63183   1.63527   1.64001
 Alpha virt. eigenvalues --    1.65669   1.66536   1.66930   1.67935   1.68846
 Alpha virt. eigenvalues --    1.70033   1.70300   1.70799   1.71954   1.72744
 Alpha virt. eigenvalues --    1.73302   1.74631   1.75011   1.77039   1.78255
 Alpha virt. eigenvalues --    1.78539   1.79201   1.80579   1.81742   1.83603
 Alpha virt. eigenvalues --    1.83924   1.84344   1.85032   1.85856   1.87058
 Alpha virt. eigenvalues --    1.87674   1.88128   1.88557   1.89845   1.91141
 Alpha virt. eigenvalues --    1.91286   1.92515   1.92679   1.94193   1.95042
 Alpha virt. eigenvalues --    1.95698   1.97162   1.97541   1.98207   1.98594
 Alpha virt. eigenvalues --    1.99660   2.00129   2.01056   2.02527   2.04175
 Alpha virt. eigenvalues --    2.04902   2.05305   2.06209   2.07037   2.07608
 Alpha virt. eigenvalues --    2.09018   2.10003   2.11815   2.12560   2.13410
 Alpha virt. eigenvalues --    2.13853   2.14710   2.15454   2.15914   2.16430
 Alpha virt. eigenvalues --    2.16910   2.17826   2.20020   2.20667   2.21766
 Alpha virt. eigenvalues --    2.22551   2.24274   2.26786   2.26994   2.29201
 Alpha virt. eigenvalues --    2.31005   2.31387   2.31782   2.32445   2.35568
 Alpha virt. eigenvalues --    2.35896   2.36779   2.38095   2.39113   2.40219
 Alpha virt. eigenvalues --    2.41989   2.42390   2.42918   2.43811   2.45150
 Alpha virt. eigenvalues --    2.45760   2.46488   2.47678   2.49058   2.49355
 Alpha virt. eigenvalues --    2.50457   2.51152   2.52019   2.54353   2.55103
 Alpha virt. eigenvalues --    2.55977   2.56216   2.57565   2.59446   2.59850
 Alpha virt. eigenvalues --    2.60289   2.61760   2.62848   2.64094   2.64772
 Alpha virt. eigenvalues --    2.65426   2.65908   2.66447   2.68054   2.69201
 Alpha virt. eigenvalues --    2.70127   2.70347   2.72478   2.73514   2.74826
 Alpha virt. eigenvalues --    2.75686   2.76734   2.78315   2.78829   2.80078
 Alpha virt. eigenvalues --    2.81446   2.82344   2.84416   2.84863   2.85398
 Alpha virt. eigenvalues --    2.85711   2.87352   2.88799   2.89273   2.90414
 Alpha virt. eigenvalues --    2.92381   2.92618   2.93861   2.94478   2.94880
 Alpha virt. eigenvalues --    2.95758   2.97064   2.98463   2.98854   2.99429
 Alpha virt. eigenvalues --    3.00479   3.01015   3.02912   3.03157   3.05019
 Alpha virt. eigenvalues --    3.06978   3.07846   3.10640   3.12323   3.13393
 Alpha virt. eigenvalues --    3.17375   3.21156   3.23794   3.26631   3.30133
 Alpha virt. eigenvalues --    3.32715   3.37151   3.38254   3.39756   3.40602
 Alpha virt. eigenvalues --    3.41714   3.42203   3.43728   3.45699   3.46606
 Alpha virt. eigenvalues --    3.47698   3.49422   3.51469   3.52907   3.53510
 Alpha virt. eigenvalues --    3.55373   3.56565   3.57851   3.59228   3.59607
 Alpha virt. eigenvalues --    3.61206   3.66773   3.69102   4.29683   4.32389
 Alpha virt. eigenvalues --    4.35825   4.36464   4.37688   4.42286   4.46885
 Alpha virt. eigenvalues --    4.48145   4.49949   4.50252   4.51774   4.57209
 Alpha virt. eigenvalues --    4.59600   4.62977   4.64494   4.68315   4.73293
 Alpha virt. eigenvalues --    4.76215   4.80577   4.84943   4.89440   4.93725
 Alpha virt. eigenvalues --    4.97833
          Condensed to atoms (all electrons):
              1          2          3          4          5          6
     1  O    8.325327   0.415550  -0.130162  -0.006980   0.024401  -0.014732
     2  C    0.415550   9.327645  -2.201897  -0.020007  -0.053405  -1.379298
     3  C   -0.130162  -2.201897   9.798697   0.026409   0.022649   0.335422
     4  O   -0.006980  -0.020007   0.026409   8.287350   0.204513   0.102946
     5  H    0.024401  -0.053405   0.022649   0.204513   0.426899  -0.008630
     6  C   -0.014732  -1.379298   0.335422   0.102946  -0.008630  10.942614
     7  O   -0.000433   0.030992  -0.129210  -0.002381  -0.000040   0.294711
     8  H   -0.000020   0.007276  -0.056990   0.003851  -0.000185   0.047853
     9  C   -0.045234   0.152734  -0.318045   0.012777  -0.004788   0.361534
    10  O    0.001135   0.024931  -0.003005   0.000073  -0.000007   0.003816
    11  H    0.000112  -0.011384  -0.000165   0.000001   0.000000   0.000880
    12  C   -0.214719  -2.077237  -0.102020   0.016551   0.041881  -0.443756
    13  O    0.005123   0.007712   0.004786  -0.001883  -0.000026  -0.073944
    14  C    0.007569   0.979985  -0.882476  -0.067978   0.004505  -2.767062
    15  O   -0.000037  -0.018582  -0.036601  -0.000299   0.000121   0.044007
    16  C    0.001529   0.216446  -0.434085  -0.001405   0.000745  -0.319161
    17  C    0.000089  -0.069467  -0.114082   0.001781   0.000049  -0.090932
    18  O    0.000091   0.004310  -0.002531  -0.000016   0.000000   0.008607
    19  H   -0.000047   0.004128   0.001167  -0.000002   0.000000   0.001029
    20  C    0.000244   0.019258  -0.005820  -0.000026   0.000001  -0.004747
    21  O    0.000000   0.000184   0.000104   0.000000   0.000000   0.000600
    22  H    0.000000   0.000006   0.000006   0.000000   0.000000   0.000366
    23  C    0.000082   0.043847  -0.032179   0.000259  -0.000069  -0.159668
    24  O    0.000000  -0.000093  -0.001719  -0.000001   0.000000   0.002574
    25  H    0.000000  -0.000003   0.000155   0.000000   0.000000  -0.000026
    26  C   -0.000107  -0.022405   0.032946   0.000377   0.000052  -0.491548
    27  O    0.000000   0.000150   0.000248   0.000000   0.000000  -0.002536
    28  C   -0.000021  -0.002002   0.004895   0.000022   0.000000  -0.002006
    29  O    0.000000  -0.000012   0.000018   0.000000   0.000000  -0.000093
    30  H    0.000000   0.000000   0.000000   0.000000   0.000000   0.000009
    31  H    0.000000   0.000000   0.000021   0.000000   0.000000   0.000221
    32  H    0.000000   0.000104  -0.000055   0.000000   0.000000   0.000287
    33  H    0.000000   0.000283   0.000228   0.000000   0.000000   0.004137
    34  H   -0.000002  -0.000764   0.004364   0.000002   0.000000  -0.004240
    35  H    0.000000  -0.000076   0.000443   0.000000   0.000000   0.000746
    36  H    0.000000   0.000210   0.008185   0.000014   0.000000  -0.022825
    37  H    0.000000  -0.000149  -0.003490  -0.000008   0.000000   0.012494
    38  H    0.225690   0.075829  -0.026197  -0.001864  -0.002109   0.005928
    39  H   -0.001136  -0.008461   0.002963  -0.000118  -0.000001   0.023741
    40  H    0.006493   0.098653   0.005204  -0.000080  -0.000014  -0.009489
    41  H    0.003398   0.038940  -0.057513  -0.000620   0.000003  -0.003443
    42  H   -0.042645   0.426179  -0.081279  -0.012700  -0.001625   0.009917
    43  H   -0.002216   0.092272   0.241315  -0.028046  -0.007509  -0.155331
    44  H   -0.000861   0.067391  -0.071834   0.003649   0.000186   0.190315
    45  H   -0.000034   0.025821  -0.024167  -0.000011   0.000016  -0.210538
              7          8          9         10         11         12
     1  O   -0.000433  -0.000020  -0.045234   0.001135   0.000112  -0.214719
     2  C    0.030992   0.007276   0.152734   0.024931  -0.011384  -2.077237
     3  C   -0.129210  -0.056990  -0.318045  -0.003005  -0.000165  -0.102020
     4  O   -0.002381   0.003851   0.012777   0.000073   0.000001   0.016551
     5  H   -0.000040  -0.000185  -0.004788  -0.000007   0.000000   0.041881
     6  C    0.294711   0.047853   0.361534   0.003816   0.000880  -0.443756
     7  O    8.269812   0.217980  -0.001936  -0.000013   0.000000   0.026267
     8  H    0.217980   0.391277   0.000514   0.000000   0.000000  -0.001802
     9  C   -0.001936   0.000514   7.065587   0.258612   0.029977  -2.132390
    10  O   -0.000013   0.000000   0.258612   8.321520   0.204018  -0.190932
    11  H    0.000000   0.000000   0.029977   0.204018   0.436244  -0.002642
    12  C    0.026267  -0.001802  -2.132390  -0.190932  -0.002642  12.019752
    13  O    0.005950  -0.000728   0.018055   0.008649   0.001894  -0.178286
    14  C   -0.135902   0.023399  -0.142455  -0.012366   0.001737  -0.574282
    15  O    0.002129  -0.000231  -0.019479  -0.002765   0.000077   0.032157
    16  C   -0.003684  -0.007110  -0.133945   0.009779  -0.000530   0.180808
    17  C    0.003705   0.000012   0.085121  -0.005816   0.000136  -0.229148
    18  O    0.000104  -0.000001   0.000997   0.001406   0.000220  -0.020003
    19  H   -0.000040   0.000000   0.002843   0.003992  -0.000076  -0.005286
    20  C    0.002563  -0.000123  -0.006857   0.000443  -0.000100  -0.044000
    21  O   -0.000002   0.000000   0.000149  -0.000001   0.000000   0.000812
    22  H    0.000000   0.000000  -0.000322  -0.000009   0.000000  -0.000047
    23  C   -0.029947  -0.001899   0.005405   0.000021  -0.000002  -0.030349
    24  O    0.000240  -0.000006  -0.000001   0.000000   0.000000  -0.000320
    25  H    0.000002  -0.000001  -0.000002   0.000000   0.000000   0.000013
    26  C    0.031682   0.002026  -0.026935   0.000287  -0.000027   0.058988
    27  O   -0.000085   0.000000  -0.000107   0.000000   0.000000   0.000718
    28  C   -0.000068   0.000020  -0.003728  -0.000008   0.000004   0.010308
    29  O   -0.000004   0.000000   0.000022   0.000000   0.000000   0.000090
    30  H    0.000000   0.000000   0.000000   0.000000   0.000000   0.000000
    31  H    0.000001   0.000000   0.000006   0.000000   0.000000   0.000069
    32  H    0.000003   0.000000   0.000099   0.000001   0.000000   0.000751
    33  H    0.000013   0.000000   0.000297  -0.000012   0.000000   0.001022
    34  H   -0.000251  -0.000001  -0.000253   0.000000   0.000000   0.007181
    35  H   -0.000075   0.000000   0.000030   0.000000   0.000000   0.000687
    36  H    0.001721   0.000026  -0.000137   0.000000   0.000000   0.000080
    37  H   -0.001380  -0.000017   0.000081   0.000000   0.000000   0.000539
    38  H   -0.000024   0.000000   0.006437   0.000314   0.000004  -0.033523
    39  H   -0.000010   0.000000   0.611255  -0.060088   0.002801  -0.258828
    40  H   -0.000006   0.000000   0.401473  -0.036526  -0.015978  -0.150705
    41  H    0.000050   0.000001   0.047317   0.004822   0.000146   0.199705
    42  H   -0.000285   0.000009   0.058692   0.000812   0.000001  -0.148590
    43  H    0.002582  -0.000124   0.011173   0.000020   0.000000  -0.042181
    44  H   -0.047087  -0.004745   0.008414  -0.000023   0.000000  -0.000952
    45  H    0.009498  -0.000195   0.001702  -0.000237  -0.000001  -0.009554
             13         14         15         16         17         18
     1  O    0.005123   0.007569  -0.000037   0.001529   0.000089   0.000091
     2  C    0.007712   0.979985  -0.018582   0.216446  -0.069467   0.004310
     3  C    0.004786  -0.882476  -0.036601  -0.434085  -0.114082  -0.002531
     4  O   -0.001883  -0.067978  -0.000299  -0.001405   0.001781  -0.000016
     5  H   -0.000026   0.004505   0.000121   0.000745   0.000049   0.000000
     6  C   -0.073944  -2.767062   0.044007  -0.319161  -0.090932   0.008607
     7  O    0.005950  -0.135902   0.002129  -0.003684   0.003705   0.000104
     8  H   -0.000728   0.023399  -0.000231  -0.007110   0.000012  -0.000001
     9  C    0.018055  -0.142455  -0.019479  -0.133945   0.085121   0.000997
    10  O    0.008649  -0.012366  -0.002765   0.009779  -0.005816   0.001406
    11  H    0.001894   0.001737   0.000077  -0.000530   0.000136   0.000220
    12  C   -0.178286  -0.574282   0.032157   0.180808  -0.229148  -0.020003
    13  O    8.581721   0.132000  -0.113849   0.084157  -0.022332   0.003816
    14  C    0.132000  10.657930   0.284556  -0.895575  -0.358371   0.000694
    15  O   -0.113849   0.284556   8.344979  -0.108695  -0.063994   0.006071
    16  C    0.084157  -0.895575  -0.108695  17.386685  -3.501195  -0.196631
    17  C   -0.022332  -0.358371  -0.063994  -3.501195  10.196413   0.369938
    18  O    0.003816   0.000694   0.006071  -0.196631   0.369938   8.260223
    19  H    0.019754  -0.010971   0.013713  -0.026953   0.014311   0.215778
    20  C   -0.013845  -0.484535   0.056826  -2.936057  -0.112149  -0.070518
    21  O    0.000559   0.000422  -0.000775   0.022299  -0.125322  -0.011185
    22  H   -0.000087   0.003083  -0.000028   0.026200  -0.114009   0.024747
    23  C    0.017419  -0.162733  -0.060737   0.214145  -0.682471   0.014699
    24  O    0.000143  -0.003649  -0.005684   0.170886  -0.008829   0.000173
    25  H    0.000012  -0.003686   0.000759  -0.029088   0.000692  -0.000001
    26  C   -0.018680  -1.109565   0.074293  -5.964030   1.107950   0.037261
    27  O    0.000445   0.002191   0.005098  -0.020132  -0.044625   0.003191
    28  C    0.001245   0.143235   0.021793   1.267460  -0.352476  -0.032229
    29  O   -0.000001   0.004431   0.000042  -0.006111   0.032828   0.000111
    30  H    0.000000   0.000290   0.000001  -0.002585  -0.006125   0.000014
    31  H    0.000058   0.008018  -0.000206   0.186304  -0.034037  -0.000042
    32  H    0.000324   0.003618  -0.002055   0.171676  -0.091974   0.007496
    33  H    0.001255   0.043496  -0.010110   0.055414   0.367044  -0.051610
    34  H    0.000641   0.045243  -0.063811   0.326732  -0.078831   0.000392
    35  H    0.000006   0.070350   0.006719   0.102871  -0.040379  -0.000205
    36  H   -0.000580   0.032117   0.007996  -0.104341  -0.013536  -0.000007
    37  H   -0.000201   0.026175  -0.006155   0.101180  -0.005796   0.000024
    38  H   -0.000934  -0.007015  -0.000004   0.000037  -0.000054  -0.000001
    39  H   -0.005868   0.000736  -0.000116  -0.007933   0.004480   0.000519
    40  H    0.001938   0.001308  -0.000204   0.002074  -0.000596  -0.000147
    41  H   -0.045218   0.062107  -0.001814   0.005528   0.010949   0.000455
    42  H    0.009273   0.037121  -0.000570   0.000983   0.001159   0.000039
    43  H    0.004550   0.124606  -0.000620   0.014643   0.001317   0.000020
    44  H    0.008670   0.043084  -0.005755   0.051558   0.004349   0.000019
    45  H   -0.045777   0.364763  -0.059997   0.088713   0.034202  -0.000499
             19         20         21         22         23         24
     1  O   -0.000047   0.000244   0.000000   0.000000   0.000082   0.000000
     2  C    0.004128   0.019258   0.000184   0.000006   0.043847  -0.000093
     3  C    0.001167  -0.005820   0.000104   0.000006  -0.032179  -0.001719
     4  O   -0.000002  -0.000026   0.000000   0.000000   0.000259  -0.000001
     5  H    0.000000   0.000001   0.000000   0.000000  -0.000069   0.000000
     6  C    0.001029  -0.004747   0.000600   0.000366  -0.159668   0.002574
     7  O   -0.000040   0.002563  -0.000002   0.000000  -0.029947   0.000240
     8  H    0.000000  -0.000123   0.000000   0.000000  -0.001899  -0.000006
     9  C    0.002843  -0.006857   0.000149  -0.000322   0.005405  -0.000001
    10  O    0.003992   0.000443  -0.000001  -0.000009   0.000021   0.000000
    11  H   -0.000076  -0.000100   0.000000   0.000000  -0.000002   0.000000
    12  C   -0.005286  -0.044000   0.000812  -0.000047  -0.030349  -0.000320
    13  O    0.019754  -0.013845   0.000559  -0.000087   0.017419   0.000143
    14  C   -0.010971  -0.484535   0.000422   0.003083  -0.162733  -0.003649
    15  O    0.013713   0.056826  -0.000775  -0.000028  -0.060737  -0.005684
    16  C   -0.026953  -2.936057   0.022299   0.026200   0.214145   0.170886
    17  C    0.014311  -0.112149  -0.125322  -0.114009  -0.682471  -0.008829
    18  O    0.215778  -0.070518  -0.011185   0.024747   0.014699   0.000173
    19  H    0.337261   0.005606   0.001919  -0.000600  -0.002832   0.000001
    20  C    0.005606   9.028886   0.280513   0.076189   0.080879  -0.015627
    21  O    0.001919   0.280513   8.194795   0.210419  -0.001582   0.000003
    22  H   -0.000600   0.076189   0.210419   0.408405   0.002301   0.000002
    23  C   -0.002832   0.080879  -0.001582   0.002301   7.809937  -0.047262
    24  O    0.000001  -0.015627   0.000003   0.000002  -0.047262   8.337000
    25  H    0.000000   0.001822   0.000000   0.000000   0.013859   0.200295
    26  C   -0.000998   1.710307  -0.008988   0.006044  -1.789845  -0.026562
    27  O    0.000027  -0.219838   0.009962  -0.000849  -0.069010   0.001238
    28  C    0.007104  -1.036502  -0.096258  -0.000904  -0.157791   0.024799
    29  O    0.000017  -0.172316   0.004504  -0.000626  -0.012773  -0.000547
    30  H    0.000000   0.042483  -0.001779   0.000019   0.002102   0.000073
    31  H    0.000004  -0.211506   0.010126  -0.000199  -0.010873  -0.000419
    32  H   -0.000014   0.224601  -0.032459  -0.005975   0.004774  -0.000031
    33  H   -0.003447  -0.154566   0.001784  -0.000264   0.005952  -0.000031
    34  H   -0.000008  -0.009567  -0.000064   0.000005  -0.014476  -0.000278
    35  H    0.000030  -0.055878  -0.000153  -0.000008  -0.003462  -0.001855
    36  H    0.000001   0.001254   0.000002   0.000000   0.499847  -0.060534
    37  H    0.000000  -0.006460  -0.000002   0.000000   0.480971  -0.045771
    38  H    0.000000   0.000000   0.000000   0.000000   0.000001   0.000000
    39  H    0.000171  -0.000052   0.000001   0.000000  -0.000004   0.000000
    40  H    0.000031   0.000074   0.000000   0.000000   0.000006   0.000000
    41  H    0.000326   0.000761   0.000002   0.000000   0.000245   0.000000
    42  H   -0.000004  -0.000007   0.000000   0.000000   0.000143   0.000000
    43  H   -0.000002   0.000041   0.000000   0.000000   0.000861   0.000000
    44  H   -0.000003   0.000765   0.000000   0.000000   0.007920   0.000002
    45  H    0.000064   0.013226   0.000009  -0.000001   0.005456   0.000013
             25         26         27         28         29         30
     1  O    0.000000  -0.000107   0.000000  -0.000021   0.000000   0.000000
     2  C   -0.000003  -0.022405   0.000150  -0.002002  -0.000012   0.000000
     3  C    0.000155   0.032946   0.000248   0.004895   0.000018   0.000000
     4  O    0.000000   0.000377   0.000000   0.000022   0.000000   0.000000
     5  H    0.000000   0.000052   0.000000   0.000000   0.000000   0.000000
     6  C   -0.000026  -0.491548  -0.002536  -0.002006  -0.000093   0.000009
     7  O    0.000002   0.031682  -0.000085  -0.000068  -0.000004   0.000000
     8  H   -0.000001   0.002026   0.000000   0.000020   0.000000   0.000000
     9  C   -0.000002  -0.026935  -0.000107  -0.003728   0.000022   0.000000
    10  O    0.000000   0.000287   0.000000  -0.000008   0.000000   0.000000
    11  H    0.000000  -0.000027   0.000000   0.000004   0.000000   0.000000
    12  C    0.000013   0.058988   0.000718   0.010308   0.000090   0.000000
    13  O    0.000012  -0.018680   0.000445   0.001245  -0.000001   0.000000
    14  C   -0.003686  -1.109565   0.002191   0.143235   0.004431   0.000290
    15  O    0.000759   0.074293   0.005098   0.021793   0.000042   0.000001
    16  C   -0.029088  -5.964030  -0.020132   1.267460  -0.006111  -0.002585
    17  C    0.000692   1.107950  -0.044625  -0.352476   0.032828  -0.006125
    18  O   -0.000001   0.037261   0.003191  -0.032229   0.000111   0.000014
    19  H    0.000000  -0.000998   0.000027   0.007104   0.000017   0.000000
    20  C    0.001822   1.710307  -0.219838  -1.036502  -0.172316   0.042483
    21  O    0.000000  -0.008988   0.009962  -0.096258   0.004504  -0.001779
    22  H    0.000000   0.006044  -0.000849  -0.000904  -0.000626   0.000019
    23  C    0.013859  -1.789845  -0.069010  -0.157791  -0.012773   0.002102
    24  O    0.200295  -0.026562   0.001238   0.024799  -0.000547   0.000073
    25  H    0.457424   0.034189  -0.000252  -0.000996  -0.000011   0.000000
    26  C    0.034189  13.692703   0.328210  -1.181613  -0.057140   0.003974
    27  O   -0.000252   0.328210   8.401927   0.102866  -0.077774  -0.003858
    28  C   -0.000996  -1.181613   0.102866   6.132046   0.437581  -0.025251
    29  O   -0.000011  -0.057140  -0.077774   0.437581   8.159329   0.240943
    30  H    0.000000   0.003974  -0.003858  -0.025251   0.240943   0.408034
    31  H   -0.000001  -0.116813  -0.052652   0.501503  -0.046634  -0.009369
    32  H    0.000000  -0.025165   0.004081  -0.018839   0.000226   0.000010
    33  H    0.000000  -0.059937   0.004960   0.014801   0.000166   0.000015
    34  H   -0.000002   0.003599   0.000896   0.007669  -0.000493   0.000002
    35  H   -0.000100   0.164317  -0.059057   0.040151  -0.000202   0.000011
    36  H   -0.000436  -0.034920   0.004593   0.002410   0.000026   0.000000
    37  H   -0.010101  -0.244743  -0.002243  -0.000345   0.000030   0.000000
    38  H    0.000000  -0.000007   0.000000   0.000000   0.000000   0.000000
    39  H    0.000000  -0.000481   0.000000  -0.000019   0.000000   0.000000
    40  H    0.000000   0.000078   0.000000  -0.000003   0.000000   0.000000
    41  H    0.000000   0.000180  -0.000001  -0.000075   0.000000   0.000000
    42  H    0.000000  -0.000289   0.000000  -0.000003   0.000000   0.000000
    43  H    0.000000  -0.000780   0.000000  -0.000002   0.000000   0.000000
    44  H    0.000000  -0.003811   0.000007  -0.000071   0.000000   0.000000
    45  H    0.000000   0.036278   0.000140  -0.001324  -0.000005   0.000000
             31         32         33         34         35         36
     1  O    0.000000   0.000000   0.000000  -0.000002   0.000000   0.000000
     2  C    0.000000   0.000104   0.000283  -0.000764  -0.000076   0.000210
     3  C    0.000021  -0.000055   0.000228   0.004364   0.000443   0.008185
     4  O    0.000000   0.000000   0.000000   0.000002   0.000000   0.000014
     5  H    0.000000   0.000000   0.000000   0.000000   0.000000   0.000000
     6  C    0.000221   0.000287   0.004137  -0.004240   0.000746  -0.022825
     7  O    0.000001   0.000003   0.000013  -0.000251  -0.000075   0.001721
     8  H    0.000000   0.000000   0.000000  -0.000001   0.000000   0.000026
     9  C    0.000006   0.000099   0.000297  -0.000253   0.000030  -0.000137
    10  O    0.000000   0.000001  -0.000012   0.000000   0.000000   0.000000
    11  H    0.000000   0.000000   0.000000   0.000000   0.000000   0.000000
    12  C    0.000069   0.000751   0.001022   0.007181   0.000687   0.000080
    13  O    0.000058   0.000324   0.001255   0.000641   0.000006  -0.000580
    14  C    0.008018   0.003618   0.043496   0.045243   0.070350   0.032117
    15  O   -0.000206  -0.002055  -0.010110  -0.063811   0.006719   0.007996
    16  C    0.186304   0.171676   0.055414   0.326732   0.102871  -0.104341
    17  C   -0.034037  -0.091974   0.367044  -0.078831  -0.040379  -0.013536
    18  O   -0.000042   0.007496  -0.051610   0.000392  -0.000205  -0.000007
    19  H    0.000004  -0.000014  -0.003447  -0.000008   0.000030   0.000001
    20  C   -0.211506   0.224601  -0.154566  -0.009567  -0.055878   0.001254
    21  O    0.010126  -0.032459   0.001784  -0.000064  -0.000153   0.000002
    22  H   -0.000199  -0.005975  -0.000264   0.000005  -0.000008   0.000000
    23  C   -0.010873   0.004774   0.005952  -0.014476  -0.003462   0.499847
    24  O   -0.000419  -0.000031  -0.000031  -0.000278  -0.001855  -0.060534
    25  H   -0.000001   0.000000   0.000000  -0.000002  -0.000100  -0.000436
    26  C   -0.116813  -0.025165  -0.059937   0.003599   0.164317  -0.034920
    27  O   -0.052652   0.004081   0.004960   0.000896  -0.059057   0.004593
    28  C    0.501503  -0.018839   0.014801   0.007669   0.040151   0.002410
    29  O   -0.046634   0.000226   0.000166  -0.000493  -0.000202   0.000026
    30  H   -0.009369   0.000010   0.000015   0.000002   0.000011   0.000000
    31  H    0.640103   0.004870   0.003431   0.000014   0.009502  -0.000004
    32  H    0.004870   0.599394   0.005326   0.002386  -0.000026   0.000001
    33  H    0.003431   0.005326   0.622163   0.006864   0.004577   0.000028
    34  H    0.000014   0.002386   0.006864   0.628626   0.007089   0.000210
    35  H    0.009502  -0.000026   0.004577   0.007089   0.635208  -0.009354
    36  H   -0.000004   0.000001   0.000028   0.000210  -0.009354   0.577157
    37  H    0.000007  -0.000010  -0.000002   0.003757   0.007129  -0.051107
    38  H    0.000000   0.000000   0.000000   0.000000   0.000000   0.000000
    39  H    0.000000   0.000000  -0.000001   0.000000   0.000000   0.000000
    40  H    0.000000   0.000000   0.000000   0.000000   0.000000   0.000000
    41  H    0.000000   0.000000  -0.000001  -0.000020   0.000000   0.000000
    42  H    0.000000   0.000000   0.000000   0.000000   0.000000   0.000000
    43  H    0.000000   0.000000   0.000000  -0.000003   0.000000   0.000000
    44  H    0.000000   0.000000  -0.000002   0.000007  -0.000001   0.000117
    45  H    0.000000  -0.000028  -0.000030   0.010943  -0.000009   0.000070
             37         38         39         40         41         42
     1  O    0.000000   0.225690  -0.001136   0.006493   0.003398  -0.042645
     2  C   -0.000149   0.075829  -0.008461   0.098653   0.038940   0.426179
     3  C   -0.003490  -0.026197   0.002963   0.005204  -0.057513  -0.081279
     4  O   -0.000008  -0.001864  -0.000118  -0.000080  -0.000620  -0.012700
     5  H    0.000000  -0.002109  -0.000001  -0.000014   0.000003  -0.001625
     6  C    0.012494   0.005928   0.023741  -0.009489  -0.003443   0.009917
     7  O   -0.001380  -0.000024  -0.000010  -0.000006   0.000050  -0.000285
     8  H   -0.000017   0.000000   0.000000   0.000000   0.000001   0.000009
     9  C    0.000081   0.006437   0.611255   0.401473   0.047317   0.058692
    10  O    0.000000   0.000314  -0.060088  -0.036526   0.004822   0.000812
    11  H    0.000000   0.000004   0.002801  -0.015978   0.000146   0.000001
    12  C    0.000539  -0.033523  -0.258828  -0.150705   0.199705  -0.148590
    13  O   -0.000201  -0.000934  -0.005868   0.001938  -0.045218   0.009273
    14  C    0.026175  -0.007015   0.000736   0.001308   0.062107   0.037121
    15  O   -0.006155  -0.000004  -0.000116  -0.000204  -0.001814  -0.000570
    16  C    0.101180   0.000037  -0.007933   0.002074   0.005528   0.000983
    17  C   -0.005796  -0.000054   0.004480  -0.000596   0.010949   0.001159
    18  O    0.000024  -0.000001   0.000519  -0.000147   0.000455   0.000039
    19  H    0.000000   0.000000   0.000171   0.000031   0.000326  -0.000004
    20  C   -0.006460   0.000000  -0.000052   0.000074   0.000761  -0.000007
    21  O   -0.000002   0.000000   0.000001   0.000000   0.000002   0.000000
    22  H    0.000000   0.000000   0.000000   0.000000   0.000000   0.000000
    23  C    0.480971   0.000001  -0.000004   0.000006   0.000245   0.000143
    24  O   -0.045771   0.000000   0.000000   0.000000   0.000000   0.000000
    25  H   -0.010101   0.000000   0.000000   0.000000   0.000000   0.000000
    26  C   -0.244743  -0.000007  -0.000481   0.000078   0.000180  -0.000289
    27  O   -0.002243   0.000000   0.000000   0.000000  -0.000001   0.000000
    28  C   -0.000345   0.000000  -0.000019  -0.000003  -0.000075  -0.000003
    29  O    0.000030   0.000000   0.000000   0.000000   0.000000   0.000000
    30  H    0.000000   0.000000   0.000000   0.000000   0.000000   0.000000
    31  H    0.000007   0.000000   0.000000   0.000000   0.000000   0.000000
    32  H   -0.000010   0.000000   0.000000   0.000000   0.000000   0.000000
    33  H   -0.000002   0.000000  -0.000001   0.000000  -0.000001   0.000000
    34  H    0.003757   0.000000   0.000000   0.000000  -0.000020   0.000000
    35  H    0.007129   0.000000   0.000000   0.000000   0.000000   0.000000
    36  H   -0.051107   0.000000   0.000000   0.000000   0.000000   0.000000
    37  H    0.612268   0.000000   0.000000   0.000000   0.000000   0.000000
    38  H    0.000000   0.401734   0.000302  -0.001609   0.000338  -0.010523
    39  H    0.000000   0.000302   0.576501  -0.045432   0.004703   0.003721
    40  H    0.000000  -0.001609  -0.045432   0.629160  -0.000406  -0.001523
    41  H    0.000000   0.000338   0.004703  -0.000406   0.566710   0.004766
    42  H    0.000000  -0.010523   0.003721  -0.001523   0.004766   0.582869
    43  H    0.000000   0.000077  -0.000004  -0.000022   0.000566   0.003884
    44  H   -0.000016   0.000011  -0.000039  -0.000001  -0.000076   0.001050
    45  H   -0.000070   0.000002  -0.000010   0.000009   0.004694  -0.000004
             43         44         45
     1  O   -0.002216  -0.000861  -0.000034
     2  C    0.092272   0.067391   0.025821
     3  C    0.241315  -0.071834  -0.024167
     4  O   -0.028046   0.003649  -0.000011
     5  H   -0.007509   0.000186   0.000016
     6  C   -0.155331   0.190315  -0.210538
     7  O    0.002582  -0.047087   0.009498
     8  H   -0.000124  -0.004745  -0.000195
     9  C    0.011173   0.008414   0.001702
    10  O    0.000020  -0.000023  -0.000237
    11  H    0.000000   0.000000  -0.000001
    12  C   -0.042181  -0.000952  -0.009554
    13  O    0.004550   0.008670  -0.045777
    14  C    0.124606   0.043084   0.364763
    15  O   -0.000620  -0.005755  -0.059997
    16  C    0.014643   0.051558   0.088713
    17  C    0.001317   0.004349   0.034202
    18  O    0.000020   0.000019  -0.000499
    19  H   -0.000002  -0.000003   0.000064
    20  C    0.000041   0.000765   0.013226
    21  O    0.000000   0.000000   0.000009
    22  H    0.000000   0.000000  -0.000001
    23  C    0.000861   0.007920   0.005456
    24  O    0.000000   0.000002   0.000013
    25  H    0.000000   0.000000   0.000000
    26  C   -0.000780  -0.003811   0.036278
    27  O    0.000000   0.000007   0.000140
    28  C   -0.000002  -0.000071  -0.001324
    29  O    0.000000   0.000000  -0.000005
    30  H    0.000000   0.000000   0.000000
    31  H    0.000000   0.000000   0.000000
    32  H    0.000000   0.000000  -0.000028
    33  H    0.000000  -0.000002  -0.000030
    34  H   -0.000003   0.000007   0.010943
    35  H    0.000000  -0.000001  -0.000009
    36  H    0.000000   0.000117   0.000070
    37  H    0.000000  -0.000016  -0.000070
    38  H    0.000077   0.000011   0.000002
    39  H   -0.000004  -0.000039  -0.000010
    40  H   -0.000022  -0.000001   0.000009
    41  H    0.000566  -0.000076   0.004694
    42  H    0.003884   0.001050  -0.000004
    43  H    0.571797   0.005138   0.002058
    44  H    0.005138   0.582580   0.005274
    45  H    0.002058   0.005274   0.625543
 Mulliken atomic charges:
              1
     1  O   -0.557445
     2  C   -0.195594
     3  C    0.225293
     4  O   -0.516150
     5  H    0.352387
     6  C   -0.230751
     7  O   -0.547142
     8  H    0.379931
     9  C   -0.304689
    10  O   -0.532841
    11  H    0.352654
    12  C    0.293169
    13  O   -0.397918
    14  C    0.509850
    15  O   -0.318166
    16  C    0.010392
    17  C   -0.069980
    18  O   -0.575790
    19  H    0.422006
    20  C    0.014350
    21  O   -0.460598
    22  H    0.366135
    23  C    0.058835
    24  O   -0.518222
    25  H    0.335484
    26  C   -0.140353
    27  O   -0.317930
    28  C    0.192619
    29  O   -0.505622
    30  H    0.350986
    31  H    0.118498
    32  H    0.146603
    33  H    0.136758
    34  H    0.116442
    35  H    0.120977
    36  H    0.161717
    37  H    0.133411
    38  H    0.367158
    39  H    0.156708
    40  H    0.116240
    41  H    0.152472
    42  H    0.159428
    43  H    0.159919
    44  H    0.154772
    45  H    0.123996
 Sum of Mulliken atomic charges =   0.00000
 Mulliken charges with hydrogens summed into heavy atoms:
              1
     1  O   -0.190288
     2  C   -0.036166
     3  C    0.385212
     4  O   -0.163763
     6  C   -0.075979
     7  O   -0.167210
     9  C   -0.031742
    10  O   -0.180188
    12  C    0.445641
    13  O   -0.397918
    14  C    0.633846
    15  O   -0.318166
    16  C    0.126834
    17  C    0.066778
    18  O   -0.153783
    20  C    0.160954
    21  O   -0.094463
    23  C    0.353963
    24  O   -0.182738
    26  C   -0.019376
    27  O   -0.317930
    28  C    0.311117
    29  O   -0.154636
 Sum of Mulliken charges with hydrogens summed into heavy atoms =   0.00000
 APT atomic charges:
              1
     1  O   -0.639987
     2  C    0.440733
     3  C    0.320042
     4  O   -0.631642
     5  H    0.250656
     6  C    0.413331
     7  O   -0.654454
     8  H    0.278564
     9  C    0.459747
    10  O   -0.602687
    11  H    0.238523
    12  C    0.363982
    13  O   -0.733904
    14  C    0.882764
    15  O   -0.877843
    16  C    0.453284
    17  C    0.365215
    18  O   -0.709037
    19  H    0.364671
    20  C    0.356667
    21  O   -0.616297
    22  H    0.289889
    23  C    0.484839
    24  O   -0.615864
    25  H    0.227335
    26  C    0.414484
    27  O   -0.767592
    28  C    0.944167
    29  O   -0.677943
    30  H    0.263026
    31  H   -0.065164
    32  H   -0.031550
    33  H   -0.050351
    34  H   -0.049008
    35  H   -0.056348
    36  H   -0.019410
    37  H   -0.050489
    38  H    0.253402
    39  H   -0.027480
    40  H   -0.044791
    41  H   -0.032306
    42  H   -0.020697
    43  H   -0.026255
    44  H   -0.013629
    45  H   -0.050592
 Sum of APT charges=   0.00000
 APT Atomic charges with hydrogens summed into heavy atoms:
[...]
 140,0.00030434,0.00025439,-0.00010810,-0.00000088,-0.00005218,-0.00004
 377,-0.00764218,-0.00064947,0.00241100,0.00153796,0.00035232,0.0002475
 0,-0.00014906,-0.00010511,0.00012874,0.00006563,0.00003454,-0.00001368
 ,-0.00003181,0.00000145,0.00002719,0.00000427,0.00001049,0.00000499,0.
 00002211,-0.00001201,-0.00003249,-0.00002477,0.00000217,0.00003483,-0.
 00001099,0.00000012,0.00000370,0.00001049,0.00000242,-0.00000961,-0.00
 000939,-0.00000147,0.00000602,-0.00000586,0.00001088,0.00000772,0.0000
 0225,-0.00000843,-0.00001093,-0.00000303,0.00000137,0.00000249,-0.0000
 0395,0.00000085,0.00000813,0.00000813,0.00000256,-0.00001321,-0.000002
 54,-0.00000307,0.00001245,0.00000379,-0.00000059,-0.00001211,0.0000000
 3,-0.00000008,0.00000203,0.00000200,0.00000028,0.00000034,0.00000228,-
 0.00000083,-0.00000158,0.00000196,-0.00000034,0.00000356,0.00001015,-0
 .00000276,-0.00000497,0.00000245,-0.00000122,0.00000269,0.00000348,0.0
 0000184,-0.00000005,0.00000137,-0.00000115,-0.00000004,0.00068963,0.00
 007798,-0.00008918,0.00048548,-0.00061552,0.00004227,-0.00025717,-0.00
 025314,-0.00020286,0.00036442,-0.00039711,0.00050139,0.36297413,-0.008
 95643,0.00111580,-0.00187473,0.05046267,-0.05036989,-0.01230804,0.0289
 3496,-0.00923675,-0.00713910,0.00154644,0.00134242,-0.00113782,0.00050
 869,-0.00065963,0.00021375,0.00130712,0.00045013,0.00100281,-0.0007737
 2,-0.00019215,-0.00029339,0.00007762,-0.00005552,-0.00003200,-0.002083
 41,-0.00016573,0.00076852,0.00073683,0.00044316,-0.00048815,-0.0000063
 5,-0.00004402,-0.00004572,-0.02278848,0.00298717,0.00607532,0.00116161
 ,0.00041921,-0.00139658,0.00002205,-0.00053685,0.00015545,0.00002459,0
 .00009690,-0.00004183,-0.00004194,0.00002832,0.00002207,0.00001115,-0.
 00001217,-0.00001472,0.00003429,-0.00000845,-0.00000963,-0.00005099,0.
 00001424,0.00000907,-0.00000598,0.00000374,0.00000375,0.00000626,0.000
 00312,-0.00000720,-0.00000635,0.00000150,0.00000217,0.00001488,0.00000
 662,0.00001303,-0.00001354,-0.00000902,-0.00001140,0.00000554,0.000002
 21,0.00000229,0.00000059,-0.00000006,0.00000604,0.00000039,0.00000501,
 -0.00001036,0.00000039,-0.00000523,0.00001131,0.00000134,0.00000014,-0
 .00000883,0.00000045,0.00000004,0.00000154,0.00000057,0.00000100,0.000
 00044,0.00000096,-0.00000138,-0.00000137,0.00000241,0.00000401,0.00000
 398,0.00000136,-0.00000747,0.00000295,-0.00000107,0.00000292,-0.000001
 79,0.00000762,-0.00000219,0.00000140,-0.00000935,0.00000240,0.00000342
 ,-0.00077967,0.00146957,0.00044839,0.00038167,0.00001092,0.00037561,-0
 .00016630,0.00004440,-0.00026393,-0.00098492,-0.00226466,0.00282174,-0
 .04735904,0.05978194,-0.03901113,-0.00051627,-0.00533612,0.08088415,-0
 .01658833,-0.06584465,0.01091026,0.00008636,-0.00115786,-0.00119825,0.
 00373956,0.00057751,-0.00046487,-0.00001604,0.00006639,0.00084169,0.00
 009279,0.00048010,-0.00032071,-0.00004455,-0.00007937,0.00003000,-0.00
 000912,-0.00000081,0.00074956,-0.00118182,0.00022529,-0.00034698,-0.00
 013921,0.00015530,-0.00008131,0.00001493,0.00001180,0.02443639,-0.0020
 3523,-0.00447808,-0.00118011,-0.00039662,0.00172553,0.00024776,-0.0000
 6939,0.00000806,-0.00003905,-0.00000175,-0.00018943,-0.00001639,-0.000
 02760,0.00001972,0.00002595,0.00001776,0.00003122,-0.00006275,0.000002
 49,-0.00004470,0.00008223,-0.00001308,0.00002448,-0.00000341,-0.000010
 21,0.00000592,-0.00000282,0.00001654,-0.00001496,0.00000086,-0.0000085
 2,0.00001071,0.00002124,0.00000890,0.00000412,-0.00001620,-0.00001176,
 -0.00001165,0.00000424,0.00000121,0.00000076,0.00000929,0.00000862,0.0
 0001705,-0.00000748,0.00000355,-0.00002071,0.00000722,-0.00000400,0.00
 002556,0.00000126,-0.00000004,-0.00001950,0.00000114,-0.00000143,0.000
 00257,-0.00000229,-0.00000032,-0.00000186,-0.00000374,0.00000152,0.000
 00320,-0.00001139,-0.00000373,-0.00001323,-0.00001139,0.00000554,0.000
 00801,-0.00000591,0.00000292,-0.00000523,0.00000352,-0.00000092,-0.000
 00023,-0.00000610,0.00000317,0.00000203,-0.00208447,0.00104808,0.00364
 408,-0.00047692,0.00034232,-0.00003064,-0.00026813,0.00019301,0.000322
 81,0.00022900,0.00279833,-0.00317455,-0.07210392,0.01452694,0.07357486
 ,0.00102095,-0.00007054,0.00010830,-0.00118841,-0.00018967,-0.00120167
 ,-0.33485464,0.09191811,-0.01971671,-0.01735416,-0.00101457,0.00899441
 ,0.00031085,-0.00073122,-0.00030742,-0.01057365,0.00542022,-0.00079566
 ,0.00183089,-0.00068880,0.00092768,-0.00016315,0.00000875,-0.00009215,
 0.00019573,0.00018226,-0.00021036,-0.00002000,0.00005112,0.00005894,-0
 .00000045,0.00002984,-0.00000713,-0.00044097,0.00051372,0.00004313,0.0
 0027794,0.00007689,0.00008673,-0.00109341,-0.00081135,0.00058816,0.000
 40634,0.00004909,-0.00029071,-0.00008311,0.00010451,-0.00003216,0.0000
 1833,-0.00001700,-0.00005651,0.00002470,-0.00000513,0.00003339,-0.0000
 2122,0.00000640,-0.00000765,-0.00001039,0.00001839,0.00000052,0.000007
 37,-0.00000261,0.00000271,-0.00000287,0.00000316,-0.00000548,-0.000046
 94,0.00000734,-0.00000032,0.00002752,0.00000441,0.00000510,-0.00001294
 ,-0.00000119,-0.00000034,0.00000464,-0.00000355,-0.00000514,0.00000968
 ,-0.00000422,0.00000354,-0.00000449,0.00000151,-0.00001354,0.00000080,
 0.00000011,0.00000937,-0.00000063,0.00000069,-0.00000149,0.00000221,-0
 .00000023,0.00000115,0.00000407,-0.00000094,-0.00000257,0.00000492,-0.
 00000543,0.00000831,0.00002299,-0.00000421,-0.00002548,0.00000592,-0.0
 0000461,0.00000976,0.00000132,0.00000364,0.00000482,0.00001515,-0.0000
 0731,-0.00000426,0.00015491,-0.00027427,-0.00006354,0.00001590,-0.0000
 9815,-0.00001168,0.00001979,-0.00005156,0.00003546,0.00036266,0.000116
 23,-0.00011085,0.00033178,-0.00065112,-0.00045472,0.36017258,-0.001540
 32,0.00311654,0.00157227,0.03174776,-0.00850517,0.00245329,0.09497216,
 -0.07389985,0.00460794,-0.02401104,0.00530160,0.00396866,0.00035341,0.
 00065127,-0.00126860,-0.00653424,0.00257820,-0.00235192,0.00020199,0.0
 0108194,0.00154404,-0.00026438,-0.00004304,0.00000538,-0.00024295,0.00
 001011,-0.00010097,-0.00012407,-0.00026357,0.00008395,0.00000630,-0.00
 001450,0.00001043,0.00077216,0.00142581,-0.00079993,-0.00034268,-0.000
 18762,0.00035696,0.00059846,-0.00050602,0.00006729,-0.00003020,0.00007
 286,-0.00021402,-0.00001301,0.00002327,0.00005153,0.00000491,-0.000030
 42,-0.00003367,-0.00002204,0.00002251,0.00003457,0.00002798,-0.0000018
 8,-0.00004886,0.00000303,0.00000177,0.00000988,-0.00000211,0.00001076,
 -0.00000608,0.00000452,-0.00000269,-0.00000351,-0.00002177,0.00001445,
 -0.00000001,0.00000711,-0.00000938,0.00000190,-0.00000574,-0.00000072,
 -0.00000572,0.00001197,0.00002051,0.00001369,-0.00000257,-0.00000907,-
 0.00000949,-0.00000020,0.00000155,0.00000907,-0.00000004,-0.00000046,-
 0.00000290,0.00000024,0.00000040,0.00000018,-0.00000116,-0.00000060,-0
 .00000115,-0.00000147,0.00000102,0.00000036,-0.00000201,0.00000127,-0.
 00000086,0.00000019,0.00000601,0.00000196,-0.00000304,-0.00000585,-0.0
 0000132,-0.00000417,0.00000780,-0.00000119,0.00001440,-0.00000011,-0.0
 0000705,-0.00007061,0.00040581,0.00026225,-0.00016519,0.00013196,-0.00
 002102,0.00002597,-0.00000713,0.00007788,-0.00056622,-0.00037073,0.000
 45040,0.00021728,-0.00464686,-0.00179835,-0.09408539,0.07339413,0.0005
 0364,0.00119074,0.00091585,0.00711050,-0.00516996,0.00109086,-0.024190
 61,0.00487240,-0.04552108,0.03014433,-0.00072776,-0.00687568,0.0014027
 9,-0.00021560,0.00156796,-0.03005853,0.01041513,0.00015863,0.00283318,
 0.00032746,0.00262851,-0.00001947,-0.00015388,-0.00018245,-0.00014075,
 -0.00006536,0.00011380,0.00000284,-0.00011415,0.00001419,0.00000383,-0
 .00001738,0.00001038,-0.00032772,-0.00031805,-0.00050550,0.00027581,0.
 00042470,-0.00027920,-0.00169282,-0.00114651,0.00176490,0.00048030,0.0
 0004402,-0.00048144,-0.00006189,0.00009309,0.00008334,0.00003452,-0.00
 002515,-0.00004895,0.00002900,0.00002018,-0.00000562,-0.00002924,-0.00
 003147,0.00001696,-0.00002216,0.00001328,0.00001066,0.00001221,0.00002
 028,-0.00001685,-0.00000748,-0.00000406,0.00000356,-0.00005381,0.00004
 284,0.00004090,0.00001612,-0.00003081,-0.00002746,-0.00000954,0.000003
 48,-0.00000057,0.00000245,0.00000213,0.00002926,0.00001345,0.00000853,
 -0.00003919,-0.00000131,-0.00001527,0.00002380,0.00000651,0.00000132,-
 0.00001990,-0.00000009,-0.00000038,0.00000300,0.00000181,0.00000021,0.
 00000043,0.00000275,0.00000008,-0.00000135,0.00000220,-0.00000370,0.00
 000634,0.00003669,0.00000072,-0.00004464,0.00000312,-0.00000531,0.0000
 0803,0.00001337,0.00001829,0.00001502,0.00001974,-0.00000703,-0.000007
 16,0.00009797,0.00017071,0.00004119,0.00000076,0.00001631,-0.00003488,
 0.00000164,0.00000643,0.00003607,-0.00004203,0.00011505,0.00016207,0.0
 0050144,-0.00096589,-0.00039659,0.01436663,-0.00806016,0.05136302,0.00
 042099,-0.00013142,-0.00020513,-0.00088835,0.00094228,0.00036930,-0.01
 610767,0.00013154,0.00003188,0.00176934,-0.00004281,0.00159315,0.00048
 639,-0.00002454,0.00036485,-0.35688718,0.03758855,0.02475546,0.0009216
 9,0.00754079,0.00260154,0.00070499,0.00019399,0.00040205,-0.00013379,-
 0.00004426,0.00002554,0.00006876,0.00004574,-0.00002184,-0.00000736,-0
 .00001016,0.00000074,-0.00025265,-0.00034044,-0.00026304,0.00200404,0.
 00031693,-0.00081919,-0.01331249,0.00109772,0.00159085,0.00125554,0.00
 013305,-0.00071294,0.00006913,0.00014578,0.00015126,0.00009297,0.00002
 959,-0.00005332,0.00004418,-0.00002848,-0.00008221,-0.00004132,-0.0000
 4415,0.00008607,-0.00003068,0.00003001,0.00001632,0.00001753,0.0000041
 4,-0.00002897,-0.00001182,-0.00000344,0.00000829,-0.00010609,0.0000489
 5,0.00002607,0.00003098,-0.00003526,-0.00000455,-0.00001266,-0.0000020
 9,-0.00001649,0.00003362,0.00000039,0.00003742,0.00000286,-0.00002946,
 -0.00001896,0.00000038,0.00002238,0.00001056,0.00000228,-0.00000813,-0
 .00000979,0.,0.00000213,0.00000053,0.00000321,-0.00000113,0.00000037,0
 .00000669,-0.00000148,-0.00000402,-0.00000238,-0.00001646,0.00001220,0
 .00008454,0.00001239,-0.00019217,0.00000518,-0.00000935,0.00002002,0.0
 0001930,0.00004463,0.00001985,0.00005160,-0.00001683,-0.00002179,-0.00
 003492,-0.00011358,-0.00007738,0.00004871,-0.00005243,-0.00000626,0.00
 000992,0.00000814,0.00000034,0.00010940,0.00011036,0.00004774,0.000506
 17,-0.00050305,-0.00016885,0.00002373,-0.00087783,-0.00173944,0.378756
 94,0.00008492,0.00007180,0.00018180,-0.00043171,-0.00014803,0.00021727
 ,-0.00454801,0.00341797,0.00140458,0.00072262,-0.00007460,-0.00012091,
 -0.00014941,-0.00007393,-0.00001704,0.03591770,-0.04481609,0.00021101,
 0.03565139,-0.02507033,-0.01435963,0.00146513,0.00136946,0.00012498,-0
 .00010977,0.00001304,-0.00000891,0.00003391,-0.00001703,-0.00000698,0.
 ,-0.00000097,-0.00000053,-0.00023430,-0.00019625,-0.00019369,0.0004424
 8,0.00160152,-0.00010974,-0.02458507,0.00234694,0.00244944,0.00120539,
 0.00056226,-0.00117183,-0.00007396,0.00028641,0.00002135,0.00004221,-0
 .00003911,-0.00014064,0.00008385,-0.00006020,0.00006074,-0.00008364,0.
 00005000,0.00003137,-0.00001173,0.00002486,-0.00000160,0.00000592,0.00
 000738,0.00000938,0.00000173,0.00000730,-0.00001311,0.00016064,-0.0000
 7312,0.00001370,-0.00006550,0.00003363,-0.00003816,0.00003883,0.000009
 42,0.00002789,0.00000104,-0.00006807,-0.00002078,0.00000329,0.00004697
 ,-0.00000579,-0.00000736,-0.00003864,-0.00000715,0.00000350,0.00001232
 ,0.00000839,-0.00000057,-0.00000253,-0.00000005,-0.00000029,0.00000301
 ,0.00000084,0.00000723,-0.00000060,-0.00000697,0.00001179,-0.00001648,
 0.00002295,0.00017042,-0.00007439,-0.00004623,0.00001395,0.00004413,0.
 00001398,0.00003528,-0.00002400,-0.00002010,-0.00011108,0.00000955,0.0
 0006382,0.00003145,0.00004891,0.00000224,0.00002753,-0.00005260,-0.000
 00768,0.00001165,-0.00001168,-0.00000655,0.00012628,0.00002925,0.00002
 890,-0.00003333,0.00006816,-0.00010135,-0.00008040,0.00014700,-0.00109
 905,-0.04503977,0.06375009,0.00046278,-0.00011699,-0.00036056,-0.00069
 918,0.00066679,0.00082232,-0.03374797,0.00289421,-0.00071041,0.0006312
 1,-0.00005602,0.00256377,0.00002278,-0.00013121,0.00068133,0.02442172,
 -0.00026177,-0.04483004,0.01356070,-0.01106212,-0.00142217,-0.00025395
 ,0.00053657,0.00036526,-0.00006909,0.00001647,0.00006804,0.00000821,-0
 .00004308,0.00000798,0.00000094,0.00000021,0.00000182,-0.00011154,-0.0
 0008083,-0.00028482,-0.00175615,-0.00174343,0.00052189,0.02721181,-0.0
 0060751,-0.00291113,-0.00092903,-0.00104731,0.00243175,0.00037773,-0.0
 0034040,-0.00043174,-0.00010043,0.00003424,0.00019405,-0.00008691,0.00
 003237,-0.00001050,0.00007505,0.00000148,-0.00003492,0.00003054,-0.000
 04453,-0.00002172,-0.00002590,-0.00004232,0.00003231,0.00001056,0.0000
 0465,0.00000239,0.00020790,-0.00012162,-0.00016412,-0.00005882,0.00007
 755,0.00008589,0.00002930,-0.00001271,0.00000159,-0.00008030,0.0000555
 5,-0.00003702,-0.00003590,-0.00003412,0.00008563,0.00001289,0.00004675
 ,-0.00004046,-0.00001463,-0.00000817,0.00003456,0.00000084,0.00000024,
 -0.00000596,-0.00000317,-0.00000163,-0.00000186,-0.00000910,0.00000053
 ,0.00000681,-0.00001694,0.00003424,-0.00002636,-0.00029860,0.00006024,
 0.00006318,-0.00002492,0.00000827,-0.00005635,-0.00004337,-0.00011403,
 -0.00016527,-0.00008012,0.00002124,0.00004963,0.00002321,-0.00018937,-
 0.00005426,0.00002177,-0.00001345,0.00001675,-0.00001156,0.00001027,-0
 .00000338,0.00002077,-0.00001989,-0.00013287,0.00021015,-0.00046259,-0
 .00023574,-0.00148428,-0.00103755,-0.00522725,-0.02858002,0.01006299,0
 .05140544,0.00012658,0.00000214,0.00012238,-0.00018084,0.00012786,0.00
 001206,-0.00064703,-0.00019978,-0.00045772,0.00044020,-0.00017361,0.00
 011932,-0.00002107,0.00002355,0.00016083,-0.01007833,0.00280940,0.0026
 0818,0.00103572,-0.00036331,-0.00057975,0.00018504,-0.00016452,-0.0001
 5593,0.00043729,-0.00003497,0.00017560,0.00000377,0.00004677,-0.000012
 58,-0.00000214,-0.00001029,0.00000269,0.00088199,-0.00031625,-0.000279
 66,-0.00071386,0.00714860,0.00225621,-0.34970170,0.02466007,0.05523671
 ,-0.01823209,0.00402729,-0.00731840,-0.00020924,-0.00062378,0.00430683
 ,0.00042935,0.00006013,-0.00025955,0.00031304,-0.00022545,-0.00011491,
 -0.00037916,-0.00004191,0.00025275,-0.00004072,0.00011797,0.00005634,0
 .00003916,0.00005037,-0.00006437,-0.00002459,-0.00000435,-0.00000387,-
 0.00034455,0.00016463,0.00000318,0.00012588,-0.00006695,-0.00002175,-0
 .00004054,-0.00000767,-0.00000270,0.00058691,-0.00018641,0.00002994,-0
 .00000456,-0.00006008,-0.00022132,-0.00001367,-0.00004400,0.00004912,0
 .00001382,0.00000991,-0.00003445,0.00000058,0.00000160,0.00000378,0.00
 000840,0.00000570,0.00000030,0.00003047,0.00000295,-0.00003501,-0.0000
 0568,-0.00022372,0.00017120,0.00176750,-0.00028646,-0.00074785,0.00010
 594,0.00008164,0.00029872,0.00007122,0.00008502,-0.00001763,0.00012730
 ,-0.00006844,0.00000960,0.00000649,0.00000517,-0.00000153,0.00002089,-
 0.00023993,-0.00015255,0.00000463,0.00007763,0.00003930,0.00024112,0.0
 0064798,0.00102750,0.00002728,-0.00007077,-0.00013644,0.00059773,-0.00
 003539,0.00047727,0.00027827,-0.00073423,0.00118101,0.37273322,0.00001
 757,0.00034317,-0.00031864,-0.00041080,-0.00075962,-0.00002825,-0.0006
 1013,0.00015363,-0.00112756,0.00028437,-0.00003423,0.00045749,0.000116
 98,-0.00008980,0.00011839,-0.02362430,0.00518932,0.00572247,0.00141696
 ,0.00224640,-0.00079897,0.00034204,0.00026179,-0.00018431,0.00016510,-
 0.00014570,-0.00019097,-0.00016462,-0.00016637,0.00004645,-0.00000500,
 0.00002271,0.00000806,0.00317689,0.00206053,0.00401599,0.03458904,-0.0
 1789611,-0.01309249,0.02035103,-0.04610990,-0.00194114,0.00247828,0.00
 281742,0.00173747,0.00030802,-0.00008961,0.00014011,0.00018244,-0.0000
 3127,0.00017344,-0.00041361,0.00020829,-0.00003394,0.00052723,0.000141
 76,-0.00059780,0.00001024,-0.00001156,0.00004034,0.00000206,0.00004926
 ,-0.00005182,-0.00000151,-0.00002563,0.00001777,-0.00009578,0.00011559
 ,-0.00006559,0.00003799,-0.00003725,0.00000978,-0.00001924,-0.00000713
 ,0.00000290,-0.00014252,0.00007102,0.00008041,0.00000683,-0.00000653,-
 0.00000313,0.00000802,0.00001694,0.00005940,0.00000410,-0.00000799,-0.
 00004217,0.00000244,-0.00000088,0.00000559,-0.00000366,-0.00000382,-0.
 00000347,-0.00001974,0.00000451,0.00001624,-0.00003324,-0.00000647,-0.
 00004240,-0.00003408,0.00021846,0.00012552,-0.00002461,-0.00003647,-0.
 00004148,0.00001160,-0.00001832,0.00002603,0.00000797,-0.00000689,0.00
 005269,-0.00001242,-0.00000128,-0.00002679,-0.00033604,0.00011862,0.00
 001006,-0.00018075,-0.00013794,-0.00010718,-0.00114132,0.00026859,-0.0
 0026163,-0.00001383,-0.00008703,0.00006507,0.00028707,0.00007710,0.000
 36955,-0.00107295,-0.00310270,0.00302780,-0.03597411,0.05443540,-0.000
 11513,-0.00004117,-0.00022636,-0.00005957,-0.00001108,-0.00006850,0.00
 108423,-0.00021062,0.00103891,-0.00036313,0.00002768,0.00005750,-0.000
 09644,-0.00005432,-0.00003595,0.02158604,-0.00080918,-0.00032297,-0.00
 106500,0.00017549,0.00038566,-0.00022628,0.00008003,0.00005410,0.00005
 276,-0.00010192,-0.00008461,-0.00008108,-0.00008757,0.00003522,0.00000
 440,0.00000708,-0.00000130,0.00238379,0.00062215,0.00237275,0.01234947
 ,-0.00879926,-0.00216092,0.06073441,-0.00308200,-0.05684997,-0.0329295
 8,0.00697415,-0.00985634,-0.00701111,0.00016032,0.00400625,0.00006612,
 -0.00000381,-0.00044751,0.00010581,0.00001302,0.00031617,-0.00007486,0
 .00006396,-0.00029496,0.00000779,0.00003231,0.00005894,0.00003514,0.00
 008130,-0.00001640,-0.00000449,0.00000063,-0.00002644,-0.00015077,0.00
 010442,0.00014682,0.00004226,-0.00008013,-0.00011144,-0.00000864,0.000
 01081,-0.00000445,0.00018907,-0.00011213,-0.00013171,0.00013544,0.0000
 1739,-0.00026385,-0.00003216,-0.00012502,0.00008904,0.00002593,0.00002
 648,-0.00005254,-0.00000066,-0.00000257,0.00001090,0.00000133,0.000006
 21,0.00000612,0.00003854,0.00001191,-0.00004936,0.00017325,-0.00014918
 ,0.00006585,0.00148026,-0.00042356,-0.00057393,0.00020638,0.00001042,0
 .00013358,0.00009581,0.00009135,-0.00004793,0.00003003,-0.00003160,0.0
 0003332,-0.00002655,-0.00000295,-0.00000010,-0.00019039,0.00005944,-0.
 00003510,-0.00007012,-0.00003590,-0.00002842,-0.00073538,0.00017641,0.
 00012333,-0.00007162,0.00004306,0.00010885,-0.00038631,0.00019044,-0.0
 0039297,0.00085393,0.00254684,-0.00227349,-0.05798289,0.00263070,0.065
 31425\\-0.00066331,-0.01658804,0.00977698,0.04782002,0.03101768,-0.030
 19835,-0.04270755,0.00232293,0.03253363,0.01722465,-0.03356028,0.03205
 279,-0.01378555,-0.00749444,-0.02368577,0.00057005,-0.01135197,-0.0080
 7425,0.00688822,-0.01490592,0.00298058,0.00806828,0.03689259,-0.001577
 39,0.01721098,0.01138690,-0.00276476,0.00731874,0.01754384,0.02102561,
 -0.00336040,-0.02129739,-0.02584705,-0.03797102,0.02166754,-0.00573456
 ,0.02713085,-0.00395374,0.03255775,-0.04403301,0.04101740,-0.03864463,
 -0.00097343,-0.04537262,-0.01515343,0.01612619,0.01959869,0.00652375,0
 .00919922,0.00125990,0.02250657,-0.00191527,-0.01462445,0.01941431,0.0
 0873089,0.00170159,-0.02210355,-0.03954174,0.02790865,-0.02239386,0.03
 452075,0.01015474,0.02341262,-0.01700618,0.00079282,-0.02378119,0.0110
 1869,-0.00772146,-0.04549209,0.00304256,-0.03526423,0.00959271,-0.0065
 2227,0.02882401,-0.01045202,-0.02037157,0.00605167,0.01480344,-0.00372
 861,-0.02270098,0.02075598,0.03126976,-0.03985262,-0.02592200,0.005116
 90,0.01820313,0.02750672,-0.00495322,-0.00074390,-0.00065194,-0.017564
 72,0.00797674,-0.00092869,0.01656891,-0.00531273,-0.00082464,-0.019122
 41,0.00616365,-0.00552413,0.01924207,-0.00813300,0.00304611,-0.0232886
 2,0.00670215,-0.00394501,-0.00788508,0.00617718,0.01241729,0.01525624,
 -0.00891331,0.00924544,-0.00141158,0.00044999,0.00492039,-0.01894365,-
 0.00234248,-0.00488400,0.00141297,0.00054320,0.01731931,0.01879448,-0.
 00086885,-0.00120051,-0.01576913,-0.00174529,0.00033169,0.01754638,-0.
 00451587,-0.00076158,-0.01748601,0.00623173,0.00221451,0.01892651,-0.0
 0332512,-0.00439280\\\@


 I HAVE NOT FAILED, I HAVE ONLY DISCOVERED 10,000
 WAYS THAT DIDN'T WORK.  -- THOMAS A. EDISON
 Job cpu time:  0 days 13 hours 17 minutes 36.4 seconds.
 File lengths (MBytes):  RWF=   1323 Int=      0 D2E=      0 Chk=     19 Scr=      1
 Normal termination of Gaussian 09 at Tue Mar  1 16:49:09 2016.
Gaussian '09 finished on node011 at Tue Mar  1 16:49:09 EST 2016.
