Gaussian '09 started on node020 at Fri Feb 12 12:28:10 EST 2016.
 Entering Gaussian System, Link 0=/usr/local/gaussian/g09/g09
 Initial command:
 /usr/local/gaussian/g09/l1.exe /home/srmcgrat/thesis/gaussian/cellobiose/550/10000/1/2dfp/gaussian13987/Gau-14023.inp -scrdir=/home/srmcgrat/thesis/gaussian/cellobiose/550/10000/1/2dfp/gaussian13987/
 Entering Link 1 = /usr/local/gaussian/g09/l1.exe PID=     14025.
  
 Copyright (c) 1988,1990,1992,1993,1995,1998,2003,2009,2010,
            Gaussian, Inc.  All Rights Reserved.
  
 This is part of the Gaussian(R) 09 program.  It is based on
 the Gaussian(R) 03 system (copyright 2003, Gaussian, Inc.),
 the Gaussian(R) 98 system (copyright 1998, Gaussian, Inc.),
 the Gaussian(R) 94 system (copyright 1995, Gaussian, Inc.),
 the Gaussian 92(TM) system (copyright 1992, Gaussian, Inc.),
 the Gaussian 90(TM) system (copyright 1990, Gaussian, Inc.),
 the Gaussian 88(TM) system (copyright 1988, Gaussian, Inc.),
 the Gaussian 86(TM) system (copyright 1986, Carnegie Mellon
 University), and the Gaussian 82(TM) system (copyright 1983,
 Carnegie Mellon University). Gaussian is a federally registered
 trademark of Gaussian, Inc.
  
 This software contains proprietary and confidential information,
 including trade secrets, belonging to Gaussian, Inc.
  
 This software is provided under written license and may be
 used, copied, transmitted, or stored only in accord with that
 written license.
  
 The following legend is applicable only to US Government
 contracts under FAR:
  
                    RESTRICTED RIGHTS LEGEND
  
 Use, reproduction and disclosure by the US Government is
 subject to restrictions as set forth in subparagraphs (a)
 and (c) of the Commercial Computer Software - Restricted
 Rights clause in FAR 52.227-19.
  
 Gaussian, Inc.
 340 Quinnipiac St., Bldg. 40, Wallingford CT 06492
  
  
 ---------------------------------------------------------------
 Warning -- This program may not be used in any manner that
 competes with the business of Gaussian, Inc. or will provide
 assistance to any competitor of Gaussian, Inc.  The licensee
 of this program is prohibited from giving any competitor of
 Gaussian, Inc. access to this program.  By using this program,
 the user acknowledges that Gaussian, Inc. is engaged in the
 business of creating and licensing software in the field of
 computational chemistry and represents and warrants to the
 licensee that it is not a competitor of Gaussian, Inc. and that
 it will not use this program in any manner prohibited above.
 ---------------------------------------------------------------
  

 Cite this work as:
 Gaussian 09, Revision B.01,
 M. J. Frisch, G. W. Trucks, H. B. Schlegel, G. E. Scuseria, 
 M. A. Robb, J. R. Cheeseman, G. Scalmani, V. Barone, B. Mennucci, 
 G. A. Petersson, H. Nakatsuji, M. Caricato, X. Li, H. P. Hratchian, 
 A. F. Izmaylov, J. Bloino, G. Zheng, J. L. Sonnenberg, M. Hada, 
 M. Ehara, K. Toyota, R. Fukuda, J. Hasegawa, M. Ishida, T. Nakajima, 
 Y. Honda, O. Kitao, H. Nakai, T. Vreven, J. A. Montgomery, Jr., 
 J. E. Peralta, F. Ogliaro, M. Bearpark, J. J. Heyd, E. Brothers, 
 K. N. Kudin, V. N. Staroverov, T. Keith, R. Kobayashi, J. Normand, 
 K. Raghavachari, A. Rendell, J. C. Burant, S. S. Iyengar, J. Tomasi, 
 M. Cossi, N. Rega, J. M. Millam, M. Klene, J. E. Knox, J. B. Cross, 
 V. Bakken, C. Adamo, J. Jaramillo, R. Gomperts, R. E. Stratmann, 
 O. Yazyev, A. J. Austin, R. Cammi, C. Pomelli, J. W. Ochterski, 
 R. L. Martin, K. Morokuma, V. G. Zakrzewski, G. A. Voth, 
 P. Salvador, J. J. Dannenberg, S. Dapprich, A. D. Daniels, 
 O. Farkas, J. B. Foresman, J. V. Ortiz, J. Cioslowski, 
 and D. J. Fox, Gaussian, Inc., Wallingford CT, 2010.
 
 ******************************************
 Gaussian 09:  EM64L-G09RevB.01 12-Aug-2010
                12-Feb-2016 
 ******************************************
 --------------------------------------------------
 # freq=raman b3lyp/6-31+g(2df,p) geom=connectivity
 --------------------------------------------------
 1/10=4,30=1,38=1,57=2/1,3;
 2/12=2,17=6,18=5,40=1/2;
 3/5=1,6=6,7=114,11=2,16=1,25=1,30=1,71=2,74=-5/1,2,3;
 4//1;
 5/5=2,38=5,98=1/2;
 8/6=4,10=90,11=11/1;
 10/13=10,15=4/2;
 11/6=3,8=1,9=11,15=111,16=1/1,2,10;
 10/6=1/2;
 6/7=2,8=2,9=2,10=2,18=1,28=1/1;
 7/8=1,10=1,25=1/1,2,3,16;
 1/10=4,30=1/3;
 99//99;
 -------------
 550 10000.com
 -------------
 Symbolic Z-matrix:
 Charge =  0 Multiplicity = 1
 O                     9.613     7.461     11.058 
 C                     10.473    7.668     12.188 
 C                     10.316    9.025     12.854 
 O                     10.624    10.       11.847 
 H                     10.597    9.565     10.947 
 C                     10.764    9.368     14.265 
 O                     10.397    10.586    14.93 
 H                     10.57     11.332    14.286 
 C                     9.921     5.221     12.936 
 O                     9.157     4.182     13.563 
 H                     8.987     3.305     13.112 
 C                     9.946     6.71      13.243 
 O                     10.747    6.924     14.414 
 C                     10.314    8.141     15.041 
 O                     11.15     8.193     16.206 
 C                     10.283    8.092     17.345 
 C                     9.87      6.666     17.67 
 O                     8.851     6.18      16.785 
 H                     9.336     5.605     16.126 
 C                     9.133     6.812     18.991 
 O                     8.794     5.448     19.282 
 H                     8.095     5.425     18.568 
 C                     11.658    10.042    18.193 
 O                     12.582    10.623    19.124 
 H                     13.416    10.085    19.244 
 C                     11.205    8.612     18.436 
 O                     10.692    8.485     19.77 
 C                     10.009    7.279     20.142 
 O                     9.501     7.572     21.451 
 H                     10.14579   7.31711   10.27249 
 H                     10.93896   4.9065    13.03472 
 H                     9.66028   5.16194   11.89993 
 H                     8.9443    7.00639   13.47464 
 H                     11.49543   7.46106   11.94985 
 H                     9.25299   9.10544   12.94583 
 H                     11.83378   9.35003   14.25256 
 H                     9.27064   8.14804   15.27818 
 H                     10.2341   7.70739   22.05584 
 H                     10.78481   10.66013   18.17394 
 H                     12.10815   10.07933   17.22301 
 H                     12.08599   8.00614   18.39492 
 H                     9.42811   8.72576   17.23354 
 H                     10.70497   6.00085   17.74275 
 H                     8.25711   7.41803   18.88884 
 H                     10.75733   6.52525   20.2715 
 

 GradGradGradGradGradGradGradGradGradGradGradGradGradGradGradGradGradGrad
 Berny optimization.
 Initialization pass.
 Trust Radius=3.00D-01 FncErr=1.00D-07 GrdErr=1.00D-07
 Number of steps in this run=      2 maximum allowed number of steps=      2.
 GradGradGradGradGradGradGradGradGradGradGradGradGradGradGradGradGradGrad

                          Input orientation:                          
 ---------------------------------------------------------------------
 Center     Atomic      Atomic             Coordinates (Angstroms)
 Number     Number       Type             X           Y           Z
 ---------------------------------------------------------------------
      1          8           0        9.613000    7.461000   11.058000
      2          6           0       10.473000    7.668000   12.188000
      3          6           0       10.316000    9.025000   12.854000
      4          8           0       10.624000   10.000000   11.847000
      5          1           0       10.597000    9.565000   10.947000
      6          6           0       10.764000    9.368000   14.265000
      7          8           0       10.397000   10.586000   14.930000
      8          1           0       10.570000   11.332000   14.286000
      9          6           0        9.921000    5.221000   12.936000
     10          8           0        9.157000    4.182000   13.563000
     11          1           0        8.987000    3.305000   13.112000
     12          6           0        9.946000    6.710000   13.243000
     13          8           0       10.747000    6.924000   14.414000
     14          6           0       10.314000    8.141000   15.041000
     15          8           0       11.150000    8.193000   16.206000
     16          6           0       10.283000    8.092000   17.345000
     17          6           0        9.870000    6.666000   17.670000
     18          8           0        8.851000    6.180000   16.785000
     19          1           0        9.336000    5.605000   16.126000
     20          6           0        9.133000    6.812000   18.991000
     21          8           0        8.794000    5.448000   19.282000
     22          1           0        8.095000    5.425000   18.568000
     23          6           0       11.658000   10.042000   18.193000
     24          8           0       12.582000   10.623000   19.124000
     25          1           0       13.416000   10.085000   19.244000
     26          6           0       11.205000    8.612000   18.436000
     27          8           0       10.692000    8.485000   19.770000
     28          6           0       10.009000    7.279000   20.142000
     29          8           0        9.501000    7.572000   21.451000
     30          1           0       10.145791    7.317105   10.272489
     31          1           0       10.938961    4.906499   13.034718
     32          1           0        9.660282    5.161937   11.899932
     33          1           0        8.944304    7.006394   13.474635
     34          1           0       11.495429    7.461061   11.949850
     35          1           0        9.252987    9.105440   12.945829
     36          1           0       11.833777    9.350031   14.252557
     37          1           0        9.270642    8.148041   15.278180
     38          1           0       10.234099    7.707385   22.055845
     39          1           0       10.784814   10.660129   18.173945
     40          1           0       12.108150   10.079327   17.223015
     41          1           0       12.085989    8.006136   18.394921
     42          1           0        9.428114    8.725756   17.233536
     43          1           0       10.704971    6.000846   17.742748
     44          1           0        8.257105    7.418030   18.888845
     45          1           0       10.757328    6.525253   20.271505
 ---------------------------------------------------------------------
                    Distance matrix (angstroms):
                    1          2          3          4          5
     1  O    0.000000
     2  C    1.435043   0.000000
     3  C    2.483127   1.519755   0.000000
     4  O    2.844497   2.361632   1.435109   0.000000
     5  H    2.325380   2.270257   2.001802   0.999977   0.000000
     6  C    3.904651   2.699743   1.519630   2.503148   3.328036
     7  O    5.037129   4.004880   2.598665   3.146397   4.116641
     8  H    5.130348   4.223258   2.727158   2.779543   3.777822
     9  C    2.939277   2.617636   3.825332   4.951663   4.825291
    10  O    4.151482   3.971735   5.029971   6.240663   6.155790
    11  H    4.677941   4.700823   5.878027   7.007355   6.816665
    12  C    2.334334   1.519381   2.376436   3.637664   3.721081
    13  O    3.582884   2.362983   2.652086   4.008291   4.360902
    14  C    4.100986   2.896311   2.358904   3.708587   4.343812
    15  O    5.422186   4.108318   3.552982   4.747926   5.463083
    16  C    6.354009   5.177888   4.587010   5.829644   6.572878
    17  C    6.664579   5.605349   5.381232   6.752140   7.357408
    18  O    5.917781   5.096807   5.068827   6.489975   6.970580
    19  H    5.404266   4.588745   4.833506   6.267760   6.640313
    20  C    7.973963   6.986354   6.630206   7.963866   8.627180
    21  O    8.506298   7.620517   7.512030   8.907796   9.469568
    22  H    7.927782   7.168705   7.109334   8.514594   9.026585
    23  C    7.858232   6.565069   5.598230   6.429824   7.338785
    24  O    9.158251   7.828665   6.855746   7.561522   8.480738
    25  H    9.399935   8.018122   7.180926   7.906839   8.778233
    26  C    7.635061   6.361168   5.667417   6.758626   7.573836
    27  O    8.838086   7.629035   6.947232   8.066832   8.889362
    28  C    9.094449   7.977013   7.500514   8.751519   9.493133
    29  O   10.394196   9.314353   8.756931   9.969610  10.747431
    30  H    0.960000   1.974684   3.100012   3.147331   2.389892
    31  H    3.491570   2.925737   4.169267   5.239620   5.116359
    32  H    2.448831   2.650254   4.032799   4.933397   4.601357
    33  H    2.548323   2.104772   2.518235   3.798980   3.958132
    34  H    2.083011   1.070000   2.157416   2.686295   2.497888
    35  H    2.529366   2.031987   1.070000   1.971633   2.452118
    36  H    4.324984   2.990541   2.089319   2.769969   3.535893
    37  H    4.289423   3.350420   2.781812   4.127266   4.746169
    38  H   11.018124   9.870815   9.296062  10.470369  11.268934
    39  H    7.889502   6.699373   5.585271   6.363322   7.311861
    40  H    7.147644   5.817180   4.838563   5.577681   6.475837
    41  H    7.761653   6.421989   5.905316   6.999155   7.753623
    42  H    6.306428   5.260045   4.478641   5.662916   6.449121
    43  H    6.928947   5.804174   5.761655   7.124580   7.674441
    44  H    7.947479   7.062152   6.575770   7.864880   8.553215
    45  H    9.331333   8.168829   7.839827   9.113941   9.808780
                    6          7          8          9         10
     6  C    0.000000
     7  O    1.435423   0.000000
     8  H    1.973670   1.000590   0.000000
     9  C    4.435595   5.743330   6.291901   0.000000
    10  O    5.474472   6.664646   7.324056   1.433997   0.000000
    11  H    6.422391   7.635849   8.265403   2.138782   1.000715
    12  C    2.962866   4.251205   4.779133   1.520525   2.667528
    13  O    2.448597   3.714701   4.413409   2.401451   3.281900
    14  C    1.519936   2.448925   3.289079   3.621032   4.381417
    15  O    2.301543   2.814540   3.725067   4.586516   5.200540
    16  C    3.368373   3.473508   4.465137   5.273800   5.555133
    17  C    4.437800   4.811624   5.806291   4.949887   4.852430
    18  O    4.491471   5.024338   5.978550   4.108453   3.803541
    19  H    4.434261   5.231300   6.140593   3.265851   2.936995
    20  C    5.615013   5.686167   6.680748   6.309933   6.031638
    21  O    6.664652   6.921601   7.920584   6.449293   5.868687
    22  H    6.417680   6.720876   7.704142   5.924130   5.265256
    23  C    4.084446   3.540230   4.255877   7.341339   7.876008
    24  O    5.337605   4.729189   5.287444   8.634458   9.172885
    25  H    5.686619   5.289230   5.851196   8.698528   9.233539
    26  C    4.261837   4.103849   5.002412   6.587681   6.896763
    27  O    5.575832   5.284584   6.180174   7.612601   7.707067
    28  C    6.282760   6.184799   7.143827   7.494634   7.321240
    29  O    7.513946   7.239506   8.161960   8.843575   8.592496
    30  H    4.530839   5.695717   5.692768   3.396834   4.651243
    31  H    4.631327   6.011867   6.556592   1.070000   1.994835
    32  H    4.950021   6.256559   6.677618   1.070000   1.994835
    33  H    3.084340   4.128194   4.691702   2.105159   2.833770
    34  H    3.087285   4.455680   4.614996   2.910187   4.338518
    35  H    2.022946   2.727226   2.913443   3.941474   4.962900
    36  H    1.070000   2.012679   2.350841   4.737186   5.860816
    37  H    2.178291   2.708054   3.579155   3.804779   4.322527
    38  H    7.983464   7.687043   8.580277   9.457892   9.258342
    39  H    4.117023   3.267885   3.951414   7.600419   8.116449
    40  H    3.326045   2.905627   3.544171   6.838528   7.542112
    41  H    4.545171   4.638325   5.499348   6.499537   6.822790
    42  H    3.318023   3.115370   4.096875   5.567321   5.847397
    43  H    4.841069   5.387953   6.355197   4.932301   4.814012
    44  H    5.609532   5.503420   6.469530   6.559866   6.296533
    45  H    6.645250   6.719462   7.678944   7.497343   7.283950
                   11         12         13         14         15
    11  H    0.000000
    12  C    3.539896   0.000000
    13  O    4.229653   1.434795   0.000000
    14  C    5.372976   2.327228   1.435865   0.000000
    15  O    6.176079   3.525376   2.232495   1.434861   0.000000
    16  C    6.520220   4.341647   3.189088   2.304729   1.434995
    17  C    5.731612   4.427871   3.381897   3.047032   2.472534
    18  O    4.666374   3.745089   3.125699   3.004568   3.110114
    19  H    3.807361   3.147191   2.581013   2.926603   3.161446
    20  C    6.847117   5.806107   4.854531   4.331686   3.705627
    21  O    6.534416   6.276087   5.448872   5.248688   4.748425
    22  H    5.920980   5.782132   5.151293   4.973967   4.751199
    23  C    8.850874   6.207710   4.983241   3.918576   2.761346
    24  O   10.130217   7.539644   6.263699   5.289143   4.058355
    25  H   10.158044   7.709963   6.359590   5.573755   4.236020
    26  C    7.837649   5.671855   4.385840   3.541433   2.269689
    27  O    8.606299   6.805062   5.579111   4.756539   3.605152
    28  C    8.139905   6.922711   5.786247   5.182304   4.198735
    29  O    9.381386   8.265128   7.175778   6.486357   5.533070
    30  H    5.050011   3.038492   4.203344   4.842086   6.081298
    31  H    2.526049   2.069291   2.451444   3.857167   4.571942
    32  H    2.317463   2.069291   3.256741   4.378182   5.472552
    33  H    3.719361   1.070000   2.034431   2.369999   3.705871
    34  H    4.991558   2.153383   2.630706   3.378358   4.332421
    35  H    5.808913   2.511317   3.024283   2.538826   3.880712
    36  H    6.778452   3.398922   2.663226   2.095977   2.371120
    37  H    5.312987   2.581865   2.103501   1.070000   2.096392
    38  H   10.046323   8.873782   7.698997   7.028688   5.940992
    39  H    9.107873   6.373488   5.300687   4.047595   3.176932
    40  H    8.516662   5.645155   4.438399   3.425971   2.347467
    41  H    7.720989   5.727287   4.337239   3.795645   2.387964
    42  H    6.823946   4.500651   3.596605   2.435970   2.074741
    43  H    5.626974   4.618081   3.454641   3.468798   2.713888
    44  H    7.128934   5.935422   5.144694   4.422602   4.020830
    45  H    8.047521   7.077589   5.871070   5.492300   4.411791
                   16         17         18         19         20
    16  C    0.000000
    17  C    1.519760   0.000000
    18  O    2.453562   1.434497   0.000000
    19  H    2.927104   1.948028   1.000065   0.000000
    20  C    2.381222   1.519712   2.312009   3.115491   0.000000
    21  O    3.599976   2.289071   2.602707   3.206049   1.435304
    22  H    3.660049   2.344592   2.078617   2.745149   1.783295
    23  C    2.532238   3.855885   4.977626   5.417669   4.176761
    24  O    3.854375   5.012675   6.255520   6.686168   5.141693
    25  H    4.170604   5.171185   6.491143   6.814596   5.396353
    26  C    1.520120   2.481108   3.765865   4.227447   2.800216
    27  O    2.490453   2.897317   4.196729   4.838582   2.415833
    28  C    2.925620   2.550661   3.717286   4.402665   1.519956
    29  O    4.212026   3.905504   4.912405   5.679079   2.600889
    30  H    7.116158   7.431230   6.736638   6.152289   8.791662
    31  H    5.399651   5.071919   4.477276   3.551536   6.509203
    32  H    6.214645   5.966563   5.055223   4.261586   7.299588
    33  H    4.236788   4.309741   3.413231   3.024412   5.523013
    34  H    5.565583   5.999522   5.657985   5.054535   7.455209
    35  H    4.630410   5.352511   4.843453   4.730060   6.466712
    36  H    3.681135   4.768580   5.035804   4.875852   6.015699
    37  H    2.302120   2.876887   2.513919   2.681441   3.948289
    38  H    4.726773   4.522465   5.659300   6.355286   3.377485
    39  H    2.744860   4.128428   5.073496   5.643357   4.266634
    40  H    2.701022   4.106082   5.099572   5.376603   4.759487
    41  H    2.088176   2.689254   4.048676   4.298360   3.240589
    42  H    1.070000   2.151362   2.648607   3.312739   2.615001
    43  H    2.170067   1.070000   2.094418   2.155145   2.164994
    44  H    2.634757   2.156980   2.512288   3.476263   1.070000
    45  H    3.353224   2.752269   3.988609   4.477974   2.088147
                   21         22         23         24         25
    21  O    0.000000
    22  H    0.999463   0.000000
    23  C    5.522070   5.843995   0.000000
    24  O    6.415180   6.889231   1.434607   0.000000
    25  H    6.547221   7.105323   2.048662   0.999700   0.000000
    26  C    4.066882   4.454940   1.519591   2.532507   2.776889
    27  O    3.614404   4.189608   2.417506   2.925826   3.202632
    28  C    2.359743   3.094865   3.761911   4.340390   4.504186
    29  O    3.117016   3.859810   4.622566   4.920985   5.149101
    30  H    9.300118   8.752218   8.511541   9.757731   9.942008
    31  H    6.627414   6.242929   7.314250   8.512186   8.456227
    32  H    7.438226   6.854374   8.210274   9.515609   9.606108
    33  H    6.014704   5.400415   6.232336   7.630727   7.922086
    34  H    8.069111   7.714167   6.757559   7.914981   7.986130
    35  H    7.330389   6.818753   5.847567   7.180189   7.612961
    36  H    7.054175   6.928735   4.004598   5.090309   5.287543
    37  H    4.852627   4.429447   4.216958   5.646313   6.055042
    38  H    3.856543   4.685092   4.732810   4.754909   4.866623
    39  H    5.688358   5.898895   1.070000   2.033189   2.898091
    40  H    6.055758   6.291035   1.070000   2.033189   2.407257
    41  H    4.262413   4.756072   2.090140   2.761441   2.609892
    42  H    3.916885   3.801707   2.761423   4.137678   4.668270
    43  H    2.515302   2.797247   4.176352   5.176428   5.126768
    44  H    2.079386   2.025188   4.351494   5.388121   5.818338
    45  H    2.448316   3.346711   4.183169   4.630089   4.560274
                   26         27         28         29         30
    26  C    0.000000
    27  O    1.434871   0.000000
    28  C    2.473407   1.435029   0.000000
    29  O    3.615998   2.253400   1.434362   0.000000
    30  H    8.333162   9.584625   9.870533  11.199993   0.000000
    31  H    6.555559   7.630903   7.550301   8.944631   3.751007
    32  H    7.550449   8.604950   8.516763   9.851735   2.743910
    33  H    5.683648   6.698681   6.757340   8.015748   3.434219
    34  H    6.593873   7.927717   8.327901   9.708857   2.157727
    35  H    5.847719   7.001787   7.462729   8.645860   3.337962
    36  H    4.294327   5.700360   6.504192   7.773083   4.777345
    37  H    3.732134   4.723373   4.995713   6.203918   5.149105
    38  H    3.855419   2.457528   1.974078   0.960000  11.790148
    39  H    2.107146   2.699480   3.988379   4.682287   8.603323
    40  H    2.107146   3.321821   4.557273   5.564151   7.732434
    41  H    1.070000   2.015777   2.809786   4.026197   8.379322
    42  H    2.148530   2.844120   3.299953   4.373038   7.138315
    43  H    2.747500   3.206391   2.806148   4.203476   7.605919
    44  H    3.212587   2.800638   2.158440   2.852301   8.821503
    45  H    2.814960   2.023952   1.070000   2.016246  10.048947
                   31         32         33         34         35
    31  H    0.000000
    32  H    1.728586   0.000000
    33  H    2.929461   2.528703   0.000000
    34  H    2.830615   2.942147   3.006648   0.000000
    35  H    4.525651   4.100123   2.186531   2.953727   0.000000
    36  H    4.693485   5.272481   3.800901   2.997524   2.903074
    37  H    4.280654   4.525616   2.159311   4.061945   2.521267
    38  H    9.472197  10.485759   8.705867  10.187383   9.268740
    39  H    7.716195   8.417716   6.230631   7.034086   5.665400
    40  H    6.757735   7.649052   5.788194   5.919207   5.233998
    41  H    6.297238   7.493892   5.922743   6.494984   6.239149
    42  H    5.873623   6.418882   4.161684   5.812967   4.308047
    43  H    4.839203   5.994468   4.725237   6.026170   5.895524
    44  H    6.911652   7.476882   5.473148   7.657561   6.257681
    45  H    7.417846   8.552507   7.050956   8.406573   7.911128
                   36         37         38         39         40
    36  H    0.000000
    37  H    3.011037   0.000000
    38  H    8.133176   6.859969   0.000000
    39  H    4.265438   4.121743   4.908272   0.000000
    40  H    3.070956   3.945086   5.700388   1.729976   0.000000
    41  H    4.362206   4.202427   4.113528   2.964045   2.381591
    42  H    3.881130   2.044987   4.994131   2.542991   3.002475
    43  H    4.967160   3.569572   4.662275   4.679875   4.344312
    44  H    6.166066   3.820612   3.744612   4.172721   4.968706
    45  H    6.735417   5.456828   2.203423   4.636563   4.873341
                   41         42         43         44         45
    41  H    0.000000
    42  H    2.988472   0.000000
    43  H    2.520661   3.052015   0.000000
    44  H    3.905148   2.412769   3.051884   0.000000
    45  H    2.734945   3.979733   2.583090   2.993311   0.000000
 Stoichiometry    C12H22O11
 Framework group  C1[X(C12H22O11)]
 Deg. of freedom   129
 Full point group                 C1      NOp   1
 Largest Abelian subgroup         C1      NOp   1
 Largest concise Abelian subgroup C1      NOp   1
                         Standard orientation:                         
 ---------------------------------------------------------------------
 Center     Atomic      Atomic             Coordinates (Angstroms)
 Number     Number       Type             X           Y           Z
 ---------------------------------------------------------------------
      1          8           0       -5.016022    0.246938   -0.438462
      2          6           0       -3.852026   -0.223111    0.256891
      3          6           0       -3.117858   -1.353956   -0.444424
      4          8           0       -4.060883   -2.429722   -0.558310
      5          1           0       -4.983662   -2.077919   -0.401252
      6          6           0       -1.677896   -1.762373   -0.181790
      7          8           0       -0.958376   -2.680948   -1.017823
      8          1           0       -1.555479   -3.470678   -1.162648
      9          6           0       -3.254807    2.277008    0.751618
     10          8           0       -2.707732    3.573827    0.477185
     11          1           0       -3.210597    4.414226    0.682825
     12          6           0       -2.866498    0.929533    0.163805
     13          8           0       -1.662904    0.479719    0.802294
     14          6           0       -0.983275   -0.413340   -0.093394
     15          8           0        0.206512   -0.730263    0.643351
     16          6           0        1.312767   -0.214193   -0.111024
     17          6           0        1.547469    1.273215    0.094412
     18          8           0        0.608199    2.077371   -0.632834
     19          1           0       -0.066867    2.362502    0.047693
     20          6           0        2.852602    1.522453   -0.643176
     21          8           0        3.058888    2.921088   -0.395457
     22          1           0        2.324785    3.183437   -1.020909
     23          6           0        2.305210   -2.499364    0.342053
     24          8           0        3.292824   -3.348431    0.943553
     25          1           0        3.407380   -3.191512    1.924192
     26          6           0        2.456693   -0.997033    0.512963
     27          8           0        3.766395   -0.589794    0.091428
     28          6           0        4.052195    0.810359   -0.039715
     29          8           0        5.359985    0.831483   -0.628470
     30          1           0       -5.792476    0.112121    0.109757
     31          1           0       -3.143990    2.153952    1.808725
     32          1           0       -4.299659    2.373446    0.542132
     33          1           0       -2.648109    1.082780   -0.872400
     34          1           0       -4.071441   -0.466698    1.275430
     35          1           0       -3.052555   -0.987595   -1.447627
     36          1           0       -1.660364   -2.183505    0.801694
     37          1           0       -0.776330    0.020798   -1.049218
     38          1           0        5.992254    0.446132   -0.017454
     39          1           0        2.294641   -2.707051   -0.707544
     40          1           0        1.352123   -2.776858    0.741457
     41          1           0        2.408137   -0.807406    1.564906
     42          1           0        1.211347   -0.449273   -1.149942
     43          1           0        1.607960    1.542639    1.128168
     44          1           0        2.758354    1.321776   -1.689954
     45          1           0        4.161999    1.199339    0.951011
 ---------------------------------------------------------------------
 Rotational constants (GHZ):      0.3803038      0.1550796      0.1163432
 Standard basis: 6-31+G(2df,p) (6D, 7F)
 There are   846 symmetry adapted basis functions of A   symmetry.
 Integral buffers will be    131072 words long.
 Raffenetti 2 integral format.
 Two-electron integral symmetry is turned on.
   846 basis functions,  1258 primitive gaussians,   915 cartesian basis functions
    91 alpha electrons       91 beta electrons
       nuclear repulsion energy      2295.5611542496 Hartrees.
 NAtoms=   45 NActive=   45 NUniq=   45 SFac= 1.00D+00 NAtFMM=   50 NAOKFM=F Big=F
 One-electron integrals computed using PRISM.
 NBasis=   846 RedAO= T  NBF=   846
 NBsUse=   846 1.00D-06 NBFU=   846
 Harris functional with IExCor=  402 diagonalized for initial guess.
 ExpMin= 4.38D-02 ExpMax= 5.48D+03 ExpMxC= 8.25D+02 IAcc=2 IRadAn=         0 AccDes= 0.00D+00
 HarFok:  IExCor=  402 AccDes= 0.00D+00 IRadAn=         0 IDoV= 1
 ScaDFX=  1.000000  1.000000  1.000000  1.000000
 FoFCou: FMM=F IPFlag=           0 FMFlag=      100000 FMFlg1=           0
         NFxFlg=           0 DoJE=T BraDBF=F KetDBF=T FulRan=T
         Omega=  0.000000  0.000000  1.000000  0.000000  0.000000 ICntrl=     500 IOpCl=  0
         NMat0=    1 NMatS0=    1 NMatT0=    0 NMatD0=    1 NMtDS0=    0 NMtDT0=    0
         I1Cent=           4 NGrid=           0.
 Petite list used in FoFCou.
 Initial guess orbital symmetries:
       Occupied  (A) (A) (A) (A) (A) (A) (A) (A) (A) (A) (A) (A)
                 (A) (A) (A) (A) (A) (A) (A) (A) (A) (A) (A) (A)
                 (A) (A) (A) (A) (A) (A) (A) (A) (A) (A) (A) (A)
                 (A) (A) (A) (A) (A) (A) (A) (A) (A) (A) (A) (A)
                 (A) (A) (A) (A) (A) (A) (A) (A) (A) (A) (A) (A)
                 (A) (A) (A) (A) (A) (A) (A) (A) (A) (A) (A) (A)
                 (A) (A) (A) (A) (A) (A) (A) (A) (A) (A) (A) (A)
                 (A) (A) (A) (A) (A) (A) (A)
       Virtual   (A) (A) (A) (A) (A) (A) (A) (A) (A) (A) (A) (A)
                 (A) (A) (A) (A) (A) (A) (A) (A) (A) (A) (A) (A)
                 (A) (A) (A) (A) (A) (A) (A) (A) (A) (A) (A) (A)
                 (A) (A) (A) (A) (A) (A) (A) (A) (A) (A) (A) (A)
                 (A) (A) (A) (A) (A) (A) (A) (A) (A) (A) (A) (A)
                 (A) (A) (A) (A) (A) (A) (A) (A) (A) (A) (A) (A)
                 (A) (A) (A) (A) (A) (A) (A) (A) (A) (A) (A) (A)
                 (A) (A) (A) (A) (A) (A) (A) (A) (A) (A) (A) (A)
                 (A) (A) (A) (A) (A) (A) (A) (A) (A) (A) (A) (A)
                 (A) (A) (A) (A) (A) (A) (A) (A) (A) (A) (A) (A)
                 (A) (A) (A) (A) (A) (A) (A) (A) (A) (A) (A) (A)
                 (A) (A) (A) (A) (A) (A) (A) (A) (A) (A) (A) (A)
                 (A) (A) (A) (A) (A) (A) (A) (A) (A) (A) (A) (A)
                 (A) (A) (A) (A) (A) (A) (A) (A) (A) (A) (A) (A)
                 (A) (A) (A) (A) (A) (A) (A) (A) (A) (A) (A) (A)
                 (A) (A) (A) (A) (A) (A) (A) (A) (A) (A) (A) (A)
                 (A) (A) (A) (A) (A) (A) (A) (A) (A) (A) (A) (A)
                 (A) (A) (A) (A) (A) (A) (A) (A) (A) (A) (A) (A)
                 (A) (A) (A) (A) (A) (A) (A) (A) (A) (A) (A) (A)
                 (A) (A) (A) (A) (A) (A) (A) (A) (A) (A) (A) (A)
                 (A) (A) (A) (A) (A) (A) (A) (A) (A) (A) (A) (A)
                 (A) (A) (A) (A) (A) (A) (A) (A) (A) (A) (A) (A)
                 (A) (A) (A) (A) (A) (A) (A) (A) (A) (A) (A) (A)
                 (A) (A) (A) (A) (A) (A) (A) (A) (A) (A) (A) (A)
                 (A) (A) (A) (A) (A) (A) (A) (A) (A) (A) (A) (A)
                 (A) (A) (A) (A) (A) (A) (A) (A) (A) (A) (A) (A)
                 (A) (A) (A) (A) (A) (A) (A) (A) (A) (A) (A) (A)
                 (A) (A) (A) (A) (A) (A) (A) (A) (A) (A) (A) (A)
                 (A) (A) (A) (A) (A) (A) (A) (A) (A) (A) (A) (A)
                 (A) (A) (A) (A) (A) (A) (A) (A) (A) (A) (A) (A)
                 (A) (A) (A) (A) (A) (A) (A) (A) (A) (A) (A) (A)
                 (A) (A) (A) (A) (A) (A) (A) (A) (A) (A) (A) (A)
                 (A) (A) (A) (A) (A) (A) (A) (A) (A) (A) (A) (A)
                 (A) (A) (A) (A) (A) (A) (A) (A) (A) (A) (A) (A)
                 (A) (A) (A) (A) (A) (A) (A) (A) (A) (A) (A) (A)
                 (A) (A) (A) (A) (A) (A) (A) (A) (A) (A) (A) (A)
                 (A) (A) (A) (A) (A) (A) (A) (A) (A) (A) (A) (A)
                 (A) (A) (A) (A) (A) (A) (A) (A) (A) (A) (A) (A)
                 (A) (A) (A) (A) (A) (A) (A) (A) (A) (A) (A) (A)
                 (A) (A) (A) (A) (A) (A) (A) (A) (A) (A) (A) (A)
                 (A) (A) (A) (A) (A) (A) (A) (A) (A) (A) (A) (A)
                 (A) (A) (A) (A) (A) (A) (A) (A) (A) (A) (A) (A)
                 (A) (A) (A) (A) (A) (A) (A) (A) (A) (A) (A) (A)
                 (A) (A) (A) (A) (A) (A) (A) (A) (A) (A) (A) (A)
                 (A) (A) (A) (A) (A) (A) (A) (A) (A) (A) (A) (A)
                 (A) (A) (A) (A) (A) (A) (A) (A) (A) (A) (A) (A)
                 (A) (A) (A) (A) (A) (A) (A) (A) (A) (A) (A) (A)
                 (A) (A) (A) (A) (A) (A) (A) (A) (A) (A) (A) (A)
                 (A) (A) (A) (A) (A) (A) (A) (A) (A) (A) (A) (A)
                 (A) (A) (A) (A) (A) (A) (A) (A) (A) (A) (A) (A)
                 (A) (A) (A) (A) (A) (A) (A) (A) (A) (A) (A) (A)
                 (A) (A) (A) (A) (A) (A) (A) (A) (A) (A) (A) (A)
                 (A) (A) (A) (A) (A) (A) (A) (A) (A) (A) (A) (A)
                 (A) (A) (A) (A) (A) (A) (A) (A) (A) (A) (A) (A)
                 (A) (A) (A) (A) (A) (A) (A) (A) (A) (A) (A) (A)
                 (A) (A) (A) (A) (A) (A) (A) (A) (A) (A) (A) (A)
                 (A) (A) (A) (A) (A) (A) (A) (A) (A) (A) (A) (A)
                 (A) (A) (A) (A) (A) (A) (A) (A) (A) (A) (A) (A)
                 (A) (A) (A) (A) (A) (A) (A) (A) (A) (A) (A) (A)
                 (A) (A) (A) (A) (A) (A) (A) (A) (A) (A) (A) (A)
                 (A) (A) (A) (A) (A) (A) (A) (A) (A) (A) (A) (A)
                 (A) (A) (A) (A) (A) (A) (A) (A) (A) (A) (A) (A)
                 (A) (A) (A) (A) (A) (A) (A) (A) (A) (A) (A)
 The electronic state of the initial guess is 1-A.
 Requested convergence on RMS density matrix=1.00D-08 within 128 cycles.
 Requested convergence on MAX density matrix=1.00D-06.
 Requested convergence on             energy=1.00D-06.
 No special actions if energy rises.
 SCF Done:  E(RB3LYP) =  -1297.95460188     A.U. after   14 cycles
             Convg  =    0.1486D-08             -V/T =  2.0064
 Range of M.O.s used for correlation:     1   846
 NBasis=   846 NAE=    91 NBE=    91 NFC=     0 NFV=     0
 NROrb=    846 NOA=    91 NOB=    91 NVA=   755 NVB=   755

 **** Warning!!: The largest alpha MO coefficient is  0.87773530D+02

          Differentiating once with respect to electric field.
                with respect to dipole field.
          Electric field/nuclear overlap derivatives assumed to be zero.
          There are     3 degrees of freedom in the 1st order CPHF.  IDoFFX=0.
      3 vectors produced by pass  0 Test12= 2.29D-12 3.33D-08 XBig12= 1.20D+02 9.58D-01.
 AX will form     3 AO Fock derivatives at one time.
      3 vectors produced by pass  1 Test12= 2.29D-12 3.33D-08 XBig12= 2.76D+01 4.84D-01.
      3 vectors produced by pass  2 Test12= 2.29D-12 3.33D-08 XBig12= 1.10D+01 3.13D-01.
      3 vectors produced by pass  3 Test12= 2.29D-12 3.33D-08 XBig12= 1.13D+00 9.69D-02.
      3 vectors produced by pass  4 Test12= 2.29D-12 3.33D-08 XBig12= 2.79D-01 3.79D-02.
      3 vectors produced by pass  5 Test12= 2.29D-12 3.33D-08 XBig12= 6.22D-02 2.54D-02.
      3 vectors produced by pass  6 Test12= 2.29D-12 3.33D-08 XBig12= 2.02D-02 1.76D-02.
      3 vectors produced by pass  7 Test12= 2.29D-12 3.33D-08 XBig12= 3.91D-03 1.01D-02.
      3 vectors produced by pass  8 Test12= 2.29D-12 3.33D-08 XBig12= 7.60D-04 2.61D-03.
      3 vectors produced by pass  9 Test12= 2.29D-12 3.33D-08 XBig12= 1.88D-04 1.90D-03.
      3 vectors produced by pass 10 Test12= 2.29D-12 3.33D-08 XBig12= 6.49D-05 8.36D-04.
      3 vectors produced by pass 11 Test12= 2.29D-12 3.33D-08 XBig12= 8.65D-06 4.28D-04.
      3 vectors produced by pass 12 Test12= 2.29D-12 3.33D-08 XBig12= 1.50D-06 1.31D-04.
      3 vectors produced by pass 13 Test12= 2.29D-12 3.33D-08 XBig12= 2.17D-07 4.89D-05.
      3 vectors produced by pass 14 Test12= 2.29D-12 3.33D-08 XBig12= 4.88D-08 2.27D-05.
      3 vectors produced by pass 15 Test12= 2.29D-12 3.33D-08 XBig12= 1.16D-08 9.99D-06.
      3 vectors produced by pass 16 Test12= 2.29D-12 3.33D-08 XBig12= 1.42D-09 3.72D-06.
      3 vectors produced by pass 17 Test12= 2.29D-12 3.33D-08 XBig12= 1.84D-10 1.46D-06.
      3 vectors produced by pass 18 Test12= 2.29D-12 3.33D-08 XBig12= 5.68D-11 7.31D-07.
      3 vectors produced by pass 19 Test12= 2.29D-12 3.33D-08 XBig12= 1.78D-11 3.47D-07.
      3 vectors produced by pass 20 Test12= 2.29D-12 3.33D-08 XBig12= 7.22D-12 2.04D-07.
      2 vectors produced by pass 21 Test12= 2.29D-12 3.33D-08 XBig12= 1.42D-12 7.20D-08.
      1 vectors produced by pass 22 Test12= 2.29D-12 3.33D-08 XBig12= 2.08D-13 3.66D-08.
 Inverted reduced A of dimension    66 with in-core refinement.
 End of Minotr Frequency-dependent properties file   721 does not exist.
 End of Minotr Frequency-dependent properties file   722 does not exist.
 Symmetrizing basis deriv contribution to polar:
 IMax=3 JMax=2 DiffMx= 0.00D+00
 G2DrvN: will do     8 centers at a time, making    6 passes doing MaxLOS=3.
 Calling FoFCou, ICntrl=  3107 FMM=F I1Cent=   0 AccDes= 0.00D+00.
 Calling FoFCou, ICntrl=  3107 FMM=F I1Cent=   0 AccDes= 0.00D+00.
 Calling FoFCou, ICntrl=  3107 FMM=F I1Cent=   0 AccDes= 0.00D+00.
 Calling FoFCou, ICntrl=  3107 FMM=F I1Cent=   0 AccDes= 0.00D+00.
 Calling FoFCou, ICntrl=  3107 FMM=F I1Cent=   0 AccDes= 0.00D+00.
 Calling FoFCou, ICntrl=  3107 FMM=F I1Cent=   0 AccDes= 0.00D+00.
 FoFDir/FoFCou used for L=0 through L=3.
 End of G2Drv Frequency-dependent properties file   721 does not exist.
 End of G2Drv Frequency-dependent properties file   722 does not exist.
          IDoAtm=111111111111111111111111111111111111111111111
          Differentiating once with respect to electric field.
                with respect to dipole field.
          Differentiating once with respect to nuclear coordinates.
          There are   138 degrees of freedom in the 1st order CPHF.  IDoFFX=5.
 Will reuse    3 saved solutions.
    135 vectors produced by pass  0 Test12= 6.87D-14 1.00D-09 XBig12= 1.93D-01 7.12D-02.
 AX will form    27 AO Fock derivatives at one time.
    135 vectors produced by pass  1 Test12= 6.87D-14 1.00D-09 XBig12= 1.96D-02 1.48D-02.
    132 vectors produced by pass  2 Test12= 6.87D-14 1.00D-09 XBig12= 2.36D-04 2.16D-03.
    132 vectors produced by pass  3 Test12= 6.87D-14 1.00D-09 XBig12= 1.21D-06 1.00D-04.
    132 vectors produced by pass  4 Test12= 6.87D-14 1.00D-09 XBig12= 2.86D-09 3.58D-06.
    132 vectors produced by pass  5 Test12= 6.87D-14 1.00D-09 XBig12= 9.40D-12 1.53D-07.
    101 vectors produced by pass  6 Test12= 6.87D-14 1.00D-09 XBig12= 4.39D-13 3.63D-08.
      4 vectors produced by pass  7 Test12= 6.87D-14 1.00D-09 XBig12= 6.46D-15 4.79D-09.
 Inverted reduced A of dimension   903 with in-core refinement.
 Isotropic polarizability for W=    0.000000      190.36 Bohr**3.
 End of Minotr Frequency-dependent properties file   721 does not exist.
 End of Minotr Frequency-dependent properties file   722 does not exist.

 **********************************************************************

            Population analysis using the SCF density.

 **********************************************************************

 Orbital symmetries:
       Occupied  (A) (A) (A) (A) (A) (A) (A) (A) (A) (A) (A) (A)
                 (A) (A) (A) (A) (A) (A) (A) (A) (A) (A) (A) (A)
                 (A) (A) (A) (A) (A) (A) (A) (A) (A) (A) (A) (A)
                 (A) (A) (A) (A) (A) (A) (A) (A) (A) (A) (A) (A)
                 (A) (A) (A) (A) (A) (A) (A) (A) (A) (A) (A) (A)
                 (A) (A) (A) (A) (A) (A) (A) (A) (A) (A) (A) (A)
                 (A) (A) (A) (A) (A) (A) (A) (A) (A) (A) (A) (A)
                 (A) (A) (A) (A) (A) (A) (A)
       Virtual   (A) (A) (A) (A) (A) (A) (A) (A) (A) (A) (A) (A)
                 (A) (A) (A) (A) (A) (A) (A) (A) (A) (A) (A) (A)
                 (A) (A) (A) (A) (A) (A) (A) (A) (A) (A) (A) (A)
                 (A) (A) (A) (A) (A) (A) (A) (A) (A) (A) (A) (A)
                 (A) (A) (A) (A) (A) (A) (A) (A) (A) (A) (A) (A)
                 (A) (A) (A) (A) (A) (A) (A) (A) (A) (A) (A) (A)
                 (A) (A) (A) (A) (A) (A) (A) (A) (A) (A) (A) (A)
                 (A) (A) (A) (A) (A) (A) (A) (A) (A) (A) (A) (A)
                 (A) (A) (A) (A) (A) (A) (A) (A) (A) (A) (A) (A)
                 (A) (A) (A) (A) (A) (A) (A) (A) (A) (A) (A) (A)
                 (A) (A) (A) (A) (A) (A) (A) (A) (A) (A) (A) (A)
                 (A) (A) (A) (A) (A) (A) (A) (A) (A) (A) (A) (A)
                 (A) (A) (A) (A) (A) (A) (A) (A) (A) (A) (A) (A)
                 (A) (A) (A) (A) (A) (A) (A) (A) (A) (A) (A) (A)
                 (A) (A) (A) (A) (A) (A) (A) (A) (A) (A) (A) (A)
                 (A) (A) (A) (A) (A) (A) (A) (A) (A) (A) (A) (A)
                 (A) (A) (A) (A) (A) (A) (A) (A) (A) (A) (A) (A)
                 (A) (A) (A) (A) (A) (A) (A) (A) (A) (A) (A) (A)
                 (A) (A) (A) (A) (A) (A) (A) (A) (A) (A) (A) (A)
                 (A) (A) (A) (A) (A) (A) (A) (A) (A) (A) (A) (A)
                 (A) (A) (A) (A) (A) (A) (A) (A) (A) (A) (A) (A)
                 (A) (A) (A) (A) (A) (A) (A) (A) (A) (A) (A) (A)
                 (A) (A) (A) (A) (A) (A) (A) (A) (A) (A) (A) (A)
                 (A) (A) (A) (A) (A) (A) (A) (A) (A) (A) (A) (A)
                 (A) (A) (A) (A) (A) (A) (A) (A) (A) (A) (A) (A)
                 (A) (A) (A) (A) (A) (A) (A) (A) (A) (A) (A) (A)
                 (A) (A) (A) (A) (A) (A) (A) (A) (A) (A) (A) (A)
                 (A) (A) (A) (A) (A) (A) (A) (A) (A) (A) (A) (A)
                 (A) (A) (A) (A) (A) (A) (A) (A) (A) (A) (A) (A)
                 (A) (A) (A) (A) (A) (A) (A) (A) (A) (A) (A) (A)
                 (A) (A) (A) (A) (A) (A) (A) (A) (A) (A) (A) (A)
                 (A) (A) (A) (A) (A) (A) (A) (A) (A) (A) (A) (A)
                 (A) (A) (A) (A) (A) (A) (A) (A) (A) (A) (A) (A)
                 (A) (A) (A) (A) (A) (A) (A) (A) (A) (A) (A) (A)
                 (A) (A) (A) (A) (A) (A) (A) (A) (A) (A) (A) (A)
                 (A) (A) (A) (A) (A) (A) (A) (A) (A) (A) (A) (A)
                 (A) (A) (A) (A) (A) (A) (A) (A) (A) (A) (A) (A)
                 (A) (A) (A) (A) (A) (A) (A) (A) (A) (A) (A) (A)
                 (A) (A) (A) (A) (A) (A) (A) (A) (A) (A) (A) (A)
                 (A) (A) (A) (A) (A) (A) (A) (A) (A) (A) (A) (A)
                 (A) (A) (A) (A) (A) (A) (A) (A) (A) (A) (A) (A)
                 (A) (A) (A) (A) (A) (A) (A) (A) (A) (A) (A) (A)
                 (A) (A) (A) (A) (A) (A) (A) (A) (A) (A) (A) (A)
                 (A) (A) (A) (A) (A) (A) (A) (A) (A) (A) (A) (A)
                 (A) (A) (A) (A) (A) (A) (A) (A) (A) (A) (A) (A)
                 (A) (A) (A) (A) (A) (A) (A) (A) (A) (A) (A) (A)
                 (A) (A) (A) (A) (A) (A) (A) (A) (A) (A) (A) (A)
                 (A) (A) (A) (A) (A) (A) (A) (A) (A) (A) (A) (A)
                 (A) (A) (A) (A) (A) (A) (A) (A) (A) (A) (A) (A)
                 (A) (A) (A) (A) (A) (A) (A) (A) (A) (A) (A) (A)
                 (A) (A) (A) (A) (A) (A) (A) (A) (A) (A) (A) (A)
                 (A) (A) (A) (A) (A) (A) (A) (A) (A) (A) (A) (A)
                 (A) (A) (A) (A) (A) (A) (A) (A) (A) (A) (A) (A)
                 (A) (A) (A) (A) (A) (A) (A) (A) (A) (A) (A) (A)
                 (A) (A) (A) (A) (A) (A) (A) (A) (A) (A) (A) (A)
                 (A) (A) (A) (A) (A) (A) (A) (A) (A) (A) (A) (A)
                 (A) (A) (A) (A) (A) (A) (A) (A) (A) (A) (A) (A)
                 (A) (A) (A) (A) (A) (A) (A) (A) (A) (A) (A) (A)
                 (A) (A) (A) (A) (A) (A) (A) (A) (A) (A) (A) (A)
                 (A) (A) (A) (A) (A) (A) (A) (A) (A) (A) (A) (A)
                 (A) (A) (A) (A) (A) (A) (A) (A) (A) (A) (A) (A)
                 (A) (A) (A) (A) (A) (A) (A) (A) (A) (A) (A) (A)
                 (A) (A) (A) (A) (A) (A) (A) (A) (A) (A) (A)
 The electronic state is 1-A.
 Alpha  occ. eigenvalues --  -19.20005 -19.18418 -19.18254 -19.17621 -19.17058
 Alpha  occ. eigenvalues --  -19.16966 -19.16792 -19.15305 -19.14725 -19.14664
 Alpha  occ. eigenvalues --  -19.14364 -10.30176 -10.28699 -10.28034 -10.26403
 Alpha  occ. eigenvalues --  -10.25981 -10.25916 -10.25097 -10.24959 -10.24501
 Alpha  occ. eigenvalues --  -10.24329 -10.23714 -10.21912  -1.10215  -1.07964
 Alpha  occ. eigenvalues --   -1.06705  -1.05283  -1.04814  -1.03946  -1.03160
 Alpha  occ. eigenvalues --   -1.02714  -1.01524  -1.00772  -0.99478  -0.82279
 Alpha  occ. eigenvalues --   -0.81988  -0.78892  -0.77339  -0.72578  -0.69410
 Alpha  occ. eigenvalues --   -0.67336  -0.64785  -0.63461  -0.62831  -0.61773
 Alpha  occ. eigenvalues --   -0.60556  -0.57518  -0.55711  -0.55360  -0.54671
 Alpha  occ. eigenvalues --   -0.53514  -0.53009  -0.52903  -0.51892  -0.50798
 Alpha  occ. eigenvalues --   -0.50356  -0.49802  -0.48004  -0.47806  -0.46629
 Alpha  occ. eigenvalues --   -0.45847  -0.45218  -0.44802  -0.43946  -0.43555
 Alpha  occ. eigenvalues --   -0.42699  -0.42461  -0.41512  -0.40025  -0.39185
 Alpha  occ. eigenvalues --   -0.38578  -0.38298  -0.37672  -0.37279  -0.37091
 Alpha  occ. eigenvalues --   -0.36521  -0.34711  -0.34468  -0.33892  -0.32882
 Alpha  occ. eigenvalues --   -0.32387  -0.31560  -0.31117  -0.29955  -0.29765
 Alpha  occ. eigenvalues --   -0.29493  -0.29209  -0.28448  -0.27418  -0.26196
 Alpha  occ. eigenvalues --   -0.25600
 Alpha virt. eigenvalues --   -0.03839  -0.02447  -0.00748  -0.00292   0.00713
 Alpha virt. eigenvalues --    0.00978   0.01611   0.01845   0.02636   0.02866
 Alpha virt. eigenvalues --    0.03467   0.04205   0.04463   0.05625   0.05747
 Alpha virt. eigenvalues --    0.06301   0.06671   0.06923   0.07380   0.07959
 Alpha virt. eigenvalues --    0.08384   0.08778   0.09463   0.09564   0.09623
 Alpha virt. eigenvalues --    0.10221   0.10696   0.11102   0.11365   0.11567
 Alpha virt. eigenvalues --    0.11845   0.11964   0.12709   0.13071   0.13470
 Alpha virt. eigenvalues --    0.13687   0.13997   0.14302   0.14630   0.15020
 Alpha virt. eigenvalues --    0.15252   0.15466   0.15900   0.16065   0.16700
 Alpha virt. eigenvalues --    0.16983   0.17347   0.17854   0.18196   0.18484
 Alpha virt. eigenvalues --    0.18648   0.19174   0.19520   0.19580   0.19775
 Alpha virt. eigenvalues --    0.20300   0.20666   0.20761   0.21057   0.21458
 Alpha virt. eigenvalues --    0.21770   0.21822   0.22196   0.22798   0.23106
 Alpha virt. eigenvalues --    0.23140   0.23407   0.23815   0.24252   0.24410
 Alpha virt. eigenvalues --    0.24673   0.25213   0.25405   0.25832   0.25940
 Alpha virt. eigenvalues --    0.26228   0.26636   0.26688   0.27099   0.27590
 Alpha virt. eigenvalues --    0.27705   0.28052   0.28328   0.28596   0.29000
 Alpha virt. eigenvalues --    0.29805   0.30024   0.30085   0.30674   0.30789
 Alpha virt. eigenvalues --    0.30950   0.31409   0.31656   0.32231   0.32429
 Alpha virt. eigenvalues --    0.32603   0.32888   0.33181   0.33545   0.33885
 Alpha virt. eigenvalues --    0.34024   0.34195   0.35057   0.35141   0.35880
 Alpha virt. eigenvalues --    0.36053   0.36514   0.36776   0.37190   0.37349
 Alpha virt. eigenvalues --    0.37498   0.38131   0.38251   0.38645   0.39015
 Alpha virt. eigenvalues --    0.39380   0.39670   0.40267   0.40679   0.40840
 Alpha virt. eigenvalues --    0.41481   0.42126   0.42313   0.42461   0.43271
 Alpha virt. eigenvalues --    0.43531   0.44293   0.44912   0.46187   0.46448
 Alpha virt. eigenvalues --    0.46966   0.47608   0.47997   0.48811   0.49599
 Alpha virt. eigenvalues --    0.49975   0.50589   0.54345   0.56169   0.58088
 Alpha virt. eigenvalues --    0.58956   0.59935   0.60549   0.61327   0.62207
 Alpha virt. eigenvalues --    0.63284   0.63925   0.64649   0.65273   0.65841
 Alpha virt. eigenvalues --    0.67100   0.67714   0.68730   0.69358   0.70306
 Alpha virt. eigenvalues --    0.70591   0.70920   0.71933   0.72655   0.73236
 Alpha virt. eigenvalues --    0.73756   0.74291   0.74564   0.75183   0.76531
 Alpha virt. eigenvalues --    0.77357   0.77722   0.78884   0.79887   0.80271
 Alpha virt. eigenvalues --    0.81835   0.82559   0.83112   0.84463   0.85125
 Alpha virt. eigenvalues --    0.86286   0.86531   0.87746   0.88114   0.88287
 Alpha virt. eigenvalues --    0.89403   0.89547   0.90285   0.90807   0.91393
 Alpha virt. eigenvalues --    0.91631   0.91665   0.92377   0.92850   0.93294
 Alpha virt. eigenvalues --    0.93906   0.94076   0.94127   0.94851   0.95318
 Alpha virt. eigenvalues --    0.96019   0.96378   0.97075   0.97281   0.97653
 Alpha virt. eigenvalues --    0.98546   0.99532   1.00439   1.00871   1.01051
 Alpha virt. eigenvalues --    1.01351   1.02195   1.02875   1.03256   1.03743
 Alpha virt. eigenvalues --    1.04023   1.05300   1.05666   1.06675   1.07033
 Alpha virt. eigenvalues --    1.07542   1.08792   1.08937   1.09547   1.09958
 Alpha virt. eigenvalues --    1.10671   1.11606   1.11969   1.12398   1.12791
 Alpha virt. eigenvalues --    1.13526   1.14071   1.15280   1.15548   1.16066
 Alpha virt. eigenvalues --    1.16847   1.17198   1.17718   1.18099   1.19209
 Alpha virt. eigenvalues --    1.19788   1.19969   1.20206   1.21412   1.22164
 Alpha virt. eigenvalues --    1.22452   1.22860   1.23089   1.23478   1.24097
 Alpha virt. eigenvalues --    1.24557   1.24912   1.25095   1.25611   1.25874
 Alpha virt. eigenvalues --    1.26712   1.27351   1.27601   1.28790   1.29392
 Alpha virt. eigenvalues --    1.30182   1.30589   1.31084   1.32164   1.32691
 Alpha virt. eigenvalues --    1.33759   1.34282   1.35074   1.35226   1.36127
 Alpha virt. eigenvalues --    1.36774   1.37132   1.38046   1.38408   1.39144
 Alpha virt. eigenvalues --    1.39591   1.40444   1.41237   1.41757   1.42757
 Alpha virt. eigenvalues --    1.43189   1.44100   1.45025   1.45310   1.47381
 Alpha virt. eigenvalues --    1.47748   1.48781   1.49713   1.50132   1.50878
 Alpha virt. eigenvalues --    1.51961   1.52143   1.53526   1.54530   1.55307
 Alpha virt. eigenvalues --    1.55578   1.56136   1.56656   1.57385   1.58655
 Alpha virt. eigenvalues --    1.59620   1.60277   1.60594   1.62273   1.63361
 Alpha virt. eigenvalues --    1.63923   1.64812   1.66886   1.68252   1.69012
 Alpha virt. eigenvalues --    1.69331   1.69783   1.71062   1.71725   1.72177
 Alpha virt. eigenvalues --    1.72931   1.74406   1.75629   1.75889   1.77016
 Alpha virt. eigenvalues --    1.77884   1.79839   1.80284   1.80543   1.81813
 Alpha virt. eigenvalues --    1.82373   1.83499   1.85579   1.86109   1.86562
 Alpha virt. eigenvalues --    1.87139   1.87887   1.89155   1.90041   1.90478
 Alpha virt. eigenvalues --    1.92447   1.93006   1.93285   1.94920   1.95443
 Alpha virt. eigenvalues --    1.96468   1.97763   1.98404   1.98652   2.00911
 Alpha virt. eigenvalues --    2.01297   2.02802   2.03501   2.04718   2.06738
 Alpha virt. eigenvalues --    2.07182   2.09924   2.10815   2.12446   2.13398
 Alpha virt. eigenvalues --    2.14962   2.15728   2.18786   2.19347   2.20395
 Alpha virt. eigenvalues --    2.20976   2.22008   2.22675   2.23515   2.24341
 Alpha virt. eigenvalues --    2.24866   2.25463   2.26856   2.28496   2.31215
 Alpha virt. eigenvalues --    2.32323   2.34853   2.35518   2.37054   2.39515
 Alpha virt. eigenvalues --    2.41115   2.43373   2.46218   2.46431   2.47385
 Alpha virt. eigenvalues --    2.50468   2.52527   2.52787   2.54030   2.55205
 Alpha virt. eigenvalues --    2.56215   2.56894   2.58591   2.59466   2.60213
 Alpha virt. eigenvalues --    2.60992   2.62047   2.63950   2.64351   2.64902
 Alpha virt. eigenvalues --    2.66894   2.67107   2.68976   2.70576   2.72633
 Alpha virt. eigenvalues --    2.73439   2.74679   2.75456   2.75802   2.78691
 Alpha virt. eigenvalues --    2.79933   2.80509   2.81530   2.82670   2.83564
 Alpha virt. eigenvalues --    2.84119   2.85461   2.86096   2.87310   2.88127
 Alpha virt. eigenvalues --    2.89439   2.90077   2.90933   2.91523   2.91980
 Alpha virt. eigenvalues --    2.93685   2.96287   2.97067   2.97816   2.98525
 Alpha virt. eigenvalues --    2.98961   3.00127   3.00909   3.02211   3.02583
 Alpha virt. eigenvalues --    3.03513   3.03825   3.04729   3.05479   3.05757
 Alpha virt. eigenvalues --    3.06899   3.07821   3.09444   3.09687   3.10382
 Alpha virt. eigenvalues --    3.11518   3.12269   3.13859   3.14889   3.16788
 Alpha virt. eigenvalues --    3.17300   3.18429   3.20316   3.20947   3.22387
 Alpha virt. eigenvalues --    3.23116   3.25220   3.25525   3.26037   3.27094
 Alpha virt. eigenvalues --    3.28655   3.30325   3.31135   3.32319   3.33638
 Alpha virt. eigenvalues --    3.34576   3.34939   3.36911   3.37601   3.38194
 Alpha virt. eigenvalues --    3.39048   3.40565   3.42043   3.45013   3.46506
 Alpha virt. eigenvalues --    3.47273   3.47775   3.48900   3.49836   3.51352
 Alpha virt. eigenvalues --    3.53996   3.55569   3.57178   3.58673   3.59378
 Alpha virt. eigenvalues --    3.60137   3.61636   3.63660   3.64460   3.66086
 Alpha virt. eigenvalues --    3.68166   3.68933   3.69542   3.70339   3.72835
 Alpha virt. eigenvalues --    3.73489   3.74311   3.74604   3.76606   3.77078
 Alpha virt. eigenvalues --    3.78842   3.80562   3.82426   3.84454   3.85012
 Alpha virt. eigenvalues --    3.86220   3.87744   3.89354   3.90404   3.93628
 Alpha virt. eigenvalues --    3.94424   3.96979   3.99116   4.03409   4.04759
 Alpha virt. eigenvalues --    4.06505   4.07847   4.11687   4.14537   4.14684
 Alpha virt. eigenvalues --    4.14965   4.15560   4.17235   4.17987   4.19188
 Alpha virt. eigenvalues --    4.20285   4.20608   4.21115   4.22594   4.23883
 Alpha virt. eigenvalues --    4.24728   4.25375   4.27527   4.28077   4.29733
 Alpha virt. eigenvalues --    4.30897   4.31677   4.33060   4.34020   4.34185
 Alpha virt. eigenvalues --    4.34574   4.36033   4.37096   4.37485   4.39012
 Alpha virt. eigenvalues --    4.40519   4.41028   4.42228   4.43499   4.44430
 Alpha virt. eigenvalues --    4.44875   4.45141   4.45573   4.46012   4.46472
 Alpha virt. eigenvalues --    4.47952   4.48538   4.49492   4.50046   4.51045
 Alpha virt. eigenvalues --    4.51947   4.52230   4.52599   4.53033   4.53691
 Alpha virt. eigenvalues --    4.54907   4.56216   4.56717   4.57378   4.57525
 Alpha virt. eigenvalues --    4.58422   4.59405   4.59878   4.60905   4.61892
 Alpha virt. eigenvalues --    4.62352   4.63070   4.63700   4.64644   4.65588
 Alpha virt. eigenvalues --    4.65785   4.67209   4.67302   4.67931   4.68746
 Alpha virt. eigenvalues --    4.69637   4.70087   4.70714   4.71159   4.72099
 Alpha virt. eigenvalues --    4.73064   4.73505   4.74027   4.74742   4.75884
 Alpha virt. eigenvalues --    4.76645   4.77068   4.77957   4.78073   4.79120
 Alpha virt. eigenvalues --    4.79730   4.80188   4.80880   4.81283   4.82464
 Alpha virt. eigenvalues --    4.83234   4.84085   4.85105   4.85448   4.85969
 Alpha virt. eigenvalues --    4.86798   4.87445   4.88256   4.89561   4.91048
 Alpha virt. eigenvalues --    4.92364   4.93804   4.94383   4.94846   4.96058
 Alpha virt. eigenvalues --    4.97085   4.98309   5.00779   5.01638   5.03288
 Alpha virt. eigenvalues --    5.04739   5.08301   5.08687   5.09712   5.11961
 Alpha virt. eigenvalues --    5.12319   5.14941   5.16183   5.16944   5.18386
 Alpha virt. eigenvalues --    5.19017   5.20390   5.21578   5.22001   5.23494
 Alpha virt. eigenvalues --    5.23979   5.25918   5.26572   5.27364   5.27881
 Alpha virt. eigenvalues --    5.29381   5.30758   5.30944   5.33740   5.34550
 Alpha virt. eigenvalues --    5.35094   5.36744   5.37761   5.38910   5.39366
 Alpha virt. eigenvalues --    5.40301   5.40767   5.42093   5.43049   5.43595
 Alpha virt. eigenvalues --    5.44643   5.44893   5.45514   5.45812   5.46789
 Alpha virt. eigenvalues --    5.48083   5.48655   5.49529   5.51059   5.51173
 Alpha virt. eigenvalues --    5.53152   5.54500   5.56468   5.57072   5.59354
 Alpha virt. eigenvalues --    5.60069   5.60343   5.63369   5.65420   5.67852
 Alpha virt. eigenvalues --    5.70323   5.71385   5.72991   5.73884   5.75452
 Alpha virt. eigenvalues --    5.76994   5.78253   5.79317   5.80207   5.82045
 Alpha virt. eigenvalues --    5.85894   5.86368   5.88356   5.88618   5.90456
 Alpha virt. eigenvalues --    5.92235   5.92632   5.93453   5.94083   5.95459
 Alpha virt. eigenvalues --    5.96453   5.97071   5.97370   5.99364   6.01209
 Alpha virt. eigenvalues --    6.02128   6.02630   6.04306   6.04893   6.05892
 Alpha virt. eigenvalues --    6.07188   6.07905   6.09300   6.11786   6.12554
 Alpha virt. eigenvalues --    6.14259   6.16689   6.17421   6.19018   6.20221
 Alpha virt. eigenvalues --    6.25331   6.26457   6.30155   6.37007   6.46038
 Alpha virt. eigenvalues --    6.61765   6.76492   7.00457   7.03346   7.07809
 Alpha virt. eigenvalues --    7.09461   7.14794   7.19947   7.23085   7.27653
 Alpha virt. eigenvalues --    7.35701   7.40944   7.45021   7.66653   7.77010
 Alpha virt. eigenvalues --    7.96857   8.02221  12.02618  12.13695  12.19200
 Alpha virt. eigenvalues --   12.27362  12.48329  12.63565  12.84535  12.91431
 Alpha virt. eigenvalues --   13.02267  13.12953  13.22064  13.31616  13.36367
 Alpha virt. eigenvalues --   13.40125  13.42053  13.46631  13.58480  13.64203
 Alpha virt. eigenvalues --   13.68405  13.72860  13.97465  14.03529  14.41520
          Condensed to atoms (all electrons):
              1          2          3          4          5          6
     1  O    8.155008   0.107259   0.047966  -0.021472   0.021319   0.075011
     2  C    0.107259   8.550757  -0.344164   0.063031  -0.030899  -1.503653
     3  C    0.047966  -0.344164   7.171479   0.214837  -0.043385  -1.473704
     4  O   -0.021472   0.063031   0.214837   8.164019   0.249393  -0.157075
     5  H    0.021319  -0.030899  -0.043385   0.249393   0.423007   0.009589
     6  C    0.075011  -1.503653  -1.473704  -0.157075   0.009589  11.901154
     7  O   -0.000188   0.016068   0.009703  -0.004129   0.000028   0.079889
     8  H   -0.000032   0.002692  -0.038517   0.006990  -0.000158   0.005679
     9  C   -0.015476  -0.075189  -0.498548   0.013926  -0.005416   0.520006
    10  O   -0.001565   0.003658  -0.000385   0.000042   0.000001  -0.007321
    11  H    0.000153  -0.001253   0.000452   0.000000   0.000000   0.000546
    12  C   -0.121187  -1.830752  -0.148357  -0.008310   0.032037   0.540657
    13  O    0.008713  -0.025397  -0.003457  -0.005542   0.000012   0.030350
    14  C   -0.036991   0.844713   0.840717   0.027004   0.005435  -3.730046
    15  O   -0.000296  -0.030611  -0.013563   0.000830   0.000014  -0.035019
    16  C    0.002222   0.241457  -0.113259   0.000985   0.000236   0.070804
    17  C   -0.001588  -0.084880   0.031221   0.001061   0.000040  -0.378010
    18  O    0.000002  -0.007808   0.000142  -0.000014   0.000000   0.035695
    19  H   -0.000014   0.001983   0.002171   0.000002   0.000000  -0.014332
    20  C    0.000082  -0.000988  -0.003835  -0.000025   0.000003  -0.092526
    21  O    0.000000   0.000089   0.000069   0.000000   0.000000   0.002571
    22  H    0.000000   0.000013  -0.000014   0.000000   0.000000  -0.000116
    23  C    0.000102   0.008616  -0.035821  -0.000373  -0.000036  -0.013487
    24  O    0.000000  -0.000009  -0.000067   0.000002   0.000000  -0.002864
    25  H    0.000000  -0.000011  -0.000118   0.000000   0.000000   0.001320
    26  C    0.000166  -0.044751   0.028497   0.000375   0.000019   0.025043
    27  O    0.000000   0.000329   0.000155   0.000001   0.000000  -0.002039
    28  C   -0.000010   0.000789   0.000248   0.000017   0.000000  -0.004320
    29  O    0.000000   0.000002   0.000018   0.000000   0.000000   0.000051
    30  H    0.261603   0.073327  -0.048195  -0.000725  -0.001529  -0.009091
    31  H   -0.000675   0.022323  -0.027852   0.000111  -0.000002   0.017843
    32  H   -0.002509   0.022414   0.000834  -0.000085  -0.000005  -0.007630
    33  H   -0.001149   0.112674  -0.081299   0.001233  -0.000003  -0.039615
    34  H   -0.021788   0.344357  -0.061643   0.001486   0.000250  -0.026310
    35  H   -0.009808   0.020300   0.384849  -0.034342   0.001247  -0.265564
    36  H   -0.000426  -0.008575  -0.014202   0.000046  -0.000179   0.399620
    37  H    0.000374  -0.033963  -0.031950  -0.000570   0.000004   0.076096
    38  H    0.000000   0.000000  -0.000001   0.000000   0.000000   0.000013
    39  H    0.000000  -0.000153  -0.002333  -0.000002   0.000000   0.001416
    40  H    0.000000   0.001117   0.005496   0.000005   0.000000  -0.032747
    41  H    0.000000  -0.000411  -0.001157  -0.000001   0.000000   0.000952
    42  H   -0.000001  -0.002048   0.006523   0.000007   0.000000  -0.010460
    43  H    0.000000   0.000928  -0.000039   0.000000   0.000000   0.005577
    44  H    0.000000   0.000199  -0.000148   0.000000   0.000000   0.004318
    45  H    0.000000   0.000014   0.000016   0.000000   0.000000   0.000335
              7          8          9         10         11         12
     1  O   -0.000188  -0.000032  -0.015476  -0.001565   0.000153  -0.121187
     2  C    0.016068   0.002692  -0.075189   0.003658  -0.001253  -1.830752
     3  C    0.009703  -0.038517  -0.498548  -0.000385   0.000452  -0.148357
     4  O   -0.004129   0.006990   0.013926   0.000042   0.000000  -0.008310
     5  H    0.000028  -0.000158  -0.005416   0.000001   0.000000   0.032037
     6  C    0.079889   0.005679   0.520006  -0.007321   0.000546   0.540657
     7  O    8.121361   0.240244  -0.001434  -0.000005   0.000000  -0.012554
     8  H    0.240244   0.397851   0.000674   0.000000   0.000000   0.002348
     9  C   -0.001434   0.000674   8.458767   0.173174  -0.032200  -1.831651
    10  O   -0.000005   0.000000   0.173174   8.146305   0.259326  -0.007818
    11  H    0.000000   0.000000  -0.032200   0.259326   0.395483   0.018963
    12  C   -0.012554   0.002348  -1.831651  -0.007818   0.018963  10.396582
    13  O    0.005270  -0.000689  -0.060586   0.006218  -0.000554   0.071877
    14  C    0.104561   0.007958  -0.976779   0.007645  -0.002419  -1.017424
    15  O   -0.013812   0.002466  -0.002545  -0.000180  -0.000009  -0.013172
    16  C   -0.012924   0.003909  -0.168187   0.018878  -0.000566  -0.321060
    17  C    0.005641  -0.000368  -0.004640  -0.005790  -0.000191   0.001990
    18  O    0.000099  -0.000009  -0.001778  -0.003033   0.000159   0.031010
    19  H   -0.000006   0.000000  -0.008389   0.006177  -0.000126   0.007202
    20  C    0.000628  -0.000292  -0.016143  -0.001201  -0.000087  -0.021363
    21  O    0.000013   0.000000   0.000076   0.000134  -0.000002  -0.000001
    22  H   -0.000003   0.000000  -0.000076  -0.000028   0.000000   0.000098
    23  C   -0.022505   0.000672  -0.002674   0.000017   0.000000  -0.019020
    24  O    0.001173  -0.000026  -0.000060   0.000000   0.000000  -0.000767
    25  H    0.000007   0.000000   0.000002   0.000000   0.000000  -0.000043
    26  C   -0.004527   0.000022  -0.016342   0.000492  -0.000014  -0.049298
    27  O   -0.000151   0.000005  -0.000222   0.000002   0.000000  -0.000072
    28  C    0.000093   0.000050   0.000378   0.000212   0.000000   0.011653
    29  O    0.000002   0.000000   0.000012   0.000000   0.000000   0.000089
    30  H   -0.000004   0.000000   0.009068   0.000090  -0.000001  -0.028988
    31  H    0.000007   0.000000   0.706314  -0.059810   0.001253  -0.351748
    32  H   -0.000004   0.000000   0.368589  -0.032502  -0.007385  -0.043155
    33  H    0.000317   0.000000   0.056248  -0.003024  -0.000075   0.104176
    34  H    0.000100   0.000001  -0.044116  -0.000240   0.000001   0.028922
    35  H    0.000837  -0.000242   0.008095   0.000059   0.000000   0.078700
    36  H   -0.043781  -0.002154   0.014370   0.000002   0.000000   0.086812
    37  H   -0.000084  -0.000350   0.016858  -0.000258   0.000000   0.037671
    38  H    0.000000   0.000000   0.000000   0.000000   0.000000  -0.000002
    39  H    0.000067   0.000015   0.000091   0.000000   0.000000   0.001097
    40  H   -0.001186  -0.000013   0.000044   0.000000   0.000000   0.002151
    41  H    0.000233   0.000001   0.000781   0.000000   0.000000   0.003013
    42  H   -0.000185  -0.000020   0.000282   0.000003   0.000000   0.005173
    43  H   -0.000016   0.000000  -0.001439   0.000036   0.000000  -0.002936
    44  H    0.000038   0.000000  -0.000235   0.000001   0.000000  -0.000742
    45  H    0.000003   0.000000   0.000001   0.000000   0.000000   0.000141
             13         14         15         16         17         18
     1  O    0.008713  -0.036991  -0.000296   0.002222  -0.001588   0.000002
     2  C   -0.025397   0.844713  -0.030611   0.241457  -0.084880  -0.007808
     3  C   -0.003457   0.840717  -0.013563  -0.113259   0.031221   0.000142
     4  O   -0.005542   0.027004   0.000830   0.000985   0.001061  -0.000014
     5  H    0.000012   0.005435   0.000014   0.000236   0.000040   0.000000
     6  C    0.030350  -3.730046  -0.035019   0.070804  -0.378010   0.035695
     7  O    0.005270   0.104561  -0.013812  -0.012924   0.005641   0.000099
     8  H   -0.000689   0.007958   0.002466   0.003909  -0.000368  -0.000009
     9  C   -0.060586  -0.976779  -0.002545  -0.168187  -0.004640  -0.001778
    10  O    0.006218   0.007645  -0.000180   0.018878  -0.005790  -0.003033
    11  H   -0.000554  -0.002419  -0.000009  -0.000566  -0.000191   0.000159
    12  C    0.071877  -1.017424  -0.013172  -0.321060   0.001990   0.031010
    13  O    7.908790   0.201874  -0.004671   0.027494   0.018506  -0.002545
    14  C    0.201874  10.684116   0.189954  -0.837780   0.432976   0.069015
    15  O   -0.004671   0.189954   7.894905   0.177731  -0.039899  -0.013601
    16  C    0.027494  -0.837780   0.177731  12.866850  -1.860507  -0.129313
    17  C    0.018506   0.432976  -0.039899  -1.860507   7.497362   0.243171
    18  O   -0.002545   0.069015  -0.013601  -0.129313   0.243171   8.103393
    19  H    0.011144  -0.004294  -0.000089  -0.028645   0.031648   0.264103
    20  C   -0.010891  -0.340153  -0.001593  -2.438867   0.248672  -0.076456
    21  O    0.000617   0.010275  -0.000798   0.096338  -0.088138  -0.039181
    22  H   -0.000059   0.002873   0.000115  -0.023176  -0.059667   0.014200
    23  C   -0.001343   0.099607  -0.069107   0.069828  -0.218924   0.008221
    24  O   -0.000108  -0.005833  -0.001072  -0.024451   0.011177   0.000027
    25  H   -0.000016  -0.000437  -0.001110   0.028740   0.005989   0.000002
    26  C   -0.006641  -1.088013   0.026088  -3.245516   0.285558  -0.014439
    27  O    0.000181  -0.007132   0.003558   0.006104  -0.059296   0.000093
    28  C    0.003742   0.073967   0.010104   1.099321  -0.159396  -0.024628
    29  O    0.000012   0.001902   0.000016  -0.007258   0.010638   0.000254
    30  H   -0.001025   0.003712   0.000017   0.000190  -0.000019   0.000000
    31  H   -0.003828  -0.006879   0.000097  -0.002036   0.001168  -0.000175
    32  H   -0.001536   0.008788  -0.000180   0.001365  -0.000624  -0.000157
    33  H   -0.027594   0.111226  -0.001463   0.010376   0.005709  -0.002903
    34  H   -0.000925   0.052539  -0.000763  -0.002911   0.001050  -0.000035
    35  H   -0.001967   0.039744   0.001140  -0.019382   0.004355  -0.000047
    36  H    0.005213  -0.124577  -0.016174  -0.049943   0.000632  -0.000063
    37  H   -0.028359   0.241109  -0.011281   0.006739  -0.024354  -0.001208
    38  H    0.000000   0.000232   0.000004  -0.000110  -0.000161  -0.000005
    39  H   -0.000141   0.053812  -0.002721   0.102396   0.006316   0.000096
    40  H    0.001080   0.026796  -0.008439   0.017751  -0.003276  -0.000008
    41  H   -0.000886   0.093966  -0.008578   0.096168  -0.003042   0.000704
    42  H    0.000475   0.037508  -0.027507   0.180048   0.019138   0.000054
    43  H   -0.000466  -0.014675  -0.001881  -0.091464   0.313236  -0.010472
    44  H   -0.000087  -0.017210  -0.000072   0.142615  -0.114782   0.011045
    45  H    0.000010   0.002293   0.000010   0.100033   0.010122   0.001634
             19         20         21         22         23         24
     1  O   -0.000014   0.000082   0.000000   0.000000   0.000102   0.000000
     2  C    0.001983  -0.000988   0.000089   0.000013   0.008616  -0.000009
     3  C    0.002171  -0.003835   0.000069  -0.000014  -0.035821  -0.000067
     4  O    0.000002  -0.000025   0.000000   0.000000  -0.000373   0.000002
     5  H    0.000000   0.000003   0.000000   0.000000  -0.000036   0.000000
     6  C   -0.014332  -0.092526   0.002571  -0.000116  -0.013487  -0.002864
     7  O   -0.000006   0.000628   0.000013  -0.000003  -0.022505   0.001173
     8  H    0.000000  -0.000292   0.000000   0.000000   0.000672  -0.000026
     9  C   -0.008389  -0.016143   0.000076  -0.000076  -0.002674  -0.000060
    10  O    0.006177  -0.001201   0.000134  -0.000028   0.000017   0.000000
    11  H   -0.000126  -0.000087  -0.000002   0.000000   0.000000   0.000000
    12  C    0.007202  -0.021363  -0.000001   0.000098  -0.019020  -0.000767
    13  O    0.011144  -0.010891   0.000617  -0.000059  -0.001343  -0.000108
    14  C   -0.004294  -0.340153   0.010275   0.002873   0.099607  -0.005833
    15  O   -0.000089  -0.001593  -0.000798   0.000115  -0.069107  -0.001072
    16  C   -0.028645  -2.438867   0.096338  -0.023176   0.069828  -0.024451
    17  C    0.031648   0.248672  -0.088138  -0.059667  -0.218924   0.011177
    18  O    0.264103  -0.076456  -0.039181   0.014200   0.008221   0.000027
    19  H    0.371632  -0.009043   0.000608  -0.001138  -0.001087   0.000000
    20  C   -0.009043   8.159059   0.144414   0.067388   0.096443   0.001196
    21  O    0.000608   0.144414   8.100711   0.244473  -0.001354  -0.000064
    22  H   -0.001138   0.067388   0.244473   0.414009   0.000605   0.000001
    23  C   -0.001087   0.096443  -0.001354   0.000605   6.393834   0.186468
    24  O    0.000000   0.001196  -0.000064   0.000001   0.186468   8.054701
    25  H    0.000000  -0.003863  -0.000001   0.000000  -0.020817   0.253070
    26  C   -0.001723   1.362482  -0.035040   0.003747  -1.187588   0.063217
    27  O   -0.000012  -0.001712  -0.000794  -0.000177  -0.069043  -0.004010
    28  C    0.007528  -0.895874  -0.034239   0.001247  -0.010711  -0.014957
    29  O   -0.000007  -0.090514   0.003451  -0.000434  -0.000494   0.000759
    30  H    0.000000  -0.000001   0.000000   0.000000  -0.000003   0.000000
    31  H    0.000063  -0.000204   0.000001   0.000000  -0.000023   0.000000
    32  H    0.000048  -0.000020   0.000000   0.000000   0.000007   0.000000
    33  H    0.000192   0.000186   0.000000   0.000000   0.000063   0.000000
    34  H    0.000001   0.000017   0.000000   0.000000   0.000104   0.000000
    35  H    0.000000   0.000240   0.000000   0.000000  -0.000327   0.000000
    36  H   -0.000001   0.000682   0.000000   0.000000   0.003748  -0.000021
    37  H   -0.001192   0.017867  -0.000048  -0.000001   0.000701  -0.000001
    38  H    0.000000   0.035381  -0.000922   0.000016  -0.001215   0.000035
    39  H    0.000000  -0.015253   0.000008   0.000000   0.548344  -0.043476
    40  H    0.000000   0.005505  -0.000012   0.000000   0.394429  -0.035827
    41  H    0.000025  -0.069374  -0.000055  -0.000001   0.037572  -0.008242
    42  H    0.000053   0.028852   0.000120  -0.000028  -0.001965   0.000379
    43  H   -0.008971   0.047619  -0.001800   0.000373   0.006961   0.000051
    44  H   -0.000083   0.218619  -0.015377  -0.010504   0.006705  -0.000050
    45  H    0.000025  -0.248590   0.005506  -0.000147   0.001128  -0.000076
             25         26         27         28         29         30
     1  O    0.000000   0.000166   0.000000  -0.000010   0.000000   0.261603
     2  C   -0.000011  -0.044751   0.000329   0.000789   0.000002   0.073327
     3  C   -0.000118   0.028497   0.000155   0.000248   0.000018  -0.048195
     4  O    0.000000   0.000375   0.000001   0.000017   0.000000  -0.000725
     5  H    0.000000   0.000019   0.000000   0.000000   0.000000  -0.001529
     6  C    0.001320   0.025043  -0.002039  -0.004320   0.000051  -0.009091
     7  O    0.000007  -0.004527  -0.000151   0.000093   0.000002  -0.000004
     8  H    0.000000   0.000022   0.000005   0.000050   0.000000   0.000000
     9  C    0.000002  -0.016342  -0.000222   0.000378   0.000012   0.009068
    10  O    0.000000   0.000492   0.000002   0.000212   0.000000   0.000090
    11  H    0.000000  -0.000014   0.000000   0.000000   0.000000  -0.000001
    12  C   -0.000043  -0.049298  -0.000072   0.011653   0.000089  -0.028988
    13  O   -0.000016  -0.006641   0.000181   0.003742   0.000012  -0.001025
    14  C   -0.000437  -1.088013  -0.007132   0.073967   0.001902   0.003712
    15  O   -0.001110   0.026088   0.003558   0.010104   0.000016   0.000017
    16  C    0.028740  -3.245516   0.006104   1.099321  -0.007258   0.000190
    17  C    0.005989   0.285558  -0.059296  -0.159396   0.010638  -0.000019
    18  O    0.000002  -0.014439   0.000093  -0.024628   0.000254   0.000000
    19  H    0.000000  -0.001723  -0.000012   0.007528  -0.000007   0.000000
    20  C   -0.003863   1.362482  -0.001712  -0.895874  -0.090514  -0.000001
    21  O   -0.000001  -0.035040  -0.000794  -0.034239   0.003451   0.000000
    22  H    0.000000   0.003747  -0.000177   0.001247  -0.000434   0.000000
    23  C   -0.020817  -1.187588  -0.069043  -0.010711  -0.000494  -0.000003
    24  O    0.253070   0.063217  -0.004010  -0.014957   0.000759   0.000000
    25  H    0.435272  -0.029713  -0.002180   0.001464   0.000045   0.000000
    26  C   -0.029713  11.165086   0.240959  -0.988846   0.003924   0.000002
    27  O   -0.002180   0.240959   7.994341   0.129029  -0.041623   0.000000
    28  C    0.001464  -0.988846   0.129029   5.877190   0.331467   0.000000
    29  O    0.000045   0.003924  -0.041623   0.331467   7.986228   0.000000
    30  H    0.000000   0.000002   0.000000   0.000000   0.000000   0.405753
    31  H    0.000000   0.000233   0.000000  -0.000015   0.000000   0.000015
    32  H    0.000000  -0.000015   0.000000   0.000001   0.000000  -0.000551
    33  H    0.000000   0.001528   0.000000  -0.000148   0.000000  -0.000101
    34  H    0.000000  -0.000459   0.000000  -0.000006   0.000000  -0.011640
    35  H    0.000000  -0.002336   0.000000  -0.000010   0.000000   0.000143
    36  H    0.000000  -0.008412   0.000013  -0.000259   0.000000   0.000008
    37  H    0.000000   0.020538   0.000192  -0.001729  -0.000001   0.000000
    38  H    0.000000  -0.004093   0.003862  -0.041639   0.265423   0.000000
    39  H    0.005998  -0.351422   0.004829   0.006098   0.000182   0.000000
    40  H   -0.003744  -0.048428   0.000832  -0.000265   0.000003   0.000000
    41  H    0.003560   0.059888  -0.048672   0.064639  -0.000621   0.000000
    42  H    0.000003   0.014742   0.001276   0.006940  -0.000298   0.000000
    43  H   -0.000001   0.048369   0.002931  -0.016249   0.000008   0.000000
    44  H    0.000000   0.005266   0.001142   0.023755  -0.000443   0.000000
    45  H   -0.000001  -0.029901  -0.056327   0.492321  -0.030809   0.000000
             31         32         33         34         35         36
     1  O   -0.000675  -0.002509  -0.001149  -0.021788  -0.009808  -0.000426
     2  C    0.022323   0.022414   0.112674   0.344357   0.020300  -0.008575
     3  C   -0.027852   0.000834  -0.081299  -0.061643   0.384849  -0.014202
     4  O    0.000111  -0.000085   0.001233   0.001486  -0.034342   0.000046
     5  H   -0.000002  -0.000005  -0.000003   0.000250   0.001247  -0.000179
     6  C    0.017843  -0.007630  -0.039615  -0.026310  -0.265564   0.399620
     7  O    0.000007  -0.000004   0.000317   0.000100   0.000837  -0.043781
     8  H    0.000000   0.000000   0.000000   0.000001  -0.000242  -0.002154
     9  C    0.706314   0.368589   0.056248  -0.044116   0.008095   0.014370
    10  O   -0.059810  -0.032502  -0.003024  -0.000240   0.000059   0.000002
    11  H    0.001253  -0.007385  -0.000075   0.000001   0.000000   0.000000
    12  C   -0.351748  -0.043155   0.104176   0.028922   0.078700   0.086812
    13  O   -0.003828  -0.001536  -0.027594  -0.000925  -0.001967   0.005213
    14  C   -0.006879   0.008788   0.111226   0.052539   0.039744  -0.124577
    15  O    0.000097  -0.000180  -0.001463  -0.000763   0.001140  -0.016174
    16  C   -0.002036   0.001365   0.010376  -0.002911  -0.019382  -0.049943
    17  C    0.001168  -0.000624   0.005709   0.001050   0.004355   0.000632
    18  O   -0.000175  -0.000157  -0.002903  -0.000035  -0.000047  -0.000063
    19  H    0.000063   0.000048   0.000192   0.000001   0.000000  -0.000001
    20  C   -0.000204  -0.000020   0.000186   0.000017   0.000240   0.000682
    21  O    0.000001   0.000000   0.000000   0.000000   0.000000   0.000000
    22  H    0.000000   0.000000   0.000000   0.000000   0.000000   0.000000
    23  C   -0.000023   0.000007   0.000063   0.000104  -0.000327   0.003748
    24  O    0.000000   0.000000   0.000000   0.000000   0.000000  -0.000021
    25  H    0.000000   0.000000   0.000000   0.000000   0.000000   0.000000
    26  C    0.000233  -0.000015   0.001528  -0.000459  -0.002336  -0.008412
    27  O    0.000000   0.000000   0.000000   0.000000   0.000000   0.000013
    28  C   -0.000015   0.000001  -0.000148  -0.000006  -0.000010  -0.000259
    29  O    0.000000   0.000000   0.000000   0.000000   0.000000   0.000000
    30  H    0.000015  -0.000551  -0.000101  -0.011640   0.000143   0.000008
    31  H    0.586048  -0.039673   0.006554   0.001840  -0.000016  -0.000008
    32  H   -0.039673   0.584651   0.000643   0.000260  -0.000041   0.000000
    33  H    0.006554   0.000643   0.601940   0.005488   0.003405  -0.000022
    34  H    0.001840   0.000260   0.005488   0.580175   0.006485   0.001412
    35  H   -0.000016  -0.000041   0.003405   0.006485   0.650952   0.008451
    36  H   -0.000008   0.000000  -0.000022   0.001412   0.008451   0.609090
    37  H   -0.000005  -0.000007   0.004078  -0.000044   0.002156   0.004360
    38  H    0.000000   0.000000   0.000000   0.000000   0.000000   0.000000
    39  H    0.000000   0.000000   0.000000   0.000000   0.000000  -0.000006
    40  H    0.000000   0.000000   0.000000   0.000000   0.000001   0.000329
    41  H    0.000000   0.000000   0.000000   0.000000   0.000000  -0.000019
    42  H    0.000000   0.000000  -0.000010   0.000000  -0.000018  -0.000052
    43  H    0.000000   0.000000  -0.000003   0.000000   0.000000  -0.000002
    44  H    0.000000   0.000000   0.000000   0.000000   0.000000   0.000000
    45  H    0.000000   0.000000   0.000000   0.000000   0.000000   0.000000
             37         38         39         40         41         42
[...]
 5491,0.00002017,-0.00001793,0.00067039,0.00011960,0.00010468,-0.002041
 80,-0.00132522,-0.00456339,-0.02000380,0.00841675,0.01034740,-0.234673
 94,0.14879616,-0.03150263,0.00635731,-0.00751905,0.00040422,0.00113700
 ,0.00094906,0.00058778,0.00006865,-0.00006348,0.00004501,-0.00035299,0
 .00035045,0.00031770,0.00006560,-0.00030585,-0.00001692,-0.00001578,0.
 00005566,0.00013641,0.00015885,0.00143374,0.00024219,0.00051129,-0.000
 36050,0.00003072,0.00017057,0.00022701,0.00011403,-0.01682508,0.010562
 97,-0.00280627,0.00215872,-0.00014656,-0.00042446,-0.00039443,-0.00048
 865,-0.00012219,0.00013012,0.00006351,-0.00004053,-0.00000070,-0.00000
 332,-0.00000424,0.00000951,-0.00000278,-0.00000937,0.00000813,0.000029
 58,0.00001213,0.00002578,0.00002645,0.00006702,0.00000149,-0.00000709,
 -0.00000958,0.00002312,0.00000312,0.00002965,0.00013156,0.00009604,-0.
 00017932,0.00176149,-0.00016514,-0.00047718,-0.00000792,0.00000969,0.0
 0001418,0.00018215,-0.00097165,-0.00008584,0.00009064,0.00006558,0.000
 04163,-0.00166422,-0.00109462,-0.00199584,0.26168516,0.00000071,-0.000
 01310,0.00002672,-0.00000814,0.00003080,-0.00002879,0.00008748,0.00011
 933,-0.00007958,-0.00002447,-0.00005244,-0.00001299,-0.00000094,0.0000
 1133,-0.00001547,-0.00041895,0.00025604,-0.00027506,0.00006996,-0.0002
 6298,-0.00000513,-0.00001113,-0.00001723,-0.00004282,-0.00001474,-0.00
 004712,0.00001214,-0.00001379,0.00005115,-0.00001437,0.00000794,-0.000
 01023,0.00000569,0.00000717,-0.00004271,-0.00017646,-0.00042759,0.0001
 7539,0.00037279,0.00135469,0.00131849,0.00043376,-0.00416826,0.0050291
 3,-0.00171065,0.14902398,-0.15990790,0.02453132,0.02639553,-0.01989675
 ,0.00654842,-0.00028521,0.00349829,-0.00038831,0.00014914,0.00028471,0
 .00011687,0.00171074,-0.00060573,-0.00102657,-0.00110290,0.00040446,0.
 00033290,0.00008556,-0.00014162,0.00002904,-0.00100455,0.00122333,0.00
 001407,0.00026787,-0.00006921,0.00011350,0.00011228,-0.00002237,0.0000
 7797,-0.01021269,0.00785339,-0.00176888,0.00059813,-0.00001316,0.00089
 203,0.00002669,-0.00025659,0.00002013,0.00001052,0.00010644,0.00005414
 ,0.00000007,-0.00000129,-0.00000426,-0.00000841,0.00000844,0.00000449,
 0.00000148,0.00000816,0.00000302,-0.00001653,-0.00001395,-0.00002622,-
 0.00000366,-0.00000572,0.00001095,-0.00003153,0.00000807,-0.00001025,-
 0.00001694,-0.00014716,0.00009268,-0.00051464,0.00015357,-0.00092287,-
 0.00000832,-0.00000132,0.00000881,0.00037669,0.00001541,-0.00015822,-0
 .00003240,0.00002392,0.00007221,-0.00212617,-0.00037093,-0.00163554,-0
 .15635934,0.16549607,-0.00001641,0.00001330,-0.00006835,-0.00002319,-0
 .00004556,0.00005644,0.00002644,0.00001542,0.00007679,-0.00002652,0.00
 004161,-0.00002450,-0.00000075,-0.00000519,-0.00000034,0.00080411,-0.0
 0037194,-0.00027895,-0.00026848,0.00015521,0.00012419,-0.00007012,0.00
 001348,0.00008039,-0.00000456,0.00008004,-0.00010724,-0.00003280,-0.00
 004948,0.00003327,0.00000183,0.00000764,0.00000432,0.00002196,-0.00007
 411,0.00009867,-0.00092959,-0.00052357,-0.00082916,0.00670883,-0.00156
 473,0.00132604,0.02997673,-0.01421971,-0.01189720,-0.03764487,0.027084
 57,-0.04595984,-0.00620383,0.00192751,0.00109806,0.00111323,-0.0000741
 8,0.00033177,0.00002596,-0.00008045,-0.00016391,-0.00057484,0.00105966
 ,-0.00026228,0.00008074,-0.00024308,0.00002068,-0.00001962,0.00002595,
 0.00008168,0.00065165,0.00144088,0.00054012,0.00032260,-0.00023253,0.0
 0001668,0.00019110,0.00021765,0.00005264,-0.02214310,0.01502307,-0.001
 91845,0.00193425,-0.00043093,0.00140759,-0.00026284,0.00000349,-0.0002
 0526,0.00008746,-0.00002028,-0.00016089,-0.00000103,0.00000459,0.00000
 106,0.00000207,0.00001146,0.00001216,-0.00000430,-0.00004174,-0.000012
 44,-0.00006585,-0.00000985,-0.00007414,-0.00000568,0.00000794,0.000015
 07,-0.00005151,-0.00000840,-0.00005328,-0.00019978,0.00003958,0.000014
 21,-0.00004135,-0.00059658,-0.00210622,0.00000879,0.00001774,0.0000063
 9,0.00016589,-0.00068781,0.00015726,-0.00008638,-0.00023608,-0.0000451
 8,-0.00312872,-0.00176141,-0.00327203,0.02867932,-0.02742476,0.0618952
 3,0.00000107,0.00000968,0.00000016,0.00003196,-0.00002236,0.00003170,-
 0.00002675,-0.00001412,0.00001746,0.00001218,0.00003082,-0.00000717,-0
 .00000313,-0.00000731,0.00000436,0.00012186,-0.00009771,-0.00005112,-0
 .00000776,0.00002566,0.00005893,-0.00001334,0.00000123,0.00001072,-0.0
 0007449,-0.00000821,0.00006635,0.00006737,-0.00006918,-0.00003897,-0.0
 0000221,0.00002034,-0.00003497,-0.00012665,-0.00002733,0.00002285,0.00
 015208,0.00011226,0.00010391,-0.00018117,0.00003289,-0.00017007,0.0008
 1201,0.00081562,-0.00093658,0.00782418,-0.00804312,0.00169444,-0.23083
 338,0.15527137,-0.01478850,-0.02195579,0.00766725,-0.00984411,-0.00024
 527,0.00026443,0.00087135,-0.01007140,0.00946554,0.00111504,0.00192041
 ,0.00007643,-0.00092313,-0.00016817,0.00037895,-0.00055922,0.00031642,
 -0.00008744,0.00015348,-0.00006353,0.00003689,-0.00002353,-0.00000173,
 0.00001029,-0.00001728,0.00094162,0.00031046,0.00042857,0.00010231,0.0
 0015674,0.00010718,-0.00082065,0.00001358,-0.00093697,0.00032162,-0.00
 031218,-0.00007702,0.00000135,-0.00000157,0.00000711,0.00002370,-0.000
 00222,-0.00001001,0.00000621,0.00000316,-0.00000670,0.00003965,-0.0000
 4262,0.00003823,0.00000615,0.00000977,-0.00001224,0.00001193,-0.000004
 92,0.00000051,0.00000432,0.00003272,-0.00002381,-0.00000702,-0.0001641
 4,0.00003632,0.00001920,0.00004140,0.00008349,-0.00016113,-0.00004652,
 -0.00003426,0.00000056,-0.00000748,-0.00000065,0.00010131,0.00002033,0
 .00003213,-0.00033912,-0.00236731,0.00059156,0.25204726,-0.00000648,0.
 00001806,-0.00003801,-0.00000503,-0.00004667,0.00001944,0.00000566,0.0
 0001868,0.00000768,-0.00000592,0.00002650,-0.00001568,0.00000159,-0.00
 000502,0.00000031,0.00003109,-0.00013932,-0.00015781,-0.00005807,0.000
 03259,0.00007955,-0.00001815,0.00001046,0.00002328,0.00001174,0.000041
 09,0.00000805,0.00001048,-0.00007130,0.00002067,-0.00000128,0.00001339
 ,-0.00001406,0.00003504,0.00010794,0.00010099,-0.00005565,0.00014892,-
 0.00010576,0.00023178,-0.00017950,-0.00010068,-0.00083848,0.00318216,-
 0.00036295,0.02413721,-0.01925215,-0.00064269,0.16074234,-0.17379705,0
 .01040846,-0.01697718,0.00819752,-0.00502729,-0.00055362,0.00248433,0.
 00104508,0.00019350,-0.00232625,0.00134515,-0.00170133,0.00122754,0.00
 078728,-0.00020812,0.00006244,-0.00026808,-0.00031468,0.00011480,-0.00
 000084,-0.00015328,-0.00002834,-0.00003726,-0.00002293,-0.00006290,-0.
 00001235,0.00240084,0.00042052,0.00085066,-0.00045563,0.00000841,-0.00
 024272,0.00086443,-0.00027308,0.00018954,-0.00024534,0.00018928,0.0000
 9729,-0.00000046,0.00000131,0.00000089,0.00000047,0.00000586,0.0000016
 2,-0.00000720,-0.00000951,-0.00000349,-0.00000754,-0.00002114,-0.00000
 805,-0.00000027,0.00000583,0.00000051,-0.00000403,-0.00000214,-0.00000
 446,-0.00001911,0.00000443,0.00001626,-0.00013532,-0.00009048,-0.00014
 157,0.00001022,-0.00005122,-0.00004506,-0.00004593,0.00029714,-0.00002
 728,0.00000406,0.00000222,0.00001678,-0.00117091,0.00044955,-0.0003666
 3,-0.00197683,-0.00443092,0.00104592,-0.16309704,0.18334012,0.00001558
 ,-0.00001147,0.00005262,0.00002882,0.00000821,-0.00000452,-0.00001704,
 -0.00001198,-0.00000986,0.00001038,-0.00000751,0.00002136,-0.00000220,
 0.00000137,0.00000199,0.00003108,0.00002595,0.00003762,0.00002578,-0.0
 0004547,-0.00001160,0.00000379,-0.00000262,-0.00000758,-0.00010848,-0.
 00001371,0.00004388,0.00011865,-0.00000137,-0.00001433,-0.00001723,-0.
 00000321,-0.00001332,-0.00019322,-0.00003688,-0.00011282,0.00027676,-0
 .00003943,0.00014583,-0.00057945,0.00020120,-0.00031757,-0.00063585,-0
 .00153214,0.00091199,-0.00623608,0.00857067,0.00020776,-0.01114189,0.0
 1092675,-0.04363436,-0.02517956,0.00811484,-0.00811702,-0.00189428,0.0
 0153508,0.00176825,0.02321682,-0.01932495,0.00107691,-0.00262509,-0.00
 116913,0.00240721,0.00021333,-0.00025225,-0.00042830,0.00014158,-0.000
 05410,0.00007372,0.00004772,0.00004813,-0.00002374,-0.00000474,0.00000
 581,0.00000781,0.00011840,-0.00046876,-0.00012200,-0.00034211,0.000067
 68,-0.00037413,0.00155277,-0.00080647,0.00180212,-0.00043376,0.0003744
 9,0.00003428,0.00000162,-0.00000081,-0.00000105,0.00003449,-0.00001096
 ,-0.00003157,0.00001782,0.00000969,0.00000457,0.00005614,-0.00003600,0
 .00004649,0.00000843,0.00000740,-0.00001306,0.00001521,-0.00000469,0.0
 0000606,0.00002742,0.00002417,-0.00001672,0.00007395,-0.00013597,0.000
 09074,-0.00003977,-0.00001392,-0.00004595,-0.00003216,-0.00007096,0.00
 000223,0.00000670,0.00000789,-0.00001860,0.00012673,-0.00022415,0.0001
 9698,0.00031536,0.00149855,0.00020391,0.02122221,-0.00790674,0.0490757
 3,-0.00000354,-0.00001252,-0.00001499,0.00000396,0.00001709,0.00001230
 ,-0.00000962,-0.00001351,0.00002084,0.00000941,0.00000183,-0.00002357,
 -0.00000271,0.00000179,0.00000230,-0.00000035,0.00002486,0.00002799,0.
 00002744,-0.00000895,-0.00001975,-0.00000149,-0.00000569,-0.00000292,-
 0.00000612,0.00001875,-0.00000506,0.00000359,-0.00002634,0.00000493,-0
 .00000310,0.00000493,-0.00000482,-0.00000537,-0.00000207,0.00002139,0.
 00006586,-0.00006750,-0.00005993,-0.00008061,0.00012344,0.00011184,0.0
 0053895,-0.00057357,-0.00004734,-0.00095724,0.00203618,-0.00021562,-0.
 01534088,0.00911234,-0.00322082,0.00198883,-0.00121711,-0.00115690,0.0
 0025849,-0.00023605,-0.00034003,-0.26542249,0.14405850,-0.02358749,0.0
 1323260,-0.01097305,0.00197431,0.00276643,0.00036223,0.00060704,-0.000
 10712,0.00008324,-0.00000972,0.00004726,-0.00002429,0.00005033,0.00001
 320,0.00001930,-0.00001328,-0.00030473,-0.00016054,-0.00033241,0.00136
 785,-0.00125043,0.00109275,-0.01656677,0.01362560,-0.00198708,0.001695
 55,-0.00102281,-0.00026709,-0.00000072,0.00000273,0.00000321,0.0000044
 8,-0.00000333,-0.00000295,0.00000052,-0.00000224,-0.00000067,0.0000067
 4,0.00000065,0.00000400,0.00000251,-0.00000132,-0.00000490,0.00000752,
 0.00000028,0.00000243,0.00000912,0.00000263,-0.00000890,0.00001810,0.0
 0001450,0.00005108,0.00014923,0.00007378,0.00024513,0.00000474,-0.0000
 8655,0.00001080,0.00000136,-0.00003921,0.00001075,0.00021885,0.0000598
 0,0.00005510,0.00053430,-0.00092453,0.00034050,-0.00051775,-0.00028723
 ,0.00247701,0.27787498,0.00000402,0.00000822,0.00001717,-0.00000243,-0
 .00000342,-0.00000968,0.00000617,0.00000757,-0.00002073,-0.00000595,-0
 .00000470,0.00001927,0.00000175,-0.00000092,-0.00000170,-0.00000920,0.
 00001509,-0.00001460,-0.00000138,-0.00001137,0.00000756,-0.00000068,0.
 00000426,-0.00000043,-0.00001121,-0.00003783,0.00000998,0.00000277,0.0
 0005868,-0.00002098,0.00000359,-0.00001293,0.00001354,-0.00000303,-0.0
 0001528,-0.00003832,-0.00002052,0.00003504,0.00006940,0.00004008,-0.00
 004006,-0.00011885,-0.00005028,0.00029059,-0.00007820,-0.00051857,-0.0
 0063096,0.00053122,0.00188262,0.00090910,-0.00092296,0.00034575,0.0004
 4250,0.00006160,-0.00029190,0.00001220,0.00009308,0.14026887,-0.130698
 05,0.01304692,0.01809152,-0.03430494,0.00487741,0.00220265,-0.00168449
 ,0.00294771,0.00001654,0.00004032,0.00004102,-0.00001716,-0.00001601,-
 0.00001902,0.00000696,0.00000537,-0.00000059,0.00003579,0.00002251,0.0
 0009398,0.00134162,0.00088481,0.00002410,-0.01034102,0.00813240,-0.001
 14626,0.00102471,0.00002243,0.00070607,0.00000052,-0.00000342,-0.00000
 218,-0.00000040,0.00000213,-0.00000020,0.00000378,0.00000547,-0.000001
 42,-0.00000335,0.00000339,-0.00000076,-0.00000189,-0.00000068,0.000003
 02,-0.00000427,0.00000090,0.00000009,-0.00000433,-0.00000256,0.0000009
 7,-0.00000193,0.00000272,-0.00001270,-0.00000853,0.00000174,0.00022965
 ,-0.00000484,-0.00000723,0.00000569,0.00000026,-0.00000579,-0.00000350
 ,-0.00000089,-0.00003443,-0.00002867,-0.00081731,0.00022108,0.00054657
 ,-0.00021020,0.00017713,0.00049916,-0.15110098,0.15679580,-0.00000423,
 0.00000151,-0.00001203,-0.00000946,-0.00000273,-0.00000299,0.00001478,
 0.00000908,-0.00000215,-0.00000699,-0.00000412,-0.00000429,0.00000157,
 0.00000142,-0.00000259,-0.00002742,-0.00000690,-0.00001630,-0.00001133
 ,0.00000892,-0.00000184,-0.00000019,0.00000275,0.00000236,0.00003217,0
 .00001391,-0.00002115,-0.00003098,-0.00000142,0.00002120,0.00000399,-0
 .00000044,0.00000365,0.00005550,0.00002281,0.00002122,-0.00008303,-0.0
 0000812,-0.00005310,0.00020718,-0.00003109,0.00010946,-0.00036727,0.00
 047460,-0.00020183,0.00024607,-0.00117964,0.00059728,0.02604028,-0.014
 74296,0.00059426,-0.00078236,0.00123714,0.00282727,0.00014795,0.000166
 77,0.00058279,-0.02505174,0.01310330,-0.04793572,-0.00606567,0.0073534
 8,0.00156032,0.00045735,-0.00104910,0.00028017,-0.00001650,-0.00002377
 ,0.00013022,0.00002561,0.00003436,0.00002224,0.00000212,0.00000681,-0.
 00001190,0.00027305,-0.00001190,-0.00060117,0.00168124,-0.00099252,0.0
 0107126,-0.02413706,0.01604022,-0.00228010,0.00220855,-0.00017239,0.00
 152323,-0.00000072,0.00000107,-0.00000164,-0.00000943,0.00000228,0.000
 00656,-0.00000383,-0.00000383,0.00000065,-0.00001489,0.00000831,-0.000
 01289,-0.00000273,-0.00000239,0.00000451,-0.00000783,0.00000208,-0.000
 00227,-0.00000709,-0.00000938,0.00000908,-0.00000349,0.00001244,-0.000
 05233,0.00026325,0.00005205,0.00035059,0.00000413,0.00001580,0.0000085
 9,-0.00001877,-0.00003878,0.00000340,-0.00010232,0.00006837,-0.0000932
 1,0.00031487,0.00057898,-0.00031197,0.00154799,-0.00019878,-0.00445862
 ,0.02667128,-0.01945835,0.04964211,0.00000266,-0.00000739,-0.00000264,
 -0.00000247,0.00000410,0.00000150,-0.00000734,-0.00000119,0.00000596,0
 .00000761,-0.00000245,-0.00000655,-0.00000296,0.00000219,0.00000003,-0
 .00001059,0.00000478,0.00000002,0.00002147,-0.00000838,-0.00000066,-0.
 00000704,0.00000148,-0.00000040,-0.00000997,0.00001681,0.00000226,0.00
 001244,-0.00003202,0.00000689,-0.00000736,0.00000776,-0.00001092,-0.00
 000635,0.00001028,0.00001413,0.00004223,-0.00001219,-0.00001612,-0.000
 06987,0.00003540,0.00002808,0.00018222,0.00008119,0.00000425,-0.000457
 96,-0.00015873,0.00028398,-0.00079145,0.00049903,0.00128993,0.00049430
 ,-0.00074456,-0.00015474,-0.00001471,-0.00002836,-0.00023132,-0.018303
 90,0.01814421,-0.00869281,0.00211995,-0.00006437,0.00166857,0.00055489
 ,0.00037117,0.00023468,-0.00016456,-0.00012945,0.00018419,0.00003910,0
 .00004507,-0.00004278,-0.00002276,0.00000668,0.00002877,0.00246377,-0.
 00040574,-0.00234115,0.01431437,-0.02196461,0.00646362,-0.20241406,0.1
 5078880,-0.03698835,-0.01038981,0.01401286,0.01288637,-0.00000151,0.00
 000305,-0.00000014,0.00000496,-0.00000150,-0.00000235,-0.00000029,-0.0
 0000104,0.00000076,0.00000557,-0.00000410,0.00000184,0.00000241,0.0000
 0030,-0.00000349,0.00000539,-0.00000024,0.00000166,0.00000497,0.000001
 37,-0.00000651,0.00000874,-0.00000223,0.00001412,0.00073375,-0.0008297
 8,0.00018052,-0.00007063,0.00009171,0.00001725,-0.00012736,-0.00002316
 ,0.00001458,-0.00041316,0.00097787,-0.00070005,-0.00003230,-0.00018347
 ,0.00007110,0.00073371,-0.00030740,-0.00070161,-0.00152126,-0.00184772
 ,-0.00343363,0.21309513,0.00001006,0.00002351,0.00002512,0.00000121,-0
 .00002929,-0.00000961,-0.00000762,0.00000545,-0.00001898,-0.00000124,0
 .00001112,0.00003423,0.00000120,-0.00000564,-0.00000086,0.00001525,-0.
 00005905,-0.00002742,0.00002316,0.00005574,0.00006289,-0.00001002,0.00
 000137,-0.00001058,-0.00001696,-0.00004519,0.00003277,0.00001308,0.000
 04234,-0.00002978,0.00000378,-0.00000510,0.00000113,-0.00003277,-0.000
 00537,-0.00001783,0.00002994,0.00014382,0.00008595,-0.00012239,-0.0001
 2469,-0.00016046,0.00026163,0.00024221,0.00047360,-0.00078502,-0.00048
 400,0.00003278,0.00000190,-0.00009338,0.00014499,-0.00002868,0.0000973
 5,-0.00031457,0.00008691,-0.00004563,0.00007201,-0.00597189,0.00510380
 ,-0.00317907,0.00027538,0.00169579,0.00006484,-0.00030451,0.00077753,-
 0.00015623,-0.00046579,0.00032524,0.00086243,-0.00014726,-0.00006454,-
 0.00007228,0.00004748,-0.00001900,0.00005276,0.00301129,-0.00117494,-0
 .00364162,0.00477512,-0.04137366,0.01431361,0.15199216,-0.17726560,0.0
 2580853,0.00843102,-0.00069317,-0.00693725,0.00000149,-0.00000578,-0.0
 0000258,0.00000130,0.00000265,0.00000066,0.00000271,0.00000688,-0.0000
 0205,0.00000034,-0.00000510,0.00000471,-0.00000109,0.00000220,0.000001
 98,0.00000217,-0.00000055,0.00000182,0.00000031,0.00000509,-0.00001168
 ,0.00000361,-0.00001106,0.00002913,0.00032292,-0.00016346,-0.00024925,
 0.00006519,0.00028827,-0.00015442,-0.00030105,-0.00027705,0.00008609,-
 0.00109588,0.00034256,0.00109637,0.00003701,0.00003345,-0.00008092,-0.
 00017481,0.00019877,0.00025859,-0.00160462,-0.00058636,-0.00127991,-0.
 15834603,0.21313249,-0.00000718,-0.00000424,-0.00002669,0.00000015,0.0
 0000548,0.00001963,-0.00000271,-0.00000924,0.00002460,0.00000560,0.000
 01336,-0.00003169,-0.00000177,-0.00000082,0.00000253,0.00000039,-0.000
 01049,-0.00000142,0.00000284,0.00001305,-0.00001325,0.00000107,-0.0000
 0758,-0.00000025,-0.00000567,0.00001277,0.00000143,0.00000102,-0.00002
 465,-0.00000482,-0.00000045,0.00000663,-0.00000372,0.00001483,0.000011
 20,0.00003601,0.00001662,-0.00003514,-0.00007216,0.00000863,0.00003011
 ,0.00012353,0.00012304,0.00003924,-0.00025559,-0.00021190,-0.00004027,
 -0.00004467,-0.00102054,0.00112823,0.00077874,0.00025538,-0.00040732,-
 0.00004886,0.00006030,-0.00003230,-0.00003913,-0.02316812,0.01552521,-
 0.00493484,0.00194676,-0.00033422,0.00123977,0.00041569,0.00062569,0.0
 0005610,0.00024543,-0.00003109,-0.00000305,0.00002314,0.00003613,-0.00
 000832,-0.00001808,0.00000621,0.00000378,-0.00129464,-0.00025414,0.002
 26381,-0.00093330,0.01384651,0.00137713,-0.04006152,0.02963555,-0.0474
 6990,0.03358750,-0.02968141,-0.01956118,-0.00000075,0.00000148,0.00000
 444,0.00000313,-0.00000085,0.00000046,-0.00000119,-0.00000351,-0.00000
 362,0.00000292,-0.00000281,0.00000155,0.00000154,-0.00000025,-0.000003
 83,0.00000369,-0.00000052,0.00000039,0.00000035,0.00000218,-0.00000115
 ,-0.00000043,-0.00000802,0.00001416,0.00167485,0.00015180,0.00196208,0
 .00000331,-0.00013829,0.00001497,0.00004991,0.00001740,-0.00001057,0.0
 0047363,-0.00048519,-0.00011755,0.00009616,-0.00012398,0.00009702,0.00
 025029,-0.00033718,-0.00044331,-0.00247108,-0.00194507,-0.00329230,0.0
 2993115,-0.02718965,0.06836978\\-0.00656382,-0.02095129,0.00174242,0.0
 1312061,0.03689720,-0.02393612,0.03990802,-0.04263766,0.04903559,-0.01
 896441,-0.00284346,0.01901099,0.00346578,-0.01535802,-0.03123209,-0.02
 423238,0.01814899,0.01847932,0.00952364,-0.00664018,0.04082481,0.00590
 894,0.02212011,-0.02015836,-0.01961678,0.03131882,0.04104938,0.0258965
 4,-0.00081127,-0.03241174,-0.01606604,-0.04205807,-0.00042142,0.005213
 96,0.03001194,-0.03659078,0.02332557,-0.01523337,0.00005070,-0.0739216
 9,-0.00237864,-0.02183241,0.04807043,0.00563616,0.00793077,-0.04509031
 ,0.00652944,-0.00408145,0.02618998,-0.04924289,-0.00269174,-0.02875792
 ,0.02151855,0.02576399,0.02143241,-0.01542011,-0.01535941,-0.01439438,
 0.03593095,-0.04093494,0.04653164,-0.01156507,0.01765549,-0.01537616,0
 .02788041,-0.02246783,-0.01262640,0.00043931,-0.00807330,-0.01454529,0
 .01725474,-0.01011418,0.03031362,-0.01244213,0.00924136,-0.00129418,0.
 00127397,-0.03207960,0.00981893,-0.01222787,0.00762608,-0.03218117,-0.
 03280803,-0.01367193,0.02516338,0.01181453,0.03266945,-0.00038290,0.00
 054290,0.00212853,-0.02239818,0.00373337,0.00164049,-0.00004725,-0.002
 58219,0.02022159,0.02081206,-0.00716751,-0.00101146,-0.01675635,0.0040
 0478,0.00565490,0.02799913,-0.00039452,0.00009248,-0.02060811,0.004182
 08,-0.00439468,0.01482364,0.00432044,-0.00153194,-0.00582699,0.0004611
 4,0.00458671,0.01009825,-0.01527900,-0.00465885,-0.00278315,0.00072066
 ,0.01585833,-0.01903204,0.01578326,0.00355109,0.01430764,-0.00951468,0
 .00222291,-0.01094152,0.00937990,-0.00143080,0.01435065,-0.01132142,0.
 00285316,-0.01386742,0.01897375,-0.00080550\\\@


 The cat could very well be man's best friend
 but would never stoop to admitting it.
                               -- Doug Larson
 Job cpu time:  4 days  1 hours 46 minutes 38.2 seconds.
 File lengths (MBytes):  RWF=   2340 Int=      0 D2E=      0 Chk=     43 Scr=      1
 Normal termination of Gaussian 09 at Tue Feb 16 14:16:28 2016.
Gaussian '09 finished on node020 at Tue Feb 16 14:16:28 EST 2016.
