Gaussian '09 started on node003 at Mon Feb 29 14:22:27 EST 2016.
 Entering Gaussian System, Link 0=/usr/local/gaussian/g09/g09
 Initial command:
 /usr/local/gaussian/g09/l1.exe /home/srmcgrat/thesis/gaussian/cellobiose/320/7000/2/gdp/gaussian7133/Gau-7169.inp -scrdir=/home/srmcgrat/thesis/gaussian/cellobiose/320/7000/2/gdp/gaussian7133/
 Entering Link 1 = /usr/local/gaussian/g09/l1.exe PID=      7171.
  
 Copyright (c) 1988,1990,1992,1993,1995,1998,2003,2009,2010,
            Gaussian, Inc.  All Rights Reserved.
  
 This is part of the Gaussian(R) 09 program.  It is based on
 the Gaussian(R) 03 system (copyright 2003, Gaussian, Inc.),
 the Gaussian(R) 98 system (copyright 1998, Gaussian, Inc.),
 the Gaussian(R) 94 system (copyright 1995, Gaussian, Inc.),
 the Gaussian 92(TM) system (copyright 1992, Gaussian, Inc.),
 the Gaussian 90(TM) system (copyright 1990, Gaussian, Inc.),
 the Gaussian 88(TM) system (copyright 1988, Gaussian, Inc.),
 the Gaussian 86(TM) system (copyright 1986, Carnegie Mellon
 University), and the Gaussian 82(TM) system (copyright 1983,
 Carnegie Mellon University). Gaussian is a federally registered
 trademark of Gaussian, Inc.
  
 This software contains proprietary and confidential information,
 including trade secrets, belonging to Gaussian, Inc.
  
 This software is provided under written license and may be
 used, copied, transmitted, or stored only in accord with that
 written license.
  
 The following legend is applicable only to US Government
 contracts under FAR:
  
                    RESTRICTED RIGHTS LEGEND
  
 Use, reproduction and disclosure by the US Government is
 subject to restrictions as set forth in subparagraphs (a)
 and (c) of the Commercial Computer Software - Restricted
 Rights clause in FAR 52.227-19.
  
 Gaussian, Inc.
 340 Quinnipiac St., Bldg. 40, Wallingford CT 06492
  
  
 ---------------------------------------------------------------
 Warning -- This program may not be used in any manner that
 competes with the business of Gaussian, Inc. or will provide
 assistance to any competitor of Gaussian, Inc.  The licensee
 of this program is prohibited from giving any competitor of
 Gaussian, Inc. access to this program.  By using this program,
 the user acknowledges that Gaussian, Inc. is engaged in the
 business of creating and licensing software in the field of
 computational chemistry and represents and warrants to the
 licensee that it is not a competitor of Gaussian, Inc. and that
 it will not use this program in any manner prohibited above.
 ---------------------------------------------------------------
  

 Cite this work as:
 Gaussian 09, Revision B.01,
 M. J. Frisch, G. W. Trucks, H. B. Schlegel, G. E. Scuseria, 
 M. A. Robb, J. R. Cheeseman, G. Scalmani, V. Barone, B. Mennucci, 
 G. A. Petersson, H. Nakatsuji, M. Caricato, X. Li, H. P. Hratchian, 
 A. F. Izmaylov, J. Bloino, G. Zheng, J. L. Sonnenberg, M. Hada, 
 M. Ehara, K. Toyota, R. Fukuda, J. Hasegawa, M. Ishida, T. Nakajima, 
 Y. Honda, O. Kitao, H. Nakai, T. Vreven, J. A. Montgomery, Jr., 
 J. E. Peralta, F. Ogliaro, M. Bearpark, J. J. Heyd, E. Brothers, 
 K. N. Kudin, V. N. Staroverov, T. Keith, R. Kobayashi, J. Normand, 
 K. Raghavachari, A. Rendell, J. C. Burant, S. S. Iyengar, J. Tomasi, 
 M. Cossi, N. Rega, J. M. Millam, M. Klene, J. E. Knox, J. B. Cross, 
 V. Bakken, C. Adamo, J. Jaramillo, R. Gomperts, R. E. Stratmann, 
 O. Yazyev, A. J. Austin, R. Cammi, C. Pomelli, J. W. Ochterski, 
 R. L. Martin, K. Morokuma, V. G. Zakrzewski, G. A. Voth, 
 P. Salvador, J. J. Dannenberg, S. Dapprich, A. D. Daniels, 
 O. Farkas, J. B. Foresman, J. V. Ortiz, J. Cioslowski, 
 and D. J. Fox, Gaussian, Inc., Wallingford CT, 2010.
 
 ******************************************
 Gaussian 09:  EM64L-G09RevB.01 12-Aug-2010
                29-Feb-2016 
 ******************************************
 ------------------------------------------------
 # freq=raman b3lyp/6-31+g(d,p) geom=connectivity
 ------------------------------------------------
 1/10=4,30=1,38=1,57=2/1,3;
 2/12=2,17=6,18=5,40=1/2;
 3/5=1,6=6,7=111,11=2,16=1,25=1,30=1,71=2,74=-5/1,2,3;
 4//1;
 5/5=2,38=5,98=1/2;
 8/6=4,10=90,11=11/1;
 10/13=10,15=4/2;
 11/6=3,8=1,9=11,15=111,16=1/1,2,10;
 10/6=1/2;
 6/7=2,8=2,9=2,10=2,18=1,28=1/1;
 7/8=1,10=1,25=1/1,2,3,16;
 1/10=4,30=1/3;
 99//99;
 ------------
 320 7000.com
 ------------
 Symbolic Z-matrix:
 Charge =  0 Multiplicity = 1
 O                     7.361     7.831     22.89 
 C                     8.04      8.021     24.14 
 C                     7.631     9.384     24.674 
 O                     7.882     10.325    23.619 
 H                     7.346     9.944     22.866 
 C                     8.195     9.62      26.065 
 O                     7.558     10.74     26.697 
 H                     8.206     11.218    27.289 
 C                     8.217     5.555     24.788 
 O                     7.907     4.92      23.539 
 H                     8.199     3.966     23.477 
 C                     7.64      6.924     25.113 
 O                     8.219     7.123     26.411 
 C                     8.027     8.423     26.986 
 O                     8.972     8.554     28.059 
 C                     8.475     8.302     29.381 
 C                     8.918     6.931     29.867 
 O                     8.726     5.958     28.83 
 H                     8.734     6.422     27.944 
 C                     8.457     6.497     31.249 
 O                     9.216     5.364     31.697 
 H                     8.932     4.982     32.577 
 C                     8.511     10.595    30.241 
 O                     8.691     11.515    29.155 
 H                     8.453     12.452    29.411 
 C                     9.013     9.183     30.497 
 O                     8.435     8.926     31.785 
 C                     8.806     7.611     32.222 
 O                     7.992     7.34      33.373 
 H                     8.55608   7.16197   34.12912 
 H                     8.00699   7.72428   22.18792 
 H                     9.84396   7.57661   32.47961 
 H                     7.40747   6.28905   31.26059 
 H                     9.98051   7.0144    29.96191 
 H                     7.40606   8.34907   29.37429 
 H                     10.08187   9.15489   30.53737 
 H                     8.85184   11.14262   31.09472 
 H                     7.4479    10.50307   30.32024 
 H                     7.90693   4.8891    25.56603 
 H                     9.28218   5.64045   24.84271 
 H                     6.57429   6.86668   25.1896 
 H                     9.09822   7.99702   23.9835 
 H                     6.56808   9.35362   24.79305 
 H                     9.23978   9.83212   25.97367 
 H                     7.04163   8.4599    27.40144 
 

 GradGradGradGradGradGradGradGradGradGradGradGradGradGradGradGradGradGrad
 Berny optimization.
 Initialization pass.
 Trust Radius=3.00D-01 FncErr=1.00D-07 GrdErr=1.00D-07
 Number of steps in this run=      2 maximum allowed number of steps=      2.
 GradGradGradGradGradGradGradGradGradGradGradGradGradGradGradGradGradGrad

                          Input orientation:                          
 ---------------------------------------------------------------------
 Center     Atomic      Atomic             Coordinates (Angstroms)
 Number     Number       Type             X           Y           Z
 ---------------------------------------------------------------------
      1          8           0        7.361000    7.831000   22.890000
      2          6           0        8.040000    8.021000   24.140000
      3          6           0        7.631000    9.384000   24.674000
      4          8           0        7.882000   10.325000   23.619000
      5          1           0        7.346000    9.944000   22.866000
      6          6           0        8.195000    9.620000   26.065000
      7          8           0        7.558000   10.740000   26.697000
      8          1           0        8.206000   11.218000   27.289000
      9          6           0        8.217000    5.555000   24.788000
     10          8           0        7.907000    4.920000   23.539000
     11          1           0        8.199000    3.966000   23.477000
     12          6           0        7.640000    6.924000   25.113000
     13          8           0        8.219000    7.123000   26.411000
     14          6           0        8.027000    8.423000   26.986000
     15          8           0        8.972000    8.554000   28.059000
     16          6           0        8.475000    8.302000   29.381000
     17          6           0        8.918000    6.931000   29.867000
     18          8           0        8.726000    5.958000   28.830000
     19          1           0        8.734000    6.422000   27.944000
     20          6           0        8.457000    6.497000   31.249000
     21          8           0        9.216000    5.364000   31.697000
     22          1           0        8.932000    4.982000   32.577000
     23          6           0        8.511000   10.595000   30.241000
     24          8           0        8.691000   11.515000   29.155000
     25          1           0        8.453000   12.452000   29.411000
     26          6           0        9.013000    9.183000   30.497000
     27          8           0        8.435000    8.926000   31.785000
     28          6           0        8.806000    7.611000   32.222000
     29          8           0        7.992000    7.340000   33.373000
     30          1           0        8.556080    7.161973   34.129122
     31          1           0        8.006988    7.724284   22.187923
     32          1           0        9.843957    7.576613   32.479611
     33          1           0        7.407467    6.289045   31.260592
     34          1           0        9.980514    7.014396   29.961914
     35          1           0        7.406057    8.349068   29.374295
     36          1           0       10.081869    9.154892   30.537369
     37          1           0        8.851836   11.142622   31.094722
     38          1           0        7.447905   10.503074   30.320236
     39          1           0        7.906935    4.889100   25.566034
     40          1           0        9.282179    5.640449   24.842710
     41          1           0        6.574286    6.866679   25.189601
     42          1           0        9.098222    7.997024   23.983505
     43          1           0        6.568077    9.353617   24.793048
     44          1           0        9.239779    9.832119   25.973666
     45          1           0        7.041631    8.459896   27.401436
 ---------------------------------------------------------------------
                    Distance matrix (angstroms):
                    1          2          3          4          5
     1  O    0.000000
     2  C    1.435145   0.000000
     3  C    2.380623   1.519936   0.000000
     4  O    2.650079   2.367450   1.435795   0.000000
     5  H    2.113190   2.408867   1.914077   0.999733   0.000000
     6  C    3.738543   2.507280   1.519432   2.564744   3.325564
     7  O    4.795241   3.763447   2.436513   3.122705   3.918561
     8  H    5.615781   4.490497   3.245367   3.790953   4.682479
     9  C    3.084691   2.555854   3.875259   4.922569   4.869912
    10  O    3.032035   3.161501   4.614293   5.405650   5.099826
    11  H    3.998129   4.111919   5.577648   6.368480   6.069383
    12  C    2.417068   1.519914   2.498880   3.722553   3.775691
    13  O    3.692542   2.448650   2.911191   4.261647   4.613805
    14  C    4.191806   2.874281   2.534893   3.869796   4.444277
    15  O    5.462290   4.063407   3.734355   4.902871   5.616336
    16  C    6.602720   5.266523   4.902949   6.135538   6.812931
    17  C    7.205052   5.895550   5.885646   7.185404   7.782246
    18  O    6.376124   5.169397   5.496257   6.851098   7.304922
    19  H    5.423405   4.184358   4.547851   5.887694   6.333807
    20  C    8.535435   7.282468   7.228255   8.555765   9.131857
    21  O    9.332222   8.096349   8.245917   9.573148  10.122246
    22  H   10.218748   9.011890   9.139344  10.483125  11.019998
    23  C    7.937216   6.638488   5.764756   6.657284   7.494775
    24  O    7.388571   6.146711   5.073867   5.719954   6.620316
    25  H    8.066570   6.898389   5.703287   6.196566   7.095952
    26  C    7.900852   6.535168   5.988126   7.063300   7.847941
    27  O    9.026269   7.708507   7.170948   8.303407   9.042721
    28  C    9.445774   8.128566   7.841968   9.068141   9.752396
    29  O   10.513445   9.258205   8.943202  10.201120  10.844131
    30  H   11.322264  10.039264   9.756664  10.996444  11.664556
    31  H    0.960000   1.974774   3.012740   2.971081   2.413261
    32  H    9.909108   8.544054   8.312123   9.482264  10.211064
    33  H    8.511556   7.355446   7.280927   8.654943   9.155962
    34  H    7.585557   6.218805   6.252781   7.456301   8.116356
    35  H    6.505114   5.282741   4.818138   6.103626   6.701143
    36  H    8.224237   6.810380   6.359115   7.353394   8.182761
    37  H    8.972563   7.666274   6.768224   7.582579   8.450805
    38  H    7.896577   6.686298   5.758978   6.717642   7.475866
    39  H    4.014222   3.443846   4.590859   5.774129   5.758198
    40  H    3.507495   2.775578   4.095000   5.040137   5.116319
    41  H    2.614765   2.140663   2.778380   4.017075   3.932502
    42  H    2.059431   1.070000   2.133829   2.651704   2.847774
    43  H    2.562943   2.090190   1.070000   2.012055   2.160377
    44  H    4.128351   2.842878   2.116155   2.762417   3.640949
    45  H    4.566242   3.438944   2.939427   4.300193   4.781777
                    6          7          8          9         10
     6  C    0.000000
     7  O    1.435128   0.000000
     8  H    2.012933   0.999426   0.000000
     9  C    4.260920   5.564422   6.190694   0.000000
    10  O    5.343559   6.630774   7.335987   1.435035   0.000000
    11  H    6.218157   7.527706   8.192856   2.060089   0.999612
    12  C    2.912515   4.132510   4.847037   1.520761   2.562183
    13  O    2.520972   3.688008   4.188088   2.256714   3.633034
    14  C    1.519630   2.381590   2.817069   3.618387   4.916016
    15  O    2.390841   2.938203   2.876900   4.501496   5.896658
    16  C    3.579299   3.740132   3.598872   5.358005   6.774180
    17  C    4.712606   5.138772   5.052860   5.308580   6.716385
    18  O    4.619246   5.364833   5.505695   4.093807   5.453704
    19  H    3.748115   4.645762   4.869232   3.313505   4.726940
    20  C    6.057692   6.287444   6.167045   6.533719   7.888823
    21  O    7.132699   7.526642   7.397289   6.983464   8.274272
    22  H    8.028721   8.343671   8.208393   7.842708   9.096148
    23  C    4.299937   3.672761   3.032401   7.431234   8.802684
    24  O    3.658571   2.815329   1.950741   7.403848   8.697594
    25  H    4.391185   3.331331   2.467113   8.306409   9.566061
    26  C    4.527993   4.356750   3.883779   6.810924   8.234693
    27  O    5.766943   5.472428   5.051705   7.769760   9.182774
    28  C    6.505233   6.470995   6.140435   7.735529   9.134778
    29  O    7.658099   7.504487   7.218015   8.771492  10.127743
    30  H    8.438147   8.308723   7.959973   9.484402  10.844281
    31  H    4.319816   5.443152   6.186004   3.392683   3.114389
    32  H    6.931214   6.976475   6.548667   8.117560   9.525960
    33  H    6.221707   6.376522   6.380109   6.564191   7.857913
    34  H    5.016291   5.514378   5.288067   5.657668   7.066809
    35  H    3.631684   3.592708   3.635813   5.431256   6.786760
    36  H    4.876339   4.861164   4.281028   7.035070   8.464132
    37  H    5.296028   4.601747   3.860868   8.449809   9.833752
    38  H    4.409649   3.632643   3.205342   7.461942   8.795831
    39  H    4.765853   5.969411   6.566051   1.070000   2.027270
    40  H    4.302648   5.693558   6.184785   1.070000   2.027270
    41  H    3.312675   4.271132   5.099408   2.140162   2.879265
    42  H    2.789711   4.154427   4.700750   2.717949   3.329365
    43  H    2.082234   2.554807   3.519729   4.141070   4.798156
    44  H    1.070000   2.043488   2.172434   4.554737   5.642057
    45  H    2.112383   2.441668   2.995920   4.080436   5.310192
                   11         12         13         14         15
    11  H    0.000000
    12  C    3.426185   0.000000
    13  O    4.309919   1.435147   0.000000
    14  C    5.675166   2.430000   1.434395   0.000000
    15  O    6.530084   3.620779   2.308825   1.435798   0.000000
    16  C    7.330368   4.562010   3.205694   2.439543   1.434642
    17  C    7.080981   4.922789   3.531204   3.364537   2.430208
    18  O    5.735887   3.991070   2.732368   3.156764   2.719223
    19  H    5.125646   3.076264   1.762588   2.328436   2.148323
    20  C    8.177806   6.204862   4.884134   4.697611   3.830480
    21  O    8.399827   6.947405   5.659495   5.741491   4.844655
    22  H    9.185834   7.819970   6.565958   6.627125   5.759610
    23  C    9.475900   6.366417   5.177736   3.942951   3.023132
    24  O    9.458813   6.206420   5.200191   3.834830   3.169810
    25  H   10.358044   7.049295   6.119885   4.721752   4.158325
    26  C    8.784081   5.997972   4.644290   3.725173   2.518167
    27  O    9.678851   7.011106   5.672507   4.842507   3.782833
    28  C    9.493656   7.236671   5.860924   5.355547   4.271695
    29  O   10.457416   8.277956   6.969079   6.478262   5.538302
    30  H   11.126969   9.065665   7.725577   7.272847   6.241563
    31  H    3.977850   3.054703   4.270933   4.848726   6.007430
    32  H    9.838161   7.716883   6.298753   5.847860   4.610574
    33  H    8.161333   6.184668   4.987244   4.817647   4.222319
    34  H    7.383808   5.384993   3.965315   3.828374   2.647369
    35  H    7.390408   4.499353   3.308358   2.468803   2.055280
    36  H    8.962065   6.353218   4.962438   4.167778   2.781222
    37  H   10.486171   7.419320   6.204441   4.995828   3.991367
    38  H    9.493543   6.321548   5.225094   3.972302   3.351857
    39  H    2.302494   2.101740   2.408663   3.810402   4.558589
    40  H    2.417068   2.101740   2.405793   3.729847   4.350806
    41  H    3.739871   1.070000   2.064607   2.785600   4.102382
    42  H    4.161046   2.133905   2.725745   3.216201   4.115315
    43  H    5.780857   2.674775   3.212315   2.793482   4.133361
    44  H    6.459714   3.428876   2.927896   2.116901   2.460469
    45  H    6.077483   2.820277   2.038247   1.070000   2.041462
                   16         17         18         19         20
    16  C    0.000000
    17  C    1.520555   0.000000
    18  O    2.420937   1.434908   0.000000
    19  H    2.380431   1.997715   1.000178   0.000000
    20  C    2.597648   1.520132   2.492878   3.317436   0.000000
    21  O    3.813762   2.427590   2.968607   3.928956   1.435435
    22  H    4.630946   3.338098   3.877502   4.855666   2.069887
    23  C    2.449234   3.705458   4.851692   4.768634   4.220496
    24  O    3.228173   4.644516   5.566606   5.235171   5.442418
    25  H    4.150167   5.559281   6.525651   6.212242   6.232197
    26  C    1.520217   2.340391   3.641687   3.770779   2.844158
    27  O    2.483987   2.809277   4.198301   4.594856   2.487533
    28  C    2.942503   2.453766   3.774185   4.440742   1.519712
    29  O    4.134585   3.649218   4.804948   5.555837   2.332006
    30  H    4.883738   4.283692   5.436829   6.231769   2.957551
    31  H    7.231400   7.773510   6.910421   5.946168   9.154881
    32  H    3.464335   2.846041   4.146010   4.810083   2.145604
    33  H    2.953723   2.153117   2.784941   3.574514   1.070000
    34  H    2.064451   1.070000   1.992739   2.444731   2.060433
    35  H    1.070000   2.130645   2.784908   2.742766   2.837104
    36  H    2.155607   2.598015   3.869575   4.001377   3.195467
    37  H    3.338859   4.387418   5.659073   5.676725   4.664922
    38  H    2.604192   3.889256   4.950962   4.894456   4.234324
    39  H    5.150199   4.867228   3.530848   2.947633   5.931611
    40  H    5.322731   5.200157   4.038397   3.244891   6.515762
    41  H    4.820860   5.232131   4.325284   3.528289   6.355910
    42  H    5.441909   5.982007   5.271118   4.277719   7.446386
    43  H    5.078539   6.093948   5.699458   4.818101   7.308051
    44  H    3.812620   4.866013   4.840600   3.970760   6.290064
    45  H    2.449112   3.455038   3.337270   2.703980   4.545324
                   21         22         23         24         25
    21  O    0.000000
    22  H    1.000490   0.000000
    23  C    5.475429   6.094252   0.000000
    24  O    6.676241   7.378906   1.434641   0.000000
    25  H    7.486502   8.127355   2.034874   1.000074   0.000000
    26  C    4.008238   4.688429   1.520291   2.709773   3.489894
    27  O    3.647677   4.053321   2.274923   3.699373   4.250750
    28  C    2.343658   2.655851   3.593834   4.965977   5.609065
    29  O    2.865611   2.660335   4.546846   5.975847   6.484020
    30  H    3.095709   2.702347   5.187022   6.611273   7.089124
    31  H    9.871940  10.784651   8.564291   7.961002   8.644250
    32  H    2.429499   2.751939   3.987332   5.281405   5.926258
    33  H    2.077728   2.401146   4.560548   5.778545   6.518906
    34  H    2.513725   3.474002   3.880474   4.750725   5.674887
    35  H    4.193028   4.891111   2.648828   3.423784   4.234559
    36  H    4.057750   4.784906   2.151598   3.068480   3.846146
    37  H    5.821325   6.336942   1.070000   1.981680   2.169899
    38  H    5.606400   6.146363   1.070000   1.981680   2.373866
    39  H    6.287124   7.086115   7.401182   7.576145   8.501729
    40  H    6.860182   7.770162   7.367756   7.311340   8.243424
    41  H    7.182127   7.980257   6.570227   6.466202   7.248834
    42  H    8.151362   9.108576   6.800776   6.267883   7.051300
    43  H    8.401969   9.235208   5.915756   5.310838   5.871831
    44  H    7.260936   8.198926   4.395821   3.640623   4.392956
    45  H    5.724012   6.515805   3.844585   3.889610   4.686918
                   26         27         28         29         30
    26  C    0.000000
    27  O    1.434948   0.000000
    28  C    2.343002   1.434516   0.000000
    29  O    3.565174   2.287660   1.435562   0.000000
    30  H    4.181583   2.936215   1.975145   0.960000   0.000000
    31  H    8.495921   9.681487  10.066477  11.191686  11.967034
    32  H    2.683601   2.070867   1.070000   2.069752   2.133410
    33  H    3.396437   2.878256   2.151224   2.430731   3.210885
    34  H    2.434182   3.060471   2.615991   3.961781   4.406405
    35  H    2.130300   2.683855   3.257915   4.165476   5.033898
    36  H    1.070000   2.078738   2.617141   3.962599   4.381831
    37  H    2.055082   2.358739   3.707453   4.515507   5.014042
    38  H    2.055082   2.367922   3.718228   4.429497   5.186388
    39  H    6.631393   7.433098   7.246995   8.183084   8.883344
    40  H    6.677808   7.727092   7.652695   8.793115   9.438204
    41  H    6.283404   7.155582   7.415471   8.318772   9.161318
    42  H    6.621135   7.884554   8.252710   9.477238  10.194350
    43  H    6.208206   7.249528   7.952002   8.927362   9.793760
    44  H    4.575296   5.936356   6.645540   7.906817   8.608634
    45  H    3.740546   4.623241   5.203024   6.149548   7.017115
                   31         32         33         34         35
    31  H    0.000000
    32  H   10.455386   0.000000
    33  H    9.205034   3.013357   0.000000
    34  H    8.051937   2.583318   2.972082   0.000000
    35  H    7.238467   4.022814   2.793172   2.958796   0.000000
    36  H    8.721526   2.513936   3.986045   2.218816   3.026890
    37  H    9.577571   3.952043   5.066648   4.427122   3.585260
    38  H    8.612128   4.355243   4.317863   4.325896   2.352934
    39  H    4.411339   7.666311   5.885346   5.304750   5.169633
    40  H    3.607821   7.898518   6.717472   5.346181   5.602830
    41  H    3.434849   8.021160   6.155062   5.865082   4.516745
    42  H    2.118795   8.539127   7.663670   6.122530   5.661093
    43  H    3.392913   8.542387   7.205921   6.620714   4.764362
    44  H    4.504952   6.912283   6.622863   4.939066   4.138388
    45  H    5.352920   5.866948   4.442916   4.157228   2.009293
                   36         37         38         39         40
    36  H    0.000000
    37  H    2.403059   0.000000
    38  H    2.966902   1.726231   0.000000
    39  H    6.902281   8.400343   7.370878   0.000000
    40  H    6.739433   8.339470   7.550693   1.725983   0.000000
    41  H    6.792473   7.638153   6.349016   2.414223   2.992767
    42  H    6.727656   7.779775   7.011276   3.685479   2.515058
    43  H    6.736724   6.937376   5.713594   4.724611   4.599611
    44  H    4.689897   5.300295   4.749070   5.135763   4.341768
    45  H    4.422684   4.910623   3.585948   4.107071   4.417738
                   41         42         43         44         45
    41  H    0.000000
    42  H    3.017052   0.000000
    43  H    2.518363   2.982840   0.000000
    44  H    4.063674   2.710785   2.959867   0.000000
    45  H    2.765677   4.015728   2.797621   2.958611   0.000000
 Stoichiometry    C12H22O11
 Framework group  C1[X(C12H22O11)]
 Deg. of freedom   129
 Full point group                 C1      NOp   1
 Largest Abelian subgroup         C1      NOp   1
 Largest concise Abelian subgroup C1      NOp   1
                         Standard orientation:                         
 ---------------------------------------------------------------------
 Center     Atomic      Atomic             Coordinates (Angstroms)
 Number     Number       Type             X           Y           Z
 ---------------------------------------------------------------------
      1          8           0       -5.051993   -0.250218    0.394306
      2          6           0       -3.736005   -0.074612   -0.150651
      3          6           0       -3.258870    1.309673    0.257151
      4          8           0       -4.285664    2.228144   -0.147339
      5          1           0       -5.090736    1.861244    0.318183
      6          6           0       -1.815702    1.537467   -0.160040
      7          8           0       -1.264765    2.689353    0.495110
      8          1           0       -0.607977    3.146843   -0.103375
      9          6           0       -3.057013   -2.538624   -0.152107
     10          8           0       -4.328562   -3.173908    0.045130
     11          1           0       -4.352034   -4.139664   -0.211752
     12          6           0       -2.806149   -1.143739    0.399326
     13          8           0       -1.453529   -0.954532   -0.041428
     14          6           0       -0.911340    0.358381    0.158016
     15          8           0        0.258408    0.462248   -0.668069
     16          6           0        1.519150    0.245111   -0.018779
     17          6           0        2.059581   -1.137511   -0.347986
     18          8           0        1.013856   -2.113021   -0.230509
     19          1           0        0.131243   -1.659359   -0.355170
     20          6           0        3.385064   -1.537308    0.279756
     21          8           0        3.921054   -2.695474   -0.377389
     22          1           0        4.766779   -3.055991    0.017270
     23          6           0        2.363499    2.543900   -0.055989
     24          8           0        1.298203    3.443957   -0.392497
     25          1           0        1.520546    4.392621   -0.167224
     26          6           0        2.682093    1.115412   -0.467332
     27          8           0        3.900149    0.896222    0.258871
     28          6           0        4.383596   -0.428037   -0.006559
     29          8           0        5.439573   -0.653049    0.939548
     30          1           0        6.254343   -0.845790    0.469867
     31          1           0       -5.677936   -0.390853   -0.319850
     32          1           0        4.754214   -0.502040   -1.007591
     33          1           0        3.282246   -1.702042    1.331988
     34          1           0        2.270465   -1.096602   -1.396201
     35          1           0        1.394412    0.335767    1.040052
     36          1           0        2.840163    1.044067   -1.523185
     37          1           0        3.246130    3.086343   -0.323606
     38          1           0        2.325692    2.496379    1.012286
     39          1           0       -2.313723   -3.182825    0.269113
     40          1           0       -2.885807   -2.496209   -1.207469
     41          1           0       -2.847082   -1.156608    1.468465
     42          1           0       -3.774796   -0.143527   -1.217724
     43          1           0       -3.257475    1.324064    1.327054
     44          1           0       -1.792689    1.705692   -1.216483
     45          1           0       -0.607243    0.440030    1.180640
 ---------------------------------------------------------------------
 Rotational constants (GHZ):      0.4121807      0.1427161      0.1089125
 Standard basis: 6-31+G(d,p) (6D, 7F)
 There are   547 symmetry adapted basis functions of A   symmetry.
 Integral buffers will be    131072 words long.
 Raffenetti 2 integral format.
 Two-electron integral symmetry is turned on.
   547 basis functions,   890 primitive gaussians,   547 cartesian basis functions
    91 alpha electrons       91 beta electrons
       nuclear repulsion energy      2280.7350134826 Hartrees.
 NAtoms=   45 NActive=   45 NUniq=   45 SFac= 1.00D+00 NAtFMM=   50 NAOKFM=F Big=F
 One-electron integrals computed using PRISM.
 NBasis=   547 RedAO= T  NBF=   547
 NBsUse=   547 1.00D-06 NBFU=   547
 Harris functional with IExCor=  402 diagonalized for initial guess.
 ExpMin= 4.38D-02 ExpMax= 5.48D+03 ExpMxC= 8.25D+02 IAcc=2 IRadAn=         0 AccDes= 0.00D+00
 HarFok:  IExCor=  402 AccDes= 0.00D+00 IRadAn=         0 IDoV= 1
 ScaDFX=  1.000000  1.000000  1.000000  1.000000
 FoFCou: FMM=F IPFlag=           0 FMFlag=      100000 FMFlg1=           0
         NFxFlg=           0 DoJE=T BraDBF=F KetDBF=T FulRan=T
         Omega=  0.000000  0.000000  1.000000  0.000000  0.000000 ICntrl=     500 IOpCl=  0
         NMat0=    1 NMatS0=    1 NMatT0=    0 NMatD0=    1 NMtDS0=    0 NMtDT0=    0
         I1Cent=           4 NGrid=           0.
 Petite list used in FoFCou.
 Initial guess orbital symmetries:
       Occupied  (A) (A) (A) (A) (A) (A) (A) (A) (A) (A) (A) (A)
                 (A) (A) (A) (A) (A) (A) (A) (A) (A) (A) (A) (A)
                 (A) (A) (A) (A) (A) (A) (A) (A) (A) (A) (A) (A)
                 (A) (A) (A) (A) (A) (A) (A) (A) (A) (A) (A) (A)
                 (A) (A) (A) (A) (A) (A) (A) (A) (A) (A) (A) (A)
                 (A) (A) (A) (A) (A) (A) (A) (A) (A) (A) (A) (A)
                 (A) (A) (A) (A) (A) (A) (A) (A) (A) (A) (A) (A)
                 (A) (A) (A) (A) (A) (A) (A)
       Virtual   (A) (A) (A) (A) (A) (A) (A) (A) (A) (A) (A) (A)
                 (A) (A) (A) (A) (A) (A) (A) (A) (A) (A) (A) (A)
                 (A) (A) (A) (A) (A) (A) (A) (A) (A) (A) (A) (A)
                 (A) (A) (A) (A) (A) (A) (A) (A) (A) (A) (A) (A)
                 (A) (A) (A) (A) (A) (A) (A) (A) (A) (A) (A) (A)
                 (A) (A) (A) (A) (A) (A) (A) (A) (A) (A) (A) (A)
                 (A) (A) (A) (A) (A) (A) (A) (A) (A) (A) (A) (A)
                 (A) (A) (A) (A) (A) (A) (A) (A) (A) (A) (A) (A)
                 (A) (A) (A) (A) (A) (A) (A) (A) (A) (A) (A) (A)
                 (A) (A) (A) (A) (A) (A) (A) (A) (A) (A) (A) (A)
                 (A) (A) (A) (A) (A) (A) (A) (A) (A) (A) (A) (A)
                 (A) (A) (A) (A) (A) (A) (A) (A) (A) (A) (A) (A)
                 (A) (A) (A) (A) (A) (A) (A) (A) (A) (A) (A) (A)
                 (A) (A) (A) (A) (A) (A) (A) (A) (A) (A) (A) (A)
                 (A) (A) (A) (A) (A) (A) (A) (A) (A) (A) (A) (A)
                 (A) (A) (A) (A) (A) (A) (A) (A) (A) (A) (A) (A)
                 (A) (A) (A) (A) (A) (A) (A) (A) (A) (A) (A) (A)
                 (A) (A) (A) (A) (A) (A) (A) (A) (A) (A) (A) (A)
                 (A) (A) (A) (A) (A) (A) (A) (A) (A) (A) (A) (A)
                 (A) (A) (A) (A) (A) (A) (A) (A) (A) (A) (A) (A)
                 (A) (A) (A) (A) (A) (A) (A) (A) (A) (A) (A) (A)
                 (A) (A) (A) (A) (A) (A) (A) (A) (A) (A) (A) (A)
                 (A) (A) (A) (A) (A) (A) (A) (A) (A) (A) (A) (A)
                 (A) (A) (A) (A) (A) (A) (A) (A) (A) (A) (A) (A)
                 (A) (A) (A) (A) (A) (A) (A) (A) (A) (A) (A) (A)
                 (A) (A) (A) (A) (A) (A) (A) (A) (A) (A) (A) (A)
                 (A) (A) (A) (A) (A) (A) (A) (A) (A) (A) (A) (A)
                 (A) (A) (A) (A) (A) (A) (A) (A) (A) (A) (A) (A)
                 (A) (A) (A) (A) (A) (A) (A) (A) (A) (A) (A) (A)
                 (A) (A) (A) (A) (A) (A) (A) (A) (A) (A) (A) (A)
                 (A) (A) (A) (A) (A) (A) (A) (A) (A) (A) (A) (A)
                 (A) (A) (A) (A) (A) (A) (A) (A) (A) (A) (A) (A)
                 (A) (A) (A) (A) (A) (A) (A) (A) (A) (A) (A) (A)
                 (A) (A) (A) (A) (A) (A) (A) (A) (A) (A) (A) (A)
                 (A) (A) (A) (A) (A) (A) (A) (A) (A) (A) (A) (A)
                 (A) (A) (A) (A) (A) (A) (A) (A) (A) (A) (A) (A)
                 (A) (A) (A) (A) (A) (A) (A) (A) (A) (A) (A) (A)
                 (A) (A) (A) (A) (A) (A) (A) (A) (A) (A) (A) (A)
 The electronic state of the initial guess is 1-A.
 Requested convergence on RMS density matrix=1.00D-08 within 128 cycles.
 Requested convergence on MAX density matrix=1.00D-06.
 Requested convergence on             energy=1.00D-06.
 No special actions if energy rises.
 SCF Done:  E(RB3LYP) =  -1297.91460754     A.U. after   13 cycles
             Convg  =    0.8284D-08             -V/T =  2.0087
 Range of M.O.s used for correlation:     1   547
 NBasis=   547 NAE=    91 NBE=    91 NFC=     0 NFV=     0
 NROrb=    547 NOA=    91 NOB=    91 NVA=   456 NVB=   456

 **** Warning!!: The largest alpha MO coefficient is  0.72003239D+02

          Differentiating once with respect to electric field.
                with respect to dipole field.
          Electric field/nuclear overlap derivatives assumed to be zero.
          There are     3 degrees of freedom in the 1st order CPHF.  IDoFFX=0.
      3 vectors produced by pass  0 Test12= 1.38D-12 3.33D-08 XBig12= 1.21D+02 1.01D+00.
 AX will form     3 AO Fock derivatives at one time.
      3 vectors produced by pass  1 Test12= 1.38D-12 3.33D-08 XBig12= 2.08D+01 3.73D-01.
      3 vectors produced by pass  2 Test12= 1.38D-12 3.33D-08 XBig12= 8.79D+00 2.06D-01.
      3 vectors produced by pass  3 Test12= 1.38D-12 3.33D-08 XBig12= 8.22D-01 9.21D-02.
      3 vectors produced by pass  4 Test12= 1.38D-12 3.33D-08 XBig12= 2.66D-01 4.29D-02.
      3 vectors produced by pass  5 Test12= 1.38D-12 3.33D-08 XBig12= 4.58D-02 1.86D-02.
      3 vectors produced by pass  6 Test12= 1.38D-12 3.33D-08 XBig12= 1.53D-02 1.31D-02.
      3 vectors produced by pass  7 Test12= 1.38D-12 3.33D-08 XBig12= 1.81D-03 6.16D-03.
      3 vectors produced by pass  8 Test12= 1.38D-12 3.33D-08 XBig12= 2.89D-04 1.86D-03.
      3 vectors produced by pass  9 Test12= 1.38D-12 3.33D-08 XBig12= 6.13D-05 1.05D-03.
      3 vectors produced by pass 10 Test12= 1.38D-12 3.33D-08 XBig12= 1.45D-05 3.58D-04.
      3 vectors produced by pass 11 Test12= 1.38D-12 3.33D-08 XBig12= 4.84D-06 2.57D-04.
      3 vectors produced by pass 12 Test12= 1.38D-12 3.33D-08 XBig12= 6.11D-07 6.17D-05.
      3 vectors produced by pass 13 Test12= 1.38D-12 3.33D-08 XBig12= 1.77D-07 3.50D-05.
      3 vectors produced by pass 14 Test12= 1.38D-12 3.33D-08 XBig12= 2.56D-08 1.17D-05.
      3 vectors produced by pass 15 Test12= 1.38D-12 3.33D-08 XBig12= 5.27D-09 6.54D-06.
      3 vectors produced by pass 16 Test12= 1.38D-12 3.33D-08 XBig12= 7.84D-10 2.25D-06.
      3 vectors produced by pass 17 Test12= 1.38D-12 3.33D-08 XBig12= 5.98D-11 5.79D-07.
      3 vectors produced by pass 18 Test12= 1.38D-12 3.33D-08 XBig12= 1.74D-11 2.70D-07.
      3 vectors produced by pass 19 Test12= 1.38D-12 3.33D-08 XBig12= 9.71D-12 1.86D-07.
      2 vectors produced by pass 20 Test12= 1.38D-12 3.33D-08 XBig12= 6.11D-12 2.39D-07.
      2 vectors produced by pass 21 Test12= 1.38D-12 3.33D-08 XBig12= 2.03D-12 1.43D-07.
 Inverted reduced A of dimension    64 with in-core refinement.
 End of Minotr Frequency-dependent properties file   721 does not exist.
 End of Minotr Frequency-dependent properties file   722 does not exist.
 Symmetrizing basis deriv contribution to polar:
 IMax=3 JMax=2 DiffMx= 0.00D+00
 G2DrvN: will do    23 centers at a time, making    2 passes doing MaxLOS=2.
 Calling FoFCou, ICntrl=  3107 FMM=F I1Cent=   0 AccDes= 0.00D+00.
 Calling FoFCou, ICntrl=  3107 FMM=F I1Cent=   0 AccDes= 0.00D+00.
 FoFDir/FoFCou used for L=0 through L=2.
 End of G2Drv Frequency-dependent properties file   721 does not exist.
 End of G2Drv Frequency-dependent properties file   722 does not exist.
          IDoAtm=111111111111111111111111111111111111111111111
          Differentiating once with respect to electric field.
                with respect to dipole field.
          Differentiating once with respect to nuclear coordinates.
          There are   138 degrees of freedom in the 1st order CPHF.  IDoFFX=5.
 Will reuse    3 saved solutions.
    135 vectors produced by pass  0 Test12= 4.15D-14 1.00D-09 XBig12= 2.24D-01 6.12D-02.
 AX will form    68 AO Fock derivatives at one time.
    135 vectors produced by pass  1 Test12= 4.15D-14 1.00D-09 XBig12= 3.09D-02 1.39D-02.
    132 vectors produced by pass  2 Test12= 4.15D-14 1.00D-09 XBig12= 2.74D-04 1.77D-03.
    132 vectors produced by pass  3 Test12= 4.15D-14 1.00D-09 XBig12= 8.03D-07 1.05D-04.
    132 vectors produced by pass  4 Test12= 4.15D-14 1.00D-09 XBig12= 1.51D-09 4.57D-06.
    131 vectors produced by pass  5 Test12= 4.15D-14 1.00D-09 XBig12= 4.06D-12 1.44D-07.
     80 vectors produced by pass  6 Test12= 4.15D-14 1.00D-09 XBig12= 1.49D-13 2.28D-08.
 Inverted reduced A of dimension   877 with in-core refinement.
 Isotropic polarizability for W=    0.000000      187.45 Bohr**3.
 End of Minotr Frequency-dependent properties file   721 does not exist.
 End of Minotr Frequency-dependent properties file   722 does not exist.

 **********************************************************************

            Population analysis using the SCF density.

 **********************************************************************

 Orbital symmetries:
       Occupied  (A) (A) (A) (A) (A) (A) (A) (A) (A) (A) (A) (A)
                 (A) (A) (A) (A) (A) (A) (A) (A) (A) (A) (A) (A)
                 (A) (A) (A) (A) (A) (A) (A) (A) (A) (A) (A) (A)
                 (A) (A) (A) (A) (A) (A) (A) (A) (A) (A) (A) (A)
                 (A) (A) (A) (A) (A) (A) (A) (A) (A) (A) (A) (A)
                 (A) (A) (A) (A) (A) (A) (A) (A) (A) (A) (A) (A)
                 (A) (A) (A) (A) (A) (A) (A) (A) (A) (A) (A) (A)
                 (A) (A) (A) (A) (A) (A) (A)
       Virtual   (A) (A) (A) (A) (A) (A) (A) (A) (A) (A) (A) (A)
                 (A) (A) (A) (A) (A) (A) (A) (A) (A) (A) (A) (A)
                 (A) (A) (A) (A) (A) (A) (A) (A) (A) (A) (A) (A)
                 (A) (A) (A) (A) (A) (A) (A) (A) (A) (A) (A) (A)
                 (A) (A) (A) (A) (A) (A) (A) (A) (A) (A) (A) (A)
                 (A) (A) (A) (A) (A) (A) (A) (A) (A) (A) (A) (A)
                 (A) (A) (A) (A) (A) (A) (A) (A) (A) (A) (A) (A)
                 (A) (A) (A) (A) (A) (A) (A) (A) (A) (A) (A) (A)
                 (A) (A) (A) (A) (A) (A) (A) (A) (A) (A) (A) (A)
                 (A) (A) (A) (A) (A) (A) (A) (A) (A) (A) (A) (A)
                 (A) (A) (A) (A) (A) (A) (A) (A) (A) (A) (A) (A)
                 (A) (A) (A) (A) (A) (A) (A) (A) (A) (A) (A) (A)
                 (A) (A) (A) (A) (A) (A) (A) (A) (A) (A) (A) (A)
                 (A) (A) (A) (A) (A) (A) (A) (A) (A) (A) (A) (A)
                 (A) (A) (A) (A) (A) (A) (A) (A) (A) (A) (A) (A)
                 (A) (A) (A) (A) (A) (A) (A) (A) (A) (A) (A) (A)
                 (A) (A) (A) (A) (A) (A) (A) (A) (A) (A) (A) (A)
                 (A) (A) (A) (A) (A) (A) (A) (A) (A) (A) (A) (A)
                 (A) (A) (A) (A) (A) (A) (A) (A) (A) (A) (A) (A)
                 (A) (A) (A) (A) (A) (A) (A) (A) (A) (A) (A) (A)
                 (A) (A) (A) (A) (A) (A) (A) (A) (A) (A) (A) (A)
                 (A) (A) (A) (A) (A) (A) (A) (A) (A) (A) (A) (A)
                 (A) (A) (A) (A) (A) (A) (A) (A) (A) (A) (A) (A)
                 (A) (A) (A) (A) (A) (A) (A) (A) (A) (A) (A) (A)
                 (A) (A) (A) (A) (A) (A) (A) (A) (A) (A) (A) (A)
                 (A) (A) (A) (A) (A) (A) (A) (A) (A) (A) (A) (A)
                 (A) (A) (A) (A) (A) (A) (A) (A) (A) (A) (A) (A)
                 (A) (A) (A) (A) (A) (A) (A) (A) (A) (A) (A) (A)
                 (A) (A) (A) (A) (A) (A) (A) (A) (A) (A) (A) (A)
                 (A) (A) (A) (A) (A) (A) (A) (A) (A) (A) (A) (A)
                 (A) (A) (A) (A) (A) (A) (A) (A) (A) (A) (A) (A)
                 (A) (A) (A) (A) (A) (A) (A) (A) (A) (A) (A) (A)
                 (A) (A) (A) (A) (A) (A) (A) (A) (A) (A) (A) (A)
                 (A) (A) (A) (A) (A) (A) (A) (A) (A) (A) (A) (A)
                 (A) (A) (A) (A) (A) (A) (A) (A) (A) (A) (A) (A)
                 (A) (A) (A) (A) (A) (A) (A) (A) (A) (A) (A) (A)
                 (A) (A) (A) (A) (A) (A) (A) (A) (A) (A) (A) (A)
                 (A) (A) (A) (A) (A) (A) (A) (A) (A) (A) (A) (A)
 The electronic state is 1-A.
 Alpha  occ. eigenvalues --  -19.19809 -19.19738 -19.19721 -19.18730 -19.18483
 Alpha  occ. eigenvalues --  -19.18001 -19.17114 -19.16495 -19.15911 -19.15330
 Alpha  occ. eigenvalues --  -19.13335 -10.31400 -10.31014 -10.26956 -10.26341
 Alpha  occ. eigenvalues --  -10.26079 -10.25552 -10.25500 -10.25479 -10.24627
 Alpha  occ. eigenvalues --  -10.24596 -10.24170 -10.23815  -1.10408  -1.09613
 Alpha  occ. eigenvalues --   -1.05944  -1.04901  -1.04242  -1.03763  -1.02653
 Alpha  occ. eigenvalues --   -1.02183  -1.01915  -1.00879  -0.99563  -0.82802
 Alpha  occ. eigenvalues --   -0.80707  -0.79442  -0.78871  -0.71822  -0.69985
 Alpha  occ. eigenvalues --   -0.67425  -0.65179  -0.63294  -0.62990  -0.61479
 Alpha  occ. eigenvalues --   -0.60218  -0.56750  -0.55655  -0.55298  -0.54956
 Alpha  occ. eigenvalues --   -0.54520  -0.53645  -0.52722  -0.51768  -0.51447
 Alpha  occ. eigenvalues --   -0.50635  -0.50068  -0.49468  -0.48763  -0.46500
 Alpha  occ. eigenvalues --   -0.46361  -0.44922  -0.44295  -0.43898  -0.43098
 Alpha  occ. eigenvalues --   -0.42512  -0.42062  -0.41906  -0.40534  -0.39626
 Alpha  occ. eigenvalues --   -0.39274  -0.38098  -0.36540  -0.36229  -0.35550
 Alpha  occ. eigenvalues --   -0.35201  -0.34809  -0.34174  -0.33291  -0.33018
 Alpha  occ. eigenvalues --   -0.32819  -0.31495  -0.31202  -0.30014  -0.29734
 Alpha  occ. eigenvalues --   -0.29359  -0.28495  -0.28386  -0.27847  -0.27303
 Alpha  occ. eigenvalues --   -0.25622
 Alpha virt. eigenvalues --   -0.02158  -0.01996  -0.01577   0.00098   0.00353
 Alpha virt. eigenvalues --    0.01051   0.01939   0.02217   0.02950   0.03578
 Alpha virt. eigenvalues --    0.03675   0.04141   0.04821   0.05259   0.06006
 Alpha virt. eigenvalues --    0.06140   0.06595   0.07066   0.07777   0.08318
 Alpha virt. eigenvalues --    0.08423   0.08855   0.09311   0.09861   0.10120
 Alpha virt. eigenvalues --    0.10451   0.10969   0.11103   0.11860   0.12043
 Alpha virt. eigenvalues --    0.12479   0.12788   0.12939   0.13496   0.13892
 Alpha virt. eigenvalues --    0.14088   0.14415   0.14604   0.14913   0.15302
 Alpha virt. eigenvalues --    0.15663   0.16029   0.16511   0.17042   0.17351
 Alpha virt. eigenvalues --    0.17408   0.17846   0.17915   0.18265   0.18724
 Alpha virt. eigenvalues --    0.18941   0.19283   0.19497   0.19941   0.20409
 Alpha virt. eigenvalues --    0.20657   0.20765   0.21260   0.21485   0.21752
 Alpha virt. eigenvalues --    0.21873   0.22133   0.22490   0.22971   0.23455
 Alpha virt. eigenvalues --    0.23810   0.23936   0.24082   0.24321   0.24558
 Alpha virt. eigenvalues --    0.24906   0.25211   0.25673   0.25978   0.26363
 Alpha virt. eigenvalues --    0.26677   0.26920   0.27057   0.27375   0.27450
 Alpha virt. eigenvalues --    0.27833   0.28086   0.28091   0.28362   0.28900
 Alpha virt. eigenvalues --    0.29669   0.29956   0.30138   0.30327   0.31003
 Alpha virt. eigenvalues --    0.31188   0.31435   0.31736   0.32195   0.32365
 Alpha virt. eigenvalues --    0.32656   0.32985   0.33085   0.33443   0.33643
 Alpha virt. eigenvalues --    0.34073   0.34437   0.34939   0.35592   0.35774
 Alpha virt. eigenvalues --    0.36589   0.36654   0.36729   0.37233   0.37553
 Alpha virt. eigenvalues --    0.37755   0.38183   0.38531   0.38916   0.40043
 Alpha virt. eigenvalues --    0.40303   0.40517   0.41013   0.41371   0.41703
 Alpha virt. eigenvalues --    0.42344   0.42607   0.43041   0.43541   0.44248
 Alpha virt. eigenvalues --    0.45443   0.45771   0.46067   0.47256   0.47423
 Alpha virt. eigenvalues --    0.48105   0.48874   0.49266   0.49645   0.50315
 Alpha virt. eigenvalues --    0.51120   0.53971   0.56488   0.62709   0.63483
 Alpha virt. eigenvalues --    0.64834   0.66836   0.67804   0.68691   0.70245
 Alpha virt. eigenvalues --    0.70767   0.71641   0.72478   0.74466   0.74652
 Alpha virt. eigenvalues --    0.75641   0.76437   0.77455   0.77754   0.79118
 Alpha virt. eigenvalues --    0.79625   0.80357   0.82635   0.83127   0.83997
 Alpha virt. eigenvalues --    0.85357   0.86996   0.87937   0.88889   0.89829
 Alpha virt. eigenvalues --    0.91094   0.91386   0.92899   0.93441   0.94256
 Alpha virt. eigenvalues --    0.95626   0.96668   0.98697   0.99479   1.00839
 Alpha virt. eigenvalues --    1.01191   1.02325   1.03235   1.04262   1.04471
 Alpha virt. eigenvalues --    1.04726   1.05822   1.06969   1.07534   1.07920
 Alpha virt. eigenvalues --    1.08380   1.08669   1.09616   1.10543   1.11203
 Alpha virt. eigenvalues --    1.11902   1.12554   1.13965   1.14794   1.15800
 Alpha virt. eigenvalues --    1.17000   1.17689   1.18055   1.19661   1.21268
 Alpha virt. eigenvalues --    1.22049   1.22314   1.23103   1.23491   1.24890
 Alpha virt. eigenvalues --    1.25612   1.26917   1.27022   1.27184   1.27741
 Alpha virt. eigenvalues --    1.28491   1.28927   1.29999   1.30204   1.30633
 Alpha virt. eigenvalues --    1.31285   1.31925   1.33307   1.33951   1.34330
 Alpha virt. eigenvalues --    1.35613   1.36367   1.36545   1.37499   1.38022
 Alpha virt. eigenvalues --    1.38488   1.39901   1.41127   1.41690   1.43108
 Alpha virt. eigenvalues --    1.43205   1.43756   1.45298   1.46835   1.48017
 Alpha virt. eigenvalues --    1.49135   1.49973   1.50752   1.51836   1.52678
 Alpha virt. eigenvalues --    1.54186   1.55542   1.56217   1.56875   1.57506
 Alpha virt. eigenvalues --    1.58144   1.59001   1.59987   1.60358   1.61159
 Alpha virt. eigenvalues --    1.62367   1.63282   1.64628   1.65098   1.65942
 Alpha virt. eigenvalues --    1.67129   1.67837   1.68803   1.69590   1.70455
 Alpha virt. eigenvalues --    1.71282   1.72552   1.73296   1.73499   1.74073
 Alpha virt. eigenvalues --    1.74340   1.75027   1.75915   1.76565   1.77038
 Alpha virt. eigenvalues --    1.78175   1.79089   1.80595   1.81619   1.83367
 Alpha virt. eigenvalues --    1.83441   1.84047   1.85700   1.86034   1.88099
 Alpha virt. eigenvalues --    1.88536   1.89394   1.89851   1.90889   1.91785
 Alpha virt. eigenvalues --    1.91907   1.92576   1.93127   1.93457   1.94708
 Alpha virt. eigenvalues --    1.95322   1.95918   1.96613   1.97269   1.97970
 Alpha virt. eigenvalues --    1.99546   2.00170   2.00261   2.01456   2.01609
 Alpha virt. eigenvalues --    2.02622   2.03352   2.04040   2.04702   2.06154
 Alpha virt. eigenvalues --    2.06942   2.07574   2.09705   2.10360   2.11921
 Alpha virt. eigenvalues --    2.12136   2.13242   2.14193   2.14820   2.15977
 Alpha virt. eigenvalues --    2.16683   2.17107   2.18695   2.19591   2.20355
 Alpha virt. eigenvalues --    2.21935   2.22634   2.26352   2.26905   2.27706
 Alpha virt. eigenvalues --    2.29711   2.30440   2.31332   2.32112   2.34352
 Alpha virt. eigenvalues --    2.35676   2.37647   2.38071   2.38730   2.40314
 Alpha virt. eigenvalues --    2.41605   2.42099   2.42948   2.43403   2.44684
 Alpha virt. eigenvalues --    2.45091   2.46292   2.47861   2.48768   2.49385
 Alpha virt. eigenvalues --    2.51105   2.52650   2.53786   2.54063   2.54522
 Alpha virt. eigenvalues --    2.56955   2.57601   2.60097   2.60727   2.61115
 Alpha virt. eigenvalues --    2.61270   2.63071   2.64122   2.64740   2.65857
 Alpha virt. eigenvalues --    2.66952   2.67350   2.68224   2.69158   2.70026
 Alpha virt. eigenvalues --    2.71040   2.72363   2.74042   2.74302   2.74771
 Alpha virt. eigenvalues --    2.75820   2.76326   2.76885   2.78363   2.80330
 Alpha virt. eigenvalues --    2.81691   2.82100   2.84592   2.85806   2.86755
 Alpha virt. eigenvalues --    2.87428   2.87979   2.89538   2.89828   2.90072
 Alpha virt. eigenvalues --    2.91817   2.92034   2.92209   2.93604   2.95012
 Alpha virt. eigenvalues --    2.95102   2.95731   2.96721   2.97239   2.99282
 Alpha virt. eigenvalues --    3.02092   3.03116   3.04429   3.05564   3.06543
 Alpha virt. eigenvalues --    3.07305   3.09565   3.10442   3.11181   3.13871
 Alpha virt. eigenvalues --    3.17035   3.19862   3.22696   3.23913   3.28570
 Alpha virt. eigenvalues --    3.30991   3.37117   3.38055   3.40100   3.42015
 Alpha virt. eigenvalues --    3.44259   3.45955   3.46945   3.47344   3.49154
 Alpha virt. eigenvalues --    3.49666   3.52146   3.52657   3.52696   3.53924
 Alpha virt. eigenvalues --    3.56660   3.57458   3.58578   3.60555   3.61500
 Alpha virt. eigenvalues --    3.65208   3.66123   3.74925   4.29487   4.33998
 Alpha virt. eigenvalues --    4.34652   4.35835   4.38337   4.43794   4.44377
 Alpha virt. eigenvalues --    4.49285   4.49669   4.52151   4.54577   4.55205
 Alpha virt. eigenvalues --    4.58176   4.60662   4.62035   4.66904   4.74594
 Alpha virt. eigenvalues --    4.77831   4.80888   4.84009   4.85761   4.92223
 Alpha virt. eigenvalues --    4.93570
          Condensed to atoms (all electrons):
              1          2          3          4          5          6
     1  O    8.324683   0.300441  -0.285738  -0.008241   0.040325   0.114902
     2  C    0.300441   8.198108  -0.587198  -0.128954  -0.111276  -1.749573
     3  C   -0.285738  -0.587198   9.948378   0.359781  -0.000061  -1.396154
     4  O   -0.008241  -0.128954   0.359781   8.193012   0.212930  -0.141691
     5  H    0.040325  -0.111276  -0.000061   0.212930   0.405616   0.077450
     6  C    0.114902  -1.749573  -1.396154  -0.141691   0.077450  10.981849
     7  O   -0.000739  -0.001070  -0.098584   0.005442  -0.000593   0.300010
     8  H    0.000044  -0.006520   0.013619  -0.000645   0.000013   0.092146
     9  C    0.029991   0.038351  -0.131338   0.006313  -0.001699   0.270630
    10  O   -0.000748   0.035005   0.021428  -0.000049  -0.000021  -0.020899
    11  H    0.000519  -0.008805  -0.001908   0.000000   0.000000  -0.000185
    12  C   -0.168417  -1.336163  -1.367818   0.032159   0.027389   0.999239
    13  O    0.008590  -0.045629   0.041215   0.000398   0.000100  -0.088882
    14  C    0.005356   0.751379   0.257279   0.010955  -0.008152  -3.121223
    15  O    0.001086  -0.041828  -0.038696   0.000858   0.000093   0.117035
    16  C    0.006739  -0.010038  -0.482223   0.000141   0.001159  -0.179558
    17  C    0.000717  -0.023851  -0.016025   0.001001   0.000026  -0.085538
    18  O   -0.000004   0.011581  -0.004283  -0.000007   0.000000   0.000311
    19  H   -0.000010  -0.012862   0.009377  -0.000002   0.000000   0.020740
    20  C    0.000049   0.001020  -0.004585  -0.000024   0.000002   0.076010
    21  O    0.000000   0.000013  -0.000057   0.000000   0.000000  -0.000395
    22  H    0.000000   0.000001   0.000000   0.000000   0.000000  -0.000039
    23  C    0.000061   0.014774  -0.042767   0.000238  -0.000011  -0.109889
    24  O   -0.000001   0.001097  -0.009970  -0.000073  -0.000002  -0.010628
    25  H    0.000000  -0.000033   0.000534  -0.000001   0.000000  -0.000692
    26  C   -0.000162   0.019505  -0.037112  -0.000236   0.000004  -0.175618
    27  O    0.000000  -0.000289   0.000647   0.000001   0.000000   0.004158
    28  C    0.000008  -0.001968   0.000309   0.000013   0.000000  -0.009732
    29  O    0.000000  -0.000004   0.000042   0.000000   0.000000  -0.000373
    30  H    0.000000   0.000000   0.000000   0.000000   0.000000   0.000001
    31  H    0.231919   0.057871  -0.002368  -0.000469  -0.004361  -0.009794
    32  H    0.000000  -0.000004   0.000013   0.000000   0.000000   0.000086
    33  H    0.000000   0.000016   0.000022   0.000000   0.000000   0.000838
    34  H    0.000000   0.000845  -0.000322   0.000000   0.000000   0.003824
    35  H   -0.000003   0.000869   0.001571   0.000002   0.000000   0.009115
    36  H    0.000000  -0.000004   0.000829   0.000000   0.000000   0.001605
    37  H    0.000000   0.000027  -0.000108   0.000000   0.000000  -0.000423
    38  H    0.000000   0.000146   0.001255   0.000001   0.000000  -0.000996
    39  H    0.000056  -0.006247  -0.003758   0.000019   0.000000  -0.000694
    40  H    0.002355  -0.000747   0.006349  -0.000032  -0.000001   0.021307
    41  H    0.006937   0.054818  -0.037286  -0.000241  -0.000001  -0.019241
    42  H   -0.044225   0.454132  -0.072401  -0.000257   0.000012  -0.022396
    43  H   -0.000612   0.068577   0.201935  -0.045974  -0.007480  -0.131496
    44  H   -0.000458   0.063392  -0.169172   0.002701  -0.000057   0.324964
    45  H    0.000009   0.037512  -0.046709  -0.000207   0.000007  -0.105959
              7          8          9         10         11         12
     1  O   -0.000739   0.000044   0.029991  -0.000748   0.000519  -0.168417
     2  C   -0.001070  -0.006520   0.038351   0.035005  -0.008805  -1.336163
     3  C   -0.098584   0.013619  -0.131338   0.021428  -0.001908  -1.367818
     4  O    0.005442  -0.000645   0.006313  -0.000049   0.000000   0.032159
     5  H   -0.000593   0.000013  -0.001699  -0.000021   0.000000   0.027389
     6  C    0.300010   0.092146   0.270630  -0.020899  -0.000185   0.999239
     7  O    8.187756   0.230652  -0.001874   0.000008   0.000000   0.022949
     8  H    0.230652   0.350651   0.000445   0.000000   0.000000  -0.001872
     9  C   -0.001874   0.000445   6.318818   0.078610  -0.007082  -1.314408
    10  O    0.000008   0.000000   0.078610   8.394519   0.197189  -0.034903
    11  H    0.000000   0.000000  -0.007082   0.197189   0.430424   0.039882
    12  C    0.022949  -0.001872  -1.314408  -0.034903   0.039882  10.772344
    13  O    0.012397  -0.001089   0.013949  -0.002414  -0.000135  -0.254294
    14  C   -0.129128  -0.076580  -0.278127   0.023250  -0.003983  -1.022809
    15  O    0.004599   0.004399  -0.002866  -0.000191   0.000000   0.044923
    16  C    0.045339   0.000901  -0.109607  -0.001817  -0.000150  -0.042370
    17  C    0.014610   0.002385  -0.004958   0.000721   0.000025  -0.115026
    18  O   -0.000160  -0.000013   0.005439   0.000017   0.000011  -0.017492
    19  H   -0.000118   0.000001  -0.002337  -0.000044  -0.000002   0.012981
    20  C    0.005383   0.000019   0.008872   0.000116  -0.000003  -0.020646
    21  O   -0.000003   0.000000   0.000086   0.000000   0.000000   0.000104
    22  H    0.000000   0.000000  -0.000009   0.000000   0.000000   0.000022
    23  C    0.013825  -0.008112   0.000005  -0.000014   0.000000   0.009043
    24  O   -0.050796   0.009961   0.000264   0.000000   0.000000   0.003467
    25  H    0.002312  -0.001558  -0.000003   0.000000   0.000000  -0.000181
    26  C   -0.028598  -0.004632  -0.007745   0.000051   0.000003   0.027296
    27  O    0.000463   0.000020  -0.000076   0.000000   0.000000  -0.000718
    28  C   -0.000012   0.000109  -0.002864  -0.000007   0.000000  -0.001472
    29  O   -0.000004   0.000000  -0.000016   0.000000   0.000000   0.000016
    30  H    0.000000   0.000000   0.000000   0.000000   0.000000  -0.000001
    31  H   -0.000029   0.000000  -0.022029  -0.000210   0.000005  -0.007830
    32  H    0.000001   0.000000   0.000002   0.000000   0.000000   0.000021
    33  H    0.000005   0.000000  -0.000008   0.000000   0.000000   0.000313
    34  H    0.000062  -0.000001  -0.000015   0.000000   0.000000   0.001773
    35  H   -0.000281   0.000030  -0.000085   0.000001   0.000000   0.002203
    36  H    0.000179  -0.000005   0.000020   0.000000   0.000000   0.000293
    37  H   -0.000933   0.000214   0.000000   0.000000   0.000000   0.000019
    38  H    0.003170   0.000137  -0.000002   0.000000   0.000000   0.000195
    39  H   -0.000010   0.000000   0.406895  -0.048616  -0.008017  -0.024087
    40  H   -0.000001   0.000000   0.605122  -0.062908  -0.003282  -0.285902
    41  H   -0.000091   0.000002   0.047727   0.007329  -0.000161   0.122849
    42  H    0.000077   0.000005   0.036749   0.001241   0.000000  -0.186813
    43  H    0.000866   0.000045   0.023352   0.000088   0.000000  -0.014905
    44  H   -0.039105  -0.010801   0.007390   0.000018   0.000000  -0.011912
    45  H   -0.002867  -0.000156   0.005311   0.000089   0.000000  -0.034640
             13         14         15         16         17         18
     1  O    0.008590   0.005356   0.001086   0.006739   0.000717  -0.000004
     2  C   -0.045629   0.751379  -0.041828  -0.010038  -0.023851   0.011581
     3  C    0.041215   0.257279  -0.038696  -0.482223  -0.016025  -0.004283
     4  O    0.000398   0.010955   0.000858   0.000141   0.001001  -0.000007
     5  H    0.000100  -0.008152   0.000093   0.001159   0.000026   0.000000
     6  C   -0.088882  -3.121223   0.117035  -0.179558  -0.085538   0.000311
     7  O    0.012397  -0.129128   0.004599   0.045339   0.014610  -0.000160
     8  H   -0.001089  -0.076580   0.004399   0.000901   0.002385  -0.000013
     9  C    0.013949  -0.278127  -0.002866  -0.109607  -0.004958   0.005439
    10  O   -0.002414   0.023250  -0.000191  -0.001817   0.000721   0.000017
    11  H   -0.000135  -0.003983   0.000000  -0.000150   0.000025   0.000011
    12  C   -0.254294  -1.022809   0.044923  -0.042370  -0.115026  -0.017492
    13  O    8.543062   0.147653  -0.048421   0.169133  -0.083052   0.041024
    14  C    0.147653  11.549612   0.028843  -1.313860  -0.616055  -0.066151
    15  O   -0.048421   0.028843   8.342415  -0.049798   0.097558  -0.007008
    16  C    0.169133  -1.313860  -0.049798  14.944226  -2.620257  -0.033562
    17  C   -0.083052  -0.616055   0.097558  -2.620257   9.203770   0.316717
    18  O    0.041024  -0.066151  -0.007008  -0.033562   0.316717   8.287171
    19  H    0.002267   0.004284   0.033437  -0.146247   0.068100   0.170315
    20  C   -0.025925  -0.202301   0.095130  -1.978128  -0.441693  -0.125015
    21  O   -0.000096   0.002563  -0.000759   0.036125  -0.074453   0.011404
    22  H    0.000002  -0.001092   0.000028  -0.021761   0.007384  -0.000640
    23  C    0.018662  -0.004999  -0.058801   0.509958  -0.503406   0.008780
    24  O    0.000119   0.104075   0.005993  -0.092041  -0.002686   0.000141
    25  H    0.000010  -0.006550   0.000219  -0.002844  -0.000956   0.000000
    26  C   -0.019081  -1.005596  -0.057915  -3.636517   0.171726   0.026217
    27  O    0.000177  -0.029898   0.009005  -0.128769  -0.025650  -0.000024
    28  C    0.003755  -0.103003   0.015109   0.508088   0.569979  -0.003258
    29  O    0.000041  -0.001510  -0.000015   0.015830   0.006251  -0.000509
    30  H    0.000000   0.000105  -0.000004  -0.003167   0.013846  -0.000035
    31  H   -0.001529   0.004671  -0.000027   0.000262  -0.000048   0.000000
    32  H   -0.000004   0.006541   0.000100   0.100644  -0.011234  -0.000848
    33  H    0.000279   0.008747  -0.001625   0.109903  -0.182913   0.004834
    34  H    0.002205   0.057405  -0.023617   0.148819   0.206652  -0.061029
    35  H    0.000035   0.015695  -0.067277   0.351257  -0.035756  -0.001038
    36  H   -0.000143   0.040394   0.006560   0.045888  -0.021867  -0.000507
    37  H   -0.000013   0.008370   0.000514   0.038085  -0.012396   0.000064
    38  H    0.000214  -0.005502   0.000959   0.021577   0.011235  -0.000071
    39  H   -0.005769   0.006302   0.000039   0.008458  -0.001631  -0.000957
    40  H    0.011123   0.001741  -0.000329  -0.006141   0.000388   0.000391
    41  H   -0.026220   0.084637  -0.001935   0.006272   0.004209   0.000288
    42  H    0.018521   0.061786  -0.000236  -0.000054   0.001436   0.000107
    43  H    0.009105   0.099478  -0.000414   0.010881   0.001621   0.000054
    44  H    0.012069   0.012491  -0.010109   0.042229   0.008589   0.000179
    45  H   -0.051372   0.389941  -0.076705   0.031101   0.043017  -0.000431
             19         20         21         22         23         24
     1  O   -0.000010   0.000049   0.000000   0.000000   0.000061  -0.000001
     2  C   -0.012862   0.001020   0.000013   0.000001   0.014774   0.001097
     3  C    0.009377  -0.004585  -0.000057   0.000000  -0.042767  -0.009970
     4  O   -0.000002  -0.000024   0.000000   0.000000   0.000238  -0.000073
     5  H    0.000000   0.000002   0.000000   0.000000  -0.000011  -0.000002
     6  C    0.020740   0.076010  -0.000395  -0.000039  -0.109889  -0.010628
     7  O   -0.000118   0.005383  -0.000003   0.000000   0.013825  -0.050796
     8  H    0.000001   0.000019   0.000000   0.000000  -0.008112   0.009961
     9  C   -0.002337   0.008872   0.000086  -0.000009   0.000005   0.000264
    10  O   -0.000044   0.000116   0.000000   0.000000  -0.000014   0.000000
    11  H   -0.000002  -0.000003   0.000000   0.000000   0.000000   0.000000
    12  C    0.012981  -0.020646   0.000104   0.000022   0.009043   0.003467
    13  O    0.002267  -0.025925  -0.000096   0.000002   0.018662   0.000119
    14  C    0.004284  -0.202301   0.002563  -0.001092  -0.004999   0.104075
    15  O    0.033437   0.095130  -0.000759   0.000028  -0.058801   0.005993
    16  C   -0.146247  -1.978128   0.036125  -0.021761   0.509958  -0.092041
    17  C    0.068100  -0.441693  -0.074453   0.007384  -0.503406  -0.002686
    18  O    0.170315  -0.125015   0.011404  -0.000640   0.008780   0.000141
    19  H    0.365558   0.034670  -0.000923   0.000011  -0.006835  -0.000024
    20  C    0.034670   9.185825   0.105260   0.024817  -0.016121  -0.002091
    21  O   -0.000923   0.105260   8.278135   0.200178   0.001079   0.000024
    22  H    0.000011   0.024817   0.200178   0.425412  -0.000118   0.000000
    23  C   -0.006835  -0.016121   0.001079  -0.000118   6.536180   0.110963
    24  O   -0.000024  -0.002091   0.000024   0.000000   0.110963   8.489439
    25  H    0.000000   0.000225   0.000000   0.000000  -0.034669   0.214881
    26  C    0.013578   0.637828   0.008238   0.003764  -1.238757  -0.017353
    27  O    0.000126  -0.155690   0.010429  -0.000390  -0.094241  -0.000356
    28  C   -0.001448  -1.461489  -0.005873   0.003343  -0.095116   0.002773
    29  O    0.000030  -0.172189   0.004177   0.013978  -0.004299   0.000042
    30  H    0.000000  -0.018827  -0.004174  -0.001947   0.000366  -0.000001
    31  H    0.000000   0.000001   0.000000   0.000000   0.000003   0.000000
    32  H    0.000005  -0.108825  -0.003920  -0.001263  -0.001267   0.000048
    33  H    0.000045   0.402848  -0.036390  -0.007226   0.013686   0.000001
    34  H   -0.001662  -0.103072   0.000360  -0.000105   0.039293  -0.000038
    35  H   -0.000120   0.037544  -0.000538   0.000005   0.030472  -0.000165
    36  H    0.000024  -0.011435  -0.000384   0.000006   0.034153   0.004883
    37  H    0.000000   0.000804  -0.000007   0.000000   0.513717  -0.054389
    38  H    0.000001   0.001995  -0.000016   0.000000   0.595430  -0.081761
    39  H    0.000050  -0.000826  -0.000002   0.000000   0.000016   0.000000
    40  H   -0.000001   0.000167   0.000000   0.000000  -0.000007   0.000000
    41  H    0.000083   0.000563   0.000000   0.000000   0.000021   0.000002
    42  H    0.000003   0.000026   0.000000   0.000000   0.000045   0.000006
    43  H    0.000003   0.000019   0.000000   0.000000   0.000586   0.000085
    44  H   -0.000007   0.000896   0.000000   0.000000   0.005367   0.001977
    45  H   -0.000613   0.014906   0.000003   0.000000   0.001876   0.000532
             25         26         27         28         29         30
     1  O    0.000000  -0.000162   0.000000   0.000008   0.000000   0.000000
     2  C   -0.000033   0.019505  -0.000289  -0.001968  -0.000004   0.000000
     3  C    0.000534  -0.037112   0.000647   0.000309   0.000042   0.000000
     4  O   -0.000001  -0.000236   0.000001   0.000013   0.000000   0.000000
     5  H    0.000000   0.000004   0.000000   0.000000   0.000000   0.000000
     6  C   -0.000692  -0.175618   0.004158  -0.009732  -0.000373   0.000001
     7  O    0.002312  -0.028598   0.000463  -0.000012  -0.000004   0.000000
     8  H   -0.001558  -0.004632   0.000020   0.000109   0.000000   0.000000
     9  C   -0.000003  -0.007745  -0.000076  -0.002864  -0.000016   0.000000
    10  O    0.000000   0.000051   0.000000  -0.000007   0.000000   0.000000
    11  H    0.000000   0.000003   0.000000   0.000000   0.000000   0.000000
    12  C   -0.000181   0.027296  -0.000718  -0.001472   0.000016  -0.000001
    13  O    0.000010  -0.019081   0.000177   0.003755   0.000041   0.000000
    14  C   -0.006550  -1.005596  -0.029898  -0.103003  -0.001510   0.000105
    15  O    0.000219  -0.057915   0.009005   0.015109  -0.000015  -0.000004
    16  C   -0.002844  -3.636517  -0.128769   0.508088   0.015830  -0.003167
    17  C   -0.000956   0.171726  -0.025650   0.569979   0.006251   0.013846
    18  O    0.000000   0.026217  -0.000024  -0.003258  -0.000509  -0.000035
    19  H    0.000000   0.013578   0.000126  -0.001448   0.000030   0.000000
    20  C    0.000225   0.637828  -0.155690  -1.461489  -0.172189  -0.018827
    21  O    0.000000   0.008238   0.010429  -0.005873   0.004177  -0.004174
    22  H    0.000000   0.003764  -0.000390   0.003343   0.013978  -0.001947
    23  C   -0.034669  -1.238757  -0.094241  -0.095116  -0.004299   0.000366
    24  O    0.214881  -0.017353  -0.000356   0.002773   0.000042  -0.000001
    25  H    0.409708   0.056063  -0.000432  -0.001224   0.000000   0.000000
    26  C    0.056063  12.135096   0.358155  -0.769875  -0.076304   0.004965
    27  O   -0.000432   0.358155   8.354184   0.126793  -0.061279  -0.002012
    28  C   -0.001224  -0.769875   0.126793   6.244205   0.427358   0.013158
    29  O    0.000000  -0.076304  -0.061279   0.427358   8.248243   0.234152
    30  H    0.000000   0.004965  -0.002012   0.013158   0.234152   0.408480
    31  H    0.000000   0.000002   0.000000   0.000000   0.000000   0.000000
    32  H    0.000000  -0.082295  -0.059580   0.454991  -0.053561  -0.007885
    33  H    0.000000  -0.000321   0.003794  -0.055809  -0.010147   0.000538
    34  H    0.000000  -0.038069  -0.000158  -0.033226  -0.000649   0.000024
    35  H   -0.000008  -0.127418   0.004748   0.001879  -0.000761   0.000002
    36  H   -0.000092   0.134208  -0.034951   0.039155  -0.001070   0.000012
    37  H   -0.010871  -0.160117  -0.005923  -0.003198  -0.000068  -0.000002
    38  H   -0.002020  -0.289927   0.010937   0.011499  -0.000187  -0.000001
    39  H    0.000000   0.000004   0.000000   0.000079   0.000000   0.000000
    40  H    0.000000  -0.000463   0.000000  -0.000018   0.000000   0.000000
    41  H    0.000000   0.000331   0.000000  -0.000048   0.000000   0.000000
    42  H    0.000000  -0.000087   0.000000  -0.000008   0.000000   0.000000
    43  H    0.000000  -0.000047   0.000000  -0.000017   0.000000   0.000000
    44  H   -0.000002  -0.002981   0.000014  -0.000137   0.000000   0.000000
    45  H    0.000010   0.015539   0.000283  -0.001305  -0.000003   0.000000
             31         32         33         34         35         36
     1  O    0.231919   0.000000   0.000000   0.000000  -0.000003   0.000000
     2  C    0.057871  -0.000004   0.000016   0.000845   0.000869  -0.000004
     3  C   -0.002368   0.000013   0.000022  -0.000322   0.001571   0.000829
     4  O   -0.000469   0.000000   0.000000   0.000000   0.000002   0.000000
     5  H   -0.004361   0.000000   0.000000   0.000000   0.000000   0.000000
     6  C   -0.009794   0.000086   0.000838   0.003824   0.009115   0.001605
     7  O   -0.000029   0.000001   0.000005   0.000062  -0.000281   0.000179
     8  H    0.000000   0.000000   0.000000  -0.000001   0.000030  -0.000005
     9  C   -0.022029   0.000002  -0.000008  -0.000015  -0.000085   0.000020
    10  O   -0.000210   0.000000   0.000000   0.000000   0.000001   0.000000
    11  H    0.000005   0.000000   0.000000   0.000000   0.000000   0.000000
    12  C   -0.007830   0.000021   0.000313   0.001773   0.002203   0.000293
    13  O   -0.001529  -0.000004   0.000279   0.002205   0.000035  -0.000143
    14  C    0.004671   0.006541   0.008747   0.057405   0.015695   0.040394
    15  O   -0.000027   0.000100  -0.001625  -0.023617  -0.067277   0.006560
    16  C    0.000262   0.100644   0.109903   0.148819   0.351257   0.045888
    17  C   -0.000048  -0.011234  -0.182913   0.206652  -0.035756  -0.021867
    18  O    0.000000  -0.000848   0.004834  -0.061029  -0.001038  -0.000507
    19  H    0.000000   0.000005   0.000045  -0.001662  -0.000120   0.000024
    20  C    0.000001  -0.108825   0.402848  -0.103072   0.037544  -0.011435
    21  O    0.000000  -0.003920  -0.036390   0.000360  -0.000538  -0.000384
    22  H    0.000000  -0.001263  -0.007226  -0.000105   0.000005   0.000006
    23  C    0.000003  -0.001267   0.013686   0.039293   0.030472   0.034153
    24  O    0.000000   0.000048   0.000001  -0.000038  -0.000165   0.004883
    25  H    0.000000   0.000000   0.000000   0.000000  -0.000008  -0.000092
    26  C    0.000002  -0.082295  -0.000321  -0.038069  -0.127418   0.134208
    27  O    0.000000  -0.059580   0.003794  -0.000158   0.004748  -0.034951
    28  C    0.000000   0.454991  -0.055809  -0.033226   0.001879   0.039155
    29  O    0.000000  -0.053561  -0.010147  -0.000649  -0.000761  -0.001070
    30  H    0.000000  -0.007885   0.000538   0.000024   0.000002   0.000012
    31  H    0.385338   0.000000   0.000000   0.000000   0.000000   0.000000
    32  H    0.000000   0.611622   0.004523   0.002852   0.000002   0.004855
    33  H    0.000000   0.004523   0.580748   0.007330   0.002561  -0.000017
    34  H    0.000000   0.002852   0.007330   0.655195   0.007538   0.003344
    35  H    0.000000   0.000002   0.002561   0.007538   0.614161   0.005587
    36  H    0.000000   0.004855  -0.000017   0.003344   0.005587   0.601322
    37  H    0.000000  -0.000012   0.000002   0.000007   0.000179  -0.007526
    38  H    0.000000  -0.000020  -0.000013  -0.000005   0.005924   0.006987
    39  H   -0.000012   0.000000   0.000000   0.000000   0.000000   0.000000
    40  H   -0.000001   0.000000   0.000000   0.000001   0.000000   0.000000
    41  H    0.000012   0.000000   0.000000   0.000000   0.000003   0.000000
    42  H   -0.010341   0.000000   0.000000   0.000000   0.000000   0.000000
    43  H    0.000033   0.000000   0.000000   0.000000  -0.000003   0.000000
    44  H    0.000015   0.000000   0.000000  -0.000005   0.000020  -0.000003
    45  H    0.000002   0.000000  -0.000027  -0.000041   0.013968  -0.000005
             37         38         39         40         41         42
     1  O    0.000000   0.000000   0.000056   0.002355   0.006937  -0.044225
     2  C    0.000027   0.000146  -0.006247  -0.000747   0.054818   0.454132
     3  C   -0.000108   0.001255  -0.003758   0.006349  -0.037286  -0.072401
     4  O    0.000000   0.000001   0.000019  -0.000032  -0.000241  -0.000257
     5  H    0.000000   0.000000   0.000000  -0.000001  -0.000001   0.000012
     6  C   -0.000423  -0.000996  -0.000694   0.021307  -0.019241  -0.022396
     7  O   -0.000933   0.003170  -0.000010  -0.000001  -0.000091   0.000077
     8  H    0.000214   0.000137   0.000000   0.000000   0.000002   0.000005
     9  C    0.000000  -0.000002   0.406895   0.605122   0.047727   0.036749
    10  O    0.000000   0.000000  -0.048616  -0.062908   0.007329   0.001241
    11  H    0.000000   0.000000  -0.008017  -0.003282  -0.000161   0.000000
    12  C    0.000019   0.000195  -0.024087  -0.285902   0.122849  -0.186813
    13  O   -0.000013   0.000214  -0.005769   0.011123  -0.026220   0.018521
    14  C    0.008370  -0.005502   0.006302   0.001741   0.084637   0.061786
    15  O    0.000514   0.000959   0.000039  -0.000329  -0.001935  -0.000236
    16  C    0.038085   0.021577   0.008458  -0.006141   0.006272  -0.000054
    17  C   -0.012396   0.011235  -0.001631   0.000388   0.004209   0.001436
    18  O    0.000064  -0.000071  -0.000957   0.000391   0.000288   0.000107
    19  H    0.000000   0.000001   0.000050  -0.000001   0.000083   0.000003
    20  C    0.000804   0.001995  -0.000826   0.000167   0.000563   0.000026
    21  O   -0.000007  -0.000016  -0.000002   0.000000   0.000000   0.000000
    22  H    0.000000   0.000000   0.000000   0.000000   0.000000   0.000000
    23  C    0.513717   0.595430   0.000016  -0.000007   0.000021   0.000045
    24  O   -0.054389  -0.081761   0.000000   0.000000   0.000002   0.000006
    25  H   -0.010871  -0.002020   0.000000   0.000000   0.000000   0.000000
    26  C   -0.160117  -0.289927   0.000004  -0.000463   0.000331  -0.000087
    27  O   -0.005923   0.010937   0.000000   0.000000   0.000000   0.000000
    28  C   -0.003198   0.011499   0.000079  -0.000018  -0.000048  -0.000008
    29  O   -0.000068  -0.000187   0.000000   0.000000   0.000000   0.000000
    30  H   -0.000002  -0.000001   0.000000   0.000000   0.000000   0.000000
    31  H    0.000000   0.000000  -0.000012  -0.000001   0.000012  -0.010341
    32  H   -0.000012  -0.000020   0.000000   0.000000   0.000000   0.000000
    33  H    0.000002  -0.000013   0.000000   0.000000   0.000000   0.000000
    34  H    0.000007  -0.000005   0.000000   0.000001   0.000000   0.000000
    35  H    0.000179   0.005924   0.000000   0.000000   0.000003   0.000000
    36  H   -0.007526   0.006987   0.000000   0.000000   0.000000   0.000000
    37  H    0.608019  -0.043335   0.000000   0.000000   0.000000   0.000000
    38  H   -0.043335   0.606984   0.000000   0.000000   0.000000   0.000000
    39  H    0.000000   0.000000   0.591447  -0.050017  -0.007968   0.000053
    40  H    0.000000   0.000000  -0.050017   0.612520   0.006364   0.004597
    41  H    0.000000   0.000000  -0.007968   0.006364   0.597150   0.005644
    42  H    0.000000   0.000000   0.000053   0.004597   0.005644   0.605688
    43  H    0.000000   0.000000   0.000003   0.000000   0.003155   0.006595
    44  H    0.000002  -0.000006   0.000001  -0.000010   0.000031   0.003110
    45  H    0.000001   0.000024  -0.000004  -0.000014   0.004090   0.000072
             43         44         45
     1  O   -0.000612  -0.000458   0.000009
     2  C    0.068577   0.063392   0.037512
     3  C    0.201935  -0.169172  -0.046709
     4  O   -0.045974   0.002701  -0.000207
     5  H   -0.007480  -0.000057   0.000007
     6  C   -0.131496   0.324964  -0.105959
     7  O    0.000866  -0.039105  -0.002867
     8  H    0.000045  -0.010801  -0.000156
     9  C    0.023352   0.007390   0.005311
    10  O    0.000088   0.000018   0.000089
    11  H    0.000000   0.000000   0.000000
    12  C   -0.014905  -0.011912  -0.034640
    13  O    0.009105   0.012069  -0.051372
    14  C    0.099478   0.012491   0.389941
    15  O   -0.000414  -0.010109  -0.076705
    16  C    0.010881   0.042229   0.031101
    17  C    0.001621   0.008589   0.043017
    18  O    0.000054   0.000179  -0.000431
    19  H    0.000003  -0.000007  -0.000613
    20  C    0.000019   0.000896   0.014906
    21  O    0.000000   0.000000   0.000003
    22  H    0.000000   0.000000   0.000000
    23  C    0.000586   0.005367   0.001876
    24  O    0.000085   0.001977   0.000532
    25  H    0.000000  -0.000002   0.000010
    26  C   -0.000047  -0.002981   0.015539
    27  O    0.000000   0.000014   0.000283
    28  C   -0.000017  -0.000137  -0.001305
    29  O    0.000000   0.000000  -0.000003
    30  H    0.000000   0.000000   0.000000
    31  H    0.000033   0.000015   0.000002
    32  H    0.000000   0.000000   0.000000
    33  H    0.000000   0.000000  -0.000027
    34  H    0.000000  -0.000005  -0.000041
    35  H   -0.000003   0.000020   0.013968
    36  H    0.000000  -0.000003  -0.000005
    37  H    0.000000   0.000002   0.000001
    38  H    0.000000  -0.000006   0.000024
    39  H    0.000003   0.000001  -0.000004
    40  H    0.000000  -0.000010  -0.000014
    41  H    0.003155   0.000031   0.004090
    42  H    0.006595   0.003110   0.000072
    43  H    0.627986   0.007402   0.002836
    44  H    0.007402   0.596479   0.006138
    45  H    0.002836   0.006138   0.629156
 Mulliken atomic charges:
              1
     1  O   -0.565430
     2  C   -0.036416
     3  C   -0.027944
     4  O   -0.498861
     5  H    0.368586
     6  C   -0.034153
     7  O   -0.495107
     8  H    0.406187
     9  C   -0.017194
    10  O   -0.586842
    11  H    0.365656
    12  C    0.145199
    13  O   -0.402036
    14  C    0.312970
    15  O   -0.320331
    16  C   -0.294104
    17  C    0.127492
    18  O   -0.561998
    19  H    0.437567
    20  C    0.213893
    21  O   -0.530187
    22  H    0.355636
    23  C   -0.239167
    24  O   -0.628398
    25  H    0.378172
    26  C    0.164652
    27  O   -0.283498
    28  C    0.128504
    29  O   -0.567208
    30  H    0.362405
    31  H    0.378915
    32  H    0.144414
    33  H    0.153463
    34  H    0.124485
    35  H    0.128082
    36  H    0.147705
    37  H    0.129301
    38  H    0.145192
    39  H    0.145193
    40  H    0.137447
    41  H    0.140673
    42  H    0.136915
    43  H    0.136243
    44  H    0.149292
    45  H    0.124638
 Sum of Mulliken atomic charges =   0.00000
 Mulliken charges with hydrogens summed into heavy atoms:
              1
     1  O   -0.186515
     2  C    0.100499
     3  C    0.108299
     4  O   -0.130275
     6  C    0.115139
     7  O   -0.088920
     9  C    0.265445
    10  O   -0.221186
    12  C    0.285871
    13  O   -0.402036
    14  C    0.437608
    15  O   -0.320331
    16  C   -0.166022
    17  C    0.251977
    18  O   -0.124432
    20  C    0.367356
    21  O   -0.174551
    23  C    0.035326
    24  O   -0.250226
    26  C    0.312357
    27  O   -0.283498
    28  C    0.272918
    29  O   -0.204803
 Sum of Mulliken charges with hydrogens summed into heavy atoms =   0.00000
 APT atomic charges:
              1
     1  O   -0.640537
     2  C    0.386433
     3  C    0.403723
     4  O   -0.652582
     5  H    0.292027
     6  C    0.381975
     7  O   -0.690847
     8  H    0.390873
     9  C    0.504729
    10  O   -0.659921
    11  H    0.261542
    12  C    0.476775
    13  O   -0.903459
    14  C    0.951542
    15  O   -0.867939
    16  C    0.433534
    17  C    0.370017
    18  O   -0.738581
    19  H    0.416344
    20  C    0.409597
    21  O   -0.629649
    22  H    0.259492
    23  C    0.449141
    24  O   -0.675284
    25  H    0.267428
    26  C    0.455419
    27  O   -0.767797
    28  C    0.911285
    29  O   -0.669494
    30  H    0.261024
    31  H    0.269421
    32  H   -0.069715
    33  H   -0.030357
    34  H   -0.062817
    35  H   -0.030655
    36  H   -0.047807
    37  H   -0.056999
    38  H   -0.033920
    39  H   -0.044033
    40  H   -0.050839
    41  H   -0.053243
    42  H   -0.040734
    43  H   -0.051493
    44  H   -0.025454
    45  H   -0.058166
 Sum of APT charges=   0.00000
 APT Atomic charges with hydrogens summed into heavy atoms:
              1
     1  O   -0.371116
     2  C    0.345700
     3  C    0.352230
     4  O   -0.360555
[...]
 098434,-0.00030029,0.00024344,0.00000787,-0.00014300,0.00000802,-0.000
 06206,-0.00000100,-0.00964275,0.00007365,0.00150070,0.00174048,0.00051
 478,0.00077452,-0.00029165,-0.00011159,0.00021779,0.00011816,0.,0.0000
 9713,0.00000718,-0.00000392,0.00002088,-0.00001883,0.00000438,0.000010
 32,0.00004935,-0.00002389,0.00000677,-0.00006903,0.00003364,-0.0000238
 8,-0.00000721,-0.00000032,0.00000330,0.00000866,-0.00000128,0.00000014
 ,-0.00000259,-0.00000024,-0.00000138,-0.00000944,0.00000375,0.00000197
 ,0.00002856,-0.00000055,0.00001983,-0.00001025,-0.00000049,-0.00000094
 ,-0.00001489,-0.00000133,0.00000607,0.00001092,-0.00000060,-0.00000442
 ,-0.00000830,0.00000159,0.00000551,0.00000675,-0.00000035,-0.00000700,
 -0.00000134,0.00000021,0.00000140,0.00083295,0.00004105,-0.00024717,0.
 00000206,0.00000021,0.00000099,0.00000309,0.00000130,-0.00000290,0.000
 00650,0.00000092,0.00000703,0.00001120,0.00000054,-0.00001372,0.000006
 09,-0.00000097,0.00000436,-0.00000033,-0.00000162,0.00000199,0.0000039
 8,0.00000075,-0.00000219,0.00037505,0.00010209,0.00002663,0.00060792,-
 0.00071498,0.00006415,0.00044043,-0.00073342,0.00074506,0.37818431,-0.
 00589830,0.00129498,-0.00195896,0.01026766,-0.04519977,-0.00019025,0.0
 3282351,-0.00201811,-0.00717404,-0.00233855,0.00360815,-0.00040026,0.0
 0040374,0.00000636,0.00008666,0.00081653,0.00119936,0.00132153,-0.0004
 9001,-0.00021753,0.00000447,-0.00006052,0.00001550,-0.00002978,-0.0020
 0920,0.00140157,-0.00052360,0.00030788,0.00002862,-0.00009281,-0.00001
 662,-0.00008241,-0.00004446,-0.02760122,-0.00121491,0.00593857,0.00155
 459,0.00107836,-0.00120948,0.00008170,-0.00054014,-0.00008914,0.000001
 93,0.00011651,-0.00001167,-0.00003209,0.00003232,-0.00001565,0.0000051
 0,0.00000275,-0.00000449,0.00002274,-0.00001820,-0.00000654,-0.0000217
 9,0.00003943,-0.00001383,-0.00000695,0.00000326,-0.00000189,0.00000383
 ,-0.00000227,0.00000160,-0.00000081,0.00000085,-0.00000104,0.00000240,
 -0.00001067,0.00000379,-0.00002292,0.00000347,-0.00003891,0.00000816,0
 .00000219,-0.00000069,0.00000269,-0.00000511,0.00000389,-0.00000191,0.
 00000290,0.00000226,0.00000097,-0.00000049,0.00000068,0.00000012,-0.00
 000051,-0.00000089,-0.00000035,0.00000040,0.00000012,-0.00028854,0.001
 35957,0.00022477,0.00000004,0.00000055,-0.00000024,0.00000106,-0.00000
 057,-0.00000100,0.00000118,0.00000072,-0.00000061,-0.00000019,-0.00000
 692,0.00000784,-0.00000130,0.00000205,-0.00000158,0.00000009,0.0000023
 7,-0.00000446,-0.00000088,-0.00000080,0.00000209,0.00033326,0.00034066
 ,-0.00000669,0.00087722,-0.00031661,0.00009510,-0.00120505,-0.00313508
 ,0.00324203,-0.00829986,0.04776736,-0.04144478,-0.00126096,-0.01173480
 ,0.05903209,-0.00149226,-0.05307870,0.01498179,0.00039361,-0.00219620,
 -0.00165383,0.00064856,0.00121487,-0.00024798,-0.00066853,-0.00029667,
 0.00102791,0.00023513,0.00078897,-0.00032521,-0.00006712,-0.00003886,-
 0.00001727,0.00001974,-0.00001344,0.00021690,-0.00124039,0.00058287,-0
 .00011722,0.00009803,0.00000613,0.00004068,0.00000681,0.00006096,0.022
 36122,0.00072046,-0.00253832,-0.00106059,-0.00042457,0.00211162,0.0003
 3886,-0.00011414,-0.00025269,-0.00010692,0.00000031,-0.00015341,-0.000
 01035,-0.00002326,-0.00001559,0.00002094,0.00000365,0.00000916,-0.0000
 4725,0.00000475,-0.00000613,0.00006894,-0.00000116,0.00000297,0.000007
 47,-0.00000413,0.00000378,-0.00001209,0.00000591,-0.00000756,0.0000038
 8,-0.00000068,0.00000221,0.00000973,-0.00000271,0.00000160,-0.00002159
 ,-0.00000068,-0.00001877,0.00000739,0.00000251,0.00000146,0.00001240,0
 .00000442,0.00000277,-0.00000984,0.00000354,-0.00000973,0.00000556,-0.
 00000486,0.00000969,-0.00000113,0.00000098,-0.00000641,0.00000071,-0.0
 0000022,0.00000127,-0.00276906,0.00028301,0.00352749,-0.00000175,0.,-0
 .00000196,-0.00000325,-0.00000091,0.00000390,-0.00000820,-0.00000263,-
 0.00001107,-0.00001008,0.00000166,0.00001364,-0.00000541,-0.00000027,-
 0.00000573,-0.00000122,-0.00000068,-0.00000344,-0.00000295,0.00000064,
 0.00000295,-0.00015057,-0.00017949,-0.00004503,-0.00064304,0.00025704,
 0.00012531,0.00053140,0.00272136,-0.00265518,-0.04987767,0.00306136,0.
 06530076,0.00183012,0.00003214,-0.00036260,-0.01306745,0.00212794,0.00
 052324,-0.35102882,-0.00243260,0.02613307,-0.00326058,-0.00722731,0.01
 042297,0.00057306,-0.00110059,-0.00001126,-0.01775672,0.00093745,-0.00
 163163,0.00223661,0.00040393,0.00068199,0.00029100,0.00003130,0.000223
 87,0.00051439,0.00033769,-0.00010196,0.00004043,-0.00005290,-0.0000573
 0,-0.00001268,-0.00000544,0.00000458,-0.00067433,-0.00105978,0.0003696
 9,0.00029769,0.00053093,-0.00006372,-0.00096251,-0.00127652,0.00067505
 ,0.00043944,0.00015374,-0.00047159,-0.00011926,0.00009129,-0.00000268,
 0.00001977,-0.00001332,-0.00007631,0.00005063,0.00001400,0.00002045,-0
 .00003766,-0.00001216,0.00000015,-0.00002849,0.00001110,0.00001295,0.0
 0001464,0.00001080,-0.00000499,-0.00000673,-0.00000002,-0.00000498,-0.
 00003314,-0.00000310,0.00003339,0.00005572,0.00001614,0.00005080,-0.00
 002108,-0.00000509,0.00000406,-0.00000351,0.00001347,0.00001285,0.0000
 1527,0.00000592,-0.00002512,-0.00000823,-0.00001316,0.00001241,0.00001
 006,0.00000344,-0.00000830,-0.00000136,-0.00000018,0.00000017,0.000339
 30,-0.00041236,-0.00028732,0.00000290,0.00000095,0.00000106,0.00000546
 ,0.00000168,-0.00000456,0.00001164,-0.00000209,0.00000908,0.00001793,0
 .00000309,-0.00004968,0.00000960,-0.00000517,0.00000797,0.00000279,-0.
 00000431,0.00000287,0.00001202,0.00000391,-0.00001019,-0.00001767,0.00
 010796,0.00000977,0.00013547,-0.00029008,0.00000383,0.00085635,0.00062
 418,-0.00045673,0.00049786,0.00139758,0.00034187,0.37828095,-0.0017635
 2,0.00226883,0.00208062,0.03547695,-0.00481651,-0.00386126,-0.00105915
 ,-0.03918187,-0.00443946,-0.03067264,-0.01025667,0.01970713,-0.0004025
 2,0.00031890,-0.00113488,-0.00932398,0.00198928,-0.00176527,-0.0000993
 1,0.00072625,0.00138978,0.00003778,-0.00007562,0.00003864,0.00010509,-
 0.00004016,-0.00011516,-0.00007771,-0.00000909,0.00000959,0.00000823,0
 .00002185,0.00001020,0.00160988,0.00193486,-0.00042119,-0.00028361,-0.
 00029921,0.00020064,0.00034447,-0.00031801,0.00013740,0.00002595,0.000
 06132,-0.00034184,-0.00005007,0.00004787,0.00002702,0.00001898,-0.0000
 1102,-0.00004313,-0.00001233,0.00000503,0.00002054,-0.00000033,-0.0000
 0675,-0.00003253,-0.00000597,0.00000631,0.00001154,0.00000028,0.000001
 59,-0.00000936,-0.00000133,0.00000207,-0.00000021,-0.00001046,0.000040
 08,-0.00002664,0.00006833,-0.00002692,0.00010675,-0.00002512,-0.000003
 40,-0.00000891,0.00000058,0.00004291,0.00001040,0.00000475,-0.00002248
 ,-0.00000697,-0.00000138,0.00000998,0.00000112,0.00000027,-0.00000276,
 -0.00000101,0.00000007,0.00000015,-0.00000054,0.00007457,0.00018229,0.
 00046701,0.00000028,-0.00000096,0.00000033,-0.00000006,0.00000006,-0.0
 0000058,-0.00000079,-0.00000207,0.00000110,0.00000466,0.00000708,-0.00
 000597,0.00000217,-0.00000660,0.00000031,0.00000076,-0.00000896,0.0000
 0977,0.00000020,0.00000251,-0.00000445,-0.00012699,-0.00002377,-0.0000
 2394,-0.00027082,0.00006811,0.00000485,-0.00054047,-0.00058471,0.00028
 808,0.00124910,-0.00526827,-0.00277279,0.00646694,0.05291541,-0.000042
 30,0.00071026,0.00171106,0.01402980,-0.00364497,-0.00070564,0.02366677
 ,-0.00460811,-0.04270419,0.02904287,0.01638684,-0.01765979,0.00221778,
 0.00119835,0.00063046,-0.03576818,-0.00205179,-0.00050412,0.00189499,0
 .00167945,0.00253749,-0.00013849,0.00020872,0.00027817,-0.00009733,-0.
 00011263,-0.00001861,-0.00002777,0.00002227,0.00003925,0.00000221,0.00
 001138,-0.00000292,-0.00048661,0.00095503,-0.00009185,0.00008994,0.000
 29132,-0.00010469,-0.00068720,-0.00072664,0.00132069,0.00038189,0.0000
 9671,-0.00025684,0.00003351,0.00006189,0.00006470,0.00002585,-0.000008
 34,-0.00004044,0.00001695,0.00002367,-0.00000262,-0.00001682,-0.000029
 75,0.00000095,-0.00001479,0.00000214,0.00001915,0.00000016,0.00001950,
 -0.00001735,-0.00000249,-0.00000061,-0.00000161,-0.00001939,0.00002550
 ,0.00002257,0.00008937,-0.00004062,0.00009902,-0.00001167,0.00000919,-
 0.00002082,-0.00000998,0.00002152,0.00003308,0.00000554,0.00000293,-0.
 00003980,-0.00000065,-0.00001792,0.00002842,0.00000972,0.00000213,-0.0
 0002043,-0.00000068,0.00000133,0.00000373,0.00000675,0.00039718,0.0001
 2908,0.00000022,0.00000098,-0.00000146,0.00000145,0.00000190,-0.000000
 62,0.00000257,-0.00000191,0.00000330,0.00002339,0.00001255,-0.00005676
 ,0.00000602,-0.00000664,0.00000486,-0.00000069,-0.00000986,0.00000442,
 0.00000586,0.00000329,-0.00001070,-0.00003511,-0.00006171,-0.00001103,
 -0.00006326,0.00008438,-0.00003028,-0.00028240,-0.00008603,0.00021020,
 0.00067625,-0.00188350,-0.00079536,-0.03291399,-0.00794756,0.06212435,
 0.00044850,-0.00001525,-0.00016557,-0.00067626,0.00083213,0.00028769,-
 0.01426137,-0.00478005,-0.00115758,0.00153662,0.00069742,0.00004989,0.
 00015262,0.00001609,0.00019078,-0.34111244,-0.06809791,0.02368967,-0.0
 1562269,0.00764222,0.00756713,0.00070994,0.00000287,-0.00108669,-0.000
 07320,-0.00001364,0.00000974,0.00004623,0.00001085,-0.00000432,-0.0000
 1323,-0.00000686,0.00000097,0.00005747,0.00002417,0.00019743,0.0005353
 7,-0.00134159,-0.00015276,-0.00448740,-0.00124194,0.00030391,0.0012688
 5,0.00060608,-0.00131334,0.00026330,0.00024783,0.00009247,0.00006933,0
 .00003247,-0.00009869,0.00004366,0.00000901,-0.00001567,-0.00006944,-0
 .00003815,-0.00004475,-0.00003033,0.00002551,0.00003276,0.00001287,0.0
 0000307,-0.00002866,-0.00000671,0.00000424,-0.00000244,-0.00004394,0.0
 0016533,-0.00006400,0.00026804,-0.00014833,0.00044224,-0.00007277,-0.0
 0002347,-0.00004575,-0.00005492,0.00007621,0.00006247,0.00002233,-0.00
 006607,-0.00000896,-0.00001281,0.00003480,0.00001204,0.00000831,-0.000
 01045,-0.00001141,-0.00000135,0.00000166,0.00000168,-0.00004463,-0.000
 09794,-0.00009407,0.00000360,-0.00000379,0.00000156,0.00000504,0.00000
 175,-0.00000274,0.00000148,-0.00001209,0.00001364,-0.00002716,0.000065
 38,-0.00028087,0.00001390,-0.00002006,0.00000136,0.00000941,-0.0000388
 0,0.00004221,0.00000808,0.00000593,-0.00003299,0.00001793,0.00000198,-
 0.00001063,0.00004491,-0.00003689,-0.00000461,0.00005576,0.00012625,-0
 .00004554,0.00058582,-0.00053160,-0.00037448,0.00008095,-0.00079245,-0
 .00191633,0.37002062,0.00019115,-0.00001839,-0.00001758,-0.00079639,0.
 00033293,0.00039891,-0.00623161,0.00040709,0.00067730,0.00088718,0.000
 43054,-0.00090247,-0.00002165,-0.00001520,0.00011458,-0.07274741,-0.05
 852649,0.00716861,0.03775950,-0.00662694,-0.01136145,0.00163689,0.0022
 4194,0.00128898,-0.00011760,0.00002761,0.00002630,0.00003407,-0.000045
 34,-0.00003190,-0.00000968,-0.00000190,-0.00000248,0.00007525,-0.00010
 564,0.00025352,0.00174036,0.00064001,-0.00058067,-0.03081982,-0.005777
 82,0.00486204,0.00079130,0.00126163,-0.00262705,-0.00014391,0.00040663
 ,0.00017452,0.00007140,-0.00005067,-0.00023014,0.00015857,0.00000388,0
 .00008276,-0.00021388,0.00002136,-0.00011753,-0.00003882,0.00004622,0.
 00002714,0.00001425,0.00002632,-0.00001906,-0.00000719,0.00000102,-0.0
 0000613,-0.00000573,-0.00005162,0.00010829,-0.00028170,-0.00004815,-0.
 00020234,0.00009096,0.00003132,0.00001901,0.00011168,-0.00004324,0.000
 00771,-0.00000829,0.00004806,-0.00004952,0.00000244,-0.00005840,0.0000
 2573,0.00000668,0.00001499,-0.00000758,0.00000020,-0.00000012,0.000001
 56,-0.00000804,0.00002265,-0.00002679,-0.00000097,0.00000569,0.0000002
 1,0.00000769,0.00000392,-0.00001064,0.00002597,-0.00002193,0.00003482,
 0.00024814,-0.00002060,-0.00016997,0.00000868,0.00002710,0.00003164,-0
 .00000734,0.00000895,-0.00002067,0.00000066,-0.00002106,0.00004142,0.0
 0002192,-0.00001601,-0.00001160,0.00004470,-0.00004231,-0.00001501,0.0
 0007802,0.00009065,0.00000069,0.00017980,-0.00017909,-0.00022088,0.000
 18704,0.00018820,-0.00123004,0.06675566,0.06881819,0.00052856,0.000144
 44,-0.00040843,-0.00090747,0.00135829,0.00112518,-0.03513075,-0.008713
 86,0.00129667,0.00270333,0.00088402,0.00253233,0.00009074,-0.00033938,
 0.00051964,0.01777096,0.00555099,-0.04429607,0.01954717,-0.00628546,-0
 .00429643,0.00181839,0.00025828,0.00125205,0.00001087,-0.00000516,0.00
 007055,0.00000504,0.00002745,0.00002142,0.00000319,-0.00000046,0.00001
 019,-0.00043694,-0.00005677,-0.00050213,-0.00096791,0.00054373,0.00055
 859,0.02205257,0.00777924,-0.00367493,0.00041724,-0.00079017,0.0018646
 6,0.00035120,-0.00013228,-0.00039903,-0.00003977,0.00003143,0.00018456
 ,-0.00011810,-0.00005097,-0.00005668,0.00016685,0.00004070,0.00012195,
 0.00003254,-0.00003214,-0.00003517,-0.00000796,-0.00003497,0.00002704,
 0.00000600,-0.00000071,0.00000580,0.00011465,0.00002455,-0.00009249,-0
 .00028221,0.00005996,-0.00005056,0.00004783,-0.00000499,0.00010909,-0.
 00008268,-0.00001411,-0.00003269,-0.00002645,-0.00002890,0.00010799,0.
 00000364,0.00006339,-0.00004813,-0.00001686,-0.00001241,0.00002666,0.0
 0000070,-0.00000143,-0.00000466,0.00007451,-0.00016961,-0.00008162,-0.
 00000033,-0.00000404,0.00000015,-0.00000664,-0.00000517,0.00000913,-0.
 00003513,0.00002658,-0.00002809,-0.00029257,-0.00002402,0.00011631,-0.
 00003662,0.00000221,-0.00005976,-0.00001209,-0.00000018,0.00000847,-0.
 00003547,-0.00001617,0.00005077,0.00000816,-0.00002986,0.00000657,0.00
 001707,-0.00002360,0.00000438,0.00012830,0.00004036,-0.00007674,0.0005
 1950,-0.00031990,-0.00002292,-0.00234062,-0.00148291,-0.00573318,-0.02
 591751,-0.00066862,0.05224623,0.00005589,-0.00006902,0.00008271,-0.000
 05726,0.00028620,-0.00011798,-0.00036197,-0.00063419,0.00011008,0.0002
 3410,0.00004479,0.00000866,-0.00004718,-0.00000063,0.00008391,-0.00280
 742,0.00056332,0.00396345,0.00168807,0.00072016,-0.00157087,0.00000525
 ,0.00008293,-0.00007663,0.00034219,-0.00013146,0.00027644,-0.00005670,
 0.00018378,0.00006602,0.00000768,-0.00000110,0.00002948,-0.00008990,0.
 00033534,0.00044695,0.00330254,0.00675817,0.00401011,-0.30718180,0.001
 32574,0.11145398,-0.03210227,-0.00179858,-0.00646668,-0.00062180,-0.00
 091386,0.00570866,0.00033761,0.00030349,-0.00027745,0.00048464,-0.0000
 3716,-0.00038565,-0.00057445,-0.00025764,0.00047631,-0.00006406,0.0001
 0086,0.00007578,0.00003656,0.00001974,-0.00004993,-0.00001805,0.000007
 09,-0.00001232,-0.00026091,0.00006944,0.00006184,0.00015446,-0.0000444
 5,0.00005521,-0.00000996,-0.00002089,-0.00002630,0.00071009,0.00000747
 ,-0.00015030,0.00002049,-0.00010504,-0.00024892,-0.00001605,-0.0000197
 2,0.00004494,0.00001839,0.00000233,-0.00003245,0.00000090,0.00000287,0
 .00000270,-0.00000245,0.00000294,-0.00000943,0.00000505,0.00000304,0.0
 0000343,0.00002983,0.00002622,-0.00005003,0.00014221,-0.00027412,0.000
 19291,0.00192816,0.00018576,-0.00132768,0.00016584,0.00013618,0.000314
 36,0.00005834,-0.00000495,0.00000285,0.00009720,-0.00003961,-0.0000495
 2,-0.00000213,-0.00001612,-0.00000257,0.00002142,-0.00015588,-0.000095
 24,-0.00012273,0.00038225,0.00088945,0.00001545,-0.00008531,-0.0000860
 4,0.00039815,0.00002071,0.00030626,0.00031969,0.00032987,0.00027506,0.
 33381687,-0.00002488,0.00047517,-0.00024678,-0.00031030,-0.00097377,-0
 .00016088,-0.00112059,-0.00029928,-0.00130437,0.00048872,0.00008361,0.
 00053976,0.00005399,-0.00020853,0.00004482,-0.02246410,-0.00204662,0.0
 1300076,-0.00029913,0.00239280,-0.00002601,-0.00003595,-0.00004387,0.0
 0003925,0.00003003,0.00026510,-0.00023636,-0.00016442,-0.00052476,-0.0
 0034512,-0.00003800,0.00000819,-0.00006154,0.00375228,0.00061696,0.003
 33461,0.03158129,-0.02049090,-0.02539469,0.00004554,-0.03816408,0.0041
 8185,-0.00369032,0.00509946,-0.00039581,0.00034150,-0.00009038,0.00049
 594,0.00019984,-0.00009159,0.00000906,-0.00035036,0.00017573,0.0004022
 4,0.00028514,-0.00012044,-0.00127873,0.00004605,0.00003026,0.00008781,
 -0.00003448,0.00005162,-0.00006250,-0.00000060,-0.00000240,0.00000333,
 -0.00011323,0.00003946,-0.00010679,0.00008333,-0.00003421,0.00006384,-
 0.00003130,-0.00001604,-0.00000372,-0.00011664,0.00016676,0.00005953,-
 0.00000197,-0.00004503,-0.00007205,0.00000762,-0.00000618,0.00007155,0
 .00001148,-0.00000277,-0.00004079,-0.00000156,0.00000164,0.00000768,-0
 .00001330,-0.00000383,0.00000600,-0.00000250,-0.00000326,-0.00000570,-
 0.00001460,-0.00000856,0.00000886,-0.00000187,-0.00002604,0.00001275,0
 .00008486,0.00022011,0.00008247,-0.00001047,-0.00004457,-0.00000960,0.
 00003306,-0.00001983,0.00000117,0.00001715,-0.00001003,-0.00011358,0.0
 0001660,0.00002533,0.00003880,-0.00027643,0.00007791,-0.00006327,-0.00
 101990,0.00020523,-0.00016612,0.00001940,-0.00009280,0.00000987,0.0004
 0157,0.00012484,0.00023819,-0.00007158,-0.00343597,0.00241265,-0.00729
 099,0.05674556,-0.00010716,0.00001058,-0.00032580,-0.00002726,0.000053
 49,0.00005586,0.00145013,-0.00022231,0.00153082,-0.00057915,0.00013143
 ,-0.00018886,0.00000092,0.00000593,-0.00005787,0.02422115,0.00293400,-
 0.00745827,-0.00204120,-0.00279379,0.00171719,-0.00009054,-0.00001619,
 0.00000790,-0.00001803,0.00000876,0.00005246,-0.00011935,-0.00024745,-
 0.00020561,0.00000036,0.00002178,-0.00001701,0.00199569,0.00053543,0.0
 0268914,0.01339115,-0.01416625,-0.00631245,0.12221995,0.00665454,-0.09
 529283,-0.03378171,-0.00048661,-0.00589301,-0.00777579,-0.00103011,0.0
 0317425,0.00011260,0.00006333,-0.00043964,0.00005694,0.00016819,0.0004
 1947,-0.00018158,-0.00009644,-0.00078323,0.00004986,0.00007554,0.00007
 785,-0.00000035,0.00005778,-0.00003043,-0.00000632,-0.00000077,-0.0000
 0710,-0.00008984,0.00009390,0.00009571,0.00002232,-0.00007981,-0.00000
 596,0.00001657,0.00000110,-0.00001786,-0.00025269,-0.00001533,-0.00008
 435,0.00012099,0.00006713,-0.00013621,-0.00000765,-0.00010398,0.000071
 36,0.00001172,0.00002367,-0.00003211,0.00000137,0.00000065,0.00000595,
 -0.00002599,-0.00000176,0.00001806,-0.00000412,0.00000144,0.00000280,0
 .00001222,0.00002012,-0.00004511,0.00024424,-0.00004543,0.00000331,0.0
 0078334,0.00015503,-0.00080246,0.00015337,0.00002545,-0.00002823,0.000
 01812,-0.00000939,-0.00000976,0.00003446,-0.00004265,-0.00002349,0.000
 01681,0.00002385,0.00000688,-0.00020374,0.00009157,-0.00003535,-0.0007
 9938,0.00005428,-0.00030579,-0.00012496,0.00002958,0.00013358,-0.00067
 260,-0.00007626,-0.00043383,-0.00011926,0.00318439,-0.00237668,-0.1179
 0561,0.00494161,0.11128672\\0.00452349,-0.00244106,-0.00493000,0.01256
 674,0.00263471,-0.00242096,0.00811048,0.00710620,0.01428976,0.00396788
 ,0.00108842,-0.00059633,-0.01547367,-0.01152646,-0.01915068,-0.0050534
 4,-0.02775470,0.00687215,-0.01277402,-0.00441570,-0.00159641,0.0161766
 8,0.01765003,0.00858732,-0.00614045,0.03026343,0.01121667,0.00718519,0
 .00644623,0.01600319,0.00600276,-0.03243836,-0.01325963,-0.01169970,0.
 01566733,0.01273612,-0.00711578,-0.02258743,0.00295215,-0.01053448,0.0
 0559500,-0.01223095,0.00483937,-0.00496705,-0.00191614,-0.00290581,0.0
 3406850,-0.02596236,-0.01428838,0.03468705,0.04238010,0.01251425,-0.00
 145933,0.00191290,-0.00183483,0.01709596,-0.02357569,-0.01652682,-0.00
 156494,0.00310944,0.00043751,0.01571187,-0.00868666,0.00190265,-0.0193
 3749,0.02910988,0.02103332,-0.04625745,-0.03187838,-0.01988661,-0.0103
 1028,0.02543473,-0.00710411,0.03513141,-0.00166510,0.00949686,-0.04683
 013,0.04173038,-0.00766738,0.01943984,0.01636045,0.04604045,-0.0039273
 0,-0.02069351,-0.00913237,-0.00475837,0.00597454,-0.00255680,-0.004240
 74,-0.00552858,-0.00243809,0.00525005,0.00214740,-0.01869494,-0.000435
 54,-0.00183426,0.01776955,0.00149028,-0.00245693,-0.02455649,-0.001921
 01,-0.00327727,0.01844551,-0.00503379,0.00027412,-0.01911500,0.0041269
 7,-0.00130802,-0.00168370,-0.00721309,-0.01987358,0.01914640,0.0044792
 2,-0.00761801,0.00460602,0.00761911,-0.01761018,-0.01970776,-0.0048469
 4,-0.00463204,0.02018916,-0.00152882,-0.00068215,-0.01908091,0.0003795
 9,0.00165492,0.02300275,0.00174830,-0.00460530,-0.02061720,-0.00085395
 ,0.00135742,0.01863173,-0.00102958,-0.00611450\\\@


 JUST WHEN YOU THINK YOU'VE GOT THE WORLD ON A STRING,
 YOU FIND OUT IT'S YOUR LEASH.
 Job cpu time:  0 days 12 hours 46 minutes 26.1 seconds.
 File lengths (MBytes):  RWF=   1327 Int=      0 D2E=      0 Chk=     19 Scr=      1
 Normal termination of Gaussian 09 at Tue Mar  1 03:10:08 2016.
Gaussian '09 finished on node003 at Tue Mar  1 03:10:08 EST 2016.
