Gaussian '09 started on node005 at Mon Mar 28 11:11:17 EDT 2016.
 Entering Gaussian System, Link 0=/usr/local/gaussian/g09/g09
 Initial command:
 /usr/local/gaussian/g09/l1.exe /home/srmcgrat/thesis/gaussian/cellobiose/473K/8985ps/1/2dp/gaussian19736/Gau-19772.inp -scrdir=/home/srmcgrat/thesis/gaussian/cellobiose/473K/8985ps/1/2dp/gaussian19736/
 Entering Link 1 = /usr/local/gaussian/g09/l1.exe PID=     19774.
  
 Copyright (c) 1988,1990,1992,1993,1995,1998,2003,2009,2010,
            Gaussian, Inc.  All Rights Reserved.
  
 This is part of the Gaussian(R) 09 program.  It is based on
 the Gaussian(R) 03 system (copyright 2003, Gaussian, Inc.),
 the Gaussian(R) 98 system (copyright 1998, Gaussian, Inc.),
 the Gaussian(R) 94 system (copyright 1995, Gaussian, Inc.),
 the Gaussian 92(TM) system (copyright 1992, Gaussian, Inc.),
 the Gaussian 90(TM) system (copyright 1990, Gaussian, Inc.),
 the Gaussian 88(TM) system (copyright 1988, Gaussian, Inc.),
 the Gaussian 86(TM) system (copyright 1986, Carnegie Mellon
 University), and the Gaussian 82(TM) system (copyright 1983,
 Carnegie Mellon University). Gaussian is a federally registered
 trademark of Gaussian, Inc.
  
 This software contains proprietary and confidential information,
 including trade secrets, belonging to Gaussian, Inc.
  
 This software is provided under written license and may be
 used, copied, transmitted, or stored only in accord with that
 written license.
  
 The following legend is applicable only to US Government
 contracts under FAR:
  
                    RESTRICTED RIGHTS LEGEND
  
 Use, reproduction and disclosure by the US Government is
 subject to restrictions as set forth in subparagraphs (a)
 and (c) of the Commercial Computer Software - Restricted
 Rights clause in FAR 52.227-19.
  
 Gaussian, Inc.
 340 Quinnipiac St., Bldg. 40, Wallingford CT 06492
  
  
 ---------------------------------------------------------------
 Warning -- This program may not be used in any manner that
 competes with the business of Gaussian, Inc. or will provide
 assistance to any competitor of Gaussian, Inc.  The licensee
 of this program is prohibited from giving any competitor of
 Gaussian, Inc. access to this program.  By using this program,
 the user acknowledges that Gaussian, Inc. is engaged in the
 business of creating and licensing software in the field of
 computational chemistry and represents and warrants to the
 licensee that it is not a competitor of Gaussian, Inc. and that
 it will not use this program in any manner prohibited above.
 ---------------------------------------------------------------
  

 Cite this work as:
 Gaussian 09, Revision B.01,
 M. J. Frisch, G. W. Trucks, H. B. Schlegel, G. E. Scuseria, 
 M. A. Robb, J. R. Cheeseman, G. Scalmani, V. Barone, B. Mennucci, 
 G. A. Petersson, H. Nakatsuji, M. Caricato, X. Li, H. P. Hratchian, 
 A. F. Izmaylov, J. Bloino, G. Zheng, J. L. Sonnenberg, M. Hada, 
 M. Ehara, K. Toyota, R. Fukuda, J. Hasegawa, M. Ishida, T. Nakajima, 
 Y. Honda, O. Kitao, H. Nakai, T. Vreven, J. A. Montgomery, Jr., 
 J. E. Peralta, F. Ogliaro, M. Bearpark, J. J. Heyd, E. Brothers, 
 K. N. Kudin, V. N. Staroverov, T. Keith, R. Kobayashi, J. Normand, 
 K. Raghavachari, A. Rendell, J. C. Burant, S. S. Iyengar, J. Tomasi, 
 M. Cossi, N. Rega, J. M. Millam, M. Klene, J. E. Knox, J. B. Cross, 
 V. Bakken, C. Adamo, J. Jaramillo, R. Gomperts, R. E. Stratmann, 
 O. Yazyev, A. J. Austin, R. Cammi, C. Pomelli, J. W. Ochterski, 
 R. L. Martin, K. Morokuma, V. G. Zakrzewski, G. A. Voth, 
 P. Salvador, J. J. Dannenberg, S. Dapprich, A. D. Daniels, 
 O. Farkas, J. B. Foresman, J. V. Ortiz, J. Cioslowski, 
 and D. J. Fox, Gaussian, Inc., Wallingford CT, 2010.
 
 ******************************************
 Gaussian 09:  EM64L-G09RevB.01 12-Aug-2010
                28-Mar-2016 
 ******************************************
 -------------------------------------------------
 # freq=raman b3lyp/6-31+g(2d,p) geom=connectivity
 -------------------------------------------------
 1/10=4,30=1,38=1,57=2/1,3;
 2/12=2,17=6,18=5,40=1/2;
 3/5=1,6=6,7=112,11=2,16=1,25=1,30=1,71=2,74=-5/1,2,3;
 4//1;
 5/5=2,38=5,98=1/2;
 8/6=4,10=90,11=11/1;
 10/13=10,15=4/2;
 11/6=3,8=1,9=11,15=111,16=1/1,2,10;
 10/6=1/2;
 6/7=2,8=2,9=2,10=2,18=1,28=1/1;
 7/8=1,10=1,25=1/1,2,3,16;
 1/10=4,30=1/3;
 99//99;
 -----------------
 473 8985/8985.com
 -----------------
 Symbolic Z-matrix:
 Charge =  0 Multiplicity = 1
 O                     7.455     7.301     12.167 
 C                     8.017     7.826     13.378 
 C                     7.451     9.133     13.908 
 O                     7.598     10.174    12.932 
 H                     7.418     9.728     12.056 
 C                     8.061     9.506     15.249 
 O                     7.368     10.662    15.743 
 H                     7.861     11.081    16.505 
 C                     8.587     5.454     14.185 
 O                     8.121     4.634     13.103 
 H                     8.177     3.679     13.392 
 C                     7.916     6.785     14.482 
 O                     8.51      7.215     15.716 
 C                     7.945     8.403     16.288 
 O                     8.759     8.631     17.448 
 C                     8.179     8.299     18.718 
 C                     8.725     6.969     19.212 
 O                     8.735     5.882     18.275 
 H                     8.602     6.29      17.372 
 C                     8.19      6.567     20.577 
 O                     8.749     5.388     21.173 
 H                     8.391     5.291     22.102 
 C                     7.796     10.752    19.351 
 O                     8.454     11.305    18.203 
 H                     8.323     12.295    18.245 
 C                     8.38      9.404     19.742 
 O                     7.775     8.986     20.974 
 C                     8.346     7.774     21.488 
 O                     7.589     7.526     22.682 
 H                     8.18922   7.37363   23.41557 
 H                     9.37733   7.92464   21.73002 
 H                     7.14088   6.39046   20.46265 
 H                     9.76197   7.16688   19.38648 
 H                     7.12551   8.18205   18.5718 
 H                     9.43049   9.52603   19.90471 
 H                     7.90184   11.42898   20.17282 
 H                     6.75588   10.63041   19.13131 
 H                     8.16239   7.04286   11.57155 
 H                     8.52576   4.86461   15.07594 
 H                     6.87789   6.5983    14.66193 
 H                     9.05796   7.98973   13.19228 
 H                     9.62191   5.65647   14.00372 
 H                     6.40252   8.98736   14.06415 
 H                     9.09365   9.74885   15.10916 
 H                     6.92366   8.24284   16.56389 
 

 GradGradGradGradGradGradGradGradGradGradGradGradGradGradGradGradGradGrad
 Berny optimization.
 Initialization pass.
 Trust Radius=3.00D-01 FncErr=1.00D-07 GrdErr=1.00D-07
 Number of steps in this run=      2 maximum allowed number of steps=      2.
 GradGradGradGradGradGradGradGradGradGradGradGradGradGradGradGradGradGrad

                          Input orientation:                          
 ---------------------------------------------------------------------
 Center     Atomic      Atomic             Coordinates (Angstroms)
 Number     Number       Type             X           Y           Z
 ---------------------------------------------------------------------
      1          8           0        7.455000    7.301000   12.167000
      2          6           0        8.017000    7.826000   13.378000
      3          6           0        7.451000    9.133000   13.908000
      4          8           0        7.598000   10.174000   12.932000
      5          1           0        7.418000    9.728000   12.056000
      6          6           0        8.061000    9.506000   15.249000
      7          8           0        7.368000   10.662000   15.743000
      8          1           0        7.861000   11.081000   16.505000
      9          6           0        8.587000    5.454000   14.185000
     10          8           0        8.121000    4.634000   13.103000
     11          1           0        8.177000    3.679000   13.392000
     12          6           0        7.916000    6.785000   14.482000
     13          8           0        8.510000    7.215000   15.716000
     14          6           0        7.945000    8.403000   16.288000
     15          8           0        8.759000    8.631000   17.448000
     16          6           0        8.179000    8.299000   18.718000
     17          6           0        8.725000    6.969000   19.212000
     18          8           0        8.735000    5.882000   18.275000
     19          1           0        8.602000    6.290000   17.372000
     20          6           0        8.190000    6.567000   20.577000
     21          8           0        8.749000    5.388000   21.173000
     22          1           0        8.391000    5.291000   22.102000
     23          6           0        7.796000   10.752000   19.351000
     24          8           0        8.454000   11.305000   18.203000
     25          1           0        8.323000   12.295000   18.245000
     26          6           0        8.380000    9.404000   19.742000
     27          8           0        7.775000    8.986000   20.974000
     28          6           0        8.346000    7.774000   21.488000
     29          8           0        7.589000    7.526000   22.682000
     30          1           0        8.189215    7.373634   23.415571
     31          1           0        9.377328    7.924636   21.730016
     32          1           0        7.140877    6.390460   20.462653
     33          1           0        9.761968    7.166876   19.386479
     34          1           0        7.125506    8.182054   18.571798
     35          1           0        9.430492    9.526034   19.904707
     36          1           0        7.901842   11.428980   20.172824
     37          1           0        6.755878   10.630409   19.131313
     38          1           0        8.162390    7.042857   11.571550
     39          1           0        8.525757    4.864610   15.075937
     40          1           0        6.877893    6.598299   14.661933
     41          1           0        9.057961    7.989732   13.192279
     42          1           0        9.621912    5.656472   14.003723
     43          1           0        6.402522    8.987357   14.064146
     44          1           0        9.093650    9.748852   15.109157
     45          1           0        6.923660    8.242843   16.563888
 ---------------------------------------------------------------------
                    Distance matrix (angstroms):
                    1          2          3          4          5
     1  O    0.000000
     2  C    1.434570   0.000000
     3  C    2.527315   1.519706   0.000000
     4  O    2.976542   2.426434   1.434526   0.000000
     5  H    2.429819   2.392507   1.945512   0.999346   0.000000
     6  C    3.837706   2.514951   1.519707   2.455419   3.264656
     7  O    4.908326   3.749310   2.389970   2.862301   3.803791
     8  H    5.768144   4.516358   3.272188   3.695693   4.671237
     9  C    2.960601   2.569539   3.860345   4.982623   4.915921
    10  O    2.903884   3.205512   4.619299   5.567259   5.247786
    11  H    3.891117   4.150109   5.526251   6.536962   6.241104
    12  C    2.416196   1.520756   2.461464   3.740180   3.846392
    13  O    3.703488   2.466296   2.840611   4.163902   4.572005
    14  C    4.293850   2.967526   2.537979   3.810457   4.465779
    15  O    5.599846   4.214675   3.807160   4.911520   5.663511
    16  C    6.666017   5.363355   4.935751   6.109909   6.855903
    17  C    7.166251   5.938962   5.868423   7.140067   7.780017
    18  O    6.399971   5.317449   5.593599   6.947063   7.429816
    19  H    5.424920   4.318976   4.626742   5.983901   6.440618
    20  C    8.473906   7.310309   7.183734   8.473897   9.121148
    21  O    9.297421   8.200103   8.275872   9.599202  10.184638
    22  H   10.179412   9.092540   9.098692  10.419282  11.025235
    23  C    7.977189   6.654851   5.689151   6.448011   7.376211
    24  O    7.311861   5.964481   4.916362   5.458511   6.430073
    25  H    7.914262   6.614627   5.437665   5.766475   6.761082
    26  C    7.915735   6.566761   5.913716   6.897864   7.752742
    27  O    8.972451   7.687872   7.074952   8.131201   8.955933
    28  C    9.375428   8.116837   7.752697   8.917659   9.676876
    29  O   10.518261   9.318669   8.921018  10.103192  10.853107
    30  H   11.272741  10.049235   9.697125  10.867237  11.626593
    31  H    9.774229   8.462647   8.145847   9.253688  10.033827
    32  H    8.351384   7.281529   7.112044   8.440075   9.049187
    33  H    7.580301   6.291357   6.262583   7.442167   8.111071
    34  H    6.473505   5.281768   4.770876   5.999869   6.703069
    35  H    8.290082   6.891007   6.327192   7.238545   8.105129
    36  H    9.018487   7.691838   6.687511   7.355055   8.307242
    37  H    7.750832   6.523477   5.477995   6.272875   7.163296
    38  H    0.960000   1.974263   3.214619   3.460263   2.828216
    39  H    3.942643   3.451326   4.553936   5.800588   5.830927
    40  H    2.655472   2.110284   2.705841   4.036937   4.108239
    41  H    2.023619   1.070000   2.098009   2.640124   2.646163
    42  H    3.282306   2.770221   4.099789   5.064866   5.022768
    43  H    2.747849   2.103827   1.070000   2.029542   2.369050
    44  H    4.163345   2.802399   2.126112   2.675394   3.482816
    45  H    4.527915   3.393970   2.850300   4.168299   4.771909
                    6          7          8          9         10
     6  C    0.000000
     7  O    1.435486   0.000000
     8  H    2.024392   0.999627   0.000000
     9  C    4.222260   5.571049   6.129650   0.000000
    10  O    5.324030   6.623699   7.294177   1.435368   0.000000
    11  H    6.116848   7.412420   8.036182   1.986850   0.999341
    12  C    2.830752   4.113582   4.748807   1.519872   2.563292
    13  O    2.380834   3.631350   3.998710   2.334740   3.693325
    14  C    1.519732   2.394376   2.688090   3.678502   4.937668
    15  O    2.467474   2.994473   2.774555   4.557421   5.938188
    16  C    3.674879   3.884857   3.569036   5.367362   6.705506
    17  C    4.752119   5.245346   4.998289   5.252142   6.567870
    18  O    4.769101   5.579257   5.561149   4.114996   5.355752
    19  H    3.891332   4.826052   4.924881   3.294858   4.604135
    20  C    6.086209   6.388448   6.088154   6.500311   7.720228
    21  O    7.247416   7.694617   7.415458   6.990189   8.129440
    22  H    8.052250   8.386361   8.070403   7.921103   9.026990
    23  C    4.295247   3.634412   2.865690   7.441911   8.750603
    24  O    3.480943   2.764859   1.812465   7.099029   8.403757
    25  H    4.101607   3.136673   2.171368   7.959433   9.228862
    26  C    4.505465   4.312622   3.682371   6.820968   8.179016
    27  O    5.755677   5.507993   4.936434   7.695771   9.000681
    28  C    6.481217   6.504003   6.000147   7.666439   8.956475
    29  O    7.706664   7.617943   7.132134   8.802738  10.020176
    30  H    8.441345   8.387854   7.849094   9.436454  10.670490
    31  H    6.799780   6.882944   6.289887   7.978467   9.318372
    32  H    6.142914   6.369675   6.179220   6.509773   7.629566
    33  H    5.048121   5.587657   5.218905   5.600882   6.970677
    34  H    3.697157   3.769753   3.635450   5.368635   6.594501
    35  H    4.852991   4.781642   4.054533   7.071633   8.479976
    36  H    5.288405   4.527316   3.684521   8.486688   9.808272
    37  H    4.247352   3.443306   2.884761   7.390144   8.611681
    38  H    4.427301   5.579449   6.382505   3.087860   2.854758
    39  H    4.667810   5.949378   6.413082   1.070000   2.027188
    40  H    3.193606   4.233507   4.945504   2.111382   2.798938
    41  H    2.742827   4.062408   4.686445   2.763555   3.485227
    42  H    4.336592   5.758517   6.227576   1.070000   2.027188
    43  H    2.103193   2.560299   3.531044   4.155859   4.777938
    44  H    1.070000   2.052673   2.289634   4.422275   5.579644
    45  H    2.148962   2.592994   2.989517   4.025351   5.141509
                   11         12         13         14         15
    11  H    0.000000
    12  C    3.302038   0.000000
    13  O    4.244427   1.435441   0.000000
    14  C    5.545883   2.424954   1.434487   0.000000
    15  O    6.427454   3.593817   2.250973   1.435333   0.000000
    16  C    7.050580   4.506114   3.208835   2.443455   1.435104
    17  C    6.707966   4.802212   3.511233   3.348811   2.423860
    18  O    5.385932   3.984096   2.894131   3.305709   2.870802
    19  H    4.778948   3.011266   1.899059   2.464036   2.347489
    20  C    7.743703   6.105049   4.914430   4.671878   3.791372
    21  O    7.986979   6.885854   5.759679   5.796539   4.938904
    22  H    8.860499   7.779593   6.670602   6.609543   5.740274
    23  C    9.256466   6.281612   5.121854   3.862897   3.007893
    24  O    9.020994   5.879259   4.787108   3.513959   2.795233
    25  H    9.889812   6.684753   5.677782   4.372688   3.774944
    26  C    8.552154   5.894239   4.584463   3.622339   2.450226
    27  O    9.263508   6.856409   5.596716   4.725186   3.677901
    28  C    9.074293   7.088516   5.801324   5.253232   4.150496
    29  O   10.072202   8.239904   7.033500   6.463676   5.475827
    30  H   10.682810   8.957110   7.707883   7.205658   6.125155
    31  H    9.433384   7.481176   6.117535   5.647649   4.383713
    32  H    7.643278   6.043566   5.008500   4.703686   4.089801
    33  H    7.114153   5.254269   3.878422   3.798677   2.628175
    34  H    6.943590   4.393528   3.317770   2.436416   2.032923
    35  H    8.841629   6.262005   4.871699   4.067980   2.699518
    36  H   10.301334   7.345218   6.163665   4.924457   3.998510
    37  H    9.125864   6.144035   5.138709   3.802604   3.292974
    38  H    3.824890   2.932221   4.162563   4.913466   6.116438
    39  H    2.088767   2.100586   2.436034   3.785046   4.457216
    40  H    3.438417   1.070000   2.038419   2.653254   3.928436
    41  H    4.404361   2.102102   2.696227   3.315563   4.314135
    42  H    2.524356   2.100586   2.568511   3.946311   4.632005
    43  H    5.637305   2.704736   3.211127   2.768798   4.138895
    44  H    6.374322   3.250324   2.670077   2.126120   2.613766
    45  H    5.697402   2.728425   2.071678   1.070000   2.073835
                   16         17         18         19         20
    16  C    0.000000
    17  C    1.520214   0.000000
    18  O    2.519380   1.435144   0.000000
    19  H    2.454939   1.965139   0.999781   0.000000
    20  C    2.540832   1.520215   2.462814   3.243223   0.000000
    21  O    3.850435   2.519059   2.939836   3.909324   1.434482
    22  H    4.532600   3.358473   3.887614   4.838948   1.998550
    23  C    2.562145   3.897878   5.075076   4.947274   4.378646
    24  O    3.062170   4.460092   5.430753   5.085537   5.306055
    25  H    4.026473   5.427980   6.426291   6.074537   6.185944
    26  C    1.519869   2.515780   3.831788   3.919589   2.963426
    27  O    2.392639   2.841731   4.223863   4.574576   2.486241
    28  C    2.824255   2.443735   3.748914   4.382836   1.520232
    29  O    4.081535   3.693460   4.841250   5.545265   2.389960
    30  H    4.787857   4.256853   5.380364   6.153812   2.950956
    31  H    3.263186   2.771133   4.064737   4.718631   2.140647
    32  H    2.786402   2.099592   2.754194   3.420103   1.070000
    33  H    2.057755   1.070000   1.985184   2.484464   2.061134
    34  H    1.070000   2.107068   2.822907   2.683173   2.786105
    35  H    2.116629   2.741530   4.051992   4.192007   3.278213
    36  H    3.462673   4.635968   5.921561   5.894400   4.887253
    37  H    2.762530   4.158109   5.215130   5.034134   4.545108
    38  H    7.256027   7.661492   6.827277   5.865601   9.018056
    39  H    5.017957   4.644908   3.363461   2.703600   5.768237
    40  H    4.586605   4.924666   4.125068   3.226772   6.058929
    41  H    5.603732   6.114720   5.511886   4.535092   7.570444
    42  H    5.593689   5.445487   4.368212   3.575873   6.788770
    43  H    5.028725   5.997339   5.728437   4.801598   7.174293
    44  H    3.995298   4.969588   5.010363   4.162431   6.390468
    45  H    2.493839   3.446737   3.432555   2.698790   4.529584
                   21         22         23         24         25
    21  O    0.000000
    22  H    1.000307   0.000000
    23  C    5.744597   6.143659   0.000000
    24  O    6.627127   7.167591   1.434112   0.000000
    25  H    7.514074   7.996067   1.970232   0.999512   0.000000
    26  C    4.279273   4.741992   1.520211   2.446998   3.256093
    27  O    3.732811   3.912143   2.398609   3.676580   4.324029
    28  C    2.440211   2.558185   3.706447   4.823987   5.563903
    29  O    2.862468   2.444346   4.641712   5.923724   6.555081
    30  H    3.047166   2.470536   5.299879   6.534267   7.139506
    31  H    2.672000   2.836768   4.019241   4.971844   5.688324
    32  H    2.023753   2.336467   4.548405   5.566240   6.417086
    33  H    2.717013   3.573866   4.088937   4.498386   5.447133
    34  H    4.148339   4.735187   2.767913   3.413752   4.296174
    35  H    4.381361   4.883047   2.116873   2.648408   3.412967
    36  H    6.181543   6.452581   1.070000   2.049501   2.154964
    37  H    5.968574   6.325179   1.070000   2.049501   2.451996
    38  H    9.760661  10.677624   8.626229   7.888411   8.493865
    39  H    6.123557   7.040279   7.312323   7.159769   8.080517
    40  H    6.881850   7.704098   6.331154   6.097238   6.883249
    41  H    8.399784   9.333334   6.866768   6.038468   6.678734
    42  H    7.227211   8.199439   7.608661   7.134691   7.984087
    43  H    8.306452   9.067756   5.745135   5.168186   5.666417
    44  H    7.477032   8.322621   4.547905   3.521735   4.112212
    45  H    5.720656   6.444932   3.850304   3.795449   4.604809
                   26         27         28         29         30
    26  C    0.000000
    27  O    1.434773   0.000000
    28  C    2.388843   1.434985   0.000000
    29  O    3.577173   2.254653   1.435336   0.000000
    30  H    4.201656   2.955092   1.974944   0.960000   0.000000
    31  H    2.671215   2.065311   1.070000   2.064776   2.134551
    32  H    3.337093   2.720371   2.101866   2.532937   3.284108
    33  H    2.653480   3.126896   2.605754   3.963738   4.330113
    34  H    2.106248   2.615099   3.187530   4.187958   5.024655
    35  H    1.070000   2.043448   2.598569   3.886462   4.301135
    36  H    2.124803   2.574126   3.909712   4.650493   5.200368
    37  H    2.124803   2.671738   4.030079   4.789449   5.569192
    38  H    8.507562   9.608952   9.945063  11.135722  11.848670
    39  H    6.511486   7.234406   7.043537   8.112503   8.715386
    40  H    5.994612   6.807945   7.080452   8.104800   8.885206
    41  H    6.734881   7.949448   8.329010   9.613932  10.278618
    42  H    6.965208   7.942392   7.882022   9.107159   9.673889
    43  H    6.026777   7.044841   7.769360   8.821038   9.656373
    44  H    4.700155   6.059469   6.719275   8.034488   8.686552
    45  H    3.683695   4.552598   5.146819   6.195792   7.021589
                   31         32         33         34         35
    31  H    0.000000
    32  H    2.993596   0.000000
    33  H    2.492853   2.937871   0.000000
    34  H    3.887326   2.604876   2.940276   0.000000
    35  H    2.428797   3.922431   2.438045   2.982598   0.000000
    36  H    4.108811   5.103897   4.716348   3.702501   2.455578
    37  H    4.576731   4.460702   4.593229   2.538528   2.995220
    38  H   10.268790   8.973340   7.977916   7.167732   8.787250
    39  H    7.373310   5.767392   5.040775   5.018683   6.772329
    40  H    7.613419   5.810397   5.564396   4.225712   6.524882
    41  H    8.543956   7.687081   6.288150   5.719317   6.896063
    42  H    8.056053   6.957876   5.592405   5.786010   7.059161
    43  H    8.291226   6.944778   6.551890   4.635747   6.600829
    44  H    6.873428   6.614532   5.040708   4.279992   4.812527
    45  H    5.728056   4.321906   4.144963   2.018945   4.369423
                   36         37         38         39         40
    36  H    0.000000
    37  H    1.742325   0.000000
    38  H    9.658566   8.485213   0.000000
    39  H    8.334175   7.267942   4.142164   0.000000
    40  H    7.399587   6.020645   3.376097   2.427454   0.000000
    41  H    7.867213   6.895280   2.079756   3.687519   2.974671
    42  H    8.621966   7.697167   3.157172   1.725759   2.974882
    43  H    6.747254   5.338602   3.618184   4.746461   2.508172
    44  H    5.466623   4.734983   4.550200   4.917258   3.877574
    45  H    4.912508   3.510028   5.281843   4.024073   2.514767
                   41         42         43         44         45
    41  H    0.000000
    42  H    2.533888   0.000000
    43  H    2.967619   4.632810   0.000000
    44  H    2.601960   4.271840   2.985648   0.000000
    45  H    3.998381   4.530378   2.659812   3.015488   0.000000
 Stoichiometry    C12H22O11
 Framework group  C1[X(C12H22O11)]
 Deg. of freedom   129
 Full point group                 C1      NOp   1
 Largest Abelian subgroup         C1      NOp   1
 Largest concise Abelian subgroup C1      NOp   1
                         Standard orientation:                         
 ---------------------------------------------------------------------
 Center     Atomic      Atomic             Coordinates (Angstroms)
 Number     Number       Type             X           Y           Z
 ---------------------------------------------------------------------
      1          8           0        5.038642   -0.510267   -0.503956
      2          6           0        3.788884   -0.081553    0.054881
      3          6           0        3.244504    1.266026   -0.389176
      4          8           0        4.181027    2.308950   -0.084053
      5          1           0        5.077210    1.908012   -0.270596
      6          6           0        1.867466    1.535108    0.194665
      7          8           0        1.369166    2.747599   -0.390298
      8          1           0        0.574007    3.090053    0.109403
      9          6           0        3.030402   -2.521770    0.324287
     10          8           0        4.156141   -3.257470   -0.177448
     11          1           0        3.894183   -4.219863   -0.239569
     12          6           0        2.722537   -1.132816   -0.210539
     13          8           0        1.451310   -0.802610    0.368629
     14          6           0        0.868569    0.425555   -0.089384
     15          8           0       -0.332200    0.532656    0.689631
     16          6           0       -1.565026    0.234488    0.018245
     17          6           0       -2.041627   -1.159818    0.392162
     18          8           0       -1.073295   -2.217052    0.327152
     19          1           0       -0.178197   -1.773992    0.281755
     20          6           0       -3.369148   -1.534923   -0.246616
     21          8           0       -3.952769   -2.783236    0.151933
     22          1           0       -4.861904   -2.863744   -0.257463
     23          6           0       -2.255122    2.697854   -0.123821
     24          8           0       -1.154250    3.203878    0.643446
     25          1           0       -1.220622    4.200896    0.619477
     26          6           0       -2.629976    1.284092    0.290668
     27          8           0       -3.821149    0.904207   -0.413156
     28          6           0       -4.322403   -0.376129   -0.002469
     29          8           0       -5.474182   -0.569357   -0.836889
     30          1           0       -6.228229   -0.805705   -0.291772
     31          1           0       -4.613599   -0.346509    1.026719
     32          1           0       -3.203877   -1.591568   -1.302256
     33          1           0       -2.267065   -1.082164    1.435257
     34          1           0       -1.369568    0.238348   -1.033745
     35          1           0       -2.841940    1.285198    1.339463
     36          1           0       -3.101006    3.337852    0.016830
     37          1           0       -1.986725    2.697494   -1.159612
     38          1           0        5.610288   -0.829690    0.198034
     39          1           0        2.161336   -3.123295    0.157578
     40          1           0        2.593774   -1.208269   -1.270080
     41          1           0        3.924002   -0.029088    1.115018
     42          1           0        3.160166   -2.430260    1.382440
     43          1           0        3.138697    1.233118   -1.453424
     44          1           0        1.954725    1.665931    1.253046
     45          1           0        0.642447    0.372180   -1.133856
 ---------------------------------------------------------------------
 Rotational constants (GHZ):      0.4043391      0.1452461      0.1099873
 Standard basis: 6-31+G(2d,p) (6D, 7F)
 There are   685 symmetry adapted basis functions of A   symmetry.
 Integral buffers will be    131072 words long.
 Raffenetti 2 integral format.
 Two-electron integral symmetry is turned on.
   685 basis functions,  1028 primitive gaussians,   685 cartesian basis functions
    91 alpha electrons       91 beta electrons
       nuclear repulsion energy      2283.2413164339 Hartrees.
 NAtoms=   45 NActive=   45 NUniq=   45 SFac= 1.00D+00 NAtFMM=   50 NAOKFM=F Big=F
 One-electron integrals computed using PRISM.
 NBasis=   685 RedAO= T  NBF=   685
 NBsUse=   685 1.00D-06 NBFU=   685
 Harris functional with IExCor=  402 diagonalized for initial guess.
 ExpMin= 4.38D-02 ExpMax= 5.48D+03 ExpMxC= 8.25D+02 IAcc=2 IRadAn=         0 AccDes= 0.00D+00
 HarFok:  IExCor=  402 AccDes= 0.00D+00 IRadAn=         0 IDoV= 1
 ScaDFX=  1.000000  1.000000  1.000000  1.000000
 FoFCou: FMM=F IPFlag=           0 FMFlag=      100000 FMFlg1=           0
         NFxFlg=           0 DoJE=T BraDBF=F KetDBF=T FulRan=T
         Omega=  0.000000  0.000000  1.000000  0.000000  0.000000 ICntrl=     500 IOpCl=  0
         NMat0=    1 NMatS0=    1 NMatT0=    0 NMatD0=    1 NMtDS0=    0 NMtDT0=    0
         I1Cent=           4 NGrid=           0.
 Petite list used in FoFCou.
 Initial guess orbital symmetries:
       Occupied  (A) (A) (A) (A) (A) (A) (A) (A) (A) (A) (A) (A)
                 (A) (A) (A) (A) (A) (A) (A) (A) (A) (A) (A) (A)
                 (A) (A) (A) (A) (A) (A) (A) (A) (A) (A) (A) (A)
                 (A) (A) (A) (A) (A) (A) (A) (A) (A) (A) (A) (A)
                 (A) (A) (A) (A) (A) (A) (A) (A) (A) (A) (A) (A)
                 (A) (A) (A) (A) (A) (A) (A) (A) (A) (A) (A) (A)
                 (A) (A) (A) (A) (A) (A) (A) (A) (A) (A) (A) (A)
                 (A) (A) (A) (A) (A) (A) (A)
       Virtual   (A) (A) (A) (A) (A) (A) (A) (A) (A) (A) (A) (A)
                 (A) (A) (A) (A) (A) (A) (A) (A) (A) (A) (A) (A)
                 (A) (A) (A) (A) (A) (A) (A) (A) (A) (A) (A) (A)
                 (A) (A) (A) (A) (A) (A) (A) (A) (A) (A) (A) (A)
                 (A) (A) (A) (A) (A) (A) (A) (A) (A) (A) (A) (A)
                 (A) (A) (A) (A) (A) (A) (A) (A) (A) (A) (A) (A)
                 (A) (A) (A) (A) (A) (A) (A) (A) (A) (A) (A) (A)
                 (A) (A) (A) (A) (A) (A) (A) (A) (A) (A) (A) (A)
                 (A) (A) (A) (A) (A) (A) (A) (A) (A) (A) (A) (A)
                 (A) (A) (A) (A) (A) (A) (A) (A) (A) (A) (A) (A)
                 (A) (A) (A) (A) (A) (A) (A) (A) (A) (A) (A) (A)
                 (A) (A) (A) (A) (A) (A) (A) (A) (A) (A) (A) (A)
                 (A) (A) (A) (A) (A) (A) (A) (A) (A) (A) (A) (A)
                 (A) (A) (A) (A) (A) (A) (A) (A) (A) (A) (A) (A)
                 (A) (A) (A) (A) (A) (A) (A) (A) (A) (A) (A) (A)
                 (A) (A) (A) (A) (A) (A) (A) (A) (A) (A) (A) (A)
                 (A) (A) (A) (A) (A) (A) (A) (A) (A) (A) (A) (A)
                 (A) (A) (A) (A) (A) (A) (A) (A) (A) (A) (A) (A)
                 (A) (A) (A) (A) (A) (A) (A) (A) (A) (A) (A) (A)
                 (A) (A) (A) (A) (A) (A) (A) (A) (A) (A) (A) (A)
                 (A) (A) (A) (A) (A) (A) (A) (A) (A) (A) (A) (A)
                 (A) (A) (A) (A) (A) (A) (A) (A) (A) (A) (A) (A)
                 (A) (A) (A) (A) (A) (A) (A) (A) (A) (A) (A) (A)
                 (A) (A) (A) (A) (A) (A) (A) (A) (A) (A) (A) (A)
                 (A) (A) (A) (A) (A) (A) (A) (A) (A) (A) (A) (A)
                 (A) (A) (A) (A) (A) (A) (A) (A) (A) (A) (A) (A)
                 (A) (A) (A) (A) (A) (A) (A) (A) (A) (A) (A) (A)
                 (A) (A) (A) (A) (A) (A) (A) (A) (A) (A) (A) (A)
                 (A) (A) (A) (A) (A) (A) (A) (A) (A) (A) (A) (A)
                 (A) (A) (A) (A) (A) (A) (A) (A) (A) (A) (A) (A)
                 (A) (A) (A) (A) (A) (A) (A) (A) (A) (A) (A) (A)
                 (A) (A) (A) (A) (A) (A) (A) (A) (A) (A) (A) (A)
                 (A) (A) (A) (A) (A) (A) (A) (A) (A) (A) (A) (A)
                 (A) (A) (A) (A) (A) (A) (A) (A) (A) (A) (A) (A)
                 (A) (A) (A) (A) (A) (A) (A) (A) (A) (A) (A) (A)
                 (A) (A) (A) (A) (A) (A) (A) (A) (A) (A) (A) (A)
                 (A) (A) (A) (A) (A) (A) (A) (A) (A) (A) (A) (A)
                 (A) (A) (A) (A) (A) (A) (A) (A) (A) (A) (A) (A)
                 (A) (A) (A) (A) (A) (A) (A) (A) (A) (A) (A) (A)
                 (A) (A) (A) (A) (A) (A) (A) (A) (A) (A) (A) (A)
                 (A) (A) (A) (A) (A) (A) (A) (A) (A) (A) (A) (A)
                 (A) (A) (A) (A) (A) (A) (A) (A) (A) (A) (A) (A)
                 (A) (A) (A) (A) (A) (A) (A) (A) (A) (A) (A) (A)
                 (A) (A) (A) (A) (A) (A) (A) (A) (A) (A) (A) (A)
                 (A) (A) (A) (A) (A) (A) (A) (A) (A) (A) (A) (A)
                 (A) (A) (A) (A) (A) (A) (A) (A) (A) (A) (A) (A)
                 (A) (A) (A) (A) (A) (A) (A) (A) (A) (A) (A) (A)
                 (A) (A) (A) (A) (A) (A) (A) (A) (A) (A) (A) (A)
                 (A) (A) (A) (A) (A) (A) (A) (A) (A) (A) (A) (A)
                 (A) (A) (A) (A) (A) (A)
 The electronic state of the initial guess is 1-A.
 Requested convergence on RMS density matrix=1.00D-08 within 128 cycles.
 Requested convergence on MAX density matrix=1.00D-06.
 Requested convergence on             energy=1.00D-06.
 No special actions if energy rises.
 SCF Done:  E(RB3LYP) =  -1297.99872894     A.U. after   13 cycles
             Convg  =    0.5381D-08             -V/T =  2.0065
 Range of M.O.s used for correlation:     1   685
 NBasis=   685 NAE=    91 NBE=    91 NFC=     0 NFV=     0
 NROrb=    685 NOA=    91 NOB=    91 NVA=   594 NVB=   594

 **** Warning!!: The largest alpha MO coefficient is  0.65955683D+02

          Differentiating once with respect to electric field.
                with respect to dipole field.
          Electric field/nuclear overlap derivatives assumed to be zero.
          There are     3 degrees of freedom in the 1st order CPHF.  IDoFFX=0.
      3 vectors produced by pass  0 Test12= 1.80D-12 3.33D-08 XBig12= 1.23D+02 1.02D+00.
 AX will form     3 AO Fock derivatives at one time.
      3 vectors produced by pass  1 Test12= 1.80D-12 3.33D-08 XBig12= 2.47D+01 4.42D-01.
      3 vectors produced by pass  2 Test12= 1.80D-12 3.33D-08 XBig12= 1.03D+01 2.49D-01.
      3 vectors produced by pass  3 Test12= 1.80D-12 3.33D-08 XBig12= 1.09D+00 8.92D-02.
      3 vectors produced by pass  4 Test12= 1.80D-12 3.33D-08 XBig12= 2.97D-01 4.95D-02.
      3 vectors produced by pass  5 Test12= 1.80D-12 3.33D-08 XBig12= 6.73D-02 2.55D-02.
      3 vectors produced by pass  6 Test12= 1.80D-12 3.33D-08 XBig12= 2.19D-02 1.55D-02.
      3 vectors produced by pass  7 Test12= 1.80D-12 3.33D-08 XBig12= 3.66D-03 8.98D-03.
      3 vectors produced by pass  8 Test12= 1.80D-12 3.33D-08 XBig12= 5.69D-04 2.87D-03.
      3 vectors produced by pass  9 Test12= 1.80D-12 3.33D-08 XBig12= 2.07D-04 1.70D-03.
      3 vectors produced by pass 10 Test12= 1.80D-12 3.33D-08 XBig12= 4.14D-05 6.65D-04.
      3 vectors produced by pass 11 Test12= 1.80D-12 3.33D-08 XBig12= 1.06D-05 4.44D-04.
      3 vectors produced by pass 12 Test12= 1.80D-12 3.33D-08 XBig12= 1.06D-06 1.15D-04.
      3 vectors produced by pass 13 Test12= 1.80D-12 3.33D-08 XBig12= 3.89D-07 5.14D-05.
      3 vectors produced by pass 14 Test12= 1.80D-12 3.33D-08 XBig12= 5.69D-08 2.20D-05.
      3 vectors produced by pass 15 Test12= 1.80D-12 3.33D-08 XBig12= 1.05D-08 9.06D-06.
      3 vectors produced by pass 16 Test12= 1.80D-12 3.33D-08 XBig12= 2.08D-09 5.34D-06.
      3 vectors produced by pass 17 Test12= 1.80D-12 3.33D-08 XBig12= 1.59D-10 1.03D-06.
      3 vectors produced by pass 18 Test12= 1.80D-12 3.33D-08 XBig12= 2.54D-11 3.11D-07.
      3 vectors produced by pass 19 Test12= 1.80D-12 3.33D-08 XBig12= 1.05D-11 1.93D-07.
      3 vectors produced by pass 20 Test12= 1.80D-12 3.33D-08 XBig12= 2.77D-12 1.51D-07.
      2 vectors produced by pass 21 Test12= 1.80D-12 3.33D-08 XBig12= 9.41D-13 7.34D-08.
 Inverted reduced A of dimension    65 with in-core refinement.
 End of Minotr Frequency-dependent properties file   721 does not exist.
 End of Minotr Frequency-dependent properties file   722 does not exist.
 Symmetrizing basis deriv contribution to polar:
 IMax=3 JMax=2 DiffMx= 0.00D+00
 G2DrvN: will do    16 centers at a time, making    3 passes doing MaxLOS=2.
 Calling FoFCou, ICntrl=  3107 FMM=F I1Cent=   0 AccDes= 0.00D+00.
 Calling FoFCou, ICntrl=  3107 FMM=F I1Cent=   0 AccDes= 0.00D+00.
 Calling FoFCou, ICntrl=  3107 FMM=F I1Cent=   0 AccDes= 0.00D+00.
 FoFDir/FoFCou used for L=0 through L=2.
 End of G2Drv Frequency-dependent properties file   721 does not exist.
 End of G2Drv Frequency-dependent properties file   722 does not exist.
          IDoAtm=111111111111111111111111111111111111111111111
          Differentiating once with respect to electric field.
                with respect to dipole field.
          Differentiating once with respect to nuclear coordinates.
          There are   138 degrees of freedom in the 1st order CPHF.  IDoFFX=5.
 Will reuse    3 saved solutions.
    135 vectors produced by pass  0 Test12= 5.41D-14 1.00D-09 XBig12= 1.59D-01 8.79D-02.
 AX will form    45 AO Fock derivatives at one time.
    135 vectors produced by pass  1 Test12= 5.41D-14 1.00D-09 XBig12= 1.86D-02 1.32D-02.
    132 vectors produced by pass  2 Test12= 5.41D-14 1.00D-09 XBig12= 1.06D-04 1.56D-03.
    132 vectors produced by pass  3 Test12= 5.41D-14 1.00D-09 XBig12= 4.75D-07 6.67D-05.
    132 vectors produced by pass  4 Test12= 5.41D-14 1.00D-09 XBig12= 1.01D-09 2.33D-06.
    132 vectors produced by pass  5 Test12= 5.41D-14 1.00D-09 XBig12= 2.95D-12 1.08D-07.
     82 vectors produced by pass  6 Test12= 5.41D-14 1.00D-09 XBig12= 1.11D-13 2.15D-08.
      1 vectors produced by pass  7 Test12= 5.41D-14 1.00D-09 XBig12= 2.18D-16 1.12D-09.
 Inverted reduced A of dimension   881 with in-core refinement.
 Isotropic polarizability for W=    0.000000      191.84 Bohr**3.
 End of Minotr Frequency-dependent properties file   721 does not exist.
 End of Minotr Frequency-dependent properties file   722 does not exist.

 **********************************************************************

            Population analysis using the SCF density.

 **********************************************************************

 Orbital symmetries:
       Occupied  (A) (A) (A) (A) (A) (A) (A) (A) (A) (A) (A) (A)
                 (A) (A) (A) (A) (A) (A) (A) (A) (A) (A) (A) (A)
                 (A) (A) (A) (A) (A) (A) (A) (A) (A) (A) (A) (A)
                 (A) (A) (A) (A) (A) (A) (A) (A) (A) (A) (A) (A)
                 (A) (A) (A) (A) (A) (A) (A) (A) (A) (A) (A) (A)
                 (A) (A) (A) (A) (A) (A) (A) (A) (A) (A) (A) (A)
                 (A) (A) (A) (A) (A) (A) (A) (A) (A) (A) (A) (A)
                 (A) (A) (A) (A) (A) (A) (A)
       Virtual   (A) (A) (A) (A) (A) (A) (A) (A) (A) (A) (A) (A)
                 (A) (A) (A) (A) (A) (A) (A) (A) (A) (A) (A) (A)
                 (A) (A) (A) (A) (A) (A) (A) (A) (A) (A) (A) (A)
                 (A) (A) (A) (A) (A) (A) (A) (A) (A) (A) (A) (A)
                 (A) (A) (A) (A) (A) (A) (A) (A) (A) (A) (A) (A)
                 (A) (A) (A) (A) (A) (A) (A) (A) (A) (A) (A) (A)
                 (A) (A) (A) (A) (A) (A) (A) (A) (A) (A) (A) (A)
                 (A) (A) (A) (A) (A) (A) (A) (A) (A) (A) (A) (A)
                 (A) (A) (A) (A) (A) (A) (A) (A) (A) (A) (A) (A)
                 (A) (A) (A) (A) (A) (A) (A) (A) (A) (A) (A) (A)
                 (A) (A) (A) (A) (A) (A) (A) (A) (A) (A) (A) (A)
                 (A) (A) (A) (A) (A) (A) (A) (A) (A) (A) (A) (A)
                 (A) (A) (A) (A) (A) (A) (A) (A) (A) (A) (A) (A)
                 (A) (A) (A) (A) (A) (A) (A) (A) (A) (A) (A) (A)
                 (A) (A) (A) (A) (A) (A) (A) (A) (A) (A) (A) (A)
                 (A) (A) (A) (A) (A) (A) (A) (A) (A) (A) (A) (A)
                 (A) (A) (A) (A) (A) (A) (A) (A) (A) (A) (A) (A)
                 (A) (A) (A) (A) (A) (A) (A) (A) (A) (A) (A) (A)
                 (A) (A) (A) (A) (A) (A) (A) (A) (A) (A) (A) (A)
                 (A) (A) (A) (A) (A) (A) (A) (A) (A) (A) (A) (A)
                 (A) (A) (A) (A) (A) (A) (A) (A) (A) (A) (A) (A)
                 (A) (A) (A) (A) (A) (A) (A) (A) (A) (A) (A) (A)
                 (A) (A) (A) (A) (A) (A) (A) (A) (A) (A) (A) (A)
                 (A) (A) (A) (A) (A) (A) (A) (A) (A) (A) (A) (A)
                 (A) (A) (A) (A) (A) (A) (A) (A) (A) (A) (A) (A)
                 (A) (A) (A) (A) (A) (A) (A) (A) (A) (A) (A) (A)
                 (A) (A) (A) (A) (A) (A) (A) (A) (A) (A) (A) (A)
                 (A) (A) (A) (A) (A) (A) (A) (A) (A) (A) (A) (A)
                 (A) (A) (A) (A) (A) (A) (A) (A) (A) (A) (A) (A)
                 (A) (A) (A) (A) (A) (A) (A) (A) (A) (A) (A) (A)
                 (A) (A) (A) (A) (A) (A) (A) (A) (A) (A) (A) (A)
                 (A) (A) (A) (A) (A) (A) (A) (A) (A) (A) (A) (A)
                 (A) (A) (A) (A) (A) (A) (A) (A) (A) (A) (A) (A)
                 (A) (A) (A) (A) (A) (A) (A) (A) (A) (A) (A) (A)
                 (A) (A) (A) (A) (A) (A) (A) (A) (A) (A) (A) (A)
                 (A) (A) (A) (A) (A) (A) (A) (A) (A) (A) (A) (A)
                 (A) (A) (A) (A) (A) (A) (A) (A) (A) (A) (A) (A)
                 (A) (A) (A) (A) (A) (A) (A) (A) (A) (A) (A) (A)
                 (A) (A) (A) (A) (A) (A) (A) (A) (A) (A) (A) (A)
                 (A) (A) (A) (A) (A) (A) (A) (A) (A) (A) (A) (A)
                 (A) (A) (A) (A) (A) (A) (A) (A) (A) (A) (A) (A)
                 (A) (A) (A) (A) (A) (A) (A) (A) (A) (A) (A) (A)
                 (A) (A) (A) (A) (A) (A) (A) (A) (A) (A) (A) (A)
                 (A) (A) (A) (A) (A) (A) (A) (A) (A) (A) (A) (A)
                 (A) (A) (A) (A) (A) (A) (A) (A) (A) (A) (A) (A)
                 (A) (A) (A) (A) (A) (A) (A) (A) (A) (A) (A) (A)
                 (A) (A) (A) (A) (A) (A) (A) (A) (A) (A) (A) (A)
                 (A) (A) (A) (A) (A) (A) (A) (A) (A) (A) (A) (A)
                 (A) (A) (A) (A) (A) (A) (A) (A) (A) (A) (A) (A)
                 (A) (A) (A) (A) (A) (A)
 The electronic state is 1-A.
 Alpha  occ. eigenvalues --  -19.19104 -19.18239 -19.18208 -19.18204 -19.17969
 Alpha  occ. eigenvalues --  -19.17184 -19.16397 -19.16272 -19.15338 -19.14187
 Alpha  occ. eigenvalues --  -19.13862 -10.30681 -10.30610 -10.26351 -10.26034
 Alpha  occ. eigenvalues --  -10.25769 -10.25331 -10.25202 -10.24701 -10.24645
 Alpha  occ. eigenvalues --  -10.24586 -10.24214 -10.24005  -1.10038  -1.09225
 Alpha  occ. eigenvalues --   -1.05935  -1.05323  -1.04072  -1.03650  -1.02767
 Alpha  occ. eigenvalues --   -1.02486  -1.02339  -1.00752  -1.00390  -0.82299
 Alpha  occ. eigenvalues --   -0.80403  -0.79662  -0.78534  -0.72077  -0.70047
 Alpha  occ. eigenvalues --   -0.67396  -0.65038  -0.63474  -0.62619  -0.61560
 Alpha  occ. eigenvalues --   -0.60303  -0.56669  -0.55833  -0.55116  -0.54834
 Alpha  occ. eigenvalues --   -0.54331  -0.53681  -0.53119  -0.51827  -0.51266
 Alpha  occ. eigenvalues --   -0.50643  -0.50230  -0.49362  -0.48857  -0.46618
 Alpha  occ. eigenvalues --   -0.46129  -0.45557  -0.44772  -0.43634  -0.43222
 Alpha  occ. eigenvalues --   -0.42694  -0.41847  -0.41534  -0.40132  -0.39463
 Alpha  occ. eigenvalues --   -0.38929  -0.38342  -0.37726  -0.36117  -0.35645
 Alpha  occ. eigenvalues --   -0.35531  -0.35044  -0.34758  -0.34281  -0.34235
 Alpha  occ. eigenvalues --   -0.32955  -0.31662  -0.31248  -0.30711  -0.30094
 Alpha  occ. eigenvalues --   -0.29273  -0.28847  -0.28009  -0.27930  -0.26777
 Alpha  occ. eigenvalues --   -0.26479
 Alpha virt. eigenvalues --   -0.02257  -0.01977  -0.01764  -0.00223   0.00373
 Alpha virt. eigenvalues --    0.00914   0.01881   0.02205   0.03219   0.03288
 Alpha virt. eigenvalues --    0.03826   0.04105   0.04662   0.05259   0.05532
 Alpha virt. eigenvalues --    0.06334   0.06493   0.07331   0.07705   0.07905
 Alpha virt. eigenvalues --    0.08313   0.08816   0.09146   0.09593   0.10020
 Alpha virt. eigenvalues --    0.10636   0.11086   0.11412   0.11653   0.11913
 Alpha virt. eigenvalues --    0.12337   0.12840   0.13334   0.13448   0.13542
 Alpha virt. eigenvalues --    0.13993   0.14219   0.14326   0.14682   0.14905
 Alpha virt. eigenvalues --    0.15542   0.16120   0.16618   0.16886   0.17110
 Alpha virt. eigenvalues --    0.17166   0.17470   0.17650   0.18075   0.18386
 Alpha virt. eigenvalues --    0.18638   0.18833   0.19096   0.19588   0.19843
 Alpha virt. eigenvalues --    0.20289   0.20786   0.21055   0.21295   0.21687
 Alpha virt. eigenvalues --    0.22062   0.22301   0.22744   0.22790   0.23176
 Alpha virt. eigenvalues --    0.23674   0.23830   0.24255   0.24349   0.24490
 Alpha virt. eigenvalues --    0.24838   0.25205   0.25466   0.25555   0.25707
 Alpha virt. eigenvalues --    0.26255   0.26432   0.26709   0.26881   0.27125
 Alpha virt. eigenvalues --    0.27337   0.27844   0.28052   0.28252   0.28509
 Alpha virt. eigenvalues --    0.28883   0.29023   0.29558   0.29786   0.30447
 Alpha virt. eigenvalues --    0.30891   0.31098   0.31525   0.31659   0.32059
 Alpha virt. eigenvalues --    0.32520   0.32720   0.33216   0.33484   0.33757
 Alpha virt. eigenvalues --    0.33809   0.34571   0.34825   0.35349   0.35565
 Alpha virt. eigenvalues --    0.35754   0.36134   0.36586   0.36908   0.37252
 Alpha virt. eigenvalues --    0.37645   0.38155   0.38324   0.38878   0.39428
 Alpha virt. eigenvalues --    0.39651   0.40064   0.40689   0.41020   0.41122
 Alpha virt. eigenvalues --    0.41665   0.42527   0.42924   0.43230   0.43440
 Alpha virt. eigenvalues --    0.43798   0.44879   0.45695   0.45866   0.46630
 Alpha virt. eigenvalues --    0.47017   0.47627   0.47710   0.49003   0.49919
 Alpha virt. eigenvalues --    0.50225   0.51582   0.54209   0.56384   0.59241
 Alpha virt. eigenvalues --    0.59559   0.59614   0.60467   0.60942   0.61812
 Alpha virt. eigenvalues --    0.62380   0.63902   0.64554   0.66216   0.66657
 Alpha virt. eigenvalues --    0.66870   0.67715   0.67893   0.69170   0.70041
 Alpha virt. eigenvalues --    0.70496   0.71842   0.72100   0.73150   0.74154
 Alpha virt. eigenvalues --    0.75049   0.75283   0.76227   0.76764   0.77340
 Alpha virt. eigenvalues --    0.78558   0.78898   0.79335   0.80343   0.81073
 Alpha virt. eigenvalues --    0.82491   0.83119   0.84752   0.84924   0.85913
 Alpha virt. eigenvalues --    0.86178   0.87745   0.88788   0.88939   0.89226
 Alpha virt. eigenvalues --    0.90416   0.90574   0.90969   0.91476   0.91918
 Alpha virt. eigenvalues --    0.92472   0.92801   0.93083   0.93265   0.94082
 Alpha virt. eigenvalues --    0.94613   0.95001   0.95424   0.96147   0.96536
 Alpha virt. eigenvalues --    0.96558   0.97199   0.97474   0.98212   0.99169
 Alpha virt. eigenvalues --    0.99499   0.99769   1.00861   1.01077   1.02691
 Alpha virt. eigenvalues --    1.03453   1.03894   1.04253   1.04827   1.05828
 Alpha virt. eigenvalues --    1.06543   1.07295   1.07455   1.08638   1.09169
 Alpha virt. eigenvalues --    1.09356   1.09679   1.10794   1.11139   1.11266
 Alpha virt. eigenvalues --    1.11687   1.13045   1.13800   1.14541   1.14721
 Alpha virt. eigenvalues --    1.15126   1.15517   1.15911   1.16657   1.17024
 Alpha virt. eigenvalues --    1.17450   1.17845   1.18458   1.18772   1.19308
 Alpha virt. eigenvalues --    1.20146   1.20908   1.21619   1.22025   1.22649
 Alpha virt. eigenvalues --    1.23242   1.23470   1.24454   1.24774   1.25217
 Alpha virt. eigenvalues --    1.25286   1.26128   1.27058   1.27750   1.28029
 Alpha virt. eigenvalues --    1.28726   1.28936   1.29860   1.31060   1.31860
 Alpha virt. eigenvalues --    1.32518   1.33013   1.33565   1.33734   1.34237
 Alpha virt. eigenvalues --    1.35164   1.35757   1.36091   1.36561   1.37757
 Alpha virt. eigenvalues --    1.38124   1.38548   1.39060   1.39671   1.40210
 Alpha virt. eigenvalues --    1.41038   1.42136   1.42874   1.43512   1.44037
 Alpha virt. eigenvalues --    1.44796   1.45272   1.46028   1.46882   1.47323
 Alpha virt. eigenvalues --    1.47815   1.48417   1.49240   1.50165   1.51236
 Alpha virt. eigenvalues --    1.52157   1.53318   1.54441   1.55026   1.56495
 Alpha virt. eigenvalues --    1.57307   1.58399   1.58793   1.59172   1.60140
 Alpha virt. eigenvalues --    1.61222   1.62274   1.62835   1.63793   1.64957
 Alpha virt. eigenvalues --    1.66208   1.66608   1.67806   1.68638   1.69423
 Alpha virt. eigenvalues --    1.70520   1.71024   1.71827   1.72062   1.73174
 Alpha virt. eigenvalues --    1.75053   1.75676   1.77098   1.77409   1.77691
 Alpha virt. eigenvalues --    1.78810   1.79677   1.81606   1.82761   1.83447
 Alpha virt. eigenvalues --    1.84778   1.85703   1.86528   1.88735   1.88931
 Alpha virt. eigenvalues --    1.89407   1.90096   1.90769   1.92011   1.93237
 Alpha virt. eigenvalues --    1.93978   1.94985   1.95211   1.97369   1.98239
 Alpha virt. eigenvalues --    1.99361   2.00468   2.01112   2.03797   2.04226
 Alpha virt. eigenvalues --    2.05065   2.06586   2.07893   2.09171   2.09523
 Alpha virt. eigenvalues --    2.11368   2.12684   2.15638   2.16475   2.17410
 Alpha virt. eigenvalues --    2.19813   2.20531   2.22642   2.23153   2.24412
 Alpha virt. eigenvalues --    2.26862   2.27701   2.28737   2.29253   2.30790
 Alpha virt. eigenvalues --    2.32942   2.33954   2.36660   2.37290   2.38100
 Alpha virt. eigenvalues --    2.39702   2.40455   2.43299   2.48144   2.50473
 Alpha virt. eigenvalues --    2.52712   2.53006   2.54399   2.56361   2.57494
 Alpha virt. eigenvalues --    2.57819   2.61124   2.65480   2.66837   2.67891
 Alpha virt. eigenvalues --    2.68661   2.68896   2.69619   2.71526   2.72716
 Alpha virt. eigenvalues --    2.73355   2.74953   2.76552   2.77835   2.78917
 Alpha virt. eigenvalues --    2.80777   2.81810   2.82304   2.83359   2.86005
 Alpha virt. eigenvalues --    2.86116   2.89727   2.91136   2.91537   2.93009
 Alpha virt. eigenvalues --    2.93647   2.94853   2.95711   2.97128   2.97758
 Alpha virt. eigenvalues --    2.97951   2.98282   2.98961   2.99901   3.00642
 Alpha virt. eigenvalues --    3.01206   3.02524   3.03379   3.04065   3.04164
 Alpha virt. eigenvalues --    3.04534   3.05980   3.06862   3.07553   3.08159
 Alpha virt. eigenvalues --    3.08404   3.09100   3.10114   3.11600   3.13782
 Alpha virt. eigenvalues --    3.15424   3.16387   3.19900   3.21465   3.22875
 Alpha virt. eigenvalues --    3.24307   3.25259   3.32154   3.73278   3.76334
 Alpha virt. eigenvalues --    3.95378   4.04024   4.07174   4.08328   4.10604
 Alpha virt. eigenvalues --    4.12534   4.13731   4.14289   4.15852   4.16872
 Alpha virt. eigenvalues --    4.17484   4.18126   4.19786   4.21336   4.23534
 Alpha virt. eigenvalues --    4.23898   4.24650   4.24838   4.26222   4.26733
 Alpha virt. eigenvalues --    4.27146   4.27479   4.27869   4.29333   4.30064
 Alpha virt. eigenvalues --    4.30634   4.31384   4.31689   4.32277   4.32870
 Alpha virt. eigenvalues --    4.33160   4.34241   4.34513   4.35264   4.35385
 Alpha virt. eigenvalues --    4.35698   4.36470   4.37318   4.37732   4.38543
 Alpha virt. eigenvalues --    4.39334   4.39841   4.40442   4.41802   4.43048
 Alpha virt. eigenvalues --    4.43957   4.45241   4.45448   4.48431   4.50257
 Alpha virt. eigenvalues --    4.51508   4.52148   4.53806   4.54743   4.55310
 Alpha virt. eigenvalues --    4.56004   4.56686   4.58477   4.59489   4.59610
 Alpha virt. eigenvalues --    4.61189   4.61898   4.62361   4.63415   4.63505
 Alpha virt. eigenvalues --    4.64753   4.64945   4.65797   4.66793   4.66980
 Alpha virt. eigenvalues --    4.68011   4.69257   4.69646   4.70175   4.70369
 Alpha virt. eigenvalues --    4.71353   4.71527   4.72909   4.73378   4.74123
 Alpha virt. eigenvalues --    4.74453   4.74614   4.75279   4.75548   4.76156
 Alpha virt. eigenvalues --    4.76951   4.77610   4.77789   4.79915   4.80365
 Alpha virt. eigenvalues --    4.80796   4.82005   4.82897   4.84488   4.85759
 Alpha virt. eigenvalues --    4.87204   4.87676   4.88012   4.89825   4.90785
 Alpha virt. eigenvalues --    4.91844   4.93662   4.94667   4.96094   4.97237
 Alpha virt. eigenvalues --    4.97555   4.99603   5.00854   5.01940   5.04495
 Alpha virt. eigenvalues --    5.05748   5.08567   5.09878   5.11241   5.12903
 Alpha virt. eigenvalues --    5.21071   5.24819   5.26905   5.28586   5.37805
 Alpha virt. eigenvalues --    5.42104   5.73423   5.98221   6.19488   6.54821
 Alpha virt. eigenvalues --    6.73558   6.74693   6.75916   6.78878   6.81399
 Alpha virt. eigenvalues --    6.86070   6.90445   6.91717   6.93680   7.02628
 Alpha virt. eigenvalues --    7.07196  11.83306  11.93289  12.08473  12.16366
 Alpha virt. eigenvalues --   12.28577  12.36813  12.65134  12.75302  12.81741
 Alpha virt. eigenvalues --   12.99832  13.15340  13.18414  13.22854  13.26484
 Alpha virt. eigenvalues --   13.27595  13.31267  13.37654  13.41171  13.45555
 Alpha virt. eigenvalues --   13.47314  13.57500  13.72651  13.87079
          Condensed to atoms (all electrons):
              1          2          3          4          5          6
     1  O    8.166517   0.277248  -0.065825  -0.017130   0.016801   0.008873
     2  C    0.277248   6.900236  -0.420646   0.061208  -0.057374  -1.389108
     3  C   -0.065825  -0.420646   6.157659   0.130572   0.027836   0.369763
     4  O   -0.017130   0.061208   0.130572   8.210837   0.231824  -0.067489
     5  H    0.016801  -0.057374   0.027836   0.231824   0.430311  -0.001949
     6  C    0.008873  -1.389108   0.369763  -0.067489  -0.001949   8.957053
     7  O   -0.000285   0.008963  -0.071641   0.004120  -0.000162   0.200015
     8  H    0.000004  -0.004562   0.008914  -0.000445   0.000015   0.056243
     9  C   -0.003850   0.021749  -0.438748   0.009437  -0.002681   0.318650
    10  O   -0.012174   0.034954   0.015664  -0.000093  -0.000033  -0.003169
    11  H    0.002395  -0.013003  -0.001174   0.000001   0.000000   0.000798
    12  C   -0.118042  -0.701508   0.432165  -0.000246   0.005674   0.248675
    13  O    0.000817  -0.025415  -0.082621  -0.001578  -0.000105   0.030196
    14  C    0.015144   0.782224  -0.258802   0.010856   0.010843  -2.204526
    15  O   -0.000030   0.009333   0.000813   0.000449  -0.000008  -0.031361
    16  C    0.002094   0.133384  -0.041251  -0.003438   0.000679  -0.447764
    17  C   -0.000252  -0.023968   0.022383   0.000478   0.000017   0.037993
    18  O    0.000032   0.007166  -0.003786  -0.000009   0.000000  -0.000864
    19  H   -0.000042  -0.007215   0.007819  -0.000004   0.000000   0.011814
    20  C    0.000050   0.006925  -0.005239  -0.000026   0.000001   0.045146
    21  O    0.000000   0.000022  -0.000017   0.000000   0.000000  -0.000387
    22  H    0.000000   0.000000   0.000001   0.000000   0.000000  -0.000039
    23  C    0.000049   0.018235  -0.008783   0.000072  -0.000006  -0.119313
    24  O    0.000002  -0.000941  -0.015896  -0.000010  -0.000001   0.014481
    25  H    0.000000   0.000011   0.001721   0.000002   0.000000  -0.000118
    26  C   -0.000048  -0.023258  -0.008224   0.000005   0.000007  -0.069694
    27  O    0.000000   0.000051   0.000281   0.000001   0.000000   0.001407
    28  C    0.000002   0.000216   0.000042   0.000010   0.000000  -0.016694
    29  O    0.000000   0.000005   0.000015   0.000000   0.000000  -0.000320
    30  H    0.000000   0.000000   0.000000   0.000000   0.000000   0.000004
    31  H    0.000000   0.000008   0.000002   0.000000   0.000000  -0.000242
    32  H    0.000000   0.000144  -0.000001   0.000000   0.000000   0.000439
    33  H    0.000000  -0.000194   0.000478   0.000000   0.000000   0.011398
    34  H   -0.000001  -0.003254   0.003938   0.000002   0.000000   0.020396
    35  H    0.000000  -0.000086   0.000327   0.000000   0.000000  -0.006504
    36  H    0.000000  -0.000005  -0.000070   0.000000   0.000000   0.001717
    37  H    0.000000   0.000140   0.000476  -0.000001   0.000000  -0.006195
    38  H    0.268062   0.023036  -0.006125   0.000919  -0.001585   0.001920
    39  H   -0.000057  -0.010787   0.005245   0.000005   0.000000  -0.000651
    40  H    0.004848   0.121883  -0.089997   0.000620   0.000004  -0.019730
    41  H   -0.021534   0.415597  -0.109699   0.002799  -0.000403  -0.011622
    42  H    0.000621   0.009693  -0.019914   0.000005   0.000000   0.014232
    43  H   -0.002157   0.055346   0.281088  -0.025634  -0.001627  -0.221453
    44  H   -0.000117   0.016049  -0.095926   0.003786  -0.000193   0.347928
    45  H    0.000035  -0.009086  -0.027537   0.000031   0.000000   0.014503
              7          8          9         10         11         12
     1  O   -0.000285   0.000004  -0.003850  -0.012174   0.002395  -0.118042
     2  C    0.008963  -0.004562   0.021749   0.034954  -0.013003  -0.701508
     3  C   -0.071641   0.008914  -0.438748   0.015664  -0.001174   0.432165
     4  O    0.004120  -0.000445   0.009437  -0.000093   0.000001  -0.000246
     5  H   -0.000162   0.000015  -0.002681  -0.000033   0.000000   0.005674
     6  C    0.200015   0.056243   0.318650  -0.003169   0.000798   0.248675
     7  O    8.224169   0.248510   0.001703  -0.000003   0.000000   0.012343
     8  H    0.248510   0.364815  -0.000065   0.000000   0.000000  -0.002797
     9  C    0.001703  -0.000065   7.488283   0.106275   0.005531  -1.654279
    10  O   -0.000003   0.000000   0.106275   8.268211   0.232586  -0.027606
    11  H    0.000000   0.000000   0.005531   0.232586   0.437876   0.012294
    12  C    0.012343  -0.002797  -1.654279  -0.027606   0.012294   8.917804
    13  O    0.002560  -0.000836  -0.009702  -0.003040  -0.000496   0.025186
    14  C   -0.040421  -0.073565  -0.586155   0.002554  -0.002922  -0.868524
    15  O    0.015171   0.001818  -0.011309   0.000019   0.000000  -0.023377
    16  C    0.018466   0.015475  -0.120997  -0.000533  -0.000297  -0.168053
    17  C   -0.004261   0.001897  -0.000200   0.000275  -0.000028  -0.104616
    18  O    0.000133  -0.000015   0.000402  -0.000124  -0.000016  -0.006011
    19  H   -0.000167   0.000000  -0.003185  -0.000002  -0.000001  -0.006346
    20  C    0.002610   0.000114   0.001815   0.000028   0.000011  -0.012752
    21  O   -0.000001   0.000000   0.000116   0.000000   0.000000  -0.000023
    22  H    0.000000   0.000000  -0.000004   0.000000   0.000000   0.000011
    23  C    0.048461  -0.014767   0.000735  -0.000001   0.000000  -0.011999
    24  O   -0.055381   0.016461   0.000111   0.000000   0.000000   0.003105
    25  H    0.001444  -0.002476  -0.000023   0.000000   0.000000  -0.000352
    26  C   -0.052327   0.004774  -0.000693  -0.000025  -0.000003   0.038358
    27  O    0.000150  -0.000053   0.000018   0.000000   0.000000  -0.000007
    28  C   -0.000267   0.000140  -0.001251   0.000002   0.000000   0.000134
    29  O   -0.000002   0.000000  -0.000011   0.000000   0.000000   0.000048
    30  H    0.000000   0.000000   0.000000   0.000000   0.000000  -0.000001
    31  H    0.000001   0.000000  -0.000004   0.000000   0.000000   0.000033
    32  H    0.000003   0.000000  -0.000170   0.000000   0.000000   0.000283
    33  H   -0.000007   0.000000  -0.000279   0.000000   0.000000  -0.000909
    34  H   -0.001629   0.000015  -0.000125   0.000000   0.000000   0.002108
    35  H   -0.000013  -0.000027   0.000045   0.000000   0.000000   0.000697
    36  H   -0.000648   0.000312   0.000001   0.000000   0.000000   0.000046
    37  H    0.002736  -0.000549   0.000008   0.000000   0.000000  -0.000038
    38  H   -0.000008   0.000000   0.007607  -0.000032  -0.000069  -0.030408
    39  H   -0.000015   0.000000   0.405803  -0.014208  -0.015360  -0.030112
    40  H    0.000164   0.000002   0.075785   0.001945  -0.000258   0.007115
    41  H    0.001062   0.000003  -0.012815  -0.001428  -0.000008  -0.110167
    42  H    0.000013   0.000000   0.657510  -0.060750   0.002333  -0.295874
    43  H    0.009410  -0.000171   0.015198  -0.000138   0.000000   0.027412
    44  H   -0.018213  -0.007933   0.015859   0.000012   0.000000   0.066067
    45  H    0.001424  -0.000301   0.017267   0.000052   0.000000   0.057785
             13         14         15         16         17         18
     1  O    0.000817   0.015144  -0.000030   0.002094  -0.000252   0.000032
     2  C   -0.025415   0.782224   0.009333   0.133384  -0.023968   0.007166
     3  C   -0.082621  -0.258802   0.000813  -0.041251   0.022383  -0.003786
     4  O   -0.001578   0.010856   0.000449  -0.003438   0.000478  -0.000009
     5  H   -0.000105   0.010843  -0.000008   0.000679   0.000017   0.000000
     6  C    0.030196  -2.204526  -0.031361  -0.447764   0.037993  -0.000864
     7  O    0.002560  -0.040421   0.015171   0.018466  -0.004261   0.000133
     8  H   -0.000836  -0.073565   0.001818   0.015475   0.001897  -0.000015
     9  C   -0.009702  -0.586155  -0.011309  -0.120997  -0.000200   0.000402
    10  O   -0.003040   0.002554   0.000019  -0.000533   0.000275  -0.000124
    11  H   -0.000496  -0.002922   0.000000  -0.000297  -0.000028  -0.000016
    12  C    0.025186  -0.868524  -0.023377  -0.168053  -0.104616  -0.006011
    13  O    8.191390   0.195496  -0.006070  -0.034325   0.034932  -0.022724
    14  C    0.195496   9.596313   0.145533  -0.640233  -0.060945  -0.000903
    15  O   -0.006070   0.145533   8.026913   0.232038  -0.012915   0.001517
    16  C   -0.034325  -0.640233   0.232038  10.894373  -1.919246   0.067704
    17  C    0.034932  -0.060945  -0.012915  -1.919246   7.841086   0.164988
    18  O   -0.022724  -0.000903   0.001517   0.067704   0.164988   8.257595
    19  H    0.026266   0.023576   0.009457  -0.063685   0.035349   0.221955
    20  C   -0.007054  -0.249807   0.019319  -0.630360   0.215373  -0.084242
    21  O   -0.000003   0.001180   0.000179   0.042355  -0.146691   0.012155
    22  H    0.000003  -0.000810  -0.000018  -0.017565   0.018916  -0.000548
    23  C    0.001943  -0.065206   0.014966   0.310964  -0.341991   0.012116
    24  O    0.000072   0.116205  -0.037154   0.030586  -0.005528   0.000131
    25  H   -0.000013  -0.013038   0.003124  -0.021110  -0.000026  -0.000002
    26  C   -0.011357  -0.489530  -0.084988  -2.498501   0.110964   0.006436
    27  O    0.000261   0.002722   0.001590   0.027453  -0.024117  -0.001121
    28  C    0.002761  -0.038033   0.009482   0.524066  -0.182533  -0.016453
    29  O    0.000028  -0.001545  -0.000108  -0.023850  -0.021565   0.000041
    30  H    0.000000   0.000048  -0.000002  -0.000634   0.011198  -0.000009
    31  H    0.000025  -0.001805   0.000417   0.017897  -0.038363   0.000544
    32  H    0.000138  -0.017172   0.000186   0.063745  -0.213091   0.007984
    33  H   -0.002654   0.027030  -0.008933  -0.133965   0.341613  -0.038304
    34  H   -0.001960  -0.026417  -0.038488   0.109311   0.033987  -0.003069
    35  H   -0.000101   0.041339  -0.001208  -0.027024  -0.045707  -0.000005
    36  H    0.000021   0.007297   0.000264   0.032081   0.003640   0.000010
    37  H   -0.000045  -0.003153   0.003196   0.071610  -0.003855   0.000033
    38  H   -0.000512  -0.002856   0.000000   0.000092  -0.000042   0.000000
    39  H   -0.002697  -0.011474  -0.000215   0.003695   0.000156   0.000034
    40  H   -0.026674   0.156694  -0.000973   0.010258   0.004151   0.000202
    41  H    0.006548   0.094832  -0.000313  -0.002704   0.000885   0.000038
    42  H   -0.005258   0.002329  -0.000465  -0.003603   0.001877  -0.000012
    43  H    0.005088   0.098776  -0.000008  -0.008827   0.001392   0.000034
    44  H    0.010314  -0.041128  -0.010362  -0.032062   0.000614   0.000122
    45  H   -0.031635   0.258217  -0.042489   0.000840  -0.002073   0.000687
             19         20         21         22         23         24
     1  O   -0.000042   0.000050   0.000000   0.000000   0.000049   0.000002
     2  C   -0.007215   0.006925   0.000022   0.000000   0.018235  -0.000941
     3  C    0.007819  -0.005239  -0.000017   0.000001  -0.008783  -0.015896
     4  O   -0.000004  -0.000026   0.000000   0.000000   0.000072  -0.000010
     5  H    0.000000   0.000001   0.000000   0.000000  -0.000006  -0.000001
     6  C    0.011814   0.045146  -0.000387  -0.000039  -0.119313   0.014481
     7  O   -0.000167   0.002610  -0.000001   0.000000   0.048461  -0.055381
     8  H    0.000000   0.000114   0.000000   0.000000  -0.014767   0.016461
     9  C   -0.003185   0.001815   0.000116  -0.000004   0.000735   0.000111
    10  O   -0.000002   0.000028   0.000000   0.000000  -0.000001   0.000000
    11  H   -0.000001   0.000011   0.000000   0.000000   0.000000   0.000000
    12  C   -0.006346  -0.012752  -0.000023   0.000011  -0.011999   0.003105
    13  O    0.026266  -0.007054  -0.000003   0.000003   0.001943   0.000072
    14  C    0.023576  -0.249807   0.001180  -0.000810  -0.065206   0.116205
    15  O    0.009457   0.019319   0.000179  -0.000018   0.014966  -0.037154
    16  C   -0.063685  -0.630360   0.042355  -0.017565   0.310964   0.030586
    17  C    0.035349   0.215373  -0.146691   0.018916  -0.341991  -0.005528
    18  O    0.221955  -0.084242   0.012155  -0.000548   0.012116   0.000131
    19  H    0.374427  -0.012355  -0.000588   0.000011  -0.003267  -0.000040
    20  C   -0.012355   6.251503   0.200710  -0.009614   0.085425  -0.007330
    21  O   -0.000588   0.200710   8.209671   0.232777   0.000943   0.000017
    22  H    0.000011  -0.009614   0.232777   0.432964  -0.000021   0.000000
    23  C   -0.003267   0.085425   0.000943  -0.000021   6.602056  -0.107843
    24  O   -0.000040  -0.007330   0.000017   0.000000  -0.107843   8.363745
    25  H    0.000000   0.000983   0.000000   0.000000  -0.005058   0.233475
    26  C   -0.003640   0.266511   0.004589   0.006677  -1.033135   0.056140
    27  O   -0.000089  -0.061713   0.002893  -0.000368  -0.064502   0.003484
    28  C    0.002394  -0.299672   0.022092  -0.009522  -0.132244   0.009240
    29  O    0.000000  -0.004553  -0.009242   0.017886   0.005398   0.000013
    30  H    0.000000  -0.036331   0.000239  -0.002209  -0.000669  -0.000001
    31  H   -0.000005  -0.096383   0.001876   0.000273   0.002583   0.000052
    32  H   -0.000185   0.362938  -0.032516  -0.003822   0.009931   0.000016
    33  H    0.002768  -0.007267  -0.003290  -0.000239   0.016371  -0.000042
    34  H    0.000906   0.047343  -0.000501   0.000003  -0.008000   0.000626
    35  H    0.000027  -0.019769   0.000135   0.000002   0.055259   0.003003
    36  H    0.000000  -0.001574  -0.000004   0.000000   0.373253  -0.018620
    37  H    0.000000  -0.000302   0.000001   0.000000   0.585905  -0.054686
    38  H    0.000000   0.000001   0.000000   0.000000   0.000001   0.000000
    39  H    0.000670  -0.000544   0.000001   0.000000  -0.000003   0.000000
    40  H   -0.000415   0.000475  -0.000001   0.000000   0.000316   0.000002
    41  H   -0.000013  -0.000002   0.000000   0.000000   0.000057   0.000011
    42  H   -0.000003   0.000087   0.000000   0.000000  -0.000004   0.000000
    43  H   -0.000002  -0.000062   0.000000   0.000000   0.000300   0.000048
    44  H   -0.000021   0.000179   0.000000   0.000000   0.002329   0.001242
    45  H   -0.001740   0.009615   0.000009   0.000000   0.005019   0.000302
             25         26         27         28         29         30
     1  O    0.000000  -0.000048   0.000000   0.000002   0.000000   0.000000
     2  C    0.000011  -0.023258   0.000051   0.000216   0.000005   0.000000
     3  C    0.001721  -0.008224   0.000281   0.000042   0.000015   0.000000
     4  O    0.000002   0.000005   0.000001   0.000010   0.000000   0.000000
     5  H    0.000000   0.000007   0.000000   0.000000   0.000000   0.000000
     6  C   -0.000118  -0.069694   0.001407  -0.016694  -0.000320   0.000004
     7  O    0.001444  -0.052327   0.000150  -0.000267  -0.000002   0.000000
     8  H   -0.002476   0.004774  -0.000053   0.000140   0.000000   0.000000
     9  C   -0.000023  -0.000693   0.000018  -0.001251  -0.000011   0.000000
    10  O    0.000000  -0.000025   0.000000   0.000002   0.000000   0.000000
    11  H    0.000000  -0.000003   0.000000   0.000000   0.000000   0.000000
    12  C   -0.000352   0.038358  -0.000007   0.000134   0.000048  -0.000001
    13  O   -0.000013  -0.011357   0.000261   0.002761   0.000028   0.000000
    14  C   -0.013038  -0.489530   0.002722  -0.038033  -0.001545   0.000048
    15  O    0.003124  -0.084988   0.001590   0.009482  -0.000108  -0.000002
    16  C   -0.021110  -2.498501   0.027453   0.524066  -0.023850  -0.000634
    17  C   -0.000026   0.110964  -0.024117  -0.182533  -0.021565   0.011198
    18  O   -0.000002   0.006436  -0.001121  -0.016453   0.000041  -0.000009
    19  H    0.000000  -0.003640  -0.000089   0.002394   0.000000   0.000000
    20  C    0.000983   0.266511  -0.061713  -0.299672  -0.004553  -0.036331
    21  O    0.000000   0.004589   0.002893   0.022092  -0.009242   0.000239
    22  H    0.000000   0.006677  -0.000368  -0.009522   0.017886  -0.002209
    23  C   -0.005058  -1.033135  -0.064502  -0.132244   0.005398  -0.000669
    24  O    0.233475   0.056140   0.003484   0.009240   0.000013  -0.000001
    25  H    0.419034   0.036184  -0.000776  -0.001264  -0.000002   0.000000
    26  C    0.036184  10.204536   0.117929  -0.551631  -0.014331   0.001603
    27  O   -0.000776   0.117929   8.144509   0.198210  -0.038885   0.003808
    28  C   -0.001264  -0.551631   0.198210   5.600792   0.246411   0.012087
    29  O   -0.000002  -0.014331  -0.038885   0.246411   8.152732   0.262143
    30  H    0.000000   0.001603   0.003808   0.012087   0.262143   0.422052
    31  H    0.000000   0.024916  -0.044762   0.424861  -0.021640  -0.009332
    32  H    0.000000   0.035086   0.000037   0.032648  -0.001444   0.000111
    33  H    0.000000   0.064188  -0.000663  -0.050836   0.000522   0.000022
    34  H   -0.000016   0.101197   0.004210  -0.006442  -0.000460   0.000003
    35  H   -0.000314   0.228564  -0.027726   0.048405  -0.000818   0.000016
    36  H   -0.011780  -0.051241  -0.002433   0.001242  -0.000078   0.000000
    37  H   -0.000293  -0.289588   0.002940   0.004661  -0.000093   0.000000
    38  H    0.000000  -0.000002   0.000000   0.000000   0.000000   0.000000
    39  H    0.000000   0.000321   0.000000   0.000055   0.000000   0.000000
    40  H    0.000000  -0.000915   0.000001   0.000025   0.000000   0.000000
    41  H    0.000000  -0.000308   0.000000  -0.000001   0.000000   0.000000
    42  H    0.000000  -0.000164   0.000000  -0.000002   0.000000   0.000000
    43  H    0.000000  -0.000681   0.000000  -0.000008   0.000000   0.000000
    44  H    0.000003  -0.004959   0.000000  -0.000024   0.000000   0.000000
    45  H    0.000012   0.009612   0.000286  -0.000580  -0.000001   0.000000
             31         32         33         34         35         36
     1  O    0.000000   0.000000   0.000000  -0.000001   0.000000   0.000000
     2  C    0.000008   0.000144  -0.000194  -0.003254  -0.000086  -0.000005
     3  C    0.000002  -0.000001   0.000478   0.003938   0.000327  -0.000070
     4  O    0.000000   0.000000   0.000000   0.000002   0.000000   0.000000
     5  H    0.000000   0.000000   0.000000   0.000000   0.000000   0.000000
     6  C   -0.000242   0.000439   0.011398   0.020396  -0.006504   0.001717
     7  O    0.000001   0.000003  -0.000007  -0.001629  -0.000013  -0.000648
     8  H    0.000000   0.000000   0.000000   0.000015  -0.000027   0.000312
     9  C   -0.000004  -0.000170  -0.000279  -0.000125   0.000045   0.000001
    10  O    0.000000   0.000000   0.000000   0.000000   0.000000   0.000000
    11  H    0.000000   0.000000   0.000000   0.000000   0.000000   0.000000
    12  C    0.000033   0.000283  -0.000909   0.002108   0.000697   0.000046
    13  O    0.000025   0.000138  -0.002654  -0.001960  -0.000101   0.000021
    14  C   -0.001805  -0.017172   0.027030  -0.026417   0.041339   0.007297
    15  O    0.000417   0.000186  -0.008933  -0.038488  -0.001208   0.000264
    16  C    0.017897   0.063745  -0.133965   0.109311  -0.027024   0.032081
    17  C   -0.038363  -0.213091   0.341613   0.033987  -0.045707   0.003640
    18  O    0.000544   0.007984  -0.038304  -0.003069  -0.000005   0.000010
    19  H   -0.000005  -0.000185   0.002768   0.000906   0.000027   0.000000
    20  C   -0.096383   0.362938  -0.007267   0.047343  -0.019769  -0.001574
    21  O    0.001876  -0.032516  -0.003290  -0.000501   0.000135  -0.000004
    22  H    0.000273  -0.003822  -0.000239   0.000003   0.000002   0.000000
    23  C    0.002583   0.009931   0.016371  -0.008000   0.055259   0.373253
    24  O    0.000052   0.000016  -0.000042   0.000626   0.003003  -0.018620
    25  H    0.000000   0.000000   0.000000  -0.000016  -0.000314  -0.011780
    26  C    0.024916   0.035086   0.064188   0.101197   0.228564  -0.051241
    27  O   -0.044762   0.000037  -0.000663   0.004210  -0.027726  -0.002433
    28  C    0.424861   0.032648  -0.050836  -0.006442   0.048405   0.001242
    29  O   -0.021640  -0.001444   0.000522  -0.000460  -0.000818  -0.000078
    30  H   -0.009332   0.000111   0.000022   0.000003   0.000016   0.000000
    31  H    0.597282   0.005527   0.002803  -0.000018   0.003593  -0.000019
    32  H    0.005527   0.614570   0.007538   0.002402  -0.000029   0.000000
    33  H    0.002803   0.007538   0.655704   0.007788   0.002990   0.000000
    34  H   -0.000018   0.002402   0.007788   0.632832   0.006480   0.000022
    35  H    0.003593  -0.000029   0.002990   0.006480   0.612262  -0.004643
    36  H   -0.000019   0.000000   0.000000   0.000022  -0.004643   0.564685
    37  H   -0.000007  -0.000012  -0.000006   0.002742   0.005808  -0.042961
    38  H    0.000000   0.000000   0.000000   0.000000   0.000000   0.000000
    39  H    0.000000   0.000000   0.000000   0.000000   0.000000   0.000000
    40  H    0.000000   0.000000  -0.000001  -0.000012   0.000000   0.000000
    41  H    0.000000   0.000000   0.000000   0.000000   0.000000   0.000000
    42  H    0.000000   0.000000   0.000000   0.000000   0.000000   0.000000
    43  H    0.000000   0.000000   0.000000  -0.000001   0.000000   0.000000
    44  H    0.000000   0.000000  -0.000003   0.000002   0.000001   0.000000
    45  H    0.000000  -0.000005  -0.000026   0.009118  -0.000002   0.000000
             37         38         39         40         41         42
     1  O    0.000000   0.268062  -0.000057   0.004848  -0.021534   0.000621
     2  C    0.000140   0.023036  -0.010787   0.121883   0.415597   0.009693
     3  C    0.000476  -0.006125   0.005245  -0.089997  -0.109699  -0.019914
     4  O   -0.000001   0.000919   0.000005   0.000620   0.002799   0.000005
     5  H    0.000000  -0.001585   0.000000   0.000004  -0.000403   0.000000
     6  C   -0.006195   0.001920  -0.000651  -0.019730  -0.011622   0.014232
     7  O    0.002736  -0.000008  -0.000015   0.000164   0.001062   0.000013
     8  H   -0.000549   0.000000   0.000000   0.000002   0.000003   0.000000
     9  C    0.000008   0.007607   0.405803   0.075785  -0.012815   0.657510
    10  O    0.000000  -0.000032  -0.014208   0.001945  -0.001428  -0.060750
    11  H    0.000000  -0.000069  -0.015360  -0.000258  -0.000008   0.002333
    12  C   -0.000038  -0.030408  -0.030112   0.007115  -0.110167  -0.295874
    13  O   -0.000045  -0.000512  -0.002697  -0.026674   0.006548  -0.005258
    14  C   -0.003153  -0.002856  -0.011474   0.156694   0.094832   0.002329
    15  O    0.003196   0.000000  -0.000215  -0.000973  -0.000313  -0.000465
    16  C    0.071610   0.000092   0.003695   0.010258  -0.002704  -0.003603
    17  C   -0.003855  -0.000042   0.000156   0.004151   0.000885   0.001877
    18  O    0.000033   0.000000   0.000034   0.000202   0.000038  -0.000012
    19  H    0.000000   0.000000   0.000670  -0.000415  -0.000013  -0.000003
    20  C   -0.000302   0.000001  -0.000544   0.000475  -0.000002   0.000087
    21  O    0.000001   0.000000   0.000001  -0.000001   0.000000   0.000000
    22  H    0.000000   0.000000   0.000000   0.000000   0.000000   0.000000
    23  C    0.585905   0.000001  -0.000003   0.000316   0.000057  -0.000004
    24  O   -0.054686   0.000000   0.000000   0.000002   0.000011   0.000000
    25  H   -0.000293   0.000000   0.000000   0.000000   0.000000   0.000000
    26  C   -0.289588  -0.000002   0.000321  -0.000915  -0.000308  -0.000164
    27  O    0.002940   0.000000   0.000000   0.000001   0.000000   0.000000
    28  C    0.004661   0.000000   0.000055   0.000025  -0.000001  -0.000002
    29  O   -0.000093   0.000000   0.000000   0.000000   0.000000   0.000000
    30  H    0.000000   0.000000   0.000000   0.000000   0.000000   0.000000
    31  H   -0.000007   0.000000   0.000000   0.000000   0.000000   0.000000
    32  H   -0.000012   0.000000   0.000000   0.000000   0.000000   0.000000
    33  H   -0.000006   0.000000   0.000000  -0.000001   0.000000   0.000000
    34  H    0.002742   0.000000   0.000000  -0.000012   0.000000   0.000000
    35  H    0.005808   0.000000   0.000000   0.000000   0.000000   0.000000
    36  H   -0.042961   0.000000   0.000000   0.000000   0.000000   0.000000
    37  H    0.561833   0.000000   0.000000   0.000000   0.000000   0.000000
    38  H    0.000000   0.407141   0.000022  -0.000180  -0.013110  -0.000154
    39  H    0.000000   0.000022   0.573420  -0.005164   0.000019  -0.042874
    40  H    0.000000  -0.000180  -0.005164   0.632230   0.006842   0.006608
    41  H    0.000000  -0.013110   0.000019   0.006842   0.624607   0.003730
    42  H    0.000000  -0.000154  -0.042874   0.006608   0.003730   0.586783
    43  H    0.000000  -0.000154   0.000005   0.002347   0.006771  -0.000003
    44  H   -0.000003   0.000010   0.000001  -0.000106   0.002437  -0.000032
    45  H    0.000008   0.000002  -0.000018   0.002954  -0.000026  -0.000014
             43         44         45
     1  O   -0.002157  -0.000117   0.000035
     2  C    0.055346   0.016049  -0.009086
     3  C    0.281088  -0.095926  -0.027537
     4  O   -0.025634   0.003786   0.000031
     5  H   -0.001627  -0.000193   0.000000
     6  C   -0.221453   0.347928   0.014503
     7  O    0.009410  -0.018213   0.001424
     8  H   -0.000171  -0.007933  -0.000301
     9  C    0.015198   0.015859   0.017267
    10  O   -0.000138   0.000012   0.000052
    11  H    0.000000   0.000000   0.000000
    12  C    0.027412   0.066067   0.057785
    13  O    0.005088   0.010314  -0.031635
    14  C    0.098776  -0.041128   0.258217
    15  O   -0.000008  -0.010362  -0.042489
    16  C   -0.008827  -0.032062   0.000840
    17  C    0.001392   0.000614  -0.002073
    18  O    0.000034   0.000122   0.000687
    19  H   -0.000002  -0.000021  -0.001740
    20  C   -0.000062   0.000179   0.009615
    21  O    0.000000   0.000000   0.000009
    22  H    0.000000   0.000000   0.000000
    23  C    0.000300   0.002329   0.005019
    24  O    0.000048   0.001242   0.000302
[...]
 0.00561445,0.00165203,-0.00012466,0.00012658,0.00040603,0.00007987,0.0
 0003728,0.00010301,0.00015237,0.00019920,-0.00001759,0.00003829,-0.000
 02466,-0.00001950,0.00001591,0.00000795,0.00014512,-0.00001982,-0.0000
 1451,-0.00019809,0.00001783,-0.00001958,-0.00001828,-0.00000616,-0.000
 00121,0.00001842,0.00000260,0.00000285,-0.00000508,-0.00000356,-0.0000
 0243,-0.00001381,-0.00000885,0.00000756,0.00001931,0.00000993,-0.00000
 840,-0.00000861,-0.00000033,0.00000138,-0.00001720,-0.00001958,0.00000
 453,0.00001365,0.00000479,0.00000780,-0.00001478,0.00000490,-0.0000014
 7,0.00000881,0.00000032,-0.00000657,-0.00000212,-0.00000077,0.00000107
 ,0.00000465,0.00000195,0.00000265,0.00000981,0.00000037,-0.00000430,0.
 00000982,0.00001074,0.00002002,0.00001478,-0.00000528,-0.00000163,0.00
 000688,0.00000269,0.00000600,0.00000068,0.00000096,-0.00000072,0.00000
 520,-0.00000026,-0.00000109,-0.00035349,0.00004951,-0.00029155,-0.0010
 5403,0.00033383,0.00091777,-0.00056393,0.00347917,0.00059950,0.0005890
 2,0.00110328,-0.00082584,0.35893711,-0.00014082,0.00024649,0.00048086,
 0.00105173,0.00280912,-0.00129304,0.00018559,0.00001904,-0.00027697,-0
 .00018254,-0.00004402,0.00015238,0.00003115,-0.00005434,-0.00000873,0.
 00003373,0.00009086,0.00000132,-0.00003035,0.00000651,0.00002204,-0.00
 000065,0.00000738,0.00000251,-0.04970463,-0.05211167,0.01822209,-0.023
 05183,-0.01132984,-0.01128247,-0.00227634,-0.00035939,-0.00044094,0.03
 395660,0.00013890,-0.00718259,-0.00084148,0.00189994,0.00187274,0.0001
 4504,0.00007276,0.00006951,-0.00010277,-0.00005699,-0.00009554,-0.0000
 1021,-0.00002132,0.00006281,0.00001608,-0.00002459,-0.00002197,0.00006
 080,0.00007062,0.00002718,-0.00009048,-0.00012107,-0.00003059,-0.00000
 713,-0.00000289,0.00000845,0.00000766,0.00001258,-0.00000419,-0.000003
 22,-0.00000306,-0.00000144,0.00000231,0.00000465,0.00000257,-0.0000016
 6,-0.00000476,-0.00000028,0.00000142,0.00000110,-0.00000161,-0.0000048
 9,0.00000854,0.00000921,0.00000148,0.00000542,-0.00001846,-0.00000095,
 -0.00001314,0.00001344,0.00000526,0.00000390,-0.00000901,-0.00000132,-
 0.00000008,0.00000171,0.00000066,0.00000198,0.00000025,0.00000286,-0.0
 0000248,-0.00000182,0.00000343,0.00001743,0.00001432,0.00000217,-0.000
 00094,0.00000759,0.00000032,-0.00000043,-0.00000193,-0.00000151,-0.000
 00175,-0.00000089,-0.00000120,0.00000119,0.00000180,0.00000227,-0.0002
 0958,0.00016931,-0.01925376,-0.00188698,0.00509512,0.00260428,-0.00510
 932,-0.00191587,-0.00082839,-0.00016961,0.00032009,0.05893456,0.066112
 43,0.00017983,0.00007312,0.00012221,-0.00095781,-0.00020762,0.00001421
 ,-0.00005524,0.00009407,0.00008626,0.00003874,-0.00013933,0.00000221,-
 0.00002321,0.00003902,-0.00002193,0.00004648,0.00004343,0.00008422,-0.
 00003134,-0.00001858,-0.00006588,0.00001801,0.00000368,0.00002351,0.06
 498919,0.01908424,-0.05618610,-0.03389193,-0.01896208,-0.00377814,-0.0
 0220934,-0.00049447,-0.00069597,0.00411247,0.00098784,0.00165416,-0.00
 022416,0.00019240,0.00083876,0.00011180,0.00004934,0.00000139,-0.00008
 958,0.00000781,-0.00004552,0.00002970,-0.00000934,-0.00001259,-0.00000
 268,0.00001932,0.00002855,-0.00018461,-0.00006636,-0.00003837,0.000316
 90,0.00014147,0.00003640,0.00001445,-0.00000513,0.00000500,-0.00001846
 ,0.00000406,-0.00001076,0.00000414,0.00000060,0.00000348,0.00000262,-0
 .00000375,0.00000164,-0.00001429,0.00000163,-0.00002056,0.00000534,0.0
 0000220,0.00000458,0.00000925,0.00000189,0.00000925,-0.00001095,0.0000
 0357,-0.00000547,0.00000968,0.00000098,0.00001004,-0.00000248,-0.00000
 079,-0.00000623,0.00000160,0.00000001,0.00000097,-0.00000363,-0.000002
 30,-0.00000315,-0.00000954,0.00000171,0.00000554,-0.00001249,-0.000027
 79,-0.00003629,-0.00001680,0.00000381,0.00000447,-0.00000518,-0.000002
 76,-0.00000619,0.00000003,-0.00000092,-0.00000177,-0.00000228,0.000001
 51,0.00000131,-0.00015519,0.00004155,-0.00007660,0.02783988,0.00463830
 ,-0.00385936,-0.00035783,-0.00125018,0.00017846,-0.00000955,-0.0001657
 6,0.00026851,-0.05931322,-0.00413336,0.06149831,0.00162377,0.00040843,
 0.00039870,-0.01686889,0.00035617,0.00171524,-0.34193740,-0.03313792,0
 .03560450,0.00266130,-0.00644018,0.00763772,-0.00021923,-0.00070737,-0
 .00003458,-0.01823778,-0.00058509,-0.00044990,0.00217466,0.00068620,0.
 00087911,0.00029938,0.00012688,0.00003509,0.00045792,0.00039128,-0.000
 21025,0.00003097,-0.00000385,-0.00002024,-0.00000984,0.00000907,-0.000
 00100,-0.00088948,-0.00124644,0.00059603,0.00034667,0.00051930,-0.0002
 0911,-0.00113267,-0.00126159,0.00114323,0.00056824,0.00013963,-0.00029
 845,-0.00011975,0.00006394,-0.00005643,0.00001548,-0.00000573,-0.00005
 334,0.00004696,0.00001295,0.00000397,-0.00004883,-0.00001595,0.0000300
 2,-0.00002928,0.00001246,-0.00000152,0.00001709,-0.00000084,0.00000379
 ,-0.00000557,0.00000065,-0.00000435,-0.00004761,-0.00002144,0.00004358
 ,0.00006175,0.00002670,0.00005468,-0.00002249,-0.00001038,0.00000453,-
 0.00000209,0.00000258,-0.00000455,0.00001714,0.00000507,-0.00000822,-0
 .00000907,-0.00000651,-0.00000635,0.00000448,0.00000354,0.00000360,-0.
 00000102,-0.00000114,-0.00000183,0.00000395,0.00000134,0.00000254,0.00
 000894,0.00000140,-0.00000319,0.00001236,-0.00000349,0.00000889,0.0000
 2677,0.00000619,-0.00004372,0.00000999,0.00000043,0.00001213,0.0000069
 3,0.00000076,0.00000126,0.00001654,0.00000092,-0.00001165,0.00027236,-
 0.00026579,-0.00019092,-0.00002521,0.00011888,0.00000139,0.00092959,0.
 00070554,-0.00060558,0.00000241,0.00204199,0.00052421,0.00019370,-0.00
 028750,-0.00000591,0.36943490,-0.00236495,0.00183163,0.00106755,0.0334
 1813,0.00016834,-0.00434966,-0.03163300,-0.04235910,-0.00102558,-0.028
 21636,-0.01515496,0.02015732,-0.00065573,-0.00042312,-0.00060517,-0.01
 120419,0.00054858,-0.00136492,0.00011447,0.00089068,0.00112189,0.00010
 982,-0.00000017,0.00000158,0.00012481,-0.00006773,-0.00005046,-0.00006
 258,-0.00002159,-0.00003602,-0.00000265,0.00001321,0.00000002,0.001016
 51,0.00224715,-0.00115669,-0.00023789,-0.00012772,0.00025442,0.0002994
 9,-0.00041742,0.00045074,0.00011831,0.00002063,-0.00029444,-0.00006155
 ,0.00003613,0.00000532,0.00001645,-0.00001181,-0.00003896,-0.00000422,
 0.00000388,0.00002676,0.00000593,0.00000122,-0.00002908,-0.00000889,0.
 00000875,0.00000607,0.00000353,0.00000021,-0.00000569,-0.00000166,0.00
 000218,-0.00000082,-0.00001419,0.00001334,-0.00001123,0.00006864,-0.00
 000851,0.00011321,-0.00003021,-0.00001389,-0.00001427,-0.00000598,0.00
 003046,0.00000223,0.00000887,-0.00001910,-0.00000782,-0.00000392,0.000
 00734,-0.00000018,0.00000057,-0.00000200,0.00000127,-0.00000008,-0.000
 00005,-0.00000044,0.00000116,-0.00000063,0.00000020,0.00000132,0.00000
 045,0.00000030,0.00000225,-0.00000103,0.00000200,0.00000542,0.00000788
 ,-0.00001141,0.00000379,-0.00000587,0.00000278,0.00000175,-0.00000414,
 0.00000629,0.00000783,0.00000391,-0.00001012,-0.00004694,0.00033320,0.
 00040034,-0.00010955,-0.00005417,0.00001188,-0.00046946,-0.00046631,0.
 00030150,0.00260108,-0.00496168,-0.00216772,-0.00027213,-0.00000048,0.
 00006085,0.03805490,0.05789776,-0.00087755,0.00122311,0.00125563,0.015
 72982,-0.00189407,-0.00041904,0.03629393,-0.00182291,-0.04558603,0.025
 11829,0.01862027,-0.01445602,0.00141259,0.00051758,0.00009833,-0.03364
 039,-0.00436565,0.00060446,0.00158070,0.00188050,0.00237414,-0.0001055
 9,0.00027903,0.00007913,-0.00010620,-0.00020453,0.00013701,-0.00002122
 ,0.00001143,-0.00000476,-0.00000088,0.00000866,-0.00000649,-0.00054441
 ,0.00057708,-0.00054548,0.00004064,0.00039927,-0.00033585,-0.00101030,
 -0.00087866,0.00183343,0.00038926,0.00005459,-0.00021210,0.00001180,0.
 00003812,0.00005540,0.00001601,-0.00000605,-0.00002171,0.00000939,0.00
 001661,-0.00001654,-0.00001393,-0.00002753,0.00002488,-0.00001158,0.00
 000073,0.00001155,0.00000164,0.00000999,-0.00001573,-0.00000114,0.0000
 0051,0.00000035,-0.00001009,0.00000349,0.00001026,0.00008873,-0.000014
 08,0.00013284,-0.00001649,-0.00000583,-0.00002783,-0.00000697,0.000027
 09,0.00002218,0.00000728,-0.00000411,-0.00003130,0.00000062,-0.0000086
 3,0.00002023,0.00000651,0.00000141,-0.00001458,-0.00000023,0.00000089,
 0.00000245,-0.00000010,0.00000087,-0.00000032,0.00000050,0.00000079,-0
 .00000148,0.00000105,-0.00000308,0.00000331,0.00002328,0.00001233,-0.0
 0004942,0.00000453,-0.00000322,0.00000659,0.00000269,-0.00000405,0.000
 00114,0.00000857,0.00000310,-0.00001050,-0.00013201,0.00036438,0.00007
 907,-0.00001391,-0.00010452,0.00000212,-0.00032816,-0.00010427,0.00036
 398,0.00125142,-0.00194535,-0.00047398,-0.00009109,0.00010352,-0.00002
 251,-0.04335924,-0.01122287,0.06076323,0.00054066,0.00012905,-0.000081
 06,-0.00090214,0.00088075,0.00053831,-0.01477933,-0.00593234,0.0006728
 5,0.00173383,0.00073901,0.00050422,0.00019046,0.00005399,0.00012468,-0
 .33020228,-0.07879385,0.03565989,-0.01702708,0.00946362,0.00817769,0.0
 0034297,0.00009377,-0.00152860,-0.00006712,-0.00005166,0.00001752,0.00
 003983,0.00004819,0.00002164,-0.00000719,-0.00000647,0.00000128,-0.000
 05232,-0.00019292,-0.00001452,0.00151175,-0.00076050,-0.00072952,-0.00
 387110,-0.00017235,0.00007435,0.00084107,0.00013269,-0.00017954,0.0001
 9728,0.00007338,0.00015537,0.00001591,0.00005846,0.00002906,0.00001978
 ,-0.00000691,-0.00009008,0.00000185,-0.00005495,0.00005993,-0.00002159
 ,0.00001039,0.00001329,0.00001263,-0.00001227,-0.00001577,-0.00000400,
 0.00000529,-0.00000012,0.00001595,0.00010009,-0.00008953,0.00026407,-0
 .00011805,0.00060587,-0.00009727,-0.00006546,-0.00011186,-0.00003868,0
 .00009158,0.00002295,0.00003137,-0.00008629,-0.00000040,-0.00002496,0.
 00005188,-0.00000489,0.00000768,-0.00001584,-0.00000411,-0.00000150,0.
 00000144,0.00000089,0.00000572,-0.00000298,0.00000211,0.00000556,0.000
 00215,0.00000029,-0.00000045,-0.00001254,0.00000737,0.00000181,0.00004
 273,-0.00023055,0.00001114,-0.00001751,0.00000787,0.00000884,-0.000024
 63,0.00004039,0.00003438,0.00001089,-0.00005848,-0.00002589,-0.0001457
 5,-0.00008566,0.00001345,-0.00001006,-0.00001460,0.00005588,0.00014951
 ,-0.00002364,0.00085653,-0.00048248,-0.00033038,0.00004872,-0.00002626
 ,-0.00001172,-0.00014893,-0.00068532,-0.00202848,0.36003023,0.00029523
 ,0.00003452,-0.00000630,-0.00106660,0.00032837,0.00033078,-0.01014013,
 -0.00157130,0.00134460,0.00117153,0.00068325,-0.00015403,0.00000490,-0
 .00006301,0.00008187,-0.08073977,-0.06089391,0.01176259,0.03890258,-0.
 00556788,-0.01074998,0.00074227,0.00200211,0.00147609,-0.00010999,0.00
 002090,0.00002808,0.00003562,-0.00000933,0.00001056,-0.00000181,-0.000
 00001,-0.00000278,-0.00015554,-0.00028493,-0.00010064,0.00100564,0.001
 97384,-0.00060755,-0.02707360,-0.00704188,0.00460684,0.00116157,0.0011
 2988,-0.00159467,-0.00016061,0.00025891,0.00002231,0.00006669,0.000015
 88,-0.00013504,0.00010542,-0.00000964,-0.00001656,-0.00012551,0.000038
 26,0.00006698,-0.00003192,0.00003205,-0.00000758,0.00001383,0.00000413
 ,0.00000264,-0.00000363,-0.00000083,-0.00000363,-0.00001203,-0.0000741
 0,0.00013277,-0.00030351,-0.00005819,-0.00040319,0.00012553,0.00004163
 ,0.00000369,0.00006720,-0.00007772,-0.00000302,-0.00000945,0.00005317,
 -0.00001778,0.00000934,-0.00004177,0.00000008,-0.00000002,0.00001292,0
 .00000162,0.00000017,-0.00000096,-0.00000042,-0.00000074,0.00000465,0.
 00000128,0.00000967,0.00000305,-0.00000479,0.00002405,-0.00002387,0.00
 003091,0.00022508,0.00001897,-0.00010551,0.00000275,0.00003930,0.00002
 680,-0.00000588,0.00001258,-0.00002154,-0.00002328,-0.00001947,0.00005
 260,-0.00000501,-0.00003042,-0.00003294,0.00001219,-0.00001438,0.00000
 024,0.00014555,0.00014222,0.00000103,0.00029635,-0.00015605,-0.0002062
 8,0.00005592,-0.00004020,-0.00002461,-0.00028889,-0.00017732,-0.001893
 80,0.07535541,0.07240172,0.00048016,0.00014282,-0.00026058,-0.00128374
 ,0.00118829,0.00130995,-0.03188916,-0.00952016,0.00184274,0.00208979,0
 .00028826,0.00277764,0.00016992,-0.00021899,0.00035943,0.03366018,0.01
 250597,-0.04875882,0.01477198,-0.00576436,-0.00204668,0.00120042,0.000
 18400,0.00094896,-0.00003033,-0.00001430,0.00008309,0.00000587,0.00000
 589,0.00000217,0.00000469,0.00000085,0.00000334,-0.00031298,-0.0002544
 6,-0.00045413,-0.00140003,-0.00115847,0.00075160,0.02575840,0.00979741
 ,-0.00458823,-0.00040986,-0.00115669,0.00243972,0.00042525,-0.00021531
 ,-0.00027973,-0.00007609,-0.00000704,0.00018095,-0.00009933,-0.0000092
 2,-0.00000032,0.00010800,-0.00001456,0.00000918,0.00004099,-0.00004613
 ,-0.00000850,-0.00001796,-0.00001116,0.00001764,0.00000509,-0.00000292
 ,0.00000415,0.00013001,0.00011583,-0.00007394,-0.00028414,-0.00010104,
 -0.00008526,0.00006275,0.00001044,0.00005021,-0.00005401,-0.00000032,-
 0.00001297,-0.00002999,-0.00002188,0.00006855,0.00000514,0.00003281,-0
 .00001638,-0.00000883,-0.00000860,0.00000974,0.00000101,-0.00000029,-0
 .00000177,-0.00000238,-0.00000264,-0.00000253,-0.00001149,-0.00000556,
 0.00000715,-0.00004149,0.00003636,-0.00003255,-0.00033615,-0.00006741,
 0.00004872,-0.00002804,-0.00001621,-0.00006772,-0.00003075,-0.00001937
 ,0.00002546,-0.00005460,-0.00001333,0.00004980,0.00004357,-0.00009560,
 -0.00005927,0.00001632,-0.00002835,0.00000952,0.00008573,0.00002792,-0
 .00013884,0.00055162,-0.00023731,-0.00010640,0.00001022,-0.00001539,0.
 00000286,-0.00237970,-0.00151576,-0.00515338,-0.04099151,-0.00675804,0
 .05381739,0.00010237,-0.00008420,0.00020739,0.00002192,0.00042149,-0.0
 0007244,-0.00024291,-0.00031454,0.00001382,0.00021047,0.00006944,-0.00
 013429,-0.00002437,0.00000804,0.00005177,-0.00256579,0.00108056,0.0016
 4468,0.00171937,-0.00023538,-0.00132437,-0.00015038,-0.00006939,-0.000
 05208,0.00046602,-0.00006005,0.00008028,-0.00000424,0.00023074,0.00009
 882,-0.00000904,-0.00000868,0.00003250,-0.00010758,-0.00045209,-0.0007
 3988,-0.00999008,0.00867553,0.00734242,-0.32216413,-0.05386816,0.07729
 208,-0.02261152,-0.00585790,-0.00670927,-0.00022961,-0.00064610,0.0050
 1557,0.00030845,0.00028044,-0.00023417,0.00048585,-0.00002384,-0.00043
 573,-0.00062224,-0.00021135,0.00075146,-0.00010011,0.00013733,0.000010
 28,0.00005246,-0.00000576,-0.00003240,-0.00001413,0.00001031,-0.000012
 55,-0.00032242,0.00000125,0.00005736,0.00014169,-0.00005234,0.00002546
 ,0.00000913,-0.00004948,-0.00004337,0.00069468,0.00013882,-0.00004831,
 0.00006052,-0.00011913,-0.00029169,-0.00001268,-0.00003393,0.00000303,
 0.00001251,0.00000584,-0.00001230,-0.00000027,0.00000275,0.00000050,0.
 00000658,0.00000818,0.00000577,0.00004510,0.00002107,-0.00003476,0.000
 13971,-0.00026970,0.00020369,0.00202881,0.00041528,-0.00102361,0.00008
 588,0.00020088,0.00032297,0.00006883,0.00000910,0.00000311,0.00012498,
 -0.00002909,-0.00004060,-0.00000268,-0.00000431,-0.00001755,-0.0000133
 6,-0.00003054,0.00000206,0.00043305,0.00059308,0.00113581,0.00000733,-
 0.00007723,-0.00016210,0.00009754,-0.00019952,-0.00011067,0.00051088,0
 .00010643,0.00032070,0.00043251,0.00042346,0.00014545,0.35092087,-0.00
 010657,0.00032425,-0.00030289,-0.00025564,-0.00071345,-0.00011964,-0.0
 0116339,-0.00030609,-0.00123124,0.00045940,0.00007258,0.00038523,0.000
 13738,-0.00010326,0.00004546,-0.02343896,-0.00298690,0.00921805,0.0005
 4300,0.00288410,-0.00124821,-0.00010341,0.00011570,-0.00003567,0.00005
 284,0.00015606,-0.00001919,-0.00014871,-0.00032099,-0.00012488,-0.0000
 1280,0.00002075,-0.00004325,0.00373239,0.00231728,0.00390072,0.0347286
 9,-0.00791868,-0.01811090,-0.05599013,-0.05276086,0.01835428,-0.008711
 16,0.00243305,-0.00173179,0.00013156,-0.00035408,0.00164465,0.00027152
 ,-0.00000008,-0.00000447,-0.00030024,0.00004457,0.00022290,0.00052472,
 0.00000214,-0.00083174,0.00002057,0.00003609,0.00008083,-0.00001266,0.
 00004547,-0.00007392,-0.00000360,0.00000385,0.00000418,-0.00019354,-0.
 00000544,-0.00004917,0.00009026,-0.00001670,0.00001848,-0.00002363,-0.
 00002486,-0.00001188,0.00000559,0.00014518,0.00001433,0.00002128,-0.00
 005842,-0.00014498,-0.00000151,-0.00000655,0.00008273,0.00001752,-0.00
 000029,-0.00005204,0.00000016,0.00000225,0.00000963,-0.00000236,-0.000
 00352,-0.00000598,-0.00001064,0.00000353,-0.00000025,0.00003323,-0.000
 07170,0.00004741,0.00053748,0.00039983,-0.00009937,0.00001766,-0.00000
 231,0.00005321,0.00005512,-0.00001150,0.00000939,0.00006029,-0.0000695
 0,-0.00009065,-0.00000590,0.00000719,0.00002992,0.00003105,0.00002658,
 0.00001398,-0.00141481,0.00005968,0.00019038,0.00002385,-0.00014269,0.
 00002755,-0.00023460,0.00003806,0.00001669,0.00059290,0.00023187,0.000
 35783,0.00018308,-0.00309513,0.00296402,0.04986270,0.05960294,-0.00009
 140,-0.00005727,-0.00028175,-0.00010943,0.00007836,-0.00015243,0.00162
 921,-0.00004800,0.00123197,-0.00058938,-0.00001409,-0.00004184,-0.0000
 3017,-0.00002427,-0.00000522,0.02345181,0.00529352,-0.00414094,-0.0018
 5883,-0.00158321,0.00146547,-0.00004502,0.00013329,-0.00018627,-0.0000
 6846,-0.00005061,0.00002773,-0.00008645,-0.00018589,-0.00009832,0.0000
 0931,0.00001372,-0.00001540,0.00254550,0.00107894,0.00275056,0.0140552
 4,-0.00742026,-0.00459245,0.08491142,0.02073981,-0.06736378,-0.0325345
 8,-0.00562983,-0.00954974,-0.00733866,-0.00227162,0.00369861,0.0001122
 1,0.00010192,-0.00050184,0.00006436,0.00009317,0.00036345,-0.00016967,
 0.00006171,-0.00052243,-0.00001228,0.00008930,0.00006106,0.00001500,0.
 00004397,-0.00004507,-0.00000407,0.00000466,-0.00000410,-0.00006613,0.
 00009804,0.00007618,0.00004384,-0.00013435,0.00009344,0.00003450,-0.00
 003571,-0.00005724,-0.00015025,-0.00008259,-0.00009313,0.00013738,0.00
 006381,-0.00020535,0.00000841,-0.00009242,0.00007341,0.00001622,0.0000
 2238,-0.00004308,-0.00000008,0.00000188,0.00000746,-0.00000276,0.00000
 332,0.00000523,0.00003083,0.00002105,-0.00005504,0.00026538,-0.0000280
 6,0.00004653,0.00106138,0.00035728,-0.00079131,0.00018104,0.00006271,0
 .00002231,0.00002106,-0.00000647,0.00000344,0.00002422,-0.00008172,-0.
 00005459,-0.00002131,-0.00000113,0.00001773,0.00000283,0.00002958,-0.0
 0000696,-0.00099972,-0.00013216,0.00000846,-0.00016331,-0.00002040,0.0
 0015277,-0.00018726,0.00007626,0.00000708,-0.00074421,-0.00007520,-0.0
 0047665,-0.00011281,0.00286634,-0.00267194,-0.08323489,-0.01335976,0.0
 8184396\\0.01464261,-0.02011915,-0.00890531,-0.01744788,0.01317878,-0.
 00921283,0.00750239,0.00050708,0.02519180,-0.00144017,0.01544628,0.015
 50599,-0.00381811,-0.01422593,-0.02447151,0.01006874,-0.03026532,-0.01
 734604,-0.00605587,-0.00594206,-0.00458766,0.00835488,0.02009403,0.015
 83719,-0.00734985,0.01499164,0.00339162,0.00864322,0.01809351,-0.00599
 279,0.00190580,-0.03324632,0.00854977,0.00876615,0.01218531,0.00424872
 ,0.00000777,0.00448472,0.00339259,-0.03784170,0.01088217,0.00238006,0.
 01400509,-0.00550612,0.01350248,0.01145645,0.00887125,0.01497014,-0.03
 615531,0.02703348,-0.00164765,0.02354296,-0.02292746,0.01479585,-0.008
 38770,0.01405656,-0.01770352,0.01594309,-0.00223664,0.00079276,-0.0034
 7920,-0.00832256,-0.01282315,-0.00583293,-0.00710645,0.03145251,-0.001
 98209,0.00545151,0.00653637,-0.00195593,-0.03573545,-0.00398960,-0.005
 74811,0.03027643,0.00019073,-0.00023763,0.00636767,-0.00046779,-0.0040
 9312,0.00697568,0.00603178,0.03225483,-0.00467200,-0.02056830,-0.00766
 530,0.00142536,0.01015823,-0.00218340,-0.00417887,-0.00270007,-0.01959
 097,-0.00464102,-0.00422985,0.02173906,0.00137774,0.00027136,-0.025782
 00,-0.00534701,-0.00292594,0.02158446,-0.00075080,0.00180368,-0.021411
 47,-0.00403617,-0.00194517,-0.00116667,-0.00781698,-0.01525415,0.01924
 953,0.00139219,0.00222505,-0.00141660,0.00219778,-0.00127158,-0.000343
 25,0.00484709,-0.01759984,0.02215138,0.00353127,-0.00219006,-0.0205263
 0,-0.00508561,0.00184594,-0.02078745,-0.00448780,0.00116614,0.02254457
 ,0.00167702,-0.00466812,-0.01955060,-0.00147298,0.00204307,0.01788662,
 0.00277814,-0.00578289\\\@


 A SOLDIER'S LIFE IS A LIFE OF HONOR, BUT A DOG WOULD NOT LEAD IT.
 -- PRINCE RUPERT, FOUNDER OF THE HUDSON'S BAY COMPANY
 Job cpu time:  1 days  7 hours 34 minutes 15.3 seconds.
 File lengths (MBytes):  RWF=   1769 Int=      0 D2E=      0 Chk=     28 Scr=      1
 Normal termination of Gaussian 09 at Tue Mar 29 18:46:09 2016.
Gaussian '09 finished on node005 at Tue Mar 29 18:46:09 EDT 2016.
