Gaussian '09 started on node016 at Wed Jan 20 15:58:13 EST 2016.
 Entering Gaussian System, Link 0=/usr/local/gaussian/g09/g09
 Initial command:
 /usr/local/gaussian/g09/l1.exe /home/srmcgrat/thesis/gaussian/cellobiose/300/7000/gaussian16036/Gau-16072.inp -scrdir=/home/srmcgrat/thesis/gaussian/cellobiose/300/7000/gaussian16036/
 Entering Link 1 = /usr/local/gaussian/g09/l1.exe PID=     16074.
  
 Copyright (c) 1988,1990,1992,1993,1995,1998,2003,2009,2010,
            Gaussian, Inc.  All Rights Reserved.
  
 This is part of the Gaussian(R) 09 program.  It is based on
 the Gaussian(R) 03 system (copyright 2003, Gaussian, Inc.),
 the Gaussian(R) 98 system (copyright 1998, Gaussian, Inc.),
 the Gaussian(R) 94 system (copyright 1995, Gaussian, Inc.),
 the Gaussian 92(TM) system (copyright 1992, Gaussian, Inc.),
 the Gaussian 90(TM) system (copyright 1990, Gaussian, Inc.),
 the Gaussian 88(TM) system (copyright 1988, Gaussian, Inc.),
 the Gaussian 86(TM) system (copyright 1986, Carnegie Mellon
 University), and the Gaussian 82(TM) system (copyright 1983,
 Carnegie Mellon University). Gaussian is a federally registered
 trademark of Gaussian, Inc.
  
 This software contains proprietary and confidential information,
 including trade secrets, belonging to Gaussian, Inc.
  
 This software is provided under written license and may be
 used, copied, transmitted, or stored only in accord with that
 written license.
  
 The following legend is applicable only to US Government
 contracts under FAR:
  
                    RESTRICTED RIGHTS LEGEND
  
 Use, reproduction and disclosure by the US Government is
 subject to restrictions as set forth in subparagraphs (a)
 and (c) of the Commercial Computer Software - Restricted
 Rights clause in FAR 52.227-19.
  
 Gaussian, Inc.
 340 Quinnipiac St., Bldg. 40, Wallingford CT 06492
  
  
 ---------------------------------------------------------------
 Warning -- This program may not be used in any manner that
 competes with the business of Gaussian, Inc. or will provide
 assistance to any competitor of Gaussian, Inc.  The licensee
 of this program is prohibited from giving any competitor of
 Gaussian, Inc. access to this program.  By using this program,
 the user acknowledges that Gaussian, Inc. is engaged in the
 business of creating and licensing software in the field of
 computational chemistry and represents and warrants to the
 licensee that it is not a competitor of Gaussian, Inc. and that
 it will not use this program in any manner prohibited above.
 ---------------------------------------------------------------
  

 Cite this work as:
 Gaussian 09, Revision B.01,
 M. J. Frisch, G. W. Trucks, H. B. Schlegel, G. E. Scuseria, 
 M. A. Robb, J. R. Cheeseman, G. Scalmani, V. Barone, B. Mennucci, 
 G. A. Petersson, H. Nakatsuji, M. Caricato, X. Li, H. P. Hratchian, 
 A. F. Izmaylov, J. Bloino, G. Zheng, J. L. Sonnenberg, M. Hada, 
 M. Ehara, K. Toyota, R. Fukuda, J. Hasegawa, M. Ishida, T. Nakajima, 
 Y. Honda, O. Kitao, H. Nakai, T. Vreven, J. A. Montgomery, Jr., 
 J. E. Peralta, F. Ogliaro, M. Bearpark, J. J. Heyd, E. Brothers, 
 K. N. Kudin, V. N. Staroverov, T. Keith, R. Kobayashi, J. Normand, 
 K. Raghavachari, A. Rendell, J. C. Burant, S. S. Iyengar, J. Tomasi, 
 M. Cossi, N. Rega, J. M. Millam, M. Klene, J. E. Knox, J. B. Cross, 
 V. Bakken, C. Adamo, J. Jaramillo, R. Gomperts, R. E. Stratmann, 
 O. Yazyev, A. J. Austin, R. Cammi, C. Pomelli, J. W. Ochterski, 
 R. L. Martin, K. Morokuma, V. G. Zakrzewski, G. A. Voth, 
 P. Salvador, J. J. Dannenberg, S. Dapprich, A. D. Daniels, 
 O. Farkas, J. B. Foresman, J. V. Ortiz, J. Cioslowski, 
 and D. J. Fox, Gaussian, Inc., Wallingford CT, 2010.
 
 ******************************************
 Gaussian 09:  EM64L-G09RevB.01 12-Aug-2010
                20-Jan-2016 
 ******************************************
 ------------------------------------------------
 # freq=raman b3lyp/6-31+g(d,p) geom=connectivity
 ------------------------------------------------
 1/10=4,30=1,38=1,57=2/1,3;
 2/12=2,17=6,18=5,40=1/2;
 3/5=1,6=6,7=111,11=2,16=1,25=1,30=1,71=2,74=-5/1,2,3;
 4//1;
 5/5=2,38=5,98=1/2;
 8/6=4,10=90,11=11/1;
 10/13=10,15=4/2;
 11/6=3,8=1,9=11,15=111,16=1/1,2,10;
 10/6=1/2;
 6/7=2,8=2,9=2,10=2,18=1,28=1/1;
 7/8=1,10=1,25=1/1,2,3,16;
 1/10=4,30=1/3;
 99//99;
 ------------
 300 7000.com
 ------------
 Symbolic Z-matrix:
 Charge =  0 Multiplicity = 1
 O                     7.898     7.606     12.276 
 C                     8.477     8.095     13.495 
 C                     7.732     9.336     13.96 
 O                     8.005     10.389    13.023 
 H                     7.95      10.097    12.068 
 C                     8.23      9.819     15.312 
 O                     7.585     11.009    15.789 
 H                     7.965     11.154    16.703 
 C                     8.861     5.673     14.207 
 O                     8.374     4.849     13.138 
 H                     8.603     3.92      13.426 
 C                     8.195     7.004     14.515 
 O                     8.633     7.405     15.821 
 C                     7.964     8.616     16.201 
 O                     8.543     8.93      17.476 
 C                     8.069     8.557     18.778 
 C                     8.512     7.139     19.099 
 O                     8.148     6.125     18.152 
 H                     8.549     6.476     17.305 
 C                     8.173     6.78      20.537 
 O                     8.423     5.463     21.048 
 H                     8.209     5.472     22.025 
 C                     8.343     10.957    19.619 
 O                     8.713     11.559    18.37 
 H                     8.492     12.524    18.509 
 C                     8.593     9.478     19.868 
 O                     8.187     9.086     21.187 
 C                     8.698     7.793     21.542 
 O                     7.815     7.737     22.672 
 H                     8.33163   7.69695   23.48014 
 H                     8.59711   7.36106   11.66539 
 H                     9.52631   8.27664   13.39081 
 H                     6.68049   9.14228   14.00116 
 H                     9.28492   9.98952   15.25753 
 H                     6.91199   8.44794   16.30066 
 H                     7.13714   6.84725   14.55042 
 H                     8.81969   5.08609   15.10072 
 H                     9.89154   5.87638   14.00325 
 H                     6.99963   8.59373   18.77952 
 H                     9.581     7.17115   19.06578 
 H                     9.65654   9.362     19.85006 
 H                     8.85265   11.49573   20.39031 
 H                     7.2943    11.12447   19.74973 
 H                     9.74229   7.7533    21.77174 
 H                     7.10869   6.88026   20.58279 
 

 GradGradGradGradGradGradGradGradGradGradGradGradGradGradGradGradGradGrad
 Berny optimization.
 Initialization pass.
 Trust Radius=3.00D-01 FncErr=1.00D-07 GrdErr=1.00D-07
 Number of steps in this run=      2 maximum allowed number of steps=      2.
 GradGradGradGradGradGradGradGradGradGradGradGradGradGradGradGradGradGrad

                          Input orientation:                          
 ---------------------------------------------------------------------
 Center     Atomic      Atomic             Coordinates (Angstroms)
 Number     Number       Type             X           Y           Z
 ---------------------------------------------------------------------
      1          8           0        7.898000    7.606000   12.276000
      2          6           0        8.477000    8.095000   13.495000
      3          6           0        7.732000    9.336000   13.960000
      4          8           0        8.005000   10.389000   13.023000
      5          1           0        7.950000   10.097000   12.068000
      6          6           0        8.230000    9.819000   15.312000
      7          8           0        7.585000   11.009000   15.789000
      8          1           0        7.965000   11.154000   16.703000
      9          6           0        8.861000    5.673000   14.207000
     10          8           0        8.374000    4.849000   13.138000
     11          1           0        8.603000    3.920000   13.426000
     12          6           0        8.195000    7.004000   14.515000
     13          8           0        8.633000    7.405000   15.821000
     14          6           0        7.964000    8.616000   16.201000
     15          8           0        8.543000    8.930000   17.476000
     16          6           0        8.069000    8.557000   18.778000
     17          6           0        8.512000    7.139000   19.099000
     18          8           0        8.148000    6.125000   18.152000
     19          1           0        8.549000    6.476000   17.305000
     20          6           0        8.173000    6.780000   20.537000
     21          8           0        8.423000    5.463000   21.048000
     22          1           0        8.209000    5.472000   22.025000
     23          6           0        8.343000   10.957000   19.619000
     24          8           0        8.713000   11.559000   18.370000
     25          1           0        8.492000   12.524000   18.509000
     26          6           0        8.593000    9.478000   19.868000
     27          8           0        8.187000    9.086000   21.187000
     28          6           0        8.698000    7.793000   21.542000
     29          8           0        7.815000    7.737000   22.672000
     30          1           0        8.331630    7.696951   23.480139
     31          1           0        8.597114    7.361055   11.665392
     32          1           0        9.526309    8.276644   13.390808
     33          1           0        6.680488    9.142279   14.001162
     34          1           0        9.284920    9.989516   15.257527
     35          1           0        6.911991    8.447938   16.300658
     36          1           0        7.137136    6.847253   14.550420
     37          1           0        8.819686    5.086090   15.100717
     38          1           0        9.891544    5.876382   14.003247
     39          1           0        6.999632    8.593727   18.779517
     40          1           0        9.581001    7.171151   19.065783
     41          1           0        9.656542    9.361997   19.850058
     42          1           0        8.852655   11.495731   20.390311
     43          1           0        7.294304   11.124472   19.749729
     44          1           0        9.742291    7.753299   21.771737
     45          1           0        7.108692    6.880257   20.582793
 ---------------------------------------------------------------------
                    Distance matrix (angstroms):
                    1          2          3          4          5
     1  O    0.000000
     2  C    1.435383   0.000000
     3  C    2.419982   1.520306   0.000000
     4  O    2.883496   2.389143   1.435725   0.000000
     5  H    2.500210   2.514371   2.050929   1.000157   0.000000
     6  C    3.771590   2.516878   1.519604   2.369609   3.267908
     7  O    4.900974   3.814380   2.483099   2.865581   3.848482
     8  H    5.673722   4.462162   3.299009   3.758886   4.754019
     9  C    2.897002   2.553524   3.840992   4.937130   4.997701
    10  O    2.927570   3.267197   4.606628   5.553466   5.372726
    11  H    3.925063   4.177471   5.511520   6.509069   6.358137
    12  C    2.337463   1.519936   2.441438   3.704104   3.951517
    13  O    3.625969   2.431196   2.829113   4.138532   4.668872
    14  C    4.053404   2.803042   2.365228   3.639354   4.390358
    15  O    5.404535   4.068162   3.631090   4.716708   5.564171
    16  C    6.573404   5.318834   4.892191   6.039896   6.885482
    17  C    6.866470   5.685066   5.643096   6.909220   7.648566
    18  O    6.064919   5.067227   5.296833   6.671491   7.268497
    19  H    5.195338   4.140344   4.476172   5.826065   6.395046
    20  C    8.306746   7.170175   7.069975   8.337464   9.098142
    21  O    9.045223   7.998634   8.106624   9.425541  10.116229
    22  H    9.984672   8.928205   8.955571  10.259362  10.981783
    23  C    8.083741   6.761093   5.918213   6.629033   7.609970
    24  O    7.309396   5.985033   5.035096   5.519110   6.514201
    25  H    7.961774   6.690027   5.606634   5.906910   6.904388
    26  C    7.850215   6.522367   5.972098   6.930346   7.850899
    27  O    9.037690   7.760995   7.245623   8.269331   9.177933
    28  C    9.302351   8.055697   7.797482   8.932683   9.778783
    29  O   10.397157   9.207808   8.857914  10.008617  10.864283
    30  H   11.212896   9.994127   9.678796  10.803036  11.668025
    31  H    0.960000   1.974986   3.148659   3.370778   2.840113
    32  H    2.084215   1.070000   2.160037   2.629013   2.747411
    33  H    2.611259   2.140199   1.070000   2.065295   2.502052
    34  H    4.061305   2.710798   2.126551   2.605935   3.459284
    35  H    4.228351   3.231956   2.634341   3.963008   4.659642
    36  H    2.515472   2.113296   2.626085   3.953501   4.169414
    37  H    3.895956   3.427725   4.532773   5.753388   5.921397
    38  H    3.154232   2.679835   4.078536   4.988352   5.032732
    39  H    6.639157   5.509761   4.931032   6.113204   6.943161
    40  H    7.008761   5.753776   5.845887   7.025209   7.758204
    41  H    7.971346   6.586605   6.196557   7.098665   8.000809
    42  H    9.048946   7.697493   6.875261   7.498043   8.487173
    43  H    8.282555   7.049688   6.075456   6.804034   7.777827
    44  H    9.674303   8.379863   8.220064   9.300834  10.142375
    45  H    8.375710   7.320155   7.090879   8.382428   9.140948
                    6          7          8          9         10
     6  C    0.000000
     7  O    1.435149   0.000000
     8  H    1.946107   1.000410   0.000000
     9  C    4.336877   5.709973   6.088858   0.000000
    10  O    5.426593   6.752475   7.254621   1.434889   0.000000
    11  H    6.204380   7.541486   7.967216   1.936371   0.999213
    12  C    2.925860   4.246787   4.697100   1.519862   2.563629
    13  O    2.499777   3.753418   3.908855   2.378404   3.714661
    14  C    1.519304   2.457607   2.587170   3.666319   4.872408
    15  O    2.360336   2.843585   2.424415   4.625531   5.958302
    16  C    3.692116   3.896239   3.325786   5.462487   6.756618
    17  C    4.647934   5.176131   4.707467   5.118850   6.387227
    18  O    4.660253   5.454741   5.236786   4.034315   5.178750
    19  H    3.905056   4.876027   4.752593   3.215549   4.476789
    20  C    6.044782   6.385428   5.820197   6.462793   7.649468
    21  O    7.205115   7.688787   7.174697   6.858223   7.933946
    22  H    7.997576   8.362741   7.788989   7.847715   8.910338
    23  C    4.456239   3.904634   2.946990   7.581472   8.905728
    24  O    3.551373   2.869921   1.871475   7.210927   8.515447
    25  H    4.196007   3.242881   2.327287   8.098121   9.368414
    26  C    4.583141   4.471942   3.636012   6.826183   8.171200
    27  O    5.920706   5.761835   4.942890   7.798926   9.097996
    28  C    6.567846   6.684193   5.937132   7.636962   8.910630
    29  O    7.660062   7.624603   6.879488   8.775559   9.977484
    30  H    8.439901   8.407185   7.616773   9.506194  10.727183
    31  H    4.412937   5.597858   6.337467   3.062505   2.920407
    32  H    2.783928   4.121380   4.656981   2.808517   3.624979
    33  H    2.139448   2.738458   3.605124   4.102792   4.695240
    34  H    1.070000   2.052204   2.277632   4.462692   5.634454
    35  H    2.143456   2.696993   2.931463   3.985263   5.009215
    36  H    3.256629   4.365180   4.885389   2.113886   2.741857
    37  H    4.774181   6.089256   6.333824   1.070000   2.026600
    38  H    4.474125   5.903628   6.233257   1.070000   2.026600
    39  H    3.877986   3.888366   3.434947   5.736135   6.909311
    40  H    4.788235   5.426823   4.904823   5.135234   6.479803
    41  H    4.778896   4.847277   3.997069   6.788644   8.189248
    42  H    5.384085   4.797491   3.808015   8.493386   9.849069
    43  H    4.719451   3.973060   3.119817   7.930632   9.179447
    44  H    6.948550   7.144693   6.357329   7.894908   9.211330
    45  H    6.137980   6.344591   5.835317   6.721517   7.819971
                   11         12         13         14         15
    11  H    0.000000
    12  C    3.295973   0.000000
    13  O    4.228729   1.434671   0.000000
    14  C    5.491936   2.344035   1.434741   0.000000
    15  O    6.442531   3.549380   2.252277   1.435083   0.000000
    16  C    7.101467   4.538816   3.223205   2.579813   1.434925
    17  C    6.523279   4.596930   3.291000   3.298520   2.417182
    18  O    5.234895   3.742007   2.703181   3.169438   2.912220
    19  H    4.645718   2.861503   1.752813   2.478032   2.459958
    20  C    7.676641   6.026205   4.779423   4.713329   3.758872
    21  O    7.778697   6.716156   5.580053   5.800474   4.979325
    22  H    8.746813   7.664680   6.511980   6.622970   5.723873
    23  C    9.377645   6.457471   5.208225   4.160126   2.956548
    24  O    9.099976   5.989772   4.874373   3.731864   2.782045
    25  H    9.993899   6.819871   5.783544   4.569257   3.739856
    26  C    8.508280   5.910473   4.547212   3.819106   2.454479
    27  O    9.332402   6.989304   5.640801   5.013065   3.731299
    28  C    8.993254   7.089024   5.734510   5.453656   4.224825
    29  O   10.033890   8.198679   6.907644   6.532127   5.380674
    30  H   10.743590   8.992918   7.670624   7.346133   6.133089
    31  H    3.865312   2.899905   4.155995   4.748417   6.018944
    32  H    4.453548   2.157734   2.731959   3.233133   4.252360
    33  H    5.594557   2.670209   3.184691   2.600704   3.948230
    34  H    6.376404   3.263829   2.724376   2.126386   2.568003
    35  H    5.623646   2.630522   2.068735   1.070000   2.067366
    36  H    3.461486   1.070000   2.040358   2.556674   3.856592
    37  H    2.052169   2.100399   2.435365   3.795139   4.527048
    38  H    2.412673   2.100399   2.687904   4.006376   4.816966
    39  H    7.285235   4.705554   3.582427   2.753044   2.047980
    40  H    6.582827   4.760101   3.388511   3.592946   2.588128
    41  H    8.484916   6.013244   4.594647   4.091068   2.657583
    42  H   10.293477   7.424786   6.136851   5.160706   3.895134
    43  H    9.675052   6.722494   5.573283   4.397090   3.397762
    44  H    9.254377   7.457600   6.063259   5.910980   4.612622
    45  H    7.887697   6.165508   5.027279   4.790038   3.988840
                   16         17         18         19         20
    16  C    0.000000
    17  C    1.519873   0.000000
    18  O    2.512517   1.434399   0.000000
    19  H    2.594357   1.912949   1.000705   0.000000
    20  C    2.502524   1.520410   2.473434   3.267968   0.000000
    21  O    3.853706   2.572061   2.983402   3.879703   1.434611
    22  H    4.481053   3.381150   3.928137   4.837563   1.981490
    23  C    2.557803   3.856953   5.053547   5.047414   4.280065
    24  O    3.097290   4.484221   5.467642   5.195961   5.275067
    25  H    3.998547   5.417262   6.418176   6.166942   6.099843
    26  C    1.520170   2.463502   3.792794   3.947519   2.811257
    27  O    2.469220   2.873357   4.240314   4.691809   2.395899
    28  C    2.935819   2.535855   3.817961   4.439466   1.520467
    29  O    3.987499   3.689138   4.810388   5.561795   2.366905
    30  H    4.787356   4.420206   5.558221   6.298438   3.086751
    31  H    7.231762   7.437411   6.618582   5.708837   8.900726
    32  H    5.587861   5.908173   5.403541   4.417958   7.425594
    33  H    5.008862   5.775424   5.337324   4.638505   7.108104
    34  H    3.990525   4.845592   4.960347   4.132616   6.277754
    35  H    2.736382   3.479090   3.217332   2.752643   4.724273
    36  H    4.654464   4.760771   3.809839   3.117515   6.075909
    37  H    5.112059   4.505039   3.292540   2.619920   5.730681
    38  H    5.771104   5.428079   4.507095   3.614351   6.816146
    39  H    1.070000   2.122630   2.794126   3.009902   2.784806
    40  H    2.071122   1.070000   1.995726   2.156065   2.073631
    41  H    2.077888   2.610705   3.954396   4.004116   3.056059
    42  H    3.442354   4.556823   5.861001   5.899920   4.766714
    43  H    2.852424   4.217845   5.317542   5.399930   4.501815
    44  H    3.522542   3.005745   4.277338   4.796580   2.221387
    45  H    2.644037   2.058607   2.749423   3.603031   1.070000
                   21         22         23         24         25
    21  O    0.000000
    22  H    1.000203   0.000000
    23  C    5.677365   5.990995   0.000000
    24  O    6.664608   7.117908   1.435028   0.000000
    25  H    7.503933   7.884989   1.926082   0.999693   0.000000
    26  C    4.188260   4.565976   1.520507   2.566898   3.336944
    27  O    3.633338   3.709949   2.446140   3.785220   4.368587
    28  C    2.397616   2.420630   3.719523   4.923877   5.623512
    29  O    2.859741   2.388319   4.468556   5.824199   6.379990
    30  H    3.303662   2.661367   5.053360   6.416728   6.930970
    31  H    9.574250  10.537582   8.732427   7.911254   8.573332
    32  H    8.232039   9.173364   6.882943   6.018944   6.730952
    33  H    8.138266   8.954847   6.133292   5.390584   5.919309
    34  H    7.400123   8.207572   4.565708   3.532402   4.198144
    35  H    5.807776   6.580770   4.399383   4.147833   4.897702
    36  H    6.766694   7.675256   6.635859   6.266825   7.052054
    37  H    5.972403   6.961864   7.423590   7.252458   8.188179
    38  H    7.208054   8.206278   7.729641   7.262895   8.151770
    39  H    4.119884   4.662715   2.845071   3.449084   4.212765
    40  H    2.861456   3.677834   4.021362   4.526672   5.490804
    41  H    4.261322   4.685918   2.079138   2.812057   3.626687
    42  H    6.083667   6.274698   1.070000   2.026120   2.174107
    43  H    5.917071   6.161490   1.070000   2.026120   2.220937
    44  H    2.740400   2.760335   4.105606   5.207170   5.913398
    45  H    1.988075   2.296482   4.367178   5.418569   6.169764
                   26         27         28         29         30
    26  C    0.000000
    27  O    1.434664   0.000000
    28  C    2.377504   1.434920   0.000000
    29  O    3.390985   2.040444   1.435174   0.000000
    30  H    4.035840   2.684933   1.974800   0.960000   0.000000
    31  H    8.471378   9.685280   9.886564  11.040764  11.822503
    32  H    6.653445   7.951692   8.207432   9.453059  10.176341
    33  H    6.179822   7.342276   7.921815   8.856939   9.729659
    34  H    4.690081   6.097575   6.683095   7.887262   8.589294
    35  H    4.075874   5.090099   5.575880   6.474168   7.356922
    36  H    6.108766   7.082259   7.225851   8.198244   9.049237
    37  H    6.485926   7.310431   6.988011   8.084617   8.790308
    38  H    7.003798   8.050678   7.869610   9.106108   9.775443
    39  H    2.122630   2.729130   3.340199   4.068198   4.967321
    40  H    2.634626   3.179536   2.701488   4.055089   4.617785
    41  H    1.070000   2.005777   2.498644   3.741022   4.207762
    42  H    2.100350   2.623854   3.880789   4.517841   4.924351
    43  H    2.100350   2.649155   4.035010   4.503971   5.171065
    44  H    2.814193   2.130010   1.070000   2.127250   2.216253
    45  H    3.076096   2.528461   2.068593   2.365939   3.249182
                   31         32         33         34         35
    31  H    0.000000
    32  H    2.163046   0.000000
    33  H    3.507426   3.036537   0.000000
    34  H    4.503922   2.544963   3.013193   0.000000
    35  H    5.050411   3.915511   2.413170   3.015855   0.000000
    36  H    3.273976   3.015959   2.403614   3.871278   2.382481
    37  H    4.126314   3.688189   4.715704   4.927942   4.047367
    38  H    3.057020   2.503944   4.580062   4.342704   4.557273
    39  H    7.394741   5.960103   4.820315   4.424385   2.484688
    40  H    7.467924   5.781907   6.160253   4.746963   4.049656
    41  H    8.492050   6.551096   6.566183   4.650078   4.578897
    42  H    9.658419   7.733652   7.146907   5.366657   5.457149
    43  H    9.012054   7.316272   6.111618   5.042871   4.382474
    44  H   10.178581   8.400031   8.466744   6.902520   6.198857
    45  H    9.053541   7.714882   6.972659   6.539259   4.564317
                   36         37         38         39         40
    36  H    0.000000
    37  H    2.497097   0.000000
    38  H    2.971321   1.725654   0.000000
    39  H    4.577590   5.399044   6.209659   0.000000
    40  H    5.144500   4.544097   5.234704   2.961273   0.000000
    41  H    6.384160   6.445149   6.811015   2.965716   2.328219
    42  H    7.658699   8.310499   8.570354   3.801313   4.581142
    43  H    6.734397   7.771882   8.204276   2.726318   4.617955
    44  H    7.730147   7.243460   7.993405   4.145104   2.772562
    45  H    6.032530   6.016618   7.214045   2.489914   2.915176
                   41         42         43         44         45
    41  H    0.000000
    42  H    2.343273   0.000000
    43  H    2.948992   1.725293   0.000000
    44  H    2.507611   4.087247   4.630979   0.000000
    45  H    3.631456   4.937717   4.329180   3.018549   0.000000
 Stoichiometry    C12H22O11
 Framework group  C1[X(C12H22O11)]
 Deg. of freedom   129
 Full point group                 C1      NOp   1
 Largest Abelian subgroup         C1      NOp   1
 Largest concise Abelian subgroup C1      NOp   1
                         Standard orientation:                         
 ---------------------------------------------------------------------
 Center     Atomic      Atomic             Coordinates (Angstroms)
 Number     Number       Type             X           Y           Z
 ---------------------------------------------------------------------
      1          8           0        4.956704   -0.453872   -0.326901
      2          6           0        3.714957   -0.030464    0.255434
      3          6           0        3.222608    1.230529   -0.436534
      4          8           0        4.122586    2.296882   -0.098545
      5          1           0        5.086848    2.036836   -0.152301
      6          6           0        1.849292    1.647852    0.062505
      7          8           0        1.345085    2.852727   -0.532225
      8          1           0        0.421660    2.951526   -0.160276
      9          6           0        3.072692   -2.488587    0.511581
     10          8           0        4.173553   -3.255427    0.002693
     11          1           0        3.911132   -4.202686    0.182312
     12          6           0        2.733332   -1.136825   -0.094683
     13          8           0        1.409387   -0.797078    0.341234
     14          6           0        1.001821    0.432852   -0.274919
     15          8           0       -0.290485    0.679855    0.298142
     16          6           0       -1.573370    0.291105   -0.213803
     17          6           0       -1.856742   -1.155707    0.155587
     18          8           0       -0.873710   -2.121870   -0.241499
     19          1           0       -0.043828   -1.765283    0.189259
     20          6           0       -3.277926   -1.541114   -0.223019
     21          8           0       -3.751529   -2.883487   -0.044561
     22          1           0       -4.725155   -2.893629   -0.273372
     23          6           0       -2.492002    2.648566    0.161495
     24          8           0       -1.267665    3.269375    0.579704
     25          1           0       -1.433223    4.239303    0.403020
     26          6           0       -2.698750    1.152364    0.336351
     27          8           0       -3.999018    0.740842   -0.108861
     28          6           0       -4.321214   -0.585489    0.333892
     29          8           0       -5.436103   -0.632776   -0.568610
     30          1           0       -6.249979   -0.722142   -0.067391
     31          1           0        5.564454   -0.713816    0.369280
     32          1           0        3.798356    0.103262    1.313764
     33          1           0        3.202608    1.086754   -1.496642
     34          1           0        1.883263    1.768696    1.125116
     35          1           0        0.922572    0.312953   -1.335222
     36          1           0        2.718018   -1.243206   -1.159271
     37          1           0        2.198228   -3.099512    0.428003
     38          1           0        3.255192   -2.329246    1.553792
     39          1           0       -1.560613    0.379463   -1.280073
     40          1           0       -1.839941   -1.174325    1.225293
     41          1           0       -2.692558    0.985636    1.393264
     42          1           0       -3.286858    3.138489    0.684066
     43          1           0       -2.612720    2.862557   -0.879915
     44          1           0       -4.564637   -0.682582    1.371302
     45          1           0       -3.311456   -1.390910   -1.281894
 ---------------------------------------------------------------------
 Rotational constants (GHZ):      0.4046747      0.1470811      0.1104454
 Standard basis: 6-31+G(d,p) (6D, 7F)
 There are   547 symmetry adapted basis functions of A   symmetry.
 Integral buffers will be    131072 words long.
 Raffenetti 2 integral format.
 Two-electron integral symmetry is turned on.
   547 basis functions,   890 primitive gaussians,   547 cartesian basis functions
    91 alpha electrons       91 beta electrons
       nuclear repulsion energy      2289.5382327497 Hartrees.
 NAtoms=   45 NActive=   45 NUniq=   45 SFac= 1.00D+00 NAtFMM=   50 NAOKFM=F Big=F
 One-electron integrals computed using PRISM.
 NBasis=   547 RedAO= T  NBF=   547
 NBsUse=   547 1.00D-06 NBFU=   547
 Harris functional with IExCor=  402 diagonalized for initial guess.
 ExpMin= 4.38D-02 ExpMax= 5.48D+03 ExpMxC= 8.25D+02 IAcc=2 IRadAn=         0 AccDes= 0.00D+00
 HarFok:  IExCor=  402 AccDes= 0.00D+00 IRadAn=         0 IDoV= 1
 ScaDFX=  1.000000  1.000000  1.000000  1.000000
 FoFCou: FMM=F IPFlag=           0 FMFlag=      100000 FMFlg1=           0
         NFxFlg=           0 DoJE=T BraDBF=F KetDBF=T FulRan=T
         Omega=  0.000000  0.000000  1.000000  0.000000  0.000000 ICntrl=     500 IOpCl=  0
         NMat0=    1 NMatS0=    1 NMatT0=    0 NMatD0=    1 NMtDS0=    0 NMtDT0=    0
         I1Cent=           4 NGrid=           0.
 Petite list used in FoFCou.
 Initial guess orbital symmetries:
       Occupied  (A) (A) (A) (A) (A) (A) (A) (A) (A) (A) (A) (A)
                 (A) (A) (A) (A) (A) (A) (A) (A) (A) (A) (A) (A)
                 (A) (A) (A) (A) (A) (A) (A) (A) (A) (A) (A) (A)
                 (A) (A) (A) (A) (A) (A) (A) (A) (A) (A) (A) (A)
                 (A) (A) (A) (A) (A) (A) (A) (A) (A) (A) (A) (A)
                 (A) (A) (A) (A) (A) (A) (A) (A) (A) (A) (A) (A)
                 (A) (A) (A) (A) (A) (A) (A) (A) (A) (A) (A) (A)
                 (A) (A) (A) (A) (A) (A) (A)
       Virtual   (A) (A) (A) (A) (A) (A) (A) (A) (A) (A) (A) (A)
                 (A) (A) (A) (A) (A) (A) (A) (A) (A) (A) (A) (A)
                 (A) (A) (A) (A) (A) (A) (A) (A) (A) (A) (A) (A)
                 (A) (A) (A) (A) (A) (A) (A) (A) (A) (A) (A) (A)
                 (A) (A) (A) (A) (A) (A) (A) (A) (A) (A) (A) (A)
                 (A) (A) (A) (A) (A) (A) (A) (A) (A) (A) (A) (A)
                 (A) (A) (A) (A) (A) (A) (A) (A) (A) (A) (A) (A)
                 (A) (A) (A) (A) (A) (A) (A) (A) (A) (A) (A) (A)
                 (A) (A) (A) (A) (A) (A) (A) (A) (A) (A) (A) (A)
                 (A) (A) (A) (A) (A) (A) (A) (A) (A) (A) (A) (A)
                 (A) (A) (A) (A) (A) (A) (A) (A) (A) (A) (A) (A)
                 (A) (A) (A) (A) (A) (A) (A) (A) (A) (A) (A) (A)
                 (A) (A) (A) (A) (A) (A) (A) (A) (A) (A) (A) (A)
                 (A) (A) (A) (A) (A) (A) (A) (A) (A) (A) (A) (A)
                 (A) (A) (A) (A) (A) (A) (A) (A) (A) (A) (A) (A)
                 (A) (A) (A) (A) (A) (A) (A) (A) (A) (A) (A) (A)
                 (A) (A) (A) (A) (A) (A) (A) (A) (A) (A) (A) (A)
                 (A) (A) (A) (A) (A) (A) (A) (A) (A) (A) (A) (A)
                 (A) (A) (A) (A) (A) (A) (A) (A) (A) (A) (A) (A)
                 (A) (A) (A) (A) (A) (A) (A) (A) (A) (A) (A) (A)
                 (A) (A) (A) (A) (A) (A) (A) (A) (A) (A) (A) (A)
                 (A) (A) (A) (A) (A) (A) (A) (A) (A) (A) (A) (A)
                 (A) (A) (A) (A) (A) (A) (A) (A) (A) (A) (A) (A)
                 (A) (A) (A) (A) (A) (A) (A) (A) (A) (A) (A) (A)
                 (A) (A) (A) (A) (A) (A) (A) (A) (A) (A) (A) (A)
                 (A) (A) (A) (A) (A) (A) (A) (A) (A) (A) (A) (A)
                 (A) (A) (A) (A) (A) (A) (A) (A) (A) (A) (A) (A)
                 (A) (A) (A) (A) (A) (A) (A) (A) (A) (A) (A) (A)
                 (A) (A) (A) (A) (A) (A) (A) (A) (A) (A) (A) (A)
                 (A) (A) (A) (A) (A) (A) (A) (A) (A) (A) (A) (A)
                 (A) (A) (A) (A) (A) (A) (A) (A) (A) (A) (A) (A)
                 (A) (A) (A) (A) (A) (A) (A) (A) (A) (A) (A) (A)
                 (A) (A) (A) (A) (A) (A) (A) (A) (A) (A) (A) (A)
                 (A) (A) (A) (A) (A) (A) (A) (A) (A) (A) (A) (A)
                 (A) (A) (A) (A) (A) (A) (A) (A) (A) (A) (A) (A)
                 (A) (A) (A) (A) (A) (A) (A) (A) (A) (A) (A) (A)
                 (A) (A) (A) (A) (A) (A) (A) (A) (A) (A) (A) (A)
                 (A) (A) (A) (A) (A) (A) (A) (A) (A) (A) (A) (A)
 The electronic state of the initial guess is 1-A.
 Requested convergence on RMS density matrix=1.00D-08 within 128 cycles.
 Requested convergence on MAX density matrix=1.00D-06.
 Requested convergence on             energy=1.00D-06.
 No special actions if energy rises.
 SCF Done:  E(RB3LYP) =  -1297.91585076     A.U. after   13 cycles
             Convg  =    0.6484D-08             -V/T =  2.0086
 Range of M.O.s used for correlation:     1   547
 NBasis=   547 NAE=    91 NBE=    91 NFC=     0 NFV=     0
 NROrb=    547 NOA=    91 NOB=    91 NVA=   456 NVB=   456

 **** Warning!!: The largest alpha MO coefficient is  0.80531937D+02

          Differentiating once with respect to electric field.
                with respect to dipole field.
          Electric field/nuclear overlap derivatives assumed to be zero.
          There are     3 degrees of freedom in the 1st order CPHF.  IDoFFX=0.
      3 vectors produced by pass  0 Test12= 1.38D-12 3.33D-08 XBig12= 1.22D+02 9.29D-01.
 AX will form     3 AO Fock derivatives at one time.
      3 vectors produced by pass  1 Test12= 1.38D-12 3.33D-08 XBig12= 2.19D+01 3.83D-01.
      3 vectors produced by pass  2 Test12= 1.38D-12 3.33D-08 XBig12= 9.58D+00 2.34D-01.
      3 vectors produced by pass  3 Test12= 1.38D-12 3.33D-08 XBig12= 9.53D-01 8.87D-02.
      3 vectors produced by pass  4 Test12= 1.38D-12 3.33D-08 XBig12= 2.69D-01 3.79D-02.
      3 vectors produced by pass  5 Test12= 1.38D-12 3.33D-08 XBig12= 5.61D-02 1.90D-02.
      3 vectors produced by pass  6 Test12= 1.38D-12 3.33D-08 XBig12= 1.86D-02 1.61D-02.
      3 vectors produced by pass  7 Test12= 1.38D-12 3.33D-08 XBig12= 2.19D-03 6.48D-03.
      3 vectors produced by pass  8 Test12= 1.38D-12 3.33D-08 XBig12= 5.65D-04 2.41D-03.
      3 vectors produced by pass  9 Test12= 1.38D-12 3.33D-08 XBig12= 9.91D-05 1.28D-03.
      3 vectors produced by pass 10 Test12= 1.38D-12 3.33D-08 XBig12= 3.07D-05 4.08D-04.
      3 vectors produced by pass 11 Test12= 1.38D-12 3.33D-08 XBig12= 4.59D-06 2.29D-04.
      3 vectors produced by pass 12 Test12= 1.38D-12 3.33D-08 XBig12= 1.06D-06 8.35D-05.
      3 vectors produced by pass 13 Test12= 1.38D-12 3.33D-08 XBig12= 2.74D-07 4.59D-05.
      3 vectors produced by pass 14 Test12= 1.38D-12 3.33D-08 XBig12= 1.88D-08 1.15D-05.
      3 vectors produced by pass 15 Test12= 1.38D-12 3.33D-08 XBig12= 3.63D-09 4.71D-06.
      3 vectors produced by pass 16 Test12= 1.38D-12 3.33D-08 XBig12= 8.43D-10 2.49D-06.
      3 vectors produced by pass 17 Test12= 1.38D-12 3.33D-08 XBig12= 6.36D-11 5.01D-07.
      3 vectors produced by pass 18 Test12= 1.38D-12 3.33D-08 XBig12= 1.39D-11 2.38D-07.
      3 vectors produced by pass 19 Test12= 1.38D-12 3.33D-08 XBig12= 1.77D-11 3.48D-07.
      2 vectors produced by pass 20 Test12= 1.38D-12 3.33D-08 XBig12= 8.63D-12 2.44D-07.
      2 vectors produced by pass 21 Test12= 1.38D-12 3.33D-08 XBig12= 5.72D-12 1.91D-07.
      2 vectors produced by pass 22 Test12= 1.38D-12 3.33D-08 XBig12= 1.59D-12 1.01D-07.
      1 vectors produced by pass 23 Test12= 1.38D-12 3.33D-08 XBig12= 2.43D-13 4.49D-08.
 Inverted reduced A of dimension    67 with in-core refinement.
 End of Minotr Frequency-dependent properties file   721 does not exist.
 End of Minotr Frequency-dependent properties file   722 does not exist.
 Symmetrizing basis deriv contribution to polar:
 IMax=3 JMax=2 DiffMx= 0.00D+00
 G2DrvN: will do    23 centers at a time, making    2 passes doing MaxLOS=2.
 Calling FoFCou, ICntrl=  3107 FMM=F I1Cent=   0 AccDes= 0.00D+00.
 Calling FoFCou, ICntrl=  3107 FMM=F I1Cent=   0 AccDes= 0.00D+00.
 FoFDir/FoFCou used for L=0 through L=2.
 End of G2Drv Frequency-dependent properties file   721 does not exist.
 End of G2Drv Frequency-dependent properties file   722 does not exist.
          IDoAtm=111111111111111111111111111111111111111111111
          Differentiating once with respect to electric field.
                with respect to dipole field.
          Differentiating once with respect to nuclear coordinates.
          There are   138 degrees of freedom in the 1st order CPHF.  IDoFFX=5.
 Will reuse    3 saved solutions.
    135 vectors produced by pass  0 Test12= 4.15D-14 1.00D-09 XBig12= 1.93D-01 9.77D-02.
 AX will form    68 AO Fock derivatives at one time.
    135 vectors produced by pass  1 Test12= 4.15D-14 1.00D-09 XBig12= 3.76D-02 1.58D-02.
    132 vectors produced by pass  2 Test12= 4.15D-14 1.00D-09 XBig12= 1.90D-04 1.84D-03.
    132 vectors produced by pass  3 Test12= 4.15D-14 1.00D-09 XBig12= 7.67D-07 9.83D-05.
    132 vectors produced by pass  4 Test12= 4.15D-14 1.00D-09 XBig12= 1.05D-09 2.60D-06.
    132 vectors produced by pass  5 Test12= 4.15D-14 1.00D-09 XBig12= 2.29D-12 1.14D-07.
     78 vectors produced by pass  6 Test12= 4.15D-14 1.00D-09 XBig12= 8.44D-14 1.71D-08.
 Inverted reduced A of dimension   876 with in-core refinement.
 Isotropic polarizability for W=    0.000000      188.68 Bohr**3.
 End of Minotr Frequency-dependent properties file   721 does not exist.
 End of Minotr Frequency-dependent properties file   722 does not exist.

 **********************************************************************

            Population analysis using the SCF density.

 **********************************************************************

 Orbital symmetries:
       Occupied  (A) (A) (A) (A) (A) (A) (A) (A) (A) (A) (A) (A)
                 (A) (A) (A) (A) (A) (A) (A) (A) (A) (A) (A) (A)
                 (A) (A) (A) (A) (A) (A) (A) (A) (A) (A) (A) (A)
                 (A) (A) (A) (A) (A) (A) (A) (A) (A) (A) (A) (A)
                 (A) (A) (A) (A) (A) (A) (A) (A) (A) (A) (A) (A)
                 (A) (A) (A) (A) (A) (A) (A) (A) (A) (A) (A) (A)
                 (A) (A) (A) (A) (A) (A) (A) (A) (A) (A) (A) (A)
                 (A) (A) (A) (A) (A) (A) (A)
       Virtual   (A) (A) (A) (A) (A) (A) (A) (A) (A) (A) (A) (A)
                 (A) (A) (A) (A) (A) (A) (A) (A) (A) (A) (A) (A)
                 (A) (A) (A) (A) (A) (A) (A) (A) (A) (A) (A) (A)
                 (A) (A) (A) (A) (A) (A) (A) (A) (A) (A) (A) (A)
                 (A) (A) (A) (A) (A) (A) (A) (A) (A) (A) (A) (A)
                 (A) (A) (A) (A) (A) (A) (A) (A) (A) (A) (A) (A)
                 (A) (A) (A) (A) (A) (A) (A) (A) (A) (A) (A) (A)
                 (A) (A) (A) (A) (A) (A) (A) (A) (A) (A) (A) (A)
                 (A) (A) (A) (A) (A) (A) (A) (A) (A) (A) (A) (A)
                 (A) (A) (A) (A) (A) (A) (A) (A) (A) (A) (A) (A)
                 (A) (A) (A) (A) (A) (A) (A) (A) (A) (A) (A) (A)
                 (A) (A) (A) (A) (A) (A) (A) (A) (A) (A) (A) (A)
                 (A) (A) (A) (A) (A) (A) (A) (A) (A) (A) (A) (A)
                 (A) (A) (A) (A) (A) (A) (A) (A) (A) (A) (A) (A)
                 (A) (A) (A) (A) (A) (A) (A) (A) (A) (A) (A) (A)
                 (A) (A) (A) (A) (A) (A) (A) (A) (A) (A) (A) (A)
                 (A) (A) (A) (A) (A) (A) (A) (A) (A) (A) (A) (A)
                 (A) (A) (A) (A) (A) (A) (A) (A) (A) (A) (A) (A)
                 (A) (A) (A) (A) (A) (A) (A) (A) (A) (A) (A) (A)
                 (A) (A) (A) (A) (A) (A) (A) (A) (A) (A) (A) (A)
                 (A) (A) (A) (A) (A) (A) (A) (A) (A) (A) (A) (A)
                 (A) (A) (A) (A) (A) (A) (A) (A) (A) (A) (A) (A)
                 (A) (A) (A) (A) (A) (A) (A) (A) (A) (A) (A) (A)
                 (A) (A) (A) (A) (A) (A) (A) (A) (A) (A) (A) (A)
                 (A) (A) (A) (A) (A) (A) (A) (A) (A) (A) (A) (A)
                 (A) (A) (A) (A) (A) (A) (A) (A) (A) (A) (A) (A)
                 (A) (A) (A) (A) (A) (A) (A) (A) (A) (A) (A) (A)
                 (A) (A) (A) (A) (A) (A) (A) (A) (A) (A) (A) (A)
                 (A) (A) (A) (A) (A) (A) (A) (A) (A) (A) (A) (A)
                 (A) (A) (A) (A) (A) (A) (A) (A) (A) (A) (A) (A)
                 (A) (A) (A) (A) (A) (A) (A) (A) (A) (A) (A) (A)
                 (A) (A) (A) (A) (A) (A) (A) (A) (A) (A) (A) (A)
                 (A) (A) (A) (A) (A) (A) (A) (A) (A) (A) (A) (A)
                 (A) (A) (A) (A) (A) (A) (A) (A) (A) (A) (A) (A)
                 (A) (A) (A) (A) (A) (A) (A) (A) (A) (A) (A) (A)
                 (A) (A) (A) (A) (A) (A) (A) (A) (A) (A) (A) (A)
                 (A) (A) (A) (A) (A) (A) (A) (A) (A) (A) (A) (A)
                 (A) (A) (A) (A) (A) (A) (A) (A) (A) (A) (A) (A)
 The electronic state is 1-A.
 Alpha  occ. eigenvalues --  -19.20009 -19.19518 -19.18741 -19.18681 -19.17916
 Alpha  occ. eigenvalues --  -19.17820 -19.17438 -19.16628 -19.15465 -19.15141
 Alpha  occ. eigenvalues --  -19.14803 -10.31541 -10.31160 -10.26218 -10.26010
 Alpha  occ. eigenvalues --  -10.25799 -10.25772 -10.25524 -10.24934 -10.24815
 Alpha  occ. eigenvalues --  -10.24758 -10.24665 -10.24607  -1.10522  -1.10067
 Alpha  occ. eigenvalues --   -1.05589  -1.05324  -1.03854  -1.03134  -1.03042
 Alpha  occ. eigenvalues --   -1.02294  -1.01840  -1.00816  -1.00205  -0.82592
 Alpha  occ. eigenvalues --   -0.80925  -0.79269  -0.78592  -0.72019  -0.70209
 Alpha  occ. eigenvalues --   -0.67770  -0.64488  -0.62993  -0.62498  -0.61563
 Alpha  occ. eigenvalues --   -0.60999  -0.56853  -0.55836  -0.54921  -0.54601
 Alpha  occ. eigenvalues --   -0.53912  -0.53628  -0.52734  -0.51602  -0.51256
 Alpha  occ. eigenvalues --   -0.50886  -0.50056  -0.49561  -0.48662  -0.46809
 Alpha  occ. eigenvalues --   -0.45857  -0.45493  -0.44540  -0.43671  -0.43150
 Alpha  occ. eigenvalues --   -0.42653  -0.41806  -0.41065  -0.40726  -0.39918
 Alpha  occ. eigenvalues --   -0.39221  -0.38844  -0.37608  -0.36738  -0.36328
 Alpha  occ. eigenvalues --   -0.35151  -0.34554  -0.33954  -0.33797  -0.32946
 Alpha  occ. eigenvalues --   -0.32015  -0.31260  -0.30951  -0.30228  -0.29774
 Alpha  occ. eigenvalues --   -0.29345  -0.29063  -0.28054  -0.27827  -0.26729
 Alpha  occ. eigenvalues --   -0.26618
 Alpha virt. eigenvalues --   -0.02029  -0.01965  -0.01948  -0.00245   0.00085
 Alpha virt. eigenvalues --    0.00948   0.01898   0.02025   0.03040   0.03276
 Alpha virt. eigenvalues --    0.03545   0.04230   0.04838   0.05316   0.05690
 Alpha virt. eigenvalues --    0.06031   0.06768   0.07352   0.07431   0.07955
 Alpha virt. eigenvalues --    0.08326   0.08701   0.08868   0.09408   0.10224
 Alpha virt. eigenvalues --    0.10576   0.11126   0.11486   0.11822   0.12184
 Alpha virt. eigenvalues --    0.12385   0.12830   0.13187   0.13510   0.13933
 Alpha virt. eigenvalues --    0.13995   0.14164   0.14606   0.15102   0.15279
 Alpha virt. eigenvalues --    0.15456   0.16356   0.16840   0.16902   0.17172
 Alpha virt. eigenvalues --    0.17434   0.17791   0.17880   0.18252   0.18651
 Alpha virt. eigenvalues --    0.18808   0.19226   0.19302   0.19851   0.20152
 Alpha virt. eigenvalues --    0.20573   0.20694   0.20827   0.21347   0.21740
 Alpha virt. eigenvalues --    0.22183   0.22434   0.22538   0.22796   0.23274
 Alpha virt. eigenvalues --    0.23431   0.23841   0.24115   0.24507   0.24661
 Alpha virt. eigenvalues --    0.24876   0.25408   0.25497   0.25760   0.26046
 Alpha virt. eigenvalues --    0.26072   0.26677   0.27043   0.27339   0.27460
 Alpha virt. eigenvalues --    0.27603   0.27946   0.28206   0.28740   0.29103
 Alpha virt. eigenvalues --    0.29362   0.29672   0.29980   0.30280   0.30697
 Alpha virt. eigenvalues --    0.30922   0.31328   0.31925   0.32129   0.32336
 Alpha virt. eigenvalues --    0.32860   0.33127   0.33456   0.33591   0.34047
 Alpha virt. eigenvalues --    0.34276   0.34787   0.35035   0.35377   0.35812
 Alpha virt. eigenvalues --    0.35972   0.36478   0.37117   0.37242   0.37744
 Alpha virt. eigenvalues --    0.38094   0.38353   0.38937   0.39592   0.39747
 Alpha virt. eigenvalues --    0.40382   0.40756   0.41040   0.41647   0.41987
 Alpha virt. eigenvalues --    0.42397   0.42892   0.43258   0.44058   0.44402
 Alpha virt. eigenvalues --    0.44829   0.45290   0.45947   0.46828   0.47197
 Alpha virt. eigenvalues --    0.48215   0.48621   0.49304   0.49606   0.50002
 Alpha virt. eigenvalues --    0.51435   0.52088   0.55720   0.62906   0.63547
 Alpha virt. eigenvalues --    0.64301   0.65627   0.68081   0.69043   0.70094
 Alpha virt. eigenvalues --    0.70990   0.71778   0.72470   0.73813   0.73880
 Alpha virt. eigenvalues --    0.75366   0.76357   0.77338   0.77840   0.78690
 Alpha virt. eigenvalues --    0.79215   0.79583   0.81197   0.82244   0.82824
 Alpha virt. eigenvalues --    0.85483   0.86070   0.88449   0.88961   0.89943
 Alpha virt. eigenvalues --    0.91552   0.92305   0.94116   0.94538   0.95320
 Alpha virt. eigenvalues --    0.96379   0.97004   0.97473   0.98645   0.99466
 Alpha virt. eigenvalues --    1.00917   1.01674   1.02556   1.03657   1.04494
 Alpha virt. eigenvalues --    1.05000   1.05940   1.06451   1.06842   1.07200
 Alpha virt. eigenvalues --    1.08112   1.08986   1.09433   1.10143   1.10871
 Alpha virt. eigenvalues --    1.10952   1.12803   1.13404   1.13894   1.15977
 Alpha virt. eigenvalues --    1.16847   1.17348   1.19090   1.19591   1.20101
 Alpha virt. eigenvalues --    1.21633   1.23574   1.24587   1.25312   1.25996
 Alpha virt. eigenvalues --    1.26658   1.27163   1.27758   1.28869   1.29227
 Alpha virt. eigenvalues --    1.29710   1.30263   1.30588   1.30961   1.32008
 Alpha virt. eigenvalues --    1.32412   1.32786   1.33024   1.33993   1.34479
 Alpha virt. eigenvalues --    1.35067   1.35729   1.36866   1.37722   1.38408
 Alpha virt. eigenvalues --    1.38817   1.39864   1.42136   1.42420   1.43531
 Alpha virt. eigenvalues --    1.44143   1.45214   1.46009   1.46585   1.47331
 Alpha virt. eigenvalues --    1.48722   1.49214   1.49480   1.51460   1.52046
 Alpha virt. eigenvalues --    1.53208   1.55208   1.56074   1.56393   1.57536
 Alpha virt. eigenvalues --    1.57844   1.58197   1.59643   1.60443   1.61490
 Alpha virt. eigenvalues --    1.61942   1.63569   1.63962   1.65179   1.65956
 Alpha virt. eigenvalues --    1.66789   1.67216   1.67978   1.68247   1.69012
 Alpha virt. eigenvalues --    1.70938   1.71661   1.72402   1.73401   1.73652
 Alpha virt. eigenvalues --    1.74265   1.75744   1.76909   1.77306   1.77728
 Alpha virt. eigenvalues --    1.78292   1.79131   1.80496   1.81567   1.82969
 Alpha virt. eigenvalues --    1.83599   1.84282   1.84637   1.86087   1.86833
 Alpha virt. eigenvalues --    1.87365   1.88421   1.89472   1.89749   1.90370
 Alpha virt. eigenvalues --    1.91969   1.92503   1.93653   1.94431   1.95903
 Alpha virt. eigenvalues --    1.96287   1.96686   1.96856   1.97655   1.98217
 Alpha virt. eigenvalues --    1.99401   2.00370   2.01277   2.02718   2.02997
 Alpha virt. eigenvalues --    2.03553   2.04511   2.04875   2.06326   2.06501
 Alpha virt. eigenvalues --    2.07583   2.07970   2.10238   2.11153   2.11903
 Alpha virt. eigenvalues --    2.13879   2.14036   2.15131   2.15705   2.16706
 Alpha virt. eigenvalues --    2.17305   2.18677   2.19466   2.19659   2.20276
 Alpha virt. eigenvalues --    2.22368   2.23782   2.24725   2.26821   2.27574
 Alpha virt. eigenvalues --    2.28474   2.31558   2.32987   2.33239   2.34535
 Alpha virt. eigenvalues --    2.34925   2.36066   2.37501   2.38301   2.38669
 Alpha virt. eigenvalues --    2.39635   2.41124   2.42092   2.43518   2.45105
 Alpha virt. eigenvalues --    2.45854   2.46589   2.46715   2.47612   2.48789
 Alpha virt. eigenvalues --    2.50121   2.51002   2.51990   2.54179   2.56091
 Alpha virt. eigenvalues --    2.57233   2.58176   2.59480   2.60078   2.60730
 Alpha virt. eigenvalues --    2.61892   2.62649   2.63495   2.64763   2.65663
 Alpha virt. eigenvalues --    2.66515   2.66897   2.68289   2.69207   2.69871
 Alpha virt. eigenvalues --    2.70169   2.70380   2.71876   2.74601   2.75098
 Alpha virt. eigenvalues --    2.76708   2.76872   2.77907   2.78667   2.79883
 Alpha virt. eigenvalues --    2.81599   2.83109   2.83554   2.84375   2.85385
 Alpha virt. eigenvalues --    2.85994   2.87368   2.88266   2.88858   2.89700
 Alpha virt. eigenvalues --    2.90072   2.91199   2.92275   2.93188   2.94653
 Alpha virt. eigenvalues --    2.95147   2.96912   2.97362   2.98774   2.99442
 Alpha virt. eigenvalues --    3.00672   3.03142   3.04591   3.04679   3.05474
 Alpha virt. eigenvalues --    3.06831   3.08929   3.10897   3.12668   3.13718
 Alpha virt. eigenvalues --    3.17794   3.19002   3.21837   3.25442   3.33364
 Alpha virt. eigenvalues --    3.34786   3.36521   3.37531   3.39122   3.41224
 Alpha virt. eigenvalues --    3.43302   3.44515   3.45880   3.47029   3.48955
 Alpha virt. eigenvalues --    3.50848   3.51622   3.52831   3.53788   3.54075
 Alpha virt. eigenvalues --    3.57483   3.57706   3.61328   3.61736   3.63414
 Alpha virt. eigenvalues --    3.67594   3.68414   3.70010   4.31959   4.32824
 Alpha virt. eigenvalues --    4.34001   4.37921   4.39408   4.42863   4.45181
 Alpha virt. eigenvalues --    4.45899   4.49973   4.51478   4.53074   4.55231
 Alpha virt. eigenvalues --    4.59566   4.60462   4.63367   4.67519   4.69262
 Alpha virt. eigenvalues --    4.83265   4.85223   4.87762   4.88886   4.89926
 Alpha virt. eigenvalues --    4.91650
          Condensed to atoms (all electrons):
              1          2          3          4          5          6
     1  O    8.281732   0.119994   0.012859  -0.022690   0.026771   0.061034
     2  C    0.119994   9.683012  -1.626167   0.043123  -0.112242  -2.976540
     3  C    0.012859  -1.626167   8.573644   0.181714   0.079116   0.957066
     4  O   -0.022690   0.043123   0.181714   8.257511   0.192008  -0.151439
     5  H    0.026771  -0.112242   0.079116   0.192008   0.433161   0.002002
     6  C    0.061034  -2.976540   0.957066  -0.151439   0.002002  11.452735
     7  O   -0.001451   0.045892  -0.161869   0.009795  -0.000893   0.325790
     8  H    0.000016  -0.010785   0.032967  -0.000846   0.000012   0.035132
     9  C    0.017232   0.554706  -0.281044   0.015380  -0.007237   0.006624
    10  O    0.001241   0.017905   0.001268   0.000173  -0.000053  -0.004156
    11  H    0.001184  -0.008165   0.000560   0.000002   0.000000  -0.000051
    12  C   -0.193009  -2.073695   0.266953   0.016716   0.021990   0.527100
    13  O    0.006987   0.045788  -0.066919   0.002029  -0.000141  -0.091713
    14  C    0.023394   1.343915  -1.235070  -0.015135   0.019278  -3.234312
    15  O    0.000394  -0.029002  -0.011868  -0.000765   0.000073   0.067347
    16  C    0.002730   0.130115  -0.310629  -0.000725   0.000752  -0.154416
    17  C   -0.000934   0.017371  -0.042680   0.002212   0.000066  -0.355859
    18  O    0.000061   0.007380   0.001490  -0.000011   0.000000   0.006557
    19  H   -0.000033   0.002354   0.004443  -0.000007   0.000000   0.006584
    20  C    0.000146   0.025503  -0.049299   0.000086   0.000004  -0.019154
    21  O    0.000000  -0.000006  -0.000104   0.000000   0.000000  -0.000177
    22  H    0.000000   0.000001   0.000001   0.000000   0.000000  -0.000065
    23  C    0.000043   0.015209  -0.022365   0.000498  -0.000020  -0.121631
    24  O    0.000008   0.002479  -0.009459   0.000082  -0.000004  -0.008524
    25  H    0.000000   0.000053   0.000341  -0.000001   0.000000  -0.004616
    26  C   -0.000029   0.009368  -0.040093   0.000076   0.000051  -0.071495
    27  O    0.000000   0.000071   0.000700   0.000000   0.000000   0.001958
    28  C    0.000000  -0.001698   0.004732  -0.000015   0.000000   0.030991
    29  O    0.000000  -0.000018   0.000084   0.000000   0.000000  -0.000168
    30  H    0.000000   0.000000   0.000000   0.000000   0.000000   0.000002
    31  H    0.228487   0.104753  -0.023478   0.000004  -0.002315   0.001901
    32  H   -0.041992   0.441081  -0.112776   0.002685  -0.001250  -0.012935
    33  H   -0.007211   0.196300   0.186986  -0.030508  -0.003193  -0.330962
    34  H   -0.001178   0.121889  -0.218451   0.010292   0.000010   0.214984
    35  H   -0.000270   0.041567  -0.067944   0.000492   0.000000  -0.186152
    36  H    0.005556   0.012908  -0.073816   0.000317   0.000012  -0.016111
    37  H    0.000591  -0.018983  -0.006820   0.000044   0.000000   0.001854
    38  H    0.001254  -0.015439   0.003852  -0.000110   0.000002   0.011430
    39  H   -0.000001  -0.000362   0.002173   0.000005   0.000000  -0.010600
    40  H    0.000000  -0.000466   0.000746   0.000000   0.000000   0.004970
    41  H    0.000000  -0.000083   0.001188   0.000000   0.000000   0.000072
    42  H    0.000000  -0.000012  -0.000177   0.000000   0.000000  -0.001034
    43  H    0.000000  -0.000009   0.001000   0.000000   0.000000   0.002380
    44  H    0.000000  -0.000010   0.000015   0.000000   0.000000   0.000181
    45  H    0.000000   0.000037   0.000054   0.000000   0.000000   0.001363
              7          8          9         10         11         12
     1  O   -0.001451   0.000016   0.017232   0.001241   0.001184  -0.193009
     2  C    0.045892  -0.010785   0.554706   0.017905  -0.008165  -2.073695
     3  C   -0.161869   0.032967  -0.281044   0.001268   0.000560   0.266953
     4  O    0.009795  -0.000846   0.015380   0.000173   0.000002   0.016716
     5  H   -0.000893   0.000012  -0.007237  -0.000053   0.000000   0.021990
     6  C    0.325790   0.035132   0.006624  -0.004156  -0.000051   0.527100
     7  O    8.199853   0.206328   0.005767   0.000028   0.000000   0.037167
     8  H    0.206328   0.352472  -0.000191   0.000000   0.000000  -0.001599
     9  C    0.005767  -0.000191   8.292620   0.110156   0.016069  -2.964464
    10  O    0.000028   0.000000   0.110156   8.304646   0.196773  -0.005231
    11  H    0.000000   0.000000   0.016069   0.196773   0.443829   0.016877
    12  C    0.037167  -0.001599  -2.964464  -0.005231   0.016877  11.954833
    13  O    0.010986   0.001273   0.069179  -0.000222  -0.000550  -0.188885
    14  C   -0.115033  -0.057201  -0.663538   0.005714  -0.005078  -1.091919
    15  O   -0.008892   0.019130  -0.017820  -0.000032   0.000006   0.030815
    16  C   -0.000792  -0.000155  -0.138645  -0.002276  -0.000010  -0.103276
    17  C    0.003840   0.002957   0.009294  -0.000005  -0.000029  -0.021765
    18  O    0.000214  -0.000015   0.004270  -0.000045  -0.000003  -0.030141
    19  H   -0.000091  -0.000005  -0.014099  -0.000048  -0.000008   0.006678
    20  C    0.003633   0.000935  -0.014219   0.000061   0.000015  -0.032844
    21  O   -0.000003   0.000000   0.000216   0.000000   0.000000  -0.000052
    22  H    0.000000   0.000000   0.000001   0.000000   0.000000   0.000044
    23  C    0.007580   0.001353  -0.003397  -0.000013  -0.000001  -0.009162
    24  O   -0.021944   0.008257   0.000276   0.000000   0.000000   0.000672
    25  H    0.002805  -0.003542  -0.000016   0.000000   0.000000  -0.000247
    26  C   -0.000980  -0.009182  -0.019625  -0.000101   0.000003  -0.020678
    27  O   -0.000006   0.000005  -0.000013   0.000000   0.000000  -0.000715
    28  C   -0.000799   0.000075   0.004525   0.000017   0.000001   0.001395
    29  O   -0.000004  -0.000001   0.000008   0.000000   0.000000   0.000066
    30  H    0.000000   0.000000   0.000000   0.000000   0.000000  -0.000003
    31  H    0.000001   0.000000   0.001879   0.000503  -0.000022  -0.059841
    32  H    0.000243   0.000001   0.021296   0.000212   0.000002  -0.127492
    33  H    0.010311  -0.000140   0.030336   0.000146   0.000001  -0.026284
    34  H   -0.037298  -0.006176   0.018019   0.000030   0.000000   0.015933
    35  H    0.005019  -0.000302   0.014380   0.000149   0.000000   0.004842
    36  H   -0.000066   0.000003   0.070822   0.005575  -0.000133   0.177003
    37  H   -0.000012   0.000000   0.441375  -0.039386  -0.015247  -0.051779
    38  H    0.000000   0.000000   0.633469  -0.072605   0.000150  -0.270263
    39  H    0.000106  -0.000032   0.000246   0.000001   0.000000  -0.001670
    40  H    0.000034   0.000003   0.000511  -0.000001   0.000000  -0.002901
    41  H    0.000009  -0.000021   0.000205   0.000000   0.000000   0.000397
    42  H   -0.000436   0.000159  -0.000002   0.000000   0.000000   0.000049
    43  H    0.000425   0.000299   0.000005   0.000000   0.000000   0.000113
    44  H    0.000000   0.000000   0.000013   0.000000   0.000000   0.000016
    45  H    0.000002   0.000000  -0.000037   0.000000   0.000000  -0.000104
             13         14         15         16         17         18
     1  O    0.006987   0.023394   0.000394   0.002730  -0.000934   0.000061
     2  C    0.045788   1.343915  -0.029002   0.130115   0.017371   0.007380
     3  C   -0.066919  -1.235070  -0.011868  -0.310629  -0.042680   0.001490
     4  O    0.002029  -0.015135  -0.000765  -0.000725   0.002212  -0.000011
     5  H   -0.000141   0.019278   0.000073   0.000752   0.000066   0.000000
     6  C   -0.091713  -3.234312   0.067347  -0.154416  -0.355859   0.006557
     7  O    0.010986  -0.115033  -0.008892  -0.000792   0.003840   0.000214
     8  H    0.001273  -0.057201   0.019130  -0.000155   0.002957  -0.000015
     9  C    0.069179  -0.663538  -0.017820  -0.138645   0.009294   0.004270
    10  O   -0.000222   0.005714  -0.000032  -0.002276  -0.000005  -0.000045
    11  H   -0.000550  -0.005078   0.000006  -0.000010  -0.000029  -0.000003
    12  C   -0.188885  -1.091919   0.030815  -0.103276  -0.021765  -0.030141
    13  O    8.543109   0.138197  -0.065844   0.030419   0.023291   0.011162
    14  C    0.138197  10.420683   0.152093  -0.487410   0.601742   0.004663
    15  O   -0.065844   0.152093   8.463782   0.038065  -0.056961  -0.004136
    16  C    0.030419  -0.487410   0.038065  12.058138  -2.833175  -0.189449
    17  C    0.023291   0.601742  -0.056961  -2.833175  10.611140   0.420896
    18  O    0.011162   0.004663  -0.004136  -0.189449   0.420896   8.190429
    19  H    0.011904  -0.008000   0.017793  -0.057533   0.010294   0.188690
    20  C    0.001152  -0.639743   0.002944  -0.951612  -2.649632  -0.111253
    21  O    0.000160   0.002394   0.000024   0.041450  -0.215859   0.016272
    22  H   -0.000004  -0.000439   0.000038  -0.018138   0.051531  -0.000902
    23  C    0.017788  -0.025864  -0.017217   0.219744  -0.295549   0.002880
    24  O   -0.005989   0.057469  -0.057689   0.042687  -0.004983  -0.000077
    25  H    0.000049  -0.004230   0.002890  -0.009613  -0.001104  -0.000001
    26  C   -0.048550  -0.547547  -0.018764  -2.964835   0.525664   0.039273
    27  O   -0.000001   0.002681   0.005866  -0.074531  -0.021845   0.000218
    28  C    0.001792   0.081503   0.009075   1.103796  -0.175273   0.002664
    29  O    0.000011   0.006604   0.000213   0.019347   0.052896  -0.000980
    30  H    0.000000   0.000079   0.000004  -0.005526   0.014640  -0.000002
    31  H   -0.000770  -0.002250  -0.000014   0.000191  -0.000100  -0.000001
    32  H    0.012733   0.066266  -0.000454   0.000336   0.002011   0.000047
    33  H    0.009510   0.178425  -0.000651   0.008676   0.003772   0.000071
    34  H    0.016048   0.076220  -0.007518   0.019219   0.008949   0.000032
    35  H   -0.064299   0.423377  -0.053609   0.046759   0.024485  -0.002362
    36  H   -0.036766   0.093632  -0.000335   0.002375   0.008631   0.000102
    37  H   -0.001301   0.005717  -0.000188   0.001521   0.001661  -0.000385
    38  H    0.003663  -0.009947  -0.000425  -0.003713   0.001192   0.000062
    39  H   -0.001826   0.010690  -0.059444   0.362030   0.009379  -0.003054
    40  H    0.001582   0.028868  -0.010423   0.008297   0.402623  -0.052758
    41  H   -0.000674   0.038945   0.004156  -0.001925   0.044504  -0.000651
    42  H   -0.000007   0.003342  -0.001136  -0.003188  -0.009993   0.000023
    43  H    0.000085   0.003641   0.005043   0.022220   0.005549   0.000029
    44  H   -0.000002   0.004097   0.000168   0.071176   0.023498  -0.000730
    45  H    0.000113   0.003957  -0.000334   0.151987  -0.221042   0.003665
             19         20         21         22         23         24
     1  O   -0.000033   0.000146   0.000000   0.000000   0.000043   0.000008
     2  C    0.002354   0.025503  -0.000006   0.000001   0.015209   0.002479
     3  C    0.004443  -0.049299  -0.000104   0.000001  -0.022365  -0.009459
     4  O   -0.000007   0.000086   0.000000   0.000000   0.000498   0.000082
     5  H    0.000000   0.000004   0.000000   0.000000  -0.000020  -0.000004
     6  C    0.006584  -0.019154  -0.000177  -0.000065  -0.121631  -0.008524
     7  O   -0.000091   0.003633  -0.000003   0.000000   0.007580  -0.021944
     8  H   -0.000005   0.000935   0.000000   0.000000   0.001353   0.008257
     9  C   -0.014099  -0.014219   0.000216   0.000001  -0.003397   0.000276
    10  O   -0.000048   0.000061   0.000000   0.000000  -0.000013   0.000000
    11  H   -0.000008   0.000015   0.000000   0.000000  -0.000001   0.000000
    12  C    0.006678  -0.032844  -0.000052   0.000044  -0.009162   0.000672
    13  O    0.011904   0.001152   0.000160  -0.000004   0.017788  -0.005989
    14  C   -0.008000  -0.639743   0.002394  -0.000439  -0.025864   0.057469
    15  O    0.017793   0.002944   0.000024   0.000038  -0.017217  -0.057689
    16  C   -0.057533  -0.951612   0.041450  -0.018138   0.219744   0.042687
    17  C    0.010294  -2.649632  -0.215859   0.051531  -0.295549  -0.004983
    18  O    0.188690  -0.111253   0.016272  -0.000902   0.002880  -0.000077
    19  H    0.374314   0.040116  -0.000606   0.000010  -0.001856   0.000071
    20  C    0.040116  10.746448   0.281882  -0.000097   0.227830  -0.004906
    21  O   -0.000606   0.281882   8.264901   0.193939  -0.000807  -0.000004
    22  H    0.000010  -0.000097   0.193939   0.434424  -0.000587   0.000000
    23  C   -0.001856   0.227830  -0.000807  -0.000587   6.381539  -0.121751
    24  O    0.000071  -0.004906  -0.000004   0.000000  -0.121751   8.491615
    25  H    0.000000   0.000628   0.000000   0.000000   0.019176   0.194859
    26  C    0.017624   1.197505  -0.011505   0.005124  -0.979415   0.115894
    27  O   -0.000015  -0.226202   0.002016   0.001372  -0.100629   0.002449
    28  C   -0.006526  -1.621959  -0.009415  -0.031729  -0.141226   0.008221
    29  O    0.000024  -0.035610  -0.020625   0.026531  -0.003149   0.000128
    30  H    0.000000  -0.042312   0.001015  -0.003439   0.002647  -0.000002
    31  H    0.000000   0.000002   0.000000   0.000000   0.000003   0.000000
    32  H   -0.000017   0.000098   0.000000   0.000000   0.000044   0.000008
    33  H   -0.000007   0.000242   0.000000   0.000000   0.000273   0.000054
    34  H   -0.000032   0.001822   0.000000   0.000000   0.003811   0.000113
    35  H    0.000135   0.014699   0.000012   0.000000   0.002997  -0.000100
    36  H    0.000280   0.001342   0.000000   0.000000   0.000041   0.000002
    37  H    0.001479  -0.000843   0.000001   0.000000   0.000029   0.000000
    38  H    0.000033   0.000111   0.000000   0.000000  -0.000027   0.000000
    39  H   -0.000223  -0.020467  -0.000831   0.000007  -0.002764  -0.000586
    40  H   -0.010243  -0.159347   0.000003  -0.000228   0.023474  -0.000132
    41  H    0.000032  -0.095059  -0.000142   0.000005  -0.008268   0.003934
    42  H    0.000000   0.004610  -0.000001   0.000000   0.463566  -0.050450
    43  H    0.000000  -0.009240  -0.000006   0.000000   0.530350  -0.069569
    44  H    0.000005  -0.153470   0.005817  -0.000846   0.001073  -0.000016
    45  H   -0.000197   0.330831  -0.050104  -0.006515   0.015566  -0.000035
             25         26         27         28         29         30
     1  O    0.000000  -0.000029   0.000000   0.000000   0.000000   0.000000
     2  C    0.000053   0.009368   0.000071  -0.001698  -0.000018   0.000000
     3  C    0.000341  -0.040093   0.000700   0.004732   0.000084   0.000000
     4  O   -0.000001   0.000076   0.000000  -0.000015   0.000000   0.000000
     5  H    0.000000   0.000051   0.000000   0.000000   0.000000   0.000000
     6  C   -0.004616  -0.071495   0.001958   0.030991  -0.000168   0.000002
     7  O    0.002805  -0.000980  -0.000006  -0.000799  -0.000004   0.000000
     8  H   -0.003542  -0.009182   0.000005   0.000075  -0.000001   0.000000
     9  C   -0.000016  -0.019625  -0.000013   0.004525   0.000008   0.000000
    10  O    0.000000  -0.000101   0.000000   0.000017   0.000000   0.000000
    11  H    0.000000   0.000003   0.000000   0.000001   0.000000   0.000000
    12  C   -0.000247  -0.020678  -0.000715   0.001395   0.000066  -0.000003
    13  O    0.000049  -0.048550  -0.000001   0.001792   0.000011   0.000000
    14  C   -0.004230  -0.547547   0.002681   0.081503   0.006604   0.000079
    15  O    0.002890  -0.018764   0.005866   0.009075   0.000213   0.000004
    16  C   -0.009613  -2.964835  -0.074531   1.103796   0.019347  -0.005526
    17  C   -0.001104   0.525664  -0.021845  -0.175273   0.052896   0.014640
    18  O   -0.000001   0.039273   0.000218   0.002664  -0.000980  -0.000002
    19  H    0.000000   0.017624  -0.000015  -0.006526   0.000024   0.000000
    20  C    0.000628   1.197505  -0.226202  -1.621959  -0.035610  -0.042312
    21  O    0.000000  -0.011505   0.002016  -0.009415  -0.020625   0.001015
    22  H    0.000000   0.005124   0.001372  -0.031729   0.026531  -0.003439
    23  C    0.019176  -0.979415  -0.100629  -0.141226  -0.003149   0.002647
    24  O    0.194859   0.115894   0.002449   0.008221   0.000128  -0.000002
    25  H    0.425353   0.018975  -0.000275  -0.002464   0.000003   0.000000
    26  C    0.018975  10.216698   0.290430  -1.276093  -0.055324  -0.003047
    27  O   -0.000275   0.290430   8.511005   0.162542  -0.181098  -0.002733
    28  C   -0.002464  -1.276093   0.162542   6.632038   0.253820   0.050564
    29  O    0.000003  -0.055324  -0.181098   0.253820   8.338479   0.222715
    30  H    0.000000  -0.003047  -0.002733   0.050564   0.222715   0.416366
    31  H    0.000000  -0.000011   0.000000   0.000000   0.000000   0.000000
    32  H    0.000000   0.000143   0.000000  -0.000006   0.000000   0.000000
    33  H    0.000000   0.000960   0.000000  -0.000023   0.000000   0.000000
    34  H   -0.000013   0.003427   0.000002  -0.000155   0.000000   0.000000
    35  H    0.000007   0.021113   0.000136  -0.000657  -0.000006   0.000000
    36  H    0.000000   0.000830   0.000000  -0.000056   0.000000   0.000000
    37  H    0.000000   0.000089   0.000000  -0.000016   0.000000   0.000000
    38  H    0.000000  -0.000197   0.000000   0.000015   0.000000   0.000000
    39  H    0.000001  -0.086400   0.007102   0.026520  -0.000990   0.000004
    40  H    0.000000  -0.061903   0.002966   0.024639  -0.000312   0.000011
    41  H   -0.000191   0.190726  -0.045554   0.085475  -0.001877   0.000053
    42  H   -0.008083  -0.062333  -0.001984  -0.004727  -0.000278  -0.000002
    43  H   -0.005851  -0.220810   0.006473   0.015391  -0.000309   0.000001
    44  H    0.000000  -0.049550  -0.045621   0.436457  -0.045299  -0.006247
    45  H    0.000000  -0.074294   0.010704   0.069728  -0.018065   0.000748
             31         32         33         34         35         36
     1  O    0.228487  -0.041992  -0.007211  -0.001178  -0.000270   0.005556
     2  C    0.104753   0.441081   0.196300   0.121889   0.041567   0.012908
     3  C   -0.023478  -0.112776   0.186986  -0.218451  -0.067944  -0.073816
     4  O    0.000004   0.002685  -0.030508   0.010292   0.000492   0.000317
     5  H   -0.002315  -0.001250  -0.003193   0.000010   0.000000   0.000012
     6  C    0.001901  -0.012935  -0.330962   0.214984  -0.186152  -0.016111
     7  O    0.000001   0.000243   0.010311  -0.037298   0.005019  -0.000066
     8  H    0.000000   0.000001  -0.000140  -0.006176  -0.000302   0.000003
     9  C    0.001879   0.021296   0.030336   0.018019   0.014380   0.070822
    10  O    0.000503   0.000212   0.000146   0.000030   0.000149   0.005575
    11  H   -0.000022   0.000002   0.000001   0.000000   0.000000  -0.000133
    12  C   -0.059841  -0.127492  -0.026284   0.015933   0.004842   0.177003
    13  O   -0.000770   0.012733   0.009510   0.016048  -0.064299  -0.036766
    14  C   -0.002250   0.066266   0.178425   0.076220   0.423377   0.093632
    15  O   -0.000014  -0.000454  -0.000651  -0.007518  -0.053609  -0.000335
    16  C    0.000191   0.000336   0.008676   0.019219   0.046759   0.002375
    17  C   -0.000100   0.002011   0.003772   0.008949   0.024485   0.008631
    18  O   -0.000001   0.000047   0.000071   0.000032  -0.002362   0.000102
    19  H    0.000000  -0.000017  -0.000007  -0.000032   0.000135   0.000280
    20  C    0.000002   0.000098   0.000242   0.001822   0.014699   0.001342
    21  O    0.000000   0.000000   0.000000   0.000000   0.000012   0.000000
    22  H    0.000000   0.000000   0.000000   0.000000   0.000000   0.000000
    23  C    0.000003   0.000044   0.000273   0.003811   0.002997   0.000041
    24  O    0.000000   0.000008   0.000054   0.000113  -0.000100   0.000002
    25  H    0.000000   0.000000   0.000000  -0.000013   0.000007   0.000000
    26  C   -0.000011   0.000143   0.000960   0.003427   0.021113   0.000830
    27  O    0.000000   0.000000   0.000000   0.000002   0.000136   0.000000
    28  C    0.000000  -0.000006  -0.000023  -0.000155  -0.000657  -0.000056
    29  O    0.000000   0.000000   0.000000   0.000000  -0.000006   0.000000
    30  H    0.000000   0.000000   0.000000   0.000000   0.000000   0.000000
    31  H    0.393030  -0.010338   0.000128   0.000015   0.000005   0.000064
    32  H   -0.010338   0.597106   0.005108   0.002477   0.000018   0.005300
    33  H    0.000128   0.005108   0.613970   0.006473   0.003631   0.002162
    34  H    0.000015   0.002477   0.006473   0.598568   0.005516  -0.000021
    35  H    0.000005   0.000018   0.003631   0.005516   0.619075   0.005567
    36  H    0.000064   0.005300   0.002162  -0.000021   0.005567   0.585313
    37  H   -0.000024   0.000093   0.000006   0.000002  -0.000024  -0.005794
    38  H   -0.000042   0.004251  -0.000004  -0.000017  -0.000012   0.006520
    39  H    0.000000   0.000000  -0.000001   0.000007   0.006447  -0.000002
    40  H    0.000000   0.000000   0.000000  -0.000007  -0.000023  -0.000001
    41  H    0.000000   0.000000   0.000000  -0.000007   0.000000   0.000000
    42  H    0.000000   0.000000   0.000000   0.000001   0.000000   0.000000
    43  H    0.000000   0.000000   0.000000  -0.000002   0.000011   0.000000
    44  H    0.000000   0.000000   0.000000   0.000000   0.000000   0.000000
    45  H    0.000000   0.000000   0.000000   0.000000  -0.000009   0.000000
             37         38         39         40         41         42
     1  O    0.000591   0.001254  -0.000001   0.000000   0.000000   0.000000
     2  C   -0.018983  -0.015439  -0.000362  -0.000466  -0.000083  -0.000012
     3  C   -0.006820   0.003852   0.002173   0.000746   0.001188  -0.000177
     4  O    0.000044  -0.000110   0.000005   0.000000   0.000000   0.000000
     5  H    0.000000   0.000002   0.000000   0.000000   0.000000   0.000000
     6  C    0.001854   0.011430  -0.010600   0.004970   0.000072  -0.001034
     7  O   -0.000012   0.000000   0.000106   0.000034   0.000009  -0.000436
     8  H    0.000000   0.000000  -0.000032   0.000003  -0.000021   0.000159
     9  C    0.441375   0.633469   0.000246   0.000511   0.000205  -0.000002
    10  O   -0.039386  -0.072605   0.000001  -0.000001   0.000000   0.000000
    11  H   -0.015247   0.000150   0.000000   0.000000   0.000000   0.000000
    12  C   -0.051779  -0.270263  -0.001670  -0.002901   0.000397   0.000049
    13  O   -0.001301   0.003663  -0.001826   0.001582  -0.000674  -0.000007
    14  C    0.005717  -0.009947   0.010690   0.028868   0.038945   0.003342
    15  O   -0.000188  -0.000425  -0.059444  -0.010423   0.004156  -0.001136
    16  C    0.001521  -0.003713   0.362030   0.008297  -0.001925  -0.003188
    17  C    0.001661   0.001192   0.009379   0.402623   0.044504  -0.009993
    18  O   -0.000385   0.000062  -0.003054  -0.052758  -0.000651   0.000023
    19  H    0.001479   0.000033  -0.000223  -0.010243   0.000032   0.000000
    20  C   -0.000843   0.000111  -0.020467  -0.159347  -0.095059   0.004610
    21  O    0.000001   0.000000  -0.000831   0.000003  -0.000142  -0.000001
    22  H    0.000000   0.000000   0.000007  -0.000228   0.000005   0.000000
    23  C    0.000029  -0.000027  -0.002764   0.023474  -0.008268   0.463566
    24  O    0.000000   0.000000  -0.000586  -0.000132   0.003934  -0.050450
    25  H    0.000000   0.000000   0.000001   0.000000  -0.000191  -0.008083
    26  C    0.000089  -0.000197  -0.086400  -0.061903   0.190726  -0.062333
    27  O    0.000000   0.000000   0.007102   0.002966  -0.045554  -0.001984
    28  C   -0.000016   0.000015   0.026520   0.024639   0.085475  -0.004727
    29  O    0.000000   0.000000  -0.000990  -0.000312  -0.001877  -0.000278
    30  H    0.000000   0.000000   0.000004   0.000011   0.000053  -0.000002
    31  H   -0.000024  -0.000042   0.000000   0.000000   0.000000   0.000000
    32  H    0.000093   0.004251   0.000000   0.000000   0.000000   0.000000
    33  H    0.000006  -0.000004  -0.000001   0.000000   0.000000   0.000000
    34  H    0.000002  -0.000017   0.000007  -0.000007  -0.000007   0.000001
    35  H   -0.000024  -0.000012   0.006447  -0.000023   0.000000   0.000000
    36  H   -0.005794   0.006520  -0.000002  -0.000001   0.000000   0.000000
    37  H    0.599540  -0.049965   0.000000  -0.000003   0.000000   0.000000
    38  H   -0.049965   0.625428   0.000000   0.000000   0.000000   0.000000
    39  H    0.000000   0.000000   0.609496   0.006978   0.007255  -0.000077
    40  H   -0.000003   0.000000   0.006978   0.652466   0.006026   0.000008
    41  H    0.000000   0.000000   0.007255   0.006026   0.644344  -0.011368
    42  H    0.000000   0.000000  -0.000077   0.000008  -0.011368   0.595915
    43  H    0.000000   0.000000   0.003643   0.000002   0.007511  -0.049775
    44  H    0.000000   0.000000  -0.000023   0.002660   0.005273  -0.000007
    45  H    0.000000   0.000000   0.004323   0.008816   0.000329   0.000003
             43         44         45
     1  O    0.000000   0.000000   0.000000
     2  C   -0.000009  -0.000010   0.000037
     3  C    0.001000   0.000015   0.000054
     4  O    0.000000   0.000000   0.000000
     5  H    0.000000   0.000000   0.000000
     6  C    0.002380   0.000181   0.001363
     7  O    0.000425   0.000000   0.000002
     8  H    0.000299   0.000000   0.000000
     9  C    0.000005   0.000013  -0.000037
    10  O    0.000000   0.000000   0.000000
    11  H    0.000000   0.000000   0.000000
    12  C    0.000113   0.000016  -0.000104
    13  O    0.000085  -0.000002   0.000113
    14  C    0.003641   0.004097   0.003957
    15  O    0.005043   0.000168  -0.000334
    16  C    0.022220   0.071176   0.151987
    17  C    0.005549   0.023498  -0.221042
    18  O    0.000029  -0.000730   0.003665
    19  H    0.000000   0.000005  -0.000197
    20  C   -0.009240  -0.153470   0.330831
    21  O   -0.000006   0.005817  -0.050104
    22  H    0.000000  -0.000846  -0.006515
    23  C    0.530350   0.001073   0.015566
    24  O   -0.069569  -0.000016  -0.000035
    25  H   -0.005851   0.000000   0.000000
    26  C   -0.220810  -0.049550  -0.074294
    27  O    0.006473  -0.045621   0.010704
    28  C    0.015391   0.436457   0.069728
    29  O   -0.000309  -0.045299  -0.018065
    30  H    0.000001  -0.006247   0.000748
    31  H    0.000000   0.000000   0.000000
    32  H    0.000000   0.000000   0.000000
    33  H    0.000000   0.000000   0.000000
    34  H   -0.000002   0.000000   0.000000
    35  H    0.000011   0.000000  -0.000009
    36  H    0.000000   0.000000   0.000000
    37  H    0.000000   0.000000   0.000000
    38  H    0.000000   0.000000   0.000000
    39  H    0.003643  -0.000023   0.004323
    40  H    0.000002   0.002660   0.008816
    41  H    0.007511   0.005273   0.000329
    42  H   -0.049775  -0.000007   0.000003
    43  H    0.606650  -0.000002   0.000005
    44  H   -0.000002   0.601048   0.004795
    45  H    0.000005   0.004795   0.614016
 Mulliken atomic charges:
              1
     1  O   -0.522916
     2  C   -0.109092
     3  C    0.047073
     4  O   -0.512993
     5  H    0.352040
     6  C    0.032054
     7  O   -0.525258
     8  H    0.428817
     9  C   -0.214527
    10  O   -0.520422
    11  H    0.353822
    12  C    0.198359
    13  O   -0.384546
    14  C    0.345131
    15  O   -0.396396
    16  C   -0.070456
    17  C    0.022703
    18  O   -0.504195
    19  H    0.416681
    20  C   -0.045376
    21  O   -0.499857
    22  H    0.349961
    23  C   -0.081816
    24  O   -0.573058
    25  H    0.375109
    26  C   -0.031210
    27  O   -0.307474
    28  C    0.266862
    29  O   -0.556816
    30  H    0.354466
    31  H    0.368239
    32  H    0.145701
    33  H    0.141446
    34  H    0.147016
    35  H    0.135329
    36  H    0.148742
    37  H    0.136766
    38  H    0.131335
    39  H    0.132942
    40  H    0.123065
    41  H    0.125381
    42  H    0.137398
    43  H    0.144745
    44  H    0.145530
    45  H    0.149695
 Sum of Mulliken atomic charges =   0.00000
 Mulliken charges with hydrogens summed into heavy atoms:
              1
     1  O   -0.154677
     2  C    0.036609
     3  C    0.188520
     4  O   -0.160954
     6  C    0.179070
     7  O   -0.096441
     9  C    0.053574
    10  O   -0.166600
    12  C    0.347101
    13  O   -0.384546
    14  C    0.480459
    15  O   -0.396396
    16  C    0.062486
    17  C    0.145768
    18  O   -0.087514
    20  C    0.104319
    21  O   -0.149896
    23  C    0.200326
    24  O   -0.197949
    26  C    0.094171
    27  O   -0.307474
    28  C    0.412393
    29  O   -0.202350
 Sum of Mulliken charges with hydrogens summed into heavy atoms =   0.00000
 APT atomic charges:
              1
     1  O   -0.631556
     2  C    0.394823
     3  C    0.424273
     4  O   -0.650762
     5  H    0.256799
     6  C    0.370448
     7  O   -0.688680
     8  H    0.423052
     9  C    0.468249
    10  O   -0.600909
    11  H    0.247204
    12  C    0.444783
    13  O   -0.873486
    14  C    0.941250
    15  O   -0.924405
    16  C    0.448535
    17  C    0.398506
    18  O   -0.711700
    19  H    0.420950
    20  C    0.381107
    21  O   -0.625265
    22  H    0.265935
    23  C    0.459575
    24  O   -0.629972
    25  H    0.249710
    26  C    0.416619
    27  O   -0.684787
    28  C    0.827846
    29  O   -0.633089
    30  H    0.248013
    31  H    0.267682
    32  H   -0.036124
    33  H   -0.043167
    34  H   -0.027930
    35  H   -0.059643
    36  H   -0.040255
    37  H   -0.039583
    38  H   -0.062588
    39  H   -0.054018
    40  H   -0.069433
    41  H   -0.060163
    42  H   -0.056899
    43  H   -0.046922
    44  H   -0.061175
    45  H   -0.042847
[...]
 0.00000172,0.00000592,0.00000572,0.00003749,0.00002818,-0.00003900,-0.
 00006659,-0.00006951,0.00007469,0.00014443,-0.00005188,-0.00014259,-0.
 00020016,0.00035429,0.00146110,-0.00044033,0.00047532,0.00019371,0.000
 18752,-0.00008422,0.00013183,0.00000953,-0.00000230,0.00001507,-0.0000
 0229,-0.00004169,0.00005696,-0.00008847,0.00002223,-0.00000398,0.00005
 432,-0.00000207,-0.00000856,-0.00000645,-0.12789956,-0.08116927,-0.112
 33227,0.01035786,0.00545588,0.01496113,0.00062475,0.00108712,-0.001101
 71,0.00406951,0.00809215,0.00583631,0.00022312,-0.00083618,0.00040063,
 -0.00004314,0.00010327,0.00010918,-0.00006264,0.00000368,0.00021298,0.
 00000100,-0.00008558,-0.00000434,0.00000020,0.00000148,0.00000492,-0.0
 0000003,-0.00000022,-0.00000086,0.00000464,0.00000222,-0.00000060,-0.0
 0000057,-0.00000157,-0.00000560,0.00001935,0.00001289,0.00000482,-0.00
 000077,0.00000152,-0.00000188,-0.00000082,0.00000187,-0.00000125,0.000
 00068,-0.00000147,-0.00000041,0.00028494,0.00038342,0.00018302,-0.0000
 0544,-0.00009450,0.00003961,0.00119928,-0.00020577,0.00085660,0.126600
 39,-0.00001124,0.00003135,-0.00005210,0.00000273,-0.00004789,0.0000543
 6,-0.00002528,0.00006840,0.00004867,-0.00000317,0.00005255,-0.00006882
 ,0.00000198,-0.00000047,-0.00000107,0.00013997,-0.00043382,-0.00013936
 ,0.00022199,0.00051043,0.00068426,-0.00053479,-0.00049806,-0.00101615,
 -0.00001213,0.00002569,0.00003528,0.00000103,-0.00003783,-0.00004965,-
 0.00000433,0.00000845,0.00000857,0.00004422,0.00002138,0.00013306,-0.0
 0000227,0.00003513,-0.00032358,0.00023508,0.00008351,0.00061976,-0.000
 05354,0.00064159,-0.00029908,0.00253370,-0.00620943,0.00402730,-0.0012
 3861,0.00039819,-0.00176671,0.00028462,-0.00132136,-0.00037114,-0.0001
 2834,-0.00000100,0.00033823,0.00000562,0.00027198,-0.00047154,0.000053
 82,0.00004553,0.00028735,-0.00002212,-0.00007013,-0.00001033,-0.078406
 32,-0.12929127,-0.11791962,0.00518224,0.00647786,0.02138835,0.00054409
 ,0.00200305,0.00120162,-0.01800752,-0.02177881,-0.02518031,0.00068224,
 0.00289590,-0.00029676,0.00019686,-0.00040403,0.00012849,0.00001570,0.
 00005684,0.00021596,-0.00002962,-0.00007588,0.00001738,-0.00000155,-0.
 00000133,0.00001005,0.00000117,0.00000145,-0.00000343,0.00000966,-0.00
 000236,-0.00000160,-0.00002795,0.00002066,-0.00000568,-0.00001526,-0.0
 0002819,-0.00001589,-0.00000362,-0.00000317,-0.00000788,-0.00000413,0.
 00002016,-0.00000286,0.00000623,-0.00000056,-0.00000547,0.00000017,0.0
 0022200,0.00017785,0.00017118,-0.00004379,0.00005638,0.00020080,0.0014
 9704,-0.00032396,0.08426565,0.14013485,0.00000498,-0.00008203,-0.00009
 353,-0.00004848,0.00010280,0.00000948,0.00009996,-0.00013704,0.0000695
 2,0.00001362,-0.00000506,-0.00007075,-0.00000403,-0.00000918,0.0000114
 4,-0.00039110,0.00064511,0.00019865,-0.00037849,-0.00089668,-0.0013177
 5,0.00113411,0.00102826,0.00224707,-0.00000923,0.00003976,0.00001921,-
 0.00000448,-0.00004508,-0.00002155,0.00000241,0.00000729,0.00000066,0.
 00003282,0.00004488,0.00002791,0.00005033,-0.00025247,0.00004496,-0.00
 003884,0.00020729,-0.00011474,-0.00002561,-0.00038027,0.00026504,0.000
 45217,0.00110075,-0.00033258,-0.00005476,-0.00001451,0.00018373,-0.000
 01881,0.00012324,0.00015437,0.00000787,0.00006905,-0.00012571,-0.00002
 552,0.00001103,-0.00006273,0.00001412,0.00000183,0.00004262,-0.0000054
 9,-0.00001388,-0.00000393,-0.10831523,-0.11421488,-0.19098000,-0.00901
 851,-0.00247985,-0.04471481,0.00023458,-0.00107196,-0.00028931,0.00013
 124,0.00096853,0.00250777,-0.00006363,0.00013139,0.00108264,0.00003669
 ,-0.00002327,0.00015570,0.00000447,-0.00000363,0.00004579,-0.00000966,
 -0.00001274,0.00000633,-0.00000923,0.00000380,0.00001001,0.00000002,-0
 .00000510,-0.00000281,-0.00000690,0.00000461,-0.00000192,0.00005239,-0
 .00003970,0.00001689,-0.00000666,-0.00000321,-0.00000722,-0.00000288,0
 .00000248,-0.00000253,-0.00000074,-0.00001189,0.00000160,0.00000141,-0
 .00000113,-0.00000374,-0.00005356,-0.00002202,-0.00000323,-0.00000167,
 0.00002824,-0.00000830,0.00032780,-0.00010088,0.00044661,0.11532982,0.
 11447509,0.22579795,0.00000956,0.00002740,0.00004936,0.00000709,-0.000
 03085,-0.00001739,-0.00004005,0.00003423,-0.00003483,0.00002047,-0.000
 00595,0.00003324,-0.00000735,0.00000483,-0.00000248,0.00004683,-0.0001
 3745,-0.00000243,0.00022552,0.00027729,0.00034291,-0.00046957,-0.00033
 151,-0.00065611,-0.00000627,-0.00002529,-0.00001597,0.00001309,0.00003
 072,0.00002163,-0.00000494,-0.00000618,-0.00000143,-0.00003469,-0.0000
 2208,-0.00003973,0.00003577,0.00008440,0.00005236,-0.00012983,-0.00003
 165,-0.00010893,0.00020055,0.00005823,0.00006525,0.00059499,-0.0003870
 2,-0.00016307,0.00030285,-0.00004233,0.00007278,0.00001730,0.00014989,
 -0.00000144,-0.00001343,-0.00002271,-0.00001048,-0.00007489,-0.0000531
 1,0.00007002,0.00002921,-0.00000097,-0.00003966,-0.00001627,0.00000471
 ,-0.00000200,-0.34544591,0.05006853,0.02448560,-0.00450699,-0.00520052
 ,0.01254383,0.00005817,-0.00025534,0.00082311,-0.00887146,0.00265739,-
 0.00021108,0.00090547,0.00032911,-0.00063444,0.00032194,-0.00017695,-0
 .00006689,0.00010715,0.00013905,-0.00030883,-0.00000583,0.00005273,0.0
 0000657,0.00000083,-0.00000278,-0.00000697,0.00000479,0.00000010,-0.00
 000190,0.00001018,0.00000629,0.00000995,0.00001223,-0.00000961,-0.0000
 3626,0.00004296,0.00002488,0.00002704,0.00000742,0.00000165,0.00000424
 ,-0.00000085,0.00000052,0.00000046,0.00000435,0.00000140,-0.00000112,0
 .00036389,0.00071910,0.00048449,0.00006790,-0.00021634,-0.00000227,0.0
 0116092,0.00152599,0.00011701,-0.01584911,0.00374433,0.00054725,0.3708
 5237,-0.00000297,0.00002408,0.00001707,0.00000733,-0.00003035,-0.00000
 178,-0.00000405,0.00002779,-0.00002011,-0.00000328,0.00000172,0.000020
 05,0.00000107,0.00000279,-0.00000427,0.00004768,-0.00016141,-0.0000742
 3,0.00003786,0.00010141,0.00021970,-0.00022571,-0.00006184,-0.00048095
 ,0.00000377,-0.00000963,0.00000113,-0.00000161,0.00000831,-0.00000077,
 0.00000006,-0.00000112,0.00000129,0.00000569,-0.00000886,0.00000082,-0
 .00005073,0.00007930,-0.00005155,0.00013622,-0.00015216,0.00000454,-0.
 00035661,0.00015608,-0.00039471,0.00141271,0.00260407,0.00098530,0.000
 19895,-0.00015363,0.00012586,-0.00026678,-0.00010481,-0.00015323,0.000
 03075,-0.00004663,0.00010372,0.00009692,0.00013291,-0.00002933,-0.0000
 4383,0.00001377,-0.00000780,0.00001274,0.00001172,0.00000339,0.0515254
 3,-0.05564645,-0.01081320,-0.01648719,0.00067443,0.01320574,-0.0015625
 0,0.00073825,0.00047085,0.03944627,-0.01064678,-0.00258834,-0.00197144
 ,0.00285780,-0.00097100,0.00001867,0.00017747,-0.00019499,-0.00012687,
 -0.00015745,0.00019201,-0.00000025,-0.00001450,-0.00001969,0.00000164,
 -0.00000250,-0.00000180,-0.00000020,0.00000037,0.00000119,0.00000074,0
 .00000044,0.00000113,-0.00000454,-0.00000245,-0.00001077,-0.00002320,-
 0.00001336,-0.00003254,-0.00000198,-0.00000194,-0.00000107,0.00000105,
 0.00000655,-0.00000116,-0.00000125,0.00000026,0.00000185,-0.00085954,-
 0.00035927,-0.00033804,-0.00040887,0.00013825,-0.00005578,0.00112810,-
 0.00699495,0.00152892,-0.01863615,0.00474385,0.00086608,-0.05285759,0.
 06197224,-0.00000165,-0.00001783,0.00001052,0.00000358,0.00002153,-0.0
 0001137,0.00000496,-0.00000591,-0.00001191,-0.00001816,-0.00002732,0.0
 0001787,0.00000200,-0.00000031,0.00000274,0.00003220,0.00012164,0.0000
 3475,-0.00039434,-0.00021189,-0.00006262,0.00088170,0.00032387,0.00057
 067,0.00000512,-0.00000523,-0.00000639,-0.00000377,0.00000679,0.000012
 01,0.00000232,-0.00000191,-0.00000242,-0.00000223,-0.00000123,-0.00004
 837,-0.00004023,-0.00000248,0.00010400,0.00005915,-0.00002191,-0.00018
 814,-0.00018253,-0.00012407,0.00027600,0.00091881,0.00017152,-0.000154
 70,-0.00010412,-0.00014608,0.00004955,0.00000974,0.00010581,0.00007253
 ,0.00001749,0.00000520,-0.00006740,0.00000534,-0.00008087,0.00009252,-
 0.00000482,0.00001051,-0.00005191,-0.00000301,0.00000426,0.00000469,0.
 01994368,-0.00935007,-0.04425281,0.04170650,0.00682891,-0.02315242,0.0
 0046618,-0.00144369,0.00047627,-0.00217341,0.00044897,0.00219955,0.000
 13564,-0.00057253,0.00096720,-0.00016772,-0.00014843,0.00002897,0.0000
 8713,-0.00000811,-0.00014766,-0.00001134,0.00003034,0.00001969,0.00000
 123,0.00000337,-0.00000273,-0.00000438,0.00000221,0.00000356,-0.000014
 46,-0.00001055,-0.00001423,-0.00003385,0.00004063,0.00005419,-0.000029
 79,-0.00002652,-0.00001202,-0.00000156,-0.00000095,0.00000300,0.000000
 79,-0.00000706,0.00000145,-0.00000327,0.00000127,0.00000141,-0.0001042
 9,-0.00005589,0.00014364,0.00000233,0.00000396,-0.00003824,0.00046615,
 0.00115664,0.00015350,-0.02405794,0.00439378,0.00481382,-0.03747024,-0
 .00141574,0.05811872,0.00000219,-0.00000636,-0.00001863,-0.00000743,0.
 00000383,0.00000965,0.00000072,-0.00000027,0.00001718,0.00000665,0.000
 00501,-0.00002113,-0.00000267,0.00000053,0.00000119,-0.00002106,-0.000
 00468,0.00000114,0.00001078,-0.00000342,-0.00003277,-0.00000056,-0.000
 00419,0.00003314,-0.00001090,0.00000950,0.00000270,0.00000752,-0.00001
 106,-0.00000692,-0.00000416,0.00000191,0.00000017,0.00000668,0.0000077
 3,0.00002558,0.00002268,-0.00003019,-0.00006510,0.00001685,0.00005244,
 0.00009182,-0.00000988,-0.00002216,-0.00026047,0.00019796,0.00023863,0
 .00012311,-0.00042128,-0.00052955,0.00013185,0.00028237,0.00009311,-0.
 00007051,-0.00006105,-0.00002438,-0.00003804,-0.00643791,0.00335724,-0
 .00134129,0.00170502,-0.00072251,0.00122063,-0.00068384,-0.00011662,-0
 .00003313,0.00037702,-0.00022088,-0.00015369,-0.00000373,0.00014932,-0
 .00008470,-0.00000963,0.00000032,-0.00002141,-0.00009415,-0.00026159,0
 .00032663,-0.00353034,0.00836604,-0.00231936,-0.35139255,-0.00053691,-
 0.07133975,-0.01443120,-0.00086929,0.00227195,0.00021226,0.00015353,0.
 00013134,-0.00000264,0.00000158,0.00000229,0.00000170,0.00000027,-0.00
 000202,0.00000305,0.00000079,0.00000023,0.00000409,-0.00000048,-0.0000
 0088,0.00000298,-0.00000408,-0.00000257,0.00000212,-0.00000028,-0.0000
 0102,-0.00000407,0.00000035,0.00000113,0.00000480,0.00000113,-0.000003
 92,0.00003371,-0.00011335,0.00020383,0.00044107,0.00009055,-0.00055637
 ,0.00027371,0.00036125,-0.00094058,-0.00001527,0.00000176,0.00000988,0
 .00001389,-0.00015918,0.00007320,0.37346231,0.00000030,0.00001567,0.00
 000875,0.00000217,-0.00002019,-0.00000634,-0.00000868,-0.00000710,-0.0
 0001509,-0.00000266,0.00000630,0.00001662,0.00000139,-0.00000258,0.000
 00040,0.00002909,-0.00003138,-0.00000438,0.00000100,0.00005288,0.00007
 896,-0.00002964,-0.00002793,-0.00011233,0.00000084,-0.00001538,0.00001
 498,0.00000479,0.00000984,-0.00000490,-0.00000471,0.00000010,0.0000040
 7,-0.00001338,0.00002009,0.00000195,-0.00001255,0.00016121,-0.00001730
 ,-0.00007922,-0.00012320,-0.00015324,0.00008855,0.00036593,0.00039473,
 -0.00040223,-0.00078907,0.00019781,-0.00100110,-0.00060417,0.00157723,
 0.00047144,0.00014036,-0.00062274,0.00001895,-0.00021178,0.00008435,-0
 .01990196,0.00441938,-0.00532030,0.00188996,0.00309172,0.00078086,-0.0
 0041314,-0.00003662,0.00020186,-0.00004512,0.00022011,0.00012667,-0.00
 012703,-0.00027123,0.00021103,0.00000119,0.00003375,0.00002706,0.00348
 940,0.00150369,-0.00497456,0.03246486,-0.01094038,0.01263450,-0.001330
 66,-0.04382882,-0.00059027,-0.00419375,0.00311580,-0.00055007,0.000304
 31,-0.00003331,-0.00066377,0.00000053,-0.00000246,-0.00000112,0.000000
 57,0.00000098,-0.00000008,0.00000137,0.00000009,0.00000158,-0.00000321
 ,0.00000454,-0.00000524,0.00001158,0.00000513,0.00001250,0.00000180,-0
 .00000319,0.00000234,-0.00000237,0.00000885,-0.00000087,0.00000180,0.0
 0000274,-0.00000270,-0.00002572,-0.00011986,-0.00004112,0.00054914,0.0
 0014211,-0.00030311,-0.00148743,0.00046176,0.00026544,0.00000145,-0.00
 002636,-0.00001812,-0.00015446,0.00014477,-0.00000426,-0.00877334,0.04
 583853,-0.00000189,-0.00000354,-0.00003744,-0.00000891,-0.00000057,0.0
 0002110,0.00000608,-0.00000185,0.00002744,0.00000404,0.00001771,-0.000
 03565,-0.00000089,-0.00000144,0.00000214,-0.00001559,-0.00003389,-0.00
 000676,0.00000431,0.00002487,-0.00002526,-0.00000341,-0.00002263,0.000
 02066,-0.00001117,0.00001483,0.00001816,0.00000503,-0.00002145,-0.0000
 2263,-0.00000406,0.00000460,0.00000397,0.00001690,0.00002154,0.0000572
 9,0.00001260,-0.00000862,-0.00013430,0.00004819,0.00006644,0.00016596,
 0.00008117,0.00009689,-0.00042772,-0.00001043,-0.00036054,-0.00005116,
 -0.00139172,0.00018019,0.00239422,0.00060541,-0.00006504,-0.00037815,-
 0.00000942,-0.00008692,0.00005222,-0.02188188,0.00322470,-0.00043253,0
 .00222137,-0.00026810,0.00151176,0.00012910,-0.00045554,-0.00009745,0.
 00012990,0.00007341,-0.00000210,0.00004882,0.00008985,-0.00007312,-0.0
 0000231,-0.00001313,-0.00000395,-0.00210665,-0.00069986,0.00304173,-0.
 00844700,0.00549670,-0.00193435,-0.07890422,-0.00346197,-0.06649075,0.
 03435434,-0.00090104,-0.00201403,0.00085029,0.00058195,0.00350068,-0.0
 0000262,0.00000063,0.00000542,0.00000140,0.00000028,-0.00000273,0.0000
 0362,0.00000005,0.00000027,0.00000163,0.00000186,-0.00000265,0.0000012
 2,-0.00000933,0.00000112,0.00000050,-0.00000133,-0.00000190,-0.0000043
 6,0.00000582,-0.00000060,0.00000519,0.00000088,-0.00000565,0.00023751,
 0.00004237,0.00003938,0.00080181,0.00011887,-0.00035662,0.00087169,-0.
 00017251,-0.00013072,-0.00000090,0.00001298,-0.00001147,0.00008452,-0.
 00011674,-0.00001447,0.07354934,-0.00060558,0.06485963,0.00000669,-0.0
 0001322,-0.00000493,-0.00000295,0.00001321,0.00000470,-0.00001338,-0.0
 0000046,0.00001801,0.00001362,-0.00000322,-0.00001586,-0.00000530,0.00
 000315,0.00000035,-0.00000359,0.00000426,0.00001225,0.00002788,-0.0000
 1393,-0.00003109,-0.00001213,-0.00000504,0.00002307,-0.00001651,0.0000
 1125,-0.00001992,0.00001580,-0.00000298,0.00001045,-0.00000609,-0.0000
 0054,-0.00000447,-0.00001677,-0.00000604,-0.00000356,0.00005782,-0.000
 09647,-0.00001066,-0.00013262,0.00010696,0.00016148,0.00063518,0.00001
 754,-0.00012991,-0.00021909,0.00123866,-0.00057556,-0.01369751,-0.0024
 3615,0.00487227,0.00145136,0.00079932,0.00064202,0.00008106,0.00012905
 ,-0.00016914,-0.35162925,0.01734209,0.01584485,-0.00297363,0.01368335,
 -0.00561890,0.00005609,0.00062462,0.00023265,-0.00001946,-0.00002218,-
 0.00001024,0.00004221,0.00004376,-0.00004859,-0.00001543,-0.00000682,-
 0.00000079,-0.00039174,-0.00044552,0.00019031,0.00269630,0.00090618,0.
 00101087,-0.01785423,-0.00008342,-0.00060802,0.00186571,0.00047584,0.0
 0206360,0.00058997,0.00060134,0.00070374,-0.00000229,0.00000335,-0.000
 00053,0.00000345,0.00000110,-0.00000366,0.00000568,0.00000072,0.000000
 81,0.00000667,0.00000390,-0.00000454,0.00001675,-0.00001660,0.00001774
 ,0.00000995,0.00000172,0.00000637,-0.00000729,-0.00000868,0.00000297,0
 .00000844,0.00000048,-0.00000512,0.00068311,-0.00086797,0.00013371,0.0
 0069773,-0.00071223,0.00189063,0.00015501,0.00020888,-0.00001324,0.000
 01023,-0.00001507,0.00000557,0.00003976,-0.00005734,0.00000187,0.00005
 219,-0.00132412,-0.00126855,0.37779057,0.00000100,-0.00000102,0.000014
 40,-0.00000143,0.00000620,-0.00000600,0.00000203,0.00001024,-0.0000064
 9,-0.00000010,-0.00000905,0.00000600,-0.00000003,0.00000194,-0.0000020
 7,-0.00001024,0.00000497,-0.00001100,0.00000857,-0.00001216,-0.0000068
 7,-0.00000752,0.00000239,0.00000289,0.00000174,-0.00000488,-0.00000978
 ,-0.00000561,0.00000871,0.00001220,0.00000609,-0.00000392,-0.00000177,
 0.00000342,-0.00001684,-0.00002538,0.00000751,-0.00004739,0.00005494,0
 .00001385,0.00009688,0.00001844,0.00012451,-0.00016798,-0.00021116,-0.
 00127413,0.00021994,0.00075316,-0.00571742,0.00206932,0.00320975,0.000
 50158,0.00035501,0.00067546,-0.00008446,-0.00001105,-0.00014553,0.0189
 8809,-0.03529875,-0.00691046,0.04213284,-0.03041831,0.01131105,0.00122
 264,0.00033814,-0.00087256,-0.00002349,0.00002206,0.00000936,0.0000212
 0,-0.00001187,-0.00000906,-0.00000476,-0.00000133,0.00000214,-0.000317
 46,-0.00025889,0.00020886,-0.00025002,0.00130152,-0.00041192,-0.025534
 65,-0.00091494,-0.00241715,0.00054853,0.00083598,0.00162409,-0.0001172
 0,0.00007032,0.00031044,0.00000099,-0.00000084,-0.00000245,-0.00000045
 ,-0.00000102,0.00000091,-0.00000099,0.00000032,0.00000091,0.00000114,-
 0.00000096,-0.00000150,0.00000220,0.00000623,0.00000931,-0.00000113,0.
 00000413,-0.00000033,0.00000620,-0.00000591,-0.00000055,-0.00000262,-0
 .00000218,0.00000313,0.00007487,-0.00007091,0.00034336,0.00001098,0.00
 025758,0.00135774,0.00021257,0.00015053,-0.00006247,-0.00000197,0.0000
 0788,-0.00001693,0.00002794,-0.00004851,0.00000964,-0.00048206,-0.0026
 7135,-0.00276580,-0.03008273,0.06420977,-0.00000545,-0.00000208,-0.000
 00384,0.00000456,0.00000088,0.00000287,0.00000825,-0.00000006,-0.00000
 097,-0.00000531,0.00000006,0.00000209,0.00000228,-0.00000015,-0.000000
 94,0.00000678,0.00000148,0.00000713,-0.00001857,0.00000516,-0.00000101
 ,0.00000872,-0.00000273,0.00000315,0.00001401,0.00001356,-0.00000099,-
 0.00001661,-0.00001169,-0.00000514,0.00000699,0.00000190,-0.00000303,0
 .00001621,0.00000676,0.00002896,-0.00003266,-0.00010095,0.00007740,0.0
 0002237,-0.00000021,0.00007333,-0.00076344,-0.00004877,0.00002595,0.00
 155444,-0.00117684,0.00095316,0.03959490,0.00189967,-0.00854602,-0.002
 23109,-0.00022502,0.00256948,-0.00008873,0.00035161,0.00023116,0.02205
 930,-0.00635650,-0.04447183,-0.01278499,0.01306759,0.00123579,-0.00121
 307,0.00022771,0.00021112,0.00001787,-0.00000143,0.00006623,-0.0000079
 2,-0.00000377,-0.00000515,-0.00000370,0.00000025,0.00000300,0.00011575
 ,0.00021146,-0.00029284,0.00107484,0.00169141,0.00061939,-0.02718963,-
 0.00395699,-0.00257247,-0.00067333,0.00061867,0.00093048,-0.00013645,0
 .00008720,0.00022686,0.00000123,0.00000131,0.00000057,-0.00000344,-0.0
 0000151,0.00000409,-0.00000274,0.00000025,-0.00000049,-0.00000454,-0.0
 0000668,0.00000643,-0.00003230,0.00000071,-0.00005272,-0.00001284,0.00
 000051,-0.00001517,0.00000823,-0.00000054,-0.00000002,-0.00000901,-0.0
 0000285,0.00000915,-0.00063022,0.00052611,-0.00030520,0.00175210,0.001
 92144,-0.00650414,-0.00017459,-0.00011687,-0.00019931,-0.00000579,0.00
 001821,0.00000886,-0.00000568,0.00002894,0.00000699,-0.00091375,-0.002
 62620,-0.00302899,-0.01930298,-0.00604099,0.05870663\\0.00054425,-0.01
 687033,0.00215280,0.02952977,0.02142372,-0.01161995,-0.02564490,-0.036
 69081,0.03601058,0.00188083,-0.00384467,0.02449762,0.00399560,0.000217
 55,-0.03190770,0.01319046,0.00523030,0.00203511,-0.00779706,0.02022625
 ,-0.00947025,0.00660463,0.00196435,0.01561637,-0.00891467,0.00917889,-
 0.00114888,0.00275330,0.01759263,-0.00930266,0.00940165,-0.02717927,0.
 01306063,-0.00548059,0.01538059,0.00850063,0.00089058,-0.01172474,0.01
 669309,-0.02682064,-0.00288928,-0.05982827,-0.01122013,-0.01372468,-0.
 00104381,0.01985491,0.02094486,0.01392266,-0.02871102,0.03338647,-0.00
 159634,0.00032788,-0.02266642,0.00284017,0.01314205,0.01434157,-0.0129
 9947,0.02083730,0.01159921,-0.01570772,-0.01462386,0.00231057,-0.00700
 823,-0.00161305,-0.00355088,0.03004360,0.01592555,-0.00615189,-0.01307
 034,0.00109755,-0.01888319,-0.00041093,-0.00916403,0.02720921,0.007911
 35,-0.02745022,-0.00850577,0.02445618,-0.01808371,-0.02692031,0.047071
 76,0.07817174,-0.03188226,-0.00781295,-0.02118697,0.04152770,-0.019003
 76,-0.00210196,-0.00074450,-0.00805145,-0.00217899,0.00408369,0.002614
 55,-0.01670575,-0.00531518,0.00111519,0.01966662,0.00428688,0.00064558
 ,-0.01898944,-0.00115989,0.00104305,0.02023700,0.00599684,-0.00164087,
 0.02105851,0.00247820,0.00151182,0.00006797,0.00550090,-0.01865574,-0.
 02190619,-0.00452257,0.00093014,0.02259530,-0.00146706,0.00066246,-0.0
 2586458,-0.00386933,0.00309490,-0.02430900,0.00157091,0.00438503,-0.00
 802065,-0.00657616,-0.01633349,0.02109861,-0.00264976,-0.00545597,-0.0
 1757450,-0.00113255,-0.00399234,0.02148983,-0.00752979,-0.00475413\\\@


 OF ALL THE WONDERS OF THE UNIVERSE, THE GREATEST IS MAN.

                                    -- ARISTOTLE
 Job cpu time:  0 days 13 hours  4 minutes 46.8 seconds.
 File lengths (MBytes):  RWF=   1324 Int=      0 D2E=      0 Chk=     19 Scr=      1
 Normal termination of Gaussian 09 at Thu Jan 21 05:03:57 2016.
Gaussian '09 finished on node016 at Thu Jan 21 05:03:57 EST 2016.
