Gaussian '09 started on node006 at Fri Feb 12 12:26:32 EST 2016.
 Entering Gaussian System, Link 0=/usr/local/gaussian/g09/g09
 Initial command:
 /usr/local/gaussian/g09/l1.exe /home/srmcgrat/thesis/gaussian/cellobiose/500/8000/1/2dfp/gaussian16456/Gau-16492.inp -scrdir=/home/srmcgrat/thesis/gaussian/cellobiose/500/8000/1/2dfp/gaussian16456/
 Entering Link 1 = /usr/local/gaussian/g09/l1.exe PID=     16494.
  
 Copyright (c) 1988,1990,1992,1993,1995,1998,2003,2009,2010,
            Gaussian, Inc.  All Rights Reserved.
  
 This is part of the Gaussian(R) 09 program.  It is based on
 the Gaussian(R) 03 system (copyright 2003, Gaussian, Inc.),
 the Gaussian(R) 98 system (copyright 1998, Gaussian, Inc.),
 the Gaussian(R) 94 system (copyright 1995, Gaussian, Inc.),
 the Gaussian 92(TM) system (copyright 1992, Gaussian, Inc.),
 the Gaussian 90(TM) system (copyright 1990, Gaussian, Inc.),
 the Gaussian 88(TM) system (copyright 1988, Gaussian, Inc.),
 the Gaussian 86(TM) system (copyright 1986, Carnegie Mellon
 University), and the Gaussian 82(TM) system (copyright 1983,
 Carnegie Mellon University). Gaussian is a federally registered
 trademark of Gaussian, Inc.
  
 This software contains proprietary and confidential information,
 including trade secrets, belonging to Gaussian, Inc.
  
 This software is provided under written license and may be
 used, copied, transmitted, or stored only in accord with that
 written license.
  
 The following legend is applicable only to US Government
 contracts under FAR:
  
                    RESTRICTED RIGHTS LEGEND
  
 Use, reproduction and disclosure by the US Government is
 subject to restrictions as set forth in subparagraphs (a)
 and (c) of the Commercial Computer Software - Restricted
 Rights clause in FAR 52.227-19.
  
 Gaussian, Inc.
 340 Quinnipiac St., Bldg. 40, Wallingford CT 06492
  
  
 ---------------------------------------------------------------
 Warning -- This program may not be used in any manner that
 competes with the business of Gaussian, Inc. or will provide
 assistance to any competitor of Gaussian, Inc.  The licensee
 of this program is prohibited from giving any competitor of
 Gaussian, Inc. access to this program.  By using this program,
 the user acknowledges that Gaussian, Inc. is engaged in the
 business of creating and licensing software in the field of
 computational chemistry and represents and warrants to the
 licensee that it is not a competitor of Gaussian, Inc. and that
 it will not use this program in any manner prohibited above.
 ---------------------------------------------------------------
  

 Cite this work as:
 Gaussian 09, Revision B.01,
 M. J. Frisch, G. W. Trucks, H. B. Schlegel, G. E. Scuseria, 
 M. A. Robb, J. R. Cheeseman, G. Scalmani, V. Barone, B. Mennucci, 
 G. A. Petersson, H. Nakatsuji, M. Caricato, X. Li, H. P. Hratchian, 
 A. F. Izmaylov, J. Bloino, G. Zheng, J. L. Sonnenberg, M. Hada, 
 M. Ehara, K. Toyota, R. Fukuda, J. Hasegawa, M. Ishida, T. Nakajima, 
 Y. Honda, O. Kitao, H. Nakai, T. Vreven, J. A. Montgomery, Jr., 
 J. E. Peralta, F. Ogliaro, M. Bearpark, J. J. Heyd, E. Brothers, 
 K. N. Kudin, V. N. Staroverov, T. Keith, R. Kobayashi, J. Normand, 
 K. Raghavachari, A. Rendell, J. C. Burant, S. S. Iyengar, J. Tomasi, 
 M. Cossi, N. Rega, J. M. Millam, M. Klene, J. E. Knox, J. B. Cross, 
 V. Bakken, C. Adamo, J. Jaramillo, R. Gomperts, R. E. Stratmann, 
 O. Yazyev, A. J. Austin, R. Cammi, C. Pomelli, J. W. Ochterski, 
 R. L. Martin, K. Morokuma, V. G. Zakrzewski, G. A. Voth, 
 P. Salvador, J. J. Dannenberg, S. Dapprich, A. D. Daniels, 
 O. Farkas, J. B. Foresman, J. V. Ortiz, J. Cioslowski, 
 and D. J. Fox, Gaussian, Inc., Wallingford CT, 2010.
 
 ******************************************
 Gaussian 09:  EM64L-G09RevB.01 12-Aug-2010
                12-Feb-2016 
 ******************************************
 --------------------------------------------------
 # freq=raman b3lyp/6-31+g(2df,p) geom=connectivity
 --------------------------------------------------
 1/10=4,30=1,38=1,57=2/1,3;
 2/12=2,17=6,18=5,40=1/2;
 3/5=1,6=6,7=114,11=2,16=1,25=1,30=1,71=2,74=-5/1,2,3;
 4//1;
 5/5=2,38=5,98=1/2;
 8/6=4,10=90,11=11/1;
 10/13=10,15=4/2;
 11/6=3,8=1,9=11,15=111,16=1/1,2,10;
 10/6=1/2;
 6/7=2,8=2,9=2,10=2,18=1,28=1/1;
 7/8=1,10=1,25=1/1,2,3,16;
 1/10=4,30=1/3;
 99//99;
 ------------
 500 8000.com
 ------------
 Symbolic Z-matrix:
 Charge =  0 Multiplicity = 1
 O                     8.68      6.967     12.086 
 C                     9.365     7.308     13.3 
 C                     8.943     8.625     13.931 
 O                     9.393     9.661     13.046 
 H                     9.012     9.434     12.15 
 C                     9.632     8.942     15.248 
 O                     9.041     10.054    15.937 
 H                     9.574     10.875    15.732 
 C                     9.218     4.789     13.938 
 O                     8.799     3.714     14.792 
 H                     9.029     2.803     14.449 
 C                     8.989     6.243     14.316 
 O                     9.645     6.476     15.571 
 C                     9.388     7.756     16.167 
 O                     10.193    7.831     17.352 
 C                     9.51      7.279     18.487 
 C                     9.558     5.768     18.643 
 O                     8.756     5.136     17.634 
 H                     9.162     5.445     16.774 
 C                     8.938     5.484     20.001 
 O                     8.939     4.126     20.464 
 H                     8.194     3.64      20.006 
 C                     10.036    9.535     19.559 
 O                     10.706    10.159    20.663 
 H                     10.647    11.157    20.625 
 C                     10.156    8.022     19.645 
 O                     9.695     7.612     20.94 
 C                     9.68      6.189     21.125 
 O                     8.819     6.033     22.263 
 H                     9.35129   5.9245    23.05451 
 H                     10.65588   5.78426   21.29455 
 H                     7.92754   5.83575   19.98868 
 H                     10.56696   5.41382   18.60491 
 H                     8.48259   7.57294   18.43283 
 H                     11.20083   7.79468   19.60556 
 H                     10.47584   9.87202   18.64365 
 H                     9.00153   9.808     19.57457 
 H                     9.32257   6.77413   11.39934 
 H                     10.27056   4.67102   13.78605 
 H                     8.74126   4.63652   12.99229 
 H                     7.93899   6.34995   14.49189 
 H                     10.4227   7.30143   13.13833 
 H                     7.8797    8.66505   14.0436 
 H                     10.68038   9.09836   15.10188 
 H                     8.36052   7.77921   16.46473 
 

 GradGradGradGradGradGradGradGradGradGradGradGradGradGradGradGradGradGrad
 Berny optimization.
 Initialization pass.
 Trust Radius=3.00D-01 FncErr=1.00D-07 GrdErr=1.00D-07
 Number of steps in this run=      2 maximum allowed number of steps=      2.
 GradGradGradGradGradGradGradGradGradGradGradGradGradGradGradGradGradGrad

                          Input orientation:                          
 ---------------------------------------------------------------------
 Center     Atomic      Atomic             Coordinates (Angstroms)
 Number     Number       Type             X           Y           Z
 ---------------------------------------------------------------------
      1          8           0        8.680000    6.967000   12.086000
      2          6           0        9.365000    7.308000   13.300000
      3          6           0        8.943000    8.625000   13.931000
      4          8           0        9.393000    9.661000   13.046000
      5          1           0        9.012000    9.434000   12.150000
      6          6           0        9.632000    8.942000   15.248000
      7          8           0        9.041000   10.054000   15.937000
      8          1           0        9.574000   10.875000   15.732000
      9          6           0        9.218000    4.789000   13.938000
     10          8           0        8.799000    3.714000   14.792000
     11          1           0        9.029000    2.803000   14.449000
     12          6           0        8.989000    6.243000   14.316000
     13          8           0        9.645000    6.476000   15.571000
     14          6           0        9.388000    7.756000   16.167000
     15          8           0       10.193000    7.831000   17.352000
     16          6           0        9.510000    7.279000   18.487000
     17          6           0        9.558000    5.768000   18.643000
     18          8           0        8.756000    5.136000   17.634000
     19          1           0        9.162000    5.445000   16.774000
     20          6           0        8.938000    5.484000   20.001000
     21          8           0        8.939000    4.126000   20.464000
     22          1           0        8.194000    3.640000   20.006000
     23          6           0       10.036000    9.535000   19.559000
     24          8           0       10.706000   10.159000   20.663000
     25          1           0       10.647000   11.157000   20.625000
     26          6           0       10.156000    8.022000   19.645000
     27          8           0        9.695000    7.612000   20.940000
     28          6           0        9.680000    6.189000   21.125000
     29          8           0        8.819000    6.033000   22.263000
     30          1           0        9.351292    5.924497   23.054513
     31          1           0       10.655877    5.784258   21.294552
     32          1           0        7.927543    5.835746   19.988683
     33          1           0       10.566964    5.413824   18.604910
     34          1           0        8.482594    7.572942   18.432827
     35          1           0       11.200831    7.794685   19.605559
     36          1           0       10.475835    9.872017   18.643651
     37          1           0        9.001530    9.808000   19.574567
     38          1           0        9.322574    6.774125   11.399343
     39          1           0       10.270564    4.671020   13.786047
     40          1           0        8.741263    4.636516   12.992289
     41          1           0        7.938988    6.349946   14.491889
     42          1           0       10.422695    7.301430   13.138328
     43          1           0        7.879695    8.665049   14.043602
     44          1           0       10.680381    9.098355   15.101881
     45          1           0        8.360517    7.779209   16.464726
 ---------------------------------------------------------------------
                    Distance matrix (angstroms):
                    1          2          3          4          5
     1  O    0.000000
     2  C    1.435027   0.000000
     3  C    2.494425   1.520110   0.000000
     4  O    2.947474   2.366835   1.434929   0.000000
     5  H    2.490062   2.442741   1.957346   0.999753   0.000000
     6  C    3.847749   2.556550   1.519769   2.328709   3.197510
     7  O    4.948746   3.820898   2.464890   2.938747   3.837527
     8  H    5.418950   4.322244   2.950299   2.953160   3.901673
     9  C    2.909129   2.602694   3.845851   4.956074   4.981506
    10  O    4.233037   3.932335   4.987983   6.226408   6.304279
    11  H    4.800465   4.661343   5.845631   7.009498   7.018251
    12  C    2.364859   1.519163   2.413351   3.668629   3.856756
    13  O    3.649319   2.434762   2.792956   4.072266   4.566585
    14  C    4.216438   2.901882   2.439853   3.656459   4.369594
    15  O    5.546749   4.168671   3.727758   4.746634   5.570025
    16  C    6.462124   5.189107   4.784385   5.940715   6.711900
    17  C    6.723298   5.563856   5.544693   6.819757   7.476411
    18  O    5.842828   4.885900   5.091198   6.475426   6.972273
    19  H    4.952389   3.947234   4.271184   5.632584   6.108682
    20  C    8.056865   6.957924   6.834530   8.125662   8.788980
    21  O    8.850381   7.850446   7.932283   9.266556   9.864218
    22  H    8.604157   7.732781   7.894102   9.280713   9.795728
    23  C    8.017424   6.677189   5.804923   6.545876   7.480111
    24  O    9.373285   8.008761   7.126089   7.745364   8.710134
    25  H    9.712863   8.373407   7.356920   7.826351   8.801567
    26  C    7.773679   6.433856   5.872374   6.842170   7.712166
    27  O    8.935299   7.653164   7.121640   8.161179   9.002793
    28  C    9.127366   7.910879   7.630917   8.798147   9.566968
    29  O   10.220715   9.069681   8.726744   9.921943  10.671308
    30  H   11.038375   9.852146   9.523545  10.683329  11.460372
    31  H    9.492123   8.240207   8.076240   9.201227   9.982273
    32  H    8.018623   6.998021   6.745859   8.061078   8.693010
    33  H    6.961981   5.759747   5.898673   7.093531   7.761803
    34  H    6.378742   5.214858   4.645992   5.848652   6.574018
    35  H    7.973921   6.585378   6.163428   7.055437   7.941265
    36  H    7.393709   6.030153   5.110158   5.705327   6.670995
    37  H    8.015815   6.764044   5.766520   6.541945   7.433988
    38  H    0.960000   1.974669   3.158972   3.324227   2.781165
    39  H    3.269798   2.830186   4.173415   5.120321   5.191012
    40  H    2.501254   2.760537   4.102424   5.066862   4.878381
    41  H    2.591941   2.090928   2.549218   3.894590   4.018357
    42  H    2.063062   1.070000   2.137677   2.576115   2.741297
    43  H    2.712207   2.144914   1.070000   2.068144   2.336478
    44  H    4.199969   2.860485   2.147911   2.490094   3.407309
    45  H    4.464862   3.353582   2.733938   4.036687   4.666864
                    6          7          8          9         10
     6  C    0.000000
     7  O    1.435460   0.000000
     8  H    1.993517   1.000077   0.000000
     9  C    4.374346   5.634497   6.354885   0.000000
    10  O    5.313550   6.447107   7.263893   1.435445   0.000000
    11  H    6.220075   7.402114   8.191477   2.059378   1.000235
    12  C    2.926888   4.141747   4.878802   1.519685   2.580410
    13  O    2.487098   3.647034   4.402518   2.386417   2.991856
    14  C    1.520096   2.335404   3.154676   3.714893   4.309908
    15  O    2.444557   2.875945   3.503355   4.675445   5.044455
    16  C    3.643017   3.797774   4.530490   5.194109   5.183413
    17  C    4.648201   5.095049   5.878403   4.817786   4.430034
    18  O    4.576681   5.210351   6.101053   3.740891   3.178191
    19  H    3.844293   4.685946   5.544403   2.911420   2.656399
    20  C    5.918649   6.116503   6.905921   6.109124   5.503263
    21  O    7.133075   7.459579   8.267046   6.565523   5.688667
    22  H    7.267573   7.642877   8.515674   6.260144   5.249504
    23  C    4.370307   3.791869   4.081050   7.401978   7.624861
    24  O    5.653034   5.011819   5.109681   8.733652   8.924310
    25  H    5.903269   5.076730   5.017201   9.343952   9.635208
    26  C    4.522675   4.372815   4.877489   6.625857   6.629625
    27  O    5.845659   5.605452   6.146956   7.564712   7.334516
    28  C    6.490026   6.500915   7.145228   7.336649   6.856287
    29  O    7.637635   7.499067   8.165106   8.426883   7.822660
    30  H    8.374113   8.234565   8.841734   9.187923   8.570907
    31  H    6.897858   7.038599   7.617617   7.561540   7.072280
    32  H    5.918451   5.953955   6.798842   6.274689   5.680384
    33  H    4.958934   5.565747   6.250123   4.897975   4.533584
    34  H    3.652201   3.563231   4.403319   5.338036   5.314807
    35  H    4.771361   4.819512   5.209547   6.714684   6.752120
    36  H    3.620419   3.068848   3.208892   7.040054   7.454406
    37  H    4.457199   3.646089   4.028837   7.550371   7.749245
    38  H    4.428045   5.605996   5.970955   3.224351   4.598763
    39  H    4.559204   5.925783   6.539213   1.070000   2.023198
    40  H    4.941542   6.173354   6.864267   1.070000   2.023198
    41  H    3.186964   4.125869   4.968627   2.092658   2.788888
    42  H    2.787002   4.161524   4.496423   2.898805   4.270910
    43  H    2.144259   2.619689   3.256568   4.101947   5.090983
    44  H    1.070000   2.073222   2.185771   4.697203   5.711996
    45  H    2.109306   2.432330   3.404901   4.007614   4.417714
                   11         12         13         14         15
    11  H    0.000000
    12  C    3.442802   0.000000
    13  O    3.889636   1.435148   0.000000
    14  C    5.254771   2.423751   1.435153   0.000000
    15  O    5.921409   3.631619   2.303973   1.434530   0.000000
    16  C    6.047428   4.329201   3.027555   2.371669   1.435067
    17  C    5.163400   4.390024   3.153731   3.179877   2.515129
    18  O    3.957479   3.505547   2.615701   3.068536   3.067168
    19  H    3.521857   2.590077   1.656339   2.400051   2.662713
    20  C    6.166096   5.735670   4.594433   4.479290   3.755081
    21  O    6.159436   6.502468   5.473791   5.642935   4.998408
    22  H    5.681377   6.307435   5.460542   5.753696   5.348289
    23  C    8.511520   6.278736   5.041280   3.884638   2.792689
    24  O    9.774296   7.652944   6.373278   5.265506   4.079887
    25  H   10.514286   8.166997   6.961227   5.746794   4.688381
    26  C    7.450269   5.738028   4.387336   3.571703   2.301239
    27  O    8.105746   6.800733   5.488092   4.785030   3.629009
    28  C    7.513839   6.844186   5.561520   5.207928   4.146669
    29  O    8.457872   7.951592   6.757321   6.360323   5.407273
    30  H    9.159829   8.751817   7.509553   7.126962   6.071398
    31  H    7.641741   7.189514   5.853155   5.638002   4.466220
    32  H    6.410838   5.785488   4.782834   4.519465   4.008170
    33  H    5.143279   4.644594   3.344076   3.580384   2.748158
    34  H    6.238733   4.355853   3.277884   2.446884   2.039674
    35  H    7.498257   5.939643   4.520753   3.887356   2.468921
    36  H    8.346222   5.840291   4.654503   3.434343   2.431894
    37  H    8.679989   6.353102   5.248316   3.996445   3.204361
    38  H    5.015618   2.983329   4.194706   4.868153   6.108089
    39  H    2.338907   2.096277   2.614448   3.995617   4.765240
    40  H    2.359360   2.096277   3.293964   4.497582   5.596370
    41  H    3.710901   1.070000   2.022584   2.623475   3.931199
    42  H    4.888366   2.136040   2.684033   3.232658   4.253026
    43  H    5.987393   2.677887   3.200185   2.758654   4.122198
    44  H    6.541010   3.410489   2.858117   2.146309   2.628072
    45  H    5.410423   2.715134   2.036417   1.070000   2.036647
                   16         17         18         19         20
    16  C    0.000000
    17  C    1.519790   0.000000
    18  O    2.426638   1.435517   0.000000
    19  H    2.533580   1.937603   0.999958   0.000000
    20  C    2.416900   1.519612   2.399358   3.235000   0.000000
    21  O    3.765100   2.528906   3.010397   3.924996   1.434759
    22  H    4.157107   2.871698   2.860113   3.826339   1.988441
    23  C    2.552527   3.906127   4.969429   5.024759   4.220375
    24  O    3.802603   4.967815   6.181251   6.303178   5.041795
    25  H    4.571947   5.844276   6.983867   7.047153   5.957599
    26  C    1.519977   2.538134   3.785910   3.983918   2.837552
    27  O    2.482403   2.948782   4.235792   4.726048   2.446049
    28  C    2.859378   2.520407   3.761604   4.444442   1.520186
    29  O    4.035861   3.704153   4.715530   5.531050   2.330709
    30  H    4.766764   4.419125   5.509815   6.301634   3.112682
    31  H    3.380774   2.869900   4.174854   4.773065   2.171298
    32  H    2.615760   2.115146   2.592396   3.465653   1.070000
    33  H    2.147081   1.070000   2.073510   2.308057   2.146513
    34  H    1.070000   2.111513   2.579063   2.782344   2.651460
    35  H    2.091893   2.780803   4.114954   4.206611   3.258227
    36  H    2.771482   4.205399   5.138782   4.981991   4.843762
    37  H    2.799497   4.183190   5.064945   5.186973   4.345441
    38  H    7.108088   7.316986   6.471121   5.538889   8.706367
    39  H    5.429454   5.030020   4.161352   3.279607   6.407988
    40  H    6.145367   5.820469   4.668531   3.889988   7.062504
    41  H    4.392281   4.493504   3.466126   2.742757   5.665526
    42  H    5.426030   5.779318   5.260991   4.272446   7.252836
    43  H    4.931816   5.688942   5.110094   4.412267   6.835911
    44  H    4.017322   4.989041   5.080859   4.295168   6.332521
    45  H    2.379309   3.197468   2.917218   2.487279   4.255197
                   21         22         23         24         25
    21  O    0.000000
    22  H    1.000492   0.000000
    23  C    5.592827   6.192237   0.000000
    24  O    6.289593   7.017062   1.434257   0.000000
    25  H    7.237275   7.931309   2.034837   1.000464   0.000000
    26  C    4.163012   4.814737   1.520186   2.430143   3.321100
    27  O    3.598654   4.347659   2.391939   2.754280   3.684095
    28  C    2.289535   3.155592   3.711443   4.126381   5.085874
    29  O    2.624395   3.348302   4.588759   4.810888   5.681549
    30  H    3.180461   3.981417   5.071801   5.048324   5.912738
    31  H    2.527312   3.509850   4.179049   4.420377   5.414308
    32  H    2.042597   2.211922   4.279567   5.183150   6.009666
    33  H    2.786570   3.277265   4.263368   5.174144   6.088616
    34  H    4.026833   4.245727   2.744268   4.074911   4.726071
    35  H    4.394548   5.144200   2.094683   2.636859   3.556846
    36  H    6.220309   6.775013   1.070000   2.052586   2.367747
    37  H    5.751532   6.235580   1.070000   2.052586   2.372927
    38  H    9.451333   9.228812   8.643576   9.959246  10.299342
    39  H    6.831191   6.637992   7.552503   8.809087   9.432970
    40  H    7.491742   7.105258   8.294166   9.653903  10.217966
    41  H    6.450741   6.149329   6.341738   7.761949   8.249615
    42  H    8.120971   8.095558   6.809067   8.053983   8.424131
    43  H    7.933890   7.803851   5.985489   7.350940   7.561917
    44  H    7.517249   7.747652   4.524576   5.661419   5.894402
    45  H    5.447455   5.449899   3.932503   5.365650   5.826265
                   26         27         28         29         30
    26  C    0.000000
    27  O    1.434450   0.000000
    28  C    2.403511   1.435054   0.000000
    29  O    3.549312   2.238514   1.435514   0.000000
    30  H    4.083118   2.727080   1.975103   0.960000   0.000000
    31  H    2.824604   2.095145   1.070000   2.091383   2.195239
    32  H    3.140676   2.680296   2.118280   2.450739   3.381457
    33  H    2.837827   3.323394   2.781808   4.101266   4.640863
    34  H    2.114546   2.785206   3.255284   4.141838   4.983171
    35  H    1.070000   2.020306   2.683254   3.979780   4.337474
    36  H    2.127806   3.315208   4.511659   5.530176   6.025215
    37  H    2.127806   2.677261   3.995163   4.638062   5.226275
    38  H    8.381089   9.584616   9.749796  10.900546  11.686132
    39  H    6.750520   7.756267   7.517530   8.707512   9.397911
    40  H    7.597470   8.539862   8.332612   9.375623  10.162647
    41  H    5.853670   6.801065   6.859678   7.827198   8.688736
    42  H    6.551879   7.841688   8.097902   9.350956  10.068493
    43  H    6.080356   7.208644   7.714798   8.681502   9.532719
    44  H    4.698238   6.104413   6.763362   8.008918   8.665114
    45  H    3.660171   4.672995   5.097838   6.072844   6.917144
                   31         32         33         34         35
    31  H    0.000000
    32  H    3.025186   0.000000
    33  H    2.716487   3.009882   0.000000
    34  H    4.013978   2.397211   3.005995   0.000000
    35  H    2.681695   3.833880   2.659245   2.968717   0.000000
    36  H    4.875394   4.959273   4.459293   3.050115   2.401290
    37  H    4.678217   4.135667   4.764410   2.562878   2.981833
    38  H   10.033578   8.752338   7.437682   7.128364   8.480057
    39  H    7.600356   6.731941   4.884777   5.762860   6.670037
    40  H    8.597129   7.144916   5.953059   6.187808   7.730385
    41  H    7.346952   5.520803   4.969861   4.161997   6.235103
    42  H    8.299407   7.436489   5.785100   5.645301   6.532523
    43  H    8.281450   6.584165   6.212681   4.563056   6.536271
    44  H    7.023746   6.488726   5.085257   4.272277   4.717365
    45  H    5.707514   4.047565   3.878639   1.982642   4.234673
                   36         37         38         39         40
    36  H    0.000000
    37  H    1.744786   0.000000
    38  H    7.962847   8.725924   0.000000
    39  H    7.119608   7.842574   3.319351   0.000000
    40  H    7.896652   8.374865   2.728511   1.723370   0.000000
    41  H    6.006472   6.238649   3.414393   2.958589   2.414185
    42  H    6.076126   7.051792   2.124238   2.713253   3.154412
    43  H    5.418225   5.758161   3.556628   4.662066   4.251663
    44  H    3.631049   4.829808   4.577606   4.636881   5.302695
    45  H    3.688106   3.768023   5.252985   4.525973   4.698862
                   41         42         43         44         45
    41  H    0.000000
    42  H    2.984335   0.000000
    43  H    2.358852   3.024207   0.000000
    44  H    3.929514   2.674113   3.025153   0.000000
    45  H    2.472360   3.942812   2.622545   2.996541   0.000000
 Stoichiometry    C12H22O11
 Framework group  C1[X(C12H22O11)]
 Deg. of freedom   129
 Full point group                 C1      NOp   1
 Largest Abelian subgroup         C1      NOp   1
 Largest concise Abelian subgroup C1      NOp   1
                         Standard orientation:                         
 ---------------------------------------------------------------------
 Center     Atomic      Atomic             Coordinates (Angstroms)
 Number     Number       Type             X           Y           Z
 ---------------------------------------------------------------------
      1          8           0        5.085516   -0.512859   -0.329111
      2          6           0        3.856166   -0.000379    0.205085
      3          6           0        3.330761    1.254066   -0.473924
      4          8           0        4.248347    2.307256   -0.145521
      5          1           0        5.149880    1.974658   -0.421426
      6          6           0        1.997103    1.748664    0.061266
      7          8           0        1.411508    2.775258   -0.753430
      8          1           0        1.633771    3.664447   -0.353309
      9          6           0        3.078348   -2.472942    0.440555
     10          8           0        2.187512   -3.560710    0.151291
     11          1           0        2.461410   -4.434474    0.553766
     12          6           0        2.801984   -1.062996   -0.054537
     13          8           0        1.527012   -0.659748    0.466508
     14          6           0        1.024641    0.584868   -0.041643
     15          8           0       -0.198722    0.854768    0.657222
     16          6           0       -1.322889    0.250116    0.001432
     17          6           0       -1.571500   -1.220786    0.291947
     18          8           0       -0.557005   -2.029619   -0.322299
     19          1           0        0.294764   -1.698095    0.083285
     20          6           0       -2.905540   -1.540005   -0.362009
     21          8           0       -3.448184   -2.853376   -0.164205
     22          1           0       -2.977358   -3.481776   -0.784222
     23          6           0       -2.286941    2.612675    0.067124
     24          8           0       -3.388877    3.395657    0.546466
     25          1           0       -3.287888    4.365679    0.323337
     26          6           0       -2.470120    1.148721    0.433522
     27          8           0       -3.758196    0.729700   -0.038629
     28          6           0       -4.026766   -0.663996    0.173179
     29          8           0       -5.119852   -0.909371   -0.724403
     30          1           0       -5.946157   -0.886075   -0.236266
     31          1           0       -4.276894   -0.886603    1.189438
     32          1           0       -2.813246   -1.367768   -1.414015
     33          1           0       -1.613621   -1.398140    1.346305
     34          1           0       -1.191353    0.360519   -1.054698
     35          1           0       -2.505402    1.102278    1.501931
     36          1           0       -1.380316    2.974857    0.505023
     37          1           0       -2.225741    2.704677   -0.997155
     38          1           0        5.720727   -0.626104    0.381721
     39          1           0        3.161270   -2.415989    1.505815
     40          1           0        4.039463   -2.751070    0.061342
     41          1           0        2.694400   -1.129196   -1.117055
     42          1           0        3.955135    0.166602    1.257331
     43          1           0        3.283019    1.116661   -1.533990
     44          1           0        2.090860    2.075123    1.075926
     45          1           0        0.789324    0.446107   -1.076183
 ---------------------------------------------------------------------
 Rotational constants (GHZ):      0.3834306      0.1560889      0.1144160
 Standard basis: 6-31+G(2df,p) (6D, 7F)
 There are   846 symmetry adapted basis functions of A   symmetry.
 Integral buffers will be    131072 words long.
 Raffenetti 2 integral format.
 Two-electron integral symmetry is turned on.
   846 basis functions,  1258 primitive gaussians,   915 cartesian basis functions
    91 alpha electrons       91 beta electrons
       nuclear repulsion energy      2295.8595897464 Hartrees.
 NAtoms=   45 NActive=   45 NUniq=   45 SFac= 1.00D+00 NAtFMM=   50 NAOKFM=F Big=F
 One-electron integrals computed using PRISM.
 NBasis=   846 RedAO= T  NBF=   846
 NBsUse=   846 1.00D-06 NBFU=   846
 Harris functional with IExCor=  402 diagonalized for initial guess.
 ExpMin= 4.38D-02 ExpMax= 5.48D+03 ExpMxC= 8.25D+02 IAcc=2 IRadAn=         0 AccDes= 0.00D+00
 HarFok:  IExCor=  402 AccDes= 0.00D+00 IRadAn=         0 IDoV= 1
 ScaDFX=  1.000000  1.000000  1.000000  1.000000
 FoFCou: FMM=F IPFlag=           0 FMFlag=      100000 FMFlg1=           0
         NFxFlg=           0 DoJE=T BraDBF=F KetDBF=T FulRan=T
         Omega=  0.000000  0.000000  1.000000  0.000000  0.000000 ICntrl=     500 IOpCl=  0
         NMat0=    1 NMatS0=    1 NMatT0=    0 NMatD0=    1 NMtDS0=    0 NMtDT0=    0
         I1Cent=           4 NGrid=           0.
 Petite list used in FoFCou.
 Initial guess orbital symmetries:
       Occupied  (A) (A) (A) (A) (A) (A) (A) (A) (A) (A) (A) (A)
                 (A) (A) (A) (A) (A) (A) (A) (A) (A) (A) (A) (A)
                 (A) (A) (A) (A) (A) (A) (A) (A) (A) (A) (A) (A)
                 (A) (A) (A) (A) (A) (A) (A) (A) (A) (A) (A) (A)
                 (A) (A) (A) (A) (A) (A) (A) (A) (A) (A) (A) (A)
                 (A) (A) (A) (A) (A) (A) (A) (A) (A) (A) (A) (A)
                 (A) (A) (A) (A) (A) (A) (A) (A) (A) (A) (A) (A)
                 (A) (A) (A) (A) (A) (A) (A)
       Virtual   (A) (A) (A) (A) (A) (A) (A) (A) (A) (A) (A) (A)
                 (A) (A) (A) (A) (A) (A) (A) (A) (A) (A) (A) (A)
                 (A) (A) (A) (A) (A) (A) (A) (A) (A) (A) (A) (A)
                 (A) (A) (A) (A) (A) (A) (A) (A) (A) (A) (A) (A)
                 (A) (A) (A) (A) (A) (A) (A) (A) (A) (A) (A) (A)
                 (A) (A) (A) (A) (A) (A) (A) (A) (A) (A) (A) (A)
                 (A) (A) (A) (A) (A) (A) (A) (A) (A) (A) (A) (A)
                 (A) (A) (A) (A) (A) (A) (A) (A) (A) (A) (A) (A)
                 (A) (A) (A) (A) (A) (A) (A) (A) (A) (A) (A) (A)
                 (A) (A) (A) (A) (A) (A) (A) (A) (A) (A) (A) (A)
                 (A) (A) (A) (A) (A) (A) (A) (A) (A) (A) (A) (A)
                 (A) (A) (A) (A) (A) (A) (A) (A) (A) (A) (A) (A)
                 (A) (A) (A) (A) (A) (A) (A) (A) (A) (A) (A) (A)
                 (A) (A) (A) (A) (A) (A) (A) (A) (A) (A) (A) (A)
                 (A) (A) (A) (A) (A) (A) (A) (A) (A) (A) (A) (A)
                 (A) (A) (A) (A) (A) (A) (A) (A) (A) (A) (A) (A)
                 (A) (A) (A) (A) (A) (A) (A) (A) (A) (A) (A) (A)
                 (A) (A) (A) (A) (A) (A) (A) (A) (A) (A) (A) (A)
                 (A) (A) (A) (A) (A) (A) (A) (A) (A) (A) (A) (A)
                 (A) (A) (A) (A) (A) (A) (A) (A) (A) (A) (A) (A)
                 (A) (A) (A) (A) (A) (A) (A) (A) (A) (A) (A) (A)
                 (A) (A) (A) (A) (A) (A) (A) (A) (A) (A) (A) (A)
                 (A) (A) (A) (A) (A) (A) (A) (A) (A) (A) (A) (A)
                 (A) (A) (A) (A) (A) (A) (A) (A) (A) (A) (A) (A)
                 (A) (A) (A) (A) (A) (A) (A) (A) (A) (A) (A) (A)
                 (A) (A) (A) (A) (A) (A) (A) (A) (A) (A) (A) (A)
                 (A) (A) (A) (A) (A) (A) (A) (A) (A) (A) (A) (A)
                 (A) (A) (A) (A) (A) (A) (A) (A) (A) (A) (A) (A)
                 (A) (A) (A) (A) (A) (A) (A) (A) (A) (A) (A) (A)
                 (A) (A) (A) (A) (A) (A) (A) (A) (A) (A) (A) (A)
                 (A) (A) (A) (A) (A) (A) (A) (A) (A) (A) (A) (A)
                 (A) (A) (A) (A) (A) (A) (A) (A) (A) (A) (A) (A)
                 (A) (A) (A) (A) (A) (A) (A) (A) (A) (A) (A) (A)
                 (A) (A) (A) (A) (A) (A) (A) (A) (A) (A) (A) (A)
                 (A) (A) (A) (A) (A) (A) (A) (A) (A) (A) (A) (A)
                 (A) (A) (A) (A) (A) (A) (A) (A) (A) (A) (A) (A)
                 (A) (A) (A) (A) (A) (A) (A) (A) (A) (A) (A) (A)
                 (A) (A) (A) (A) (A) (A) (A) (A) (A) (A) (A) (A)
                 (A) (A) (A) (A) (A) (A) (A) (A) (A) (A) (A) (A)
                 (A) (A) (A) (A) (A) (A) (A) (A) (A) (A) (A) (A)
                 (A) (A) (A) (A) (A) (A) (A) (A) (A) (A) (A) (A)
                 (A) (A) (A) (A) (A) (A) (A) (A) (A) (A) (A) (A)
                 (A) (A) (A) (A) (A) (A) (A) (A) (A) (A) (A) (A)
                 (A) (A) (A) (A) (A) (A) (A) (A) (A) (A) (A) (A)
                 (A) (A) (A) (A) (A) (A) (A) (A) (A) (A) (A) (A)
                 (A) (A) (A) (A) (A) (A) (A) (A) (A) (A) (A) (A)
                 (A) (A) (A) (A) (A) (A) (A) (A) (A) (A) (A) (A)
                 (A) (A) (A) (A) (A) (A) (A) (A) (A) (A) (A) (A)
                 (A) (A) (A) (A) (A) (A) (A) (A) (A) (A) (A) (A)
                 (A) (A) (A) (A) (A) (A) (A) (A) (A) (A) (A) (A)
                 (A) (A) (A) (A) (A) (A) (A) (A) (A) (A) (A) (A)
                 (A) (A) (A) (A) (A) (A) (A) (A) (A) (A) (A) (A)
                 (A) (A) (A) (A) (A) (A) (A) (A) (A) (A) (A) (A)
                 (A) (A) (A) (A) (A) (A) (A) (A) (A) (A) (A) (A)
                 (A) (A) (A) (A) (A) (A) (A) (A) (A) (A) (A) (A)
                 (A) (A) (A) (A) (A) (A) (A) (A) (A) (A) (A) (A)
                 (A) (A) (A) (A) (A) (A) (A) (A) (A) (A) (A) (A)
                 (A) (A) (A) (A) (A) (A) (A) (A) (A) (A) (A) (A)
                 (A) (A) (A) (A) (A) (A) (A) (A) (A) (A) (A) (A)
                 (A) (A) (A) (A) (A) (A) (A) (A) (A) (A) (A) (A)
                 (A) (A) (A) (A) (A) (A) (A) (A) (A) (A) (A) (A)
                 (A) (A) (A) (A) (A) (A) (A) (A) (A) (A) (A) (A)
                 (A) (A) (A) (A) (A) (A) (A) (A) (A) (A) (A)
 The electronic state of the initial guess is 1-A.
 Requested convergence on RMS density matrix=1.00D-08 within 128 cycles.
 Requested convergence on MAX density matrix=1.00D-06.
 Requested convergence on             energy=1.00D-06.
 No special actions if energy rises.
 SCF Done:  E(RB3LYP) =  -1298.02052410     A.U. after   14 cycles
             Convg  =    0.1323D-08             -V/T =  2.0065
 Range of M.O.s used for correlation:     1   846
 NBasis=   846 NAE=    91 NBE=    91 NFC=     0 NFV=     0
 NROrb=    846 NOA=    91 NOB=    91 NVA=   755 NVB=   755

 **** Warning!!: The largest alpha MO coefficient is  0.77164400D+02

          Differentiating once with respect to electric field.
                with respect to dipole field.
          Electric field/nuclear overlap derivatives assumed to be zero.
          There are     3 degrees of freedom in the 1st order CPHF.  IDoFFX=0.
      3 vectors produced by pass  0 Test12= 2.29D-12 3.33D-08 XBig12= 1.18D+02 1.16D+00.
 AX will form     3 AO Fock derivatives at one time.
      3 vectors produced by pass  1 Test12= 2.29D-12 3.33D-08 XBig12= 2.45D+01 3.94D-01.
      3 vectors produced by pass  2 Test12= 2.29D-12 3.33D-08 XBig12= 9.48D+00 1.89D-01.
      3 vectors produced by pass  3 Test12= 2.29D-12 3.33D-08 XBig12= 1.03D+00 8.09D-02.
      3 vectors produced by pass  4 Test12= 2.29D-12 3.33D-08 XBig12= 2.55D-01 3.19D-02.
      3 vectors produced by pass  5 Test12= 2.29D-12 3.33D-08 XBig12= 6.00D-02 2.18D-02.
      3 vectors produced by pass  6 Test12= 2.29D-12 3.33D-08 XBig12= 1.80D-02 1.65D-02.
      3 vectors produced by pass  7 Test12= 2.29D-12 3.33D-08 XBig12= 2.75D-03 9.08D-03.
      3 vectors produced by pass  8 Test12= 2.29D-12 3.33D-08 XBig12= 6.36D-04 3.16D-03.
      3 vectors produced by pass  9 Test12= 2.29D-12 3.33D-08 XBig12= 1.71D-04 2.22D-03.
      3 vectors produced by pass 10 Test12= 2.29D-12 3.33D-08 XBig12= 5.30D-05 6.96D-04.
      3 vectors produced by pass 11 Test12= 2.29D-12 3.33D-08 XBig12= 7.21D-06 3.73D-04.
      3 vectors produced by pass 12 Test12= 2.29D-12 3.33D-08 XBig12= 1.10D-06 1.44D-04.
      3 vectors produced by pass 13 Test12= 2.29D-12 3.33D-08 XBig12= 2.41D-07 3.99D-05.
      3 vectors produced by pass 14 Test12= 2.29D-12 3.33D-08 XBig12= 4.83D-08 2.17D-05.
      3 vectors produced by pass 15 Test12= 2.29D-12 3.33D-08 XBig12= 9.32D-09 8.66D-06.
      3 vectors produced by pass 16 Test12= 2.29D-12 3.33D-08 XBig12= 1.09D-09 3.18D-06.
      3 vectors produced by pass 17 Test12= 2.29D-12 3.33D-08 XBig12= 1.08D-10 7.66D-07.
      3 vectors produced by pass 18 Test12= 2.29D-12 3.33D-08 XBig12= 1.88D-11 2.99D-07.
      3 vectors produced by pass 19 Test12= 2.29D-12 3.33D-08 XBig12= 9.87D-12 2.58D-07.
      3 vectors produced by pass 20 Test12= 2.29D-12 3.33D-08 XBig12= 8.60D-12 2.02D-07.
      3 vectors produced by pass 21 Test12= 2.29D-12 3.33D-08 XBig12= 3.13D-12 1.22D-07.
      2 vectors produced by pass 22 Test12= 2.29D-12 3.33D-08 XBig12= 6.45D-13 5.33D-08.
 Inverted reduced A of dimension    68 with in-core refinement.
 End of Minotr Frequency-dependent properties file   721 does not exist.
 End of Minotr Frequency-dependent properties file   722 does not exist.
 Symmetrizing basis deriv contribution to polar:
 IMax=3 JMax=2 DiffMx= 0.00D+00
 G2DrvN: will do     8 centers at a time, making    6 passes doing MaxLOS=3.
 Calling FoFCou, ICntrl=  3107 FMM=F I1Cent=   0 AccDes= 0.00D+00.
 Calling FoFCou, ICntrl=  3107 FMM=F I1Cent=   0 AccDes= 0.00D+00.
 Calling FoFCou, ICntrl=  3107 FMM=F I1Cent=   0 AccDes= 0.00D+00.
 Calling FoFCou, ICntrl=  3107 FMM=F I1Cent=   0 AccDes= 0.00D+00.
 Calling FoFCou, ICntrl=  3107 FMM=F I1Cent=   0 AccDes= 0.00D+00.
 Calling FoFCou, ICntrl=  3107 FMM=F I1Cent=   0 AccDes= 0.00D+00.
 FoFDir/FoFCou used for L=0 through L=3.
 End of G2Drv Frequency-dependent properties file   721 does not exist.
 End of G2Drv Frequency-dependent properties file   722 does not exist.
          IDoAtm=111111111111111111111111111111111111111111111
          Differentiating once with respect to electric field.
                with respect to dipole field.
          Differentiating once with respect to nuclear coordinates.
          There are   138 degrees of freedom in the 1st order CPHF.  IDoFFX=5.
 Will reuse    3 saved solutions.
    135 vectors produced by pass  0 Test12= 6.87D-14 1.00D-09 XBig12= 1.83D-01 5.79D-02.
 AX will form    27 AO Fock derivatives at one time.
    135 vectors produced by pass  1 Test12= 6.87D-14 1.00D-09 XBig12= 1.93D-02 1.27D-02.
    132 vectors produced by pass  2 Test12= 6.87D-14 1.00D-09 XBig12= 1.60D-04 1.50D-03.
    132 vectors produced by pass  3 Test12= 6.87D-14 1.00D-09 XBig12= 8.38D-07 6.66D-05.
    132 vectors produced by pass  4 Test12= 6.87D-14 1.00D-09 XBig12= 2.15D-09 3.18D-06.
    132 vectors produced by pass  5 Test12= 6.87D-14 1.00D-09 XBig12= 6.09D-12 1.61D-07.
     94 vectors produced by pass  6 Test12= 6.87D-14 1.00D-09 XBig12= 3.18D-13 3.36D-08.
      3 vectors produced by pass  7 Test12= 6.87D-14 1.00D-09 XBig12= 3.65D-15 2.72D-09.
 Inverted reduced A of dimension   895 with in-core refinement.
 Isotropic polarizability for W=    0.000000      190.91 Bohr**3.
 End of Minotr Frequency-dependent properties file   721 does not exist.
 End of Minotr Frequency-dependent properties file   722 does not exist.

 **********************************************************************

            Population analysis using the SCF density.

 **********************************************************************

 Orbital symmetries:
       Occupied  (A) (A) (A) (A) (A) (A) (A) (A) (A) (A) (A) (A)
                 (A) (A) (A) (A) (A) (A) (A) (A) (A) (A) (A) (A)
                 (A) (A) (A) (A) (A) (A) (A) (A) (A) (A) (A) (A)
                 (A) (A) (A) (A) (A) (A) (A) (A) (A) (A) (A) (A)
                 (A) (A) (A) (A) (A) (A) (A) (A) (A) (A) (A) (A)
                 (A) (A) (A) (A) (A) (A) (A) (A) (A) (A) (A) (A)
                 (A) (A) (A) (A) (A) (A) (A) (A) (A) (A) (A) (A)
                 (A) (A) (A) (A) (A) (A) (A)
       Virtual   (A) (A) (A) (A) (A) (A) (A) (A) (A) (A) (A) (A)
                 (A) (A) (A) (A) (A) (A) (A) (A) (A) (A) (A) (A)
                 (A) (A) (A) (A) (A) (A) (A) (A) (A) (A) (A) (A)
                 (A) (A) (A) (A) (A) (A) (A) (A) (A) (A) (A) (A)
                 (A) (A) (A) (A) (A) (A) (A) (A) (A) (A) (A) (A)
                 (A) (A) (A) (A) (A) (A) (A) (A) (A) (A) (A) (A)
                 (A) (A) (A) (A) (A) (A) (A) (A) (A) (A) (A) (A)
                 (A) (A) (A) (A) (A) (A) (A) (A) (A) (A) (A) (A)
                 (A) (A) (A) (A) (A) (A) (A) (A) (A) (A) (A) (A)
                 (A) (A) (A) (A) (A) (A) (A) (A) (A) (A) (A) (A)
                 (A) (A) (A) (A) (A) (A) (A) (A) (A) (A) (A) (A)
                 (A) (A) (A) (A) (A) (A) (A) (A) (A) (A) (A) (A)
                 (A) (A) (A) (A) (A) (A) (A) (A) (A) (A) (A) (A)
                 (A) (A) (A) (A) (A) (A) (A) (A) (A) (A) (A) (A)
                 (A) (A) (A) (A) (A) (A) (A) (A) (A) (A) (A) (A)
                 (A) (A) (A) (A) (A) (A) (A) (A) (A) (A) (A) (A)
                 (A) (A) (A) (A) (A) (A) (A) (A) (A) (A) (A) (A)
                 (A) (A) (A) (A) (A) (A) (A) (A) (A) (A) (A) (A)
                 (A) (A) (A) (A) (A) (A) (A) (A) (A) (A) (A) (A)
                 (A) (A) (A) (A) (A) (A) (A) (A) (A) (A) (A) (A)
                 (A) (A) (A) (A) (A) (A) (A) (A) (A) (A) (A) (A)
                 (A) (A) (A) (A) (A) (A) (A) (A) (A) (A) (A) (A)
                 (A) (A) (A) (A) (A) (A) (A) (A) (A) (A) (A) (A)
                 (A) (A) (A) (A) (A) (A) (A) (A) (A) (A) (A) (A)
                 (A) (A) (A) (A) (A) (A) (A) (A) (A) (A) (A) (A)
                 (A) (A) (A) (A) (A) (A) (A) (A) (A) (A) (A) (A)
                 (A) (A) (A) (A) (A) (A) (A) (A) (A) (A) (A) (A)
                 (A) (A) (A) (A) (A) (A) (A) (A) (A) (A) (A) (A)
                 (A) (A) (A) (A) (A) (A) (A) (A) (A) (A) (A) (A)
                 (A) (A) (A) (A) (A) (A) (A) (A) (A) (A) (A) (A)
                 (A) (A) (A) (A) (A) (A) (A) (A) (A) (A) (A) (A)
                 (A) (A) (A) (A) (A) (A) (A) (A) (A) (A) (A) (A)
                 (A) (A) (A) (A) (A) (A) (A) (A) (A) (A) (A) (A)
                 (A) (A) (A) (A) (A) (A) (A) (A) (A) (A) (A) (A)
                 (A) (A) (A) (A) (A) (A) (A) (A) (A) (A) (A) (A)
                 (A) (A) (A) (A) (A) (A) (A) (A) (A) (A) (A) (A)
                 (A) (A) (A) (A) (A) (A) (A) (A) (A) (A) (A) (A)
                 (A) (A) (A) (A) (A) (A) (A) (A) (A) (A) (A) (A)
                 (A) (A) (A) (A) (A) (A) (A) (A) (A) (A) (A) (A)
                 (A) (A) (A) (A) (A) (A) (A) (A) (A) (A) (A) (A)
                 (A) (A) (A) (A) (A) (A) (A) (A) (A) (A) (A) (A)
                 (A) (A) (A) (A) (A) (A) (A) (A) (A) (A) (A) (A)
                 (A) (A) (A) (A) (A) (A) (A) (A) (A) (A) (A) (A)
                 (A) (A) (A) (A) (A) (A) (A) (A) (A) (A) (A) (A)
                 (A) (A) (A) (A) (A) (A) (A) (A) (A) (A) (A) (A)
                 (A) (A) (A) (A) (A) (A) (A) (A) (A) (A) (A) (A)
                 (A) (A) (A) (A) (A) (A) (A) (A) (A) (A) (A) (A)
                 (A) (A) (A) (A) (A) (A) (A) (A) (A) (A) (A) (A)
                 (A) (A) (A) (A) (A) (A) (A) (A) (A) (A) (A) (A)
                 (A) (A) (A) (A) (A) (A) (A) (A) (A) (A) (A) (A)
                 (A) (A) (A) (A) (A) (A) (A) (A) (A) (A) (A) (A)
                 (A) (A) (A) (A) (A) (A) (A) (A) (A) (A) (A) (A)
                 (A) (A) (A) (A) (A) (A) (A) (A) (A) (A) (A) (A)
                 (A) (A) (A) (A) (A) (A) (A) (A) (A) (A) (A) (A)
                 (A) (A) (A) (A) (A) (A) (A) (A) (A) (A) (A) (A)
                 (A) (A) (A) (A) (A) (A) (A) (A) (A) (A) (A) (A)
                 (A) (A) (A) (A) (A) (A) (A) (A) (A) (A) (A) (A)
                 (A) (A) (A) (A) (A) (A) (A) (A) (A) (A) (A) (A)
                 (A) (A) (A) (A) (A) (A) (A) (A) (A) (A) (A) (A)
                 (A) (A) (A) (A) (A) (A) (A) (A) (A) (A) (A) (A)
                 (A) (A) (A) (A) (A) (A) (A) (A) (A) (A) (A) (A)
                 (A) (A) (A) (A) (A) (A) (A) (A) (A) (A) (A) (A)
                 (A) (A) (A) (A) (A) (A) (A) (A) (A) (A) (A)
 The electronic state is 1-A.
 Alpha  occ. eigenvalues --  -19.19724 -19.19171 -19.18027 -19.17717 -19.17575
 Alpha  occ. eigenvalues --  -19.16258 -19.14291 -19.14194 -19.14124 -19.13994
 Alpha  occ. eigenvalues --  -19.12561 -10.30545 -10.27584 -10.27565 -10.26740
 Alpha  occ. eigenvalues --  -10.26656 -10.26422 -10.24883 -10.23970 -10.23108
 Alpha  occ. eigenvalues --  -10.22816 -10.22669 -10.22049  -1.10361  -1.07618
 Alpha  occ. eigenvalues --   -1.05863  -1.05404  -1.04297  -1.03404  -1.02382
 Alpha  occ. eigenvalues --   -1.01373  -1.00542  -0.99587  -0.98588  -0.82538
 Alpha  occ. eigenvalues --   -0.81538  -0.78282  -0.76648  -0.72286  -0.68911
 Alpha  occ. eigenvalues --   -0.67379  -0.64109  -0.63562  -0.62353  -0.60686
 Alpha  occ. eigenvalues --   -0.59039  -0.57171  -0.56484  -0.54978  -0.54243
 Alpha  occ. eigenvalues --   -0.53219  -0.52708  -0.52305  -0.51444  -0.50901
 Alpha  occ. eigenvalues --   -0.50227  -0.48998  -0.47568  -0.47023  -0.46414
 Alpha  occ. eigenvalues --   -0.45497  -0.44889  -0.44824  -0.43807  -0.43285
 Alpha  occ. eigenvalues --   -0.42267  -0.40847  -0.40450  -0.39774  -0.39442
 Alpha  occ. eigenvalues --   -0.38229  -0.37979  -0.37145  -0.36601  -0.35547
 Alpha  occ. eigenvalues --   -0.34958  -0.34805  -0.33371  -0.33364  -0.32873
 Alpha  occ. eigenvalues --   -0.32217  -0.31532  -0.30780  -0.30476  -0.29306
 Alpha  occ. eigenvalues --   -0.28936  -0.28478  -0.27217  -0.26994  -0.26120
 Alpha  occ. eigenvalues --   -0.25157
 Alpha virt. eigenvalues --   -0.03409  -0.01741  -0.01238  -0.00002   0.00649
 Alpha virt. eigenvalues --    0.01507   0.01585   0.02088   0.02313   0.03214
 Alpha virt. eigenvalues --    0.03710   0.04404   0.05135   0.05520   0.06229
 Alpha virt. eigenvalues --    0.06440   0.06935   0.07282   0.07500   0.08084
 Alpha virt. eigenvalues --    0.08669   0.09093   0.09710   0.09979   0.10173
 Alpha virt. eigenvalues --    0.10809   0.11050   0.11394   0.11716   0.11883
 Alpha virt. eigenvalues --    0.12542   0.12917   0.13119   0.13473   0.14274
 Alpha virt. eigenvalues --    0.14529   0.14804   0.14917   0.15052   0.15305
 Alpha virt. eigenvalues --    0.15718   0.16064   0.16753   0.16864   0.17072
 Alpha virt. eigenvalues --    0.17612   0.17980   0.18362   0.18944   0.19013
 Alpha virt. eigenvalues --    0.19161   0.19671   0.19884   0.20125   0.20302
 Alpha virt. eigenvalues --    0.20502   0.21034   0.21245   0.21495   0.21685
 Alpha virt. eigenvalues --    0.22036   0.22271   0.22413   0.22793   0.23149
 Alpha virt. eigenvalues --    0.23390   0.23842   0.24035   0.24435   0.24674
 Alpha virt. eigenvalues --    0.25143   0.25457   0.25704   0.25994   0.26282
 Alpha virt. eigenvalues --    0.26469   0.26799   0.27075   0.27472   0.27670
 Alpha virt. eigenvalues --    0.28056   0.28149   0.28603   0.28797   0.29177
 Alpha virt. eigenvalues --    0.29417   0.29724   0.29960   0.30220   0.30625
 Alpha virt. eigenvalues --    0.30820   0.31451   0.31975   0.32253   0.32462
 Alpha virt. eigenvalues --    0.33016   0.33265   0.33872   0.34054   0.34403
 Alpha virt. eigenvalues --    0.34754   0.35299   0.35445   0.35689   0.36151
 Alpha virt. eigenvalues --    0.36431   0.36833   0.37118   0.37317   0.37539
 Alpha virt. eigenvalues --    0.38123   0.38412   0.38915   0.38995   0.39216
 Alpha virt. eigenvalues --    0.39965   0.40437   0.41015   0.41506   0.41708
 Alpha virt. eigenvalues --    0.41936   0.42366   0.43056   0.43398   0.43995
 Alpha virt. eigenvalues --    0.44206   0.44758   0.45415   0.46450   0.46860
 Alpha virt. eigenvalues --    0.46866   0.48164   0.48553   0.49110   0.49626
 Alpha virt. eigenvalues --    0.50597   0.52455   0.53543   0.56530   0.58309
 Alpha virt. eigenvalues --    0.59006   0.60297   0.61451   0.61748   0.61956
 Alpha virt. eigenvalues --    0.63536   0.64382   0.64660   0.65392   0.65954
 Alpha virt. eigenvalues --    0.66269   0.66651   0.68796   0.69088   0.70170
 Alpha virt. eigenvalues --    0.70709   0.70916   0.71153   0.72506   0.73319
 Alpha virt. eigenvalues --    0.73502   0.74877   0.75224   0.76062   0.77379
 Alpha virt. eigenvalues --    0.77990   0.78513   0.79062   0.80384   0.81513
 Alpha virt. eigenvalues --    0.81745   0.82686   0.83611   0.84298   0.85072
 Alpha virt. eigenvalues --    0.86895   0.87178   0.88041   0.88329   0.89086
 Alpha virt. eigenvalues --    0.89705   0.90311   0.90501   0.90580   0.91252
 Alpha virt. eigenvalues --    0.91744   0.92939   0.93259   0.93270   0.93539
 Alpha virt. eigenvalues --    0.94402   0.94783   0.95343   0.95839   0.96162
 Alpha virt. eigenvalues --    0.96228   0.96850   0.97934   0.99202   0.99506
 Alpha virt. eigenvalues --    0.99826   1.00521   1.00538   1.01254   1.02038
 Alpha virt. eigenvalues --    1.02778   1.03275   1.04036   1.05139   1.05569
 Alpha virt. eigenvalues --    1.06004   1.06633   1.06996   1.07844   1.08363
 Alpha virt. eigenvalues --    1.08978   1.09229   1.09555   1.10285   1.10963
 Alpha virt. eigenvalues --    1.11714   1.11821   1.12362   1.14085   1.14112
 Alpha virt. eigenvalues --    1.14769   1.15053   1.15497   1.16078   1.16520
 Alpha virt. eigenvalues --    1.17205   1.17369   1.18503   1.18806   1.19242
 Alpha virt. eigenvalues --    1.19671   1.19779   1.20680   1.21227   1.21811
 Alpha virt. eigenvalues --    1.22440   1.23168   1.24069   1.24396   1.24950
 Alpha virt. eigenvalues --    1.25405   1.26038   1.26162   1.26737   1.27058
 Alpha virt. eigenvalues --    1.27570   1.28426   1.29443   1.30104   1.31236
 Alpha virt. eigenvalues --    1.31346   1.32039   1.33412   1.33602   1.33912
 Alpha virt. eigenvalues --    1.34551   1.34765   1.35413   1.35801   1.36760
 Alpha virt. eigenvalues --    1.37278   1.37875   1.38373   1.39057   1.40468
 Alpha virt. eigenvalues --    1.40711   1.41377   1.42384   1.42666   1.43676
 Alpha virt. eigenvalues --    1.45065   1.45467   1.46378   1.47045   1.47820
 Alpha virt. eigenvalues --    1.48043   1.49026   1.49481   1.49756   1.50347
 Alpha virt. eigenvalues --    1.51583   1.52212   1.52805   1.54728   1.56032
 Alpha virt. eigenvalues --    1.56527   1.56880   1.57904   1.58889   1.59236
 Alpha virt. eigenvalues --    1.59669   1.61145   1.62125   1.62785   1.63789
 Alpha virt. eigenvalues --    1.64345   1.65483   1.65781   1.66971   1.67381
 Alpha virt. eigenvalues --    1.68206   1.68238   1.69394   1.70363   1.70877
 Alpha virt. eigenvalues --    1.72017   1.73713   1.75294   1.76220   1.77607
 Alpha virt. eigenvalues --    1.78138   1.78684   1.80001   1.80216   1.82643
 Alpha virt. eigenvalues --    1.83601   1.84941   1.85404   1.86157   1.86814
 Alpha virt. eigenvalues --    1.87866   1.88245   1.89563   1.89743   1.90801
 Alpha virt. eigenvalues --    1.91785   1.92570   1.93491   1.93785   1.95557
 Alpha virt. eigenvalues --    1.96054   1.96525   1.97675   1.99104   1.99920
 Alpha virt. eigenvalues --    2.00641   2.01789   2.02882   2.04253   2.05464
 Alpha virt. eigenvalues --    2.05837   2.08839   2.10861   2.12228   2.13738
 Alpha virt. eigenvalues --    2.16066   2.16223   2.17362   2.17916   2.18890
 Alpha virt. eigenvalues --    2.22024   2.22955   2.23295   2.24694   2.25194
 Alpha virt. eigenvalues --    2.27517   2.28116   2.28700   2.30710   2.31724
 Alpha virt. eigenvalues --    2.34415   2.36253   2.37273   2.38430   2.38810
 Alpha virt. eigenvalues --    2.46042   2.47381   2.48363   2.49197   2.50172
 Alpha virt. eigenvalues --    2.51635   2.53518   2.54252   2.54876   2.55893
 Alpha virt. eigenvalues --    2.57101   2.57157   2.58225   2.59057   2.59469
 Alpha virt. eigenvalues --    2.60892   2.62783   2.64968   2.65644   2.66081
 Alpha virt. eigenvalues --    2.66690   2.67928   2.68086   2.70207   2.71203
 Alpha virt. eigenvalues --    2.72795   2.73453   2.75114   2.75804   2.78985
 Alpha virt. eigenvalues --    2.79713   2.80850   2.82137   2.82426   2.84939
 Alpha virt. eigenvalues --    2.85323   2.86253   2.87670   2.88092   2.89198
 Alpha virt. eigenvalues --    2.89706   2.90512   2.91494   2.92324   2.93610
 Alpha virt. eigenvalues --    2.94593   2.94875   2.96599   2.97640   2.98739
 Alpha virt. eigenvalues --    2.99437   3.01166   3.02288   3.02367   3.02810
 Alpha virt. eigenvalues --    3.03212   3.03550   3.05378   3.06021   3.07079
 Alpha virt. eigenvalues --    3.07788   3.09436   3.09913   3.10989   3.11466
 Alpha virt. eigenvalues --    3.12194   3.13555   3.15606   3.16997   3.17283
 Alpha virt. eigenvalues --    3.19527   3.20463   3.21136   3.22058   3.23491
 Alpha virt. eigenvalues --    3.24202   3.24566   3.27900   3.28966   3.30003
 Alpha virt. eigenvalues --    3.30914   3.31468   3.32194   3.33901   3.34479
 Alpha virt. eigenvalues --    3.36019   3.36534   3.38145   3.38852   3.39745
 Alpha virt. eigenvalues --    3.40143   3.41553   3.42508   3.42670   3.45125
 Alpha virt. eigenvalues --    3.46687   3.48495   3.49570   3.51210   3.51799
 Alpha virt. eigenvalues --    3.53397   3.56472   3.57887   3.59111   3.60043
 Alpha virt. eigenvalues --    3.62411   3.62875   3.64151   3.65819   3.67086
 Alpha virt. eigenvalues --    3.67919   3.69908   3.71285   3.71701   3.73778
 Alpha virt. eigenvalues --    3.74023   3.75869   3.76839   3.77367   3.77691
 Alpha virt. eigenvalues --    3.78686   3.79447   3.80036   3.82731   3.83308
 Alpha virt. eigenvalues --    3.86083   3.88029   3.90227   3.91367   3.92432
 Alpha virt. eigenvalues --    3.94171   3.97687   3.99850   4.03266   4.05953
 Alpha virt. eigenvalues --    4.07909   4.10626   4.12010   4.14851   4.15854
 Alpha virt. eigenvalues --    4.16021   4.17108   4.18056   4.18497   4.20728
 Alpha virt. eigenvalues --    4.20922   4.23092   4.23659   4.23806   4.25762
 Alpha virt. eigenvalues --    4.27211   4.27438   4.27862   4.31067   4.31953
 Alpha virt. eigenvalues --    4.32666   4.33707   4.34181   4.34781   4.35942
 Alpha virt. eigenvalues --    4.36774   4.37515   4.38569   4.39651   4.39951
 Alpha virt. eigenvalues --    4.40522   4.41101   4.41763   4.42563   4.43663
 Alpha virt. eigenvalues --    4.44400   4.45172   4.46398   4.46996   4.48181
 Alpha virt. eigenvalues --    4.48725   4.49333   4.50298   4.51088   4.51967
 Alpha virt. eigenvalues --    4.52398   4.53400   4.53527   4.54113   4.54584
 Alpha virt. eigenvalues --    4.55852   4.56040   4.56178   4.57149   4.57766
 Alpha virt. eigenvalues --    4.59101   4.59551   4.60763   4.60962   4.61744
 Alpha virt. eigenvalues --    4.62673   4.62942   4.63358   4.63761   4.64997
 Alpha virt. eigenvalues --    4.65319   4.66432   4.67359   4.68222   4.68668
 Alpha virt. eigenvalues --    4.69660   4.70061   4.70807   4.71606   4.71828
 Alpha virt. eigenvalues --    4.72679   4.74202   4.74393   4.74884   4.75678
 Alpha virt. eigenvalues --    4.76419   4.76561   4.77143   4.77383   4.78451
 Alpha virt. eigenvalues --    4.79486   4.80209   4.81023   4.81448   4.82921
 Alpha virt. eigenvalues --    4.83391   4.83780   4.84612   4.86202   4.87242
 Alpha virt. eigenvalues --    4.88050   4.89526   4.90119   4.90212   4.92128
 Alpha virt. eigenvalues --    4.92713   4.94009   4.94965   4.96064   4.96723
 Alpha virt. eigenvalues --    4.97330   5.00324   5.01655   5.02563   5.03099
 Alpha virt. eigenvalues --    5.04693   5.08023   5.08914   5.09738   5.11231
 Alpha virt. eigenvalues --    5.13594   5.14763   5.16267   5.17279   5.17656
 Alpha virt. eigenvalues --    5.19127   5.19792   5.21511   5.22285   5.22768
 Alpha virt. eigenvalues --    5.23590   5.26437   5.26529   5.28796   5.29586
 Alpha virt. eigenvalues --    5.31368   5.32121   5.32470   5.33653   5.35018
 Alpha virt. eigenvalues --    5.35533   5.37263   5.37791   5.38734   5.40590
 Alpha virt. eigenvalues --    5.41127   5.42674   5.42803   5.43127   5.43748
 Alpha virt. eigenvalues --    5.44399   5.44834   5.45534   5.47968   5.48512
 Alpha virt. eigenvalues --    5.49103   5.50114   5.50571   5.51330   5.52194
 Alpha virt. eigenvalues --    5.53651   5.54926   5.56366   5.57297   5.58605
 Alpha virt. eigenvalues --    5.59786   5.60015   5.61238   5.63068   5.64045
 Alpha virt. eigenvalues --    5.65208   5.67836   5.70414   5.72603   5.75437
 Alpha virt. eigenvalues --    5.76429   5.78194   5.80650   5.83197   5.85558
 Alpha virt. eigenvalues --    5.86902   5.87112   5.88647   5.89312   5.91021
 Alpha virt. eigenvalues --    5.91910   5.92458   5.93689   5.94765   5.95271
 Alpha virt. eigenvalues --    5.96145   5.97336   5.98040   5.99722   6.00968
 Alpha virt. eigenvalues --    6.02421   6.03316   6.03735   6.07402   6.07798
 Alpha virt. eigenvalues --    6.08392   6.09889   6.10772   6.12364   6.13828
 Alpha virt. eigenvalues --    6.14637   6.18573   6.19063   6.21104   6.22446
 Alpha virt. eigenvalues --    6.24771   6.29015   6.31473   6.34098   6.39433
 Alpha virt. eigenvalues --    6.54189   6.73083   6.92149   7.03180   7.12294
 Alpha virt. eigenvalues --    7.14304   7.15733   7.24277   7.27360   7.30008
 Alpha virt. eigenvalues --    7.33485   7.41300   7.43888   7.52613   7.64424
 Alpha virt. eigenvalues --    7.91748   7.98692  12.06111  12.12539  12.24966
 Alpha virt. eigenvalues --   12.25737  12.47366  12.59858  12.87388  12.88545
 Alpha virt. eigenvalues --   12.97313  13.06113  13.26264  13.31401  13.36830
 Alpha virt. eigenvalues --   13.44471  13.47068  13.51520  13.65144  13.66442
 Alpha virt. eigenvalues --   13.71885  13.81911  13.95320  14.15538  14.27760
          Condensed to atoms (all electrons):
              1          2          3          4          5          6
     1  O    8.093600   0.336979  -0.036192  -0.012601   0.016780  -0.027234
     2  C    0.336979   6.843835  -0.296019   0.021707  -0.057794  -0.863511
     3  C   -0.036192  -0.296019   7.053093   0.015118   0.037643   0.424530
     4  O   -0.012601   0.021707   0.015118   8.137121   0.240909   0.035510
     5  H    0.016780  -0.057794   0.037643   0.240909   0.420031  -0.012630
     6  C   -0.027234  -0.863511   0.424530   0.035510  -0.012630   9.966416
     7  O    0.000023   0.016871  -0.090670   0.011395  -0.000651   0.175390
     8  H    0.000008  -0.001681  -0.036916   0.001112  -0.000030   0.062283
     9  C   -0.030108   0.237683  -0.341777   0.013808  -0.005815   0.063334
    10  O   -0.001871   0.029581   0.004033   0.000015   0.000000  -0.009504
    11  H    0.000170  -0.003399   0.000510   0.000000   0.000000   0.000717
    12  C   -0.153879  -1.187375  -0.112343   0.028705   0.012679   0.420040
    13  O    0.004376  -0.050565  -0.016571  -0.002736  -0.000105   0.122225
    14  C    0.008649   0.689604  -0.729498  -0.007288   0.009428  -3.096760
    15  O   -0.000255  -0.004686  -0.006762   0.001076   0.000003  -0.176529
    16  C    0.002327   0.154451  -0.026508  -0.003709   0.000702  -0.561563
    17  C   -0.001076  -0.061065  -0.007635   0.000739   0.000022  -0.035264
    18  O    0.000035  -0.003423  -0.006385   0.000020   0.000000   0.029708
    19  H   -0.000065   0.006599   0.002801   0.000008   0.000000  -0.017429
    20  C    0.000083   0.000218  -0.004807  -0.000049   0.000003   0.002808
    21  O    0.000000   0.000156   0.000018   0.000000   0.000000   0.000290
    22  H    0.000000  -0.000002   0.000007   0.000000   0.000000   0.000169
    23  C    0.000049   0.012313  -0.025837   0.000278  -0.000017  -0.088281
    24  O    0.000000   0.000019  -0.000178  -0.000001   0.000000   0.004765
    25  H    0.000000  -0.000009  -0.000044   0.000000   0.000000   0.000700
    26  C    0.000043  -0.039480   0.008259   0.000136   0.000017  -0.160409
    27  O    0.000000   0.000092  -0.000097   0.000001   0.000000  -0.001533
    28  C   -0.000007   0.001194   0.002495  -0.000001   0.000000   0.001337
    29  O    0.000000   0.000003  -0.000019   0.000000   0.000000   0.000002
    30  H    0.000000   0.000000   0.000000   0.000000   0.000000   0.000008
    31  H    0.000000   0.000010  -0.000009   0.000000   0.000000  -0.000159
    32  H    0.000000   0.000205  -0.000094   0.000000   0.000000  -0.000475
    33  H    0.000000   0.000078   0.000272   0.000000   0.000000   0.011915
    34  H    0.000001  -0.003887   0.005343   0.000001   0.000000   0.023297
    35  H    0.000000  -0.000038  -0.000114   0.000000   0.000000  -0.003306
    36  H    0.000000  -0.000082   0.003770   0.000002   0.000000  -0.006310
    37  H    0.000000   0.000152  -0.000473  -0.000001   0.000000  -0.008180
    38  H    0.269724   0.034125  -0.020848  -0.000377  -0.001313   0.002603
    39  H   -0.001485   0.034585  -0.009865   0.000074  -0.000001   0.001795
    40  H    0.000456   0.009337  -0.003701  -0.000106   0.000001  -0.002392
    41  H    0.002645   0.058107  -0.061197   0.001492  -0.000013  -0.046213
    42  H   -0.012618   0.342726  -0.074211   0.005295  -0.000699  -0.009946
    43  H    0.000247   0.009072   0.254246  -0.010604  -0.004687  -0.111460
    44  H   -0.000079  -0.002133  -0.087848   0.001027  -0.000153   0.348254
    45  H    0.000094  -0.031657  -0.021326   0.000189   0.000008   0.003862
              7          8          9         10         11         12
     1  O    0.000023   0.000008  -0.030108  -0.001871   0.000170  -0.153879
     2  C    0.016871  -0.001681   0.237683   0.029581  -0.003399  -1.187375
     3  C   -0.090670  -0.036916  -0.341777   0.004033   0.000510  -0.112343
     4  O    0.011395   0.001112   0.013808   0.000015   0.000000   0.028705
     5  H   -0.000651  -0.000030  -0.005815   0.000000   0.000000   0.012679
     6  C    0.175390   0.062283   0.063334  -0.009504   0.000717   0.420040
     7  O    8.063472   0.255043  -0.001941   0.000002   0.000000  -0.014663
     8  H    0.255043   0.407468   0.000470   0.000000   0.000000   0.003684
     9  C   -0.001941   0.000470   6.659744   0.137303  -0.037413  -1.109625
    10  O    0.000002   0.000000   0.137303   8.117149   0.247850  -0.001756
    11  H    0.000000   0.000000  -0.037413   0.247850   0.416247   0.028029
    12  C   -0.014663   0.003684  -1.109625  -0.001756   0.028029   8.827843
    13  O    0.005691  -0.000520  -0.021094   0.010580  -0.000054   0.108232
    14  C    0.040423  -0.030121  -0.186273   0.004818   0.000215  -0.819281
    15  O   -0.022827  -0.000205  -0.010978  -0.000966  -0.000017   0.002550
    16  C    0.023664  -0.003328  -0.074996   0.008881   0.000271  -0.039835
    17  C   -0.005735   0.000560   0.014621  -0.000580  -0.000984  -0.131310
    18  O    0.000386  -0.000006  -0.001431  -0.016567   0.000887   0.022546
    19  H   -0.000123   0.000001  -0.010574   0.006088  -0.000147  -0.004509
    20  C    0.001061  -0.000166  -0.000149  -0.000662  -0.000415  -0.011354
    21  O    0.000000   0.000000  -0.000603   0.000022  -0.000001   0.001522
    22  H    0.000000   0.000000   0.000020   0.000001   0.000000  -0.000179
    23  C   -0.024860  -0.001255   0.001148   0.000018   0.000000  -0.008223
    24  O    0.000713   0.000012   0.000001   0.000000   0.000000  -0.000179
    25  H   -0.000012   0.000000   0.000000   0.000000   0.000000   0.000018
    26  C    0.009082   0.001140   0.014122  -0.000546  -0.000052   0.031784
    27  O   -0.000158   0.000004  -0.000031   0.000008   0.000000   0.000094
    28  C    0.000185   0.000016  -0.003060   0.000528   0.000010   0.007477
    29  O   -0.000004   0.000000   0.000005   0.000001   0.000000   0.000096
    30  H    0.000000   0.000000   0.000000   0.000000   0.000000  -0.000002
    31  H    0.000000   0.000000  -0.000005   0.000000   0.000000   0.000108
    32  H    0.000003   0.000000  -0.000232  -0.000010   0.000000   0.001132
    33  H    0.000008   0.000000   0.000199   0.000056   0.000000  -0.001278
    34  H   -0.000742   0.000006  -0.000329   0.000005   0.000000   0.000673
    35  H   -0.000067   0.000000   0.000109   0.000000   0.000000   0.000997
    36  H   -0.000921   0.000095  -0.000069   0.000000   0.000000  -0.000235
    37  H   -0.000123  -0.000019   0.000023   0.000000   0.000000   0.000515
    38  H    0.000002   0.000000   0.014610   0.000002  -0.000001  -0.033320
    39  H    0.000003   0.000000   0.581931  -0.040424  -0.004129  -0.271162
    40  H   -0.000004   0.000000   0.435575  -0.039843  -0.003102  -0.078756
    41  H    0.000238   0.000002   0.121075  -0.001849  -0.000081   0.080467
    42  H    0.000766   0.000002  -0.016766  -0.000071   0.000002  -0.043211
    43  H    0.007630  -0.000095   0.008883   0.000032   0.000000   0.031582
    44  H   -0.015952  -0.009974   0.008620  -0.000010   0.000000   0.044701
    45  H   -0.001286  -0.000138   0.018310  -0.000138  -0.000001   0.061983
             13         14         15         16         17         18
     1  O    0.004376   0.008649  -0.000255   0.002327  -0.001076   0.000035
     2  C   -0.050565   0.689604  -0.004686   0.154451  -0.061065  -0.003423
     3  C   -0.016571  -0.729498  -0.006762  -0.026508  -0.007635  -0.006385
     4  O   -0.002736  -0.007288   0.001076  -0.003709   0.000739   0.000020
     5  H   -0.000105   0.009428   0.000003   0.000702   0.000022   0.000000
     6  C    0.122225  -3.096760  -0.176529  -0.561563  -0.035264   0.029708
     7  O    0.005691   0.040423  -0.022827   0.023664  -0.005735   0.000386
     8  H   -0.000520  -0.030121  -0.000205  -0.003328   0.000560  -0.000006
     9  C   -0.021094  -0.186273  -0.010978  -0.074996   0.014621  -0.001431
    10  O    0.010580   0.004818  -0.000966   0.008881  -0.000580  -0.016567
    11  H   -0.000054   0.000215  -0.000017   0.000271  -0.000984   0.000887
    12  C    0.108232  -0.819281   0.002550  -0.039835  -0.131310   0.022546
    13  O    7.922900   0.162670  -0.003861  -0.041856   0.023677  -0.026520
    14  C    0.162670  10.544729   0.391685  -0.989056   0.003377   0.057729
    15  O   -0.003861   0.391685   7.844962   0.202522  -0.055531  -0.015750
    16  C   -0.041856  -0.989056   0.202522  13.089501  -1.962695  -0.100130
    17  C    0.023677   0.003377  -0.055531  -1.962695   7.923848   0.228448
    18  O   -0.026520   0.057729  -0.015750  -0.100130   0.228448   8.118235
    19  H    0.023401  -0.010925   0.003283  -0.020689   0.019168   0.242472
    20  C   -0.003748  -0.330451  -0.020573  -1.466811   0.306824  -0.080714
    21  O    0.000352   0.001277   0.000339   0.020283  -0.170484   0.010887
    22  H   -0.000023   0.003273   0.000009  -0.012936  -0.031956   0.002848
    23  C   -0.002243   0.172551  -0.105117   0.170246  -0.234623   0.008074
    24  O    0.000006  -0.006363  -0.002796   0.047391   0.001885   0.000056
    25  H    0.000002  -0.000437   0.000225  -0.001738   0.000889   0.000000
    26  C   -0.019109  -0.701245   0.054395  -4.030970   0.543474   0.004394
    27  O    0.000075  -0.007051   0.001277   0.009373  -0.034682  -0.000606
    28  C    0.001890   0.086782   0.015614   1.016002  -0.402909   0.006253
    29  O    0.000011   0.002308  -0.000108  -0.006024  -0.020903   0.001476
    30  H    0.000000   0.000045   0.000003   0.002010   0.001611  -0.000024
    31  H    0.000014   0.000527   0.000166   0.054429  -0.019855   0.000664
    32  H    0.000164  -0.021420   0.000429   0.102481  -0.184237   0.003242
    33  H   -0.000683   0.006676  -0.004752  -0.093210   0.301055  -0.020470
    34  H   -0.001427   0.000838  -0.040372   0.126545   0.030993  -0.002346
    35  H   -0.000201   0.070358  -0.001780   0.130703  -0.057545   0.000279
    36  H    0.000022   0.002044  -0.005615  -0.045480  -0.009223  -0.000050
    37  H    0.000018   0.045120  -0.001566   0.086838  -0.011122   0.000070
    38  H   -0.000738  -0.003600   0.000003   0.000065  -0.000070   0.000000
    39  H    0.000355   0.006103   0.000217  -0.001613   0.002160   0.000662
    40  H   -0.000558   0.003181  -0.000089   0.000502   0.000063  -0.000635
    41  H   -0.031607   0.098062  -0.001217   0.010286   0.006491   0.000213
    42  H    0.004792   0.073789  -0.000680  -0.004135   0.001884  -0.000004
    43  H    0.003866   0.071699  -0.000117  -0.009455   0.002731   0.000062
    44  H    0.007259   0.007005  -0.008342  -0.026358   0.002070   0.000059
    45  H   -0.026905   0.228867  -0.033657   0.030063  -0.008904  -0.001415
             19         20         21         22         23         24
     1  O   -0.000065   0.000083   0.000000   0.000000   0.000049   0.000000
     2  C    0.006599   0.000218   0.000156  -0.000002   0.012313   0.000019
     3  C    0.002801  -0.004807   0.000018   0.000007  -0.025837  -0.000178
     4  O    0.000008  -0.000049   0.000000   0.000000   0.000278  -0.000001
     5  H    0.000000   0.000003   0.000000   0.000000  -0.000017   0.000000
     6  C   -0.017429   0.002808   0.000290   0.000169  -0.088281   0.004765
     7  O   -0.000123   0.001061   0.000000   0.000000  -0.024860   0.000713
     8  H    0.000001  -0.000166   0.000000   0.000000  -0.001255   0.000012
     9  C   -0.010574  -0.000149  -0.000603   0.000020   0.001148   0.000001
    10  O    0.006088  -0.000662   0.000022   0.000001   0.000018   0.000000
    11  H   -0.000147  -0.000415  -0.000001   0.000000   0.000000   0.000000
    12  C   -0.004509  -0.011354   0.001522  -0.000179  -0.008223  -0.000179
    13  O    0.023401  -0.003748   0.000352  -0.000023  -0.002243   0.000006
    14  C   -0.010925  -0.330451   0.001277   0.003273   0.172551  -0.006363
    15  O    0.003283  -0.020573   0.000339   0.000009  -0.105117  -0.002796
    16  C   -0.020689  -1.466811   0.020283  -0.012936   0.170246   0.047391
    17  C    0.019168   0.306824  -0.170484  -0.031956  -0.234623   0.001885
    18  O    0.242472  -0.080714   0.010887   0.002848   0.008074   0.000056
    19  H    0.336607   0.003079   0.000066  -0.000056  -0.002651   0.000000
    20  C    0.003079   6.845196   0.393037   0.025987   0.103317  -0.007119
    21  O    0.000066   0.393037   8.090383   0.251549  -0.001581  -0.000015
    22  H   -0.000056   0.025987   0.251549   0.414933   0.000344   0.000001
    23  C   -0.002651   0.103317  -0.001581   0.000344   6.225161   0.123784
    24  O    0.000000  -0.007119  -0.000015   0.000001   0.123784   8.118719
    25  H    0.000000   0.000668   0.000000   0.000000  -0.028756   0.238864
    26  C   -0.002882   0.961962   0.002565   0.001068  -0.931032  -0.005945
    27  O    0.000073  -0.081417  -0.002519  -0.000022  -0.115233  -0.007231
    28  C    0.003082  -0.583501  -0.108515   0.006460  -0.064604   0.010693
    29  O   -0.000004  -0.024447  -0.053478   0.000488   0.007500  -0.000796
    30  H    0.000000   0.006803  -0.002366   0.000079   0.001287   0.000045
    31  H    0.000004  -0.104240   0.004901  -0.000343  -0.000712  -0.000168
    32  H   -0.000136   0.335506  -0.016657  -0.008191   0.005323  -0.000084
    33  H   -0.004628   0.016180   0.000975  -0.000028   0.011279   0.000070
    34  H    0.000070   0.041254  -0.000119   0.000015   0.027012   0.000722
    35  H    0.000031  -0.030693   0.000050   0.000000   0.092592   0.001691
    36  H    0.000001   0.001153  -0.000001   0.000000   0.441629  -0.037964
    37  H    0.000001  -0.004929   0.000006   0.000000   0.547434  -0.034762
    38  H    0.000000   0.000000   0.000000   0.000000   0.000000   0.000000
    39  H   -0.000237   0.000235   0.000000   0.000000  -0.000001   0.000000
    40  H    0.000170  -0.000010   0.000000   0.000000   0.000004   0.000000
    41  H   -0.000378   0.000887   0.000000   0.000000   0.000117   0.000000
    42  H   -0.000020   0.000047   0.000000   0.000000   0.000133   0.000000
    43  H    0.000002   0.000002   0.000000   0.000000   0.000226   0.000000
    44  H   -0.000008   0.000343   0.000000   0.000000   0.000975   0.000001
    45  H    0.000266   0.013800   0.000025   0.000000  -0.001336   0.000020
             25         26         27         28         29         30
     1  O    0.000000   0.000043   0.000000  -0.000007   0.000000   0.000000
     2  C   -0.000009  -0.039480   0.000092   0.001194   0.000003   0.000000
     3  C   -0.000044   0.008259  -0.000097   0.002495  -0.000019   0.000000
     4  O    0.000000   0.000136   0.000001  -0.000001   0.000000   0.000000
     5  H    0.000000   0.000017   0.000000   0.000000   0.000000   0.000000
     6  C    0.000700  -0.160409  -0.001533   0.001337   0.000002   0.000008
     7  O   -0.000012   0.009082  -0.000158   0.000185  -0.000004   0.000000
     8  H    0.000000   0.001140   0.000004   0.000016   0.000000   0.000000
     9  C    0.000000   0.014122  -0.000031  -0.003060   0.000005   0.000000
    10  O    0.000000  -0.000546   0.000008   0.000528   0.000001   0.000000
    11  H    0.000000  -0.000052   0.000000   0.000010   0.000000   0.000000
    12  C    0.000018   0.031784   0.000094   0.007477   0.000096  -0.000002
    13  O    0.000002  -0.019109   0.000075   0.001890   0.000011   0.000000
    14  C   -0.000437  -0.701245  -0.007051   0.086782   0.002308   0.000045
    15  O    0.000225   0.054395   0.001277   0.015614  -0.000108   0.000003
    16  C   -0.001738  -4.030970   0.009373   1.016002  -0.006024   0.002010
    17  C    0.000889   0.543474  -0.034682  -0.402909  -0.020903   0.001611
    18  O    0.000000   0.004394  -0.000606   0.006253   0.001476  -0.000024
    19  H    0.000000  -0.002882   0.000073   0.003082  -0.000004   0.000000
    20  C    0.000668   0.961962  -0.081417  -0.583501  -0.024447   0.006803
    21  O    0.000000   0.002565  -0.002519  -0.108515  -0.053478  -0.002366
    22  H    0.000000   0.001068  -0.000022   0.006460   0.000488   0.000079
    23  C   -0.028756  -0.931032  -0.115233  -0.064604   0.007500   0.001287
    24  O    0.238864  -0.005945  -0.007231   0.010693  -0.000796   0.000045
    25  H    0.439469   0.019434   0.000848  -0.000612   0.000011   0.000000
    26  C    0.019434  11.342311   0.277219  -0.949595  -0.010951  -0.008367
    27  O    0.000848   0.277219   7.934615   0.212456  -0.058649  -0.000709
    28  C   -0.000612  -0.949595   0.212456   5.882150   0.340840  -0.015550
    29  O    0.000011  -0.010951  -0.058649   0.340840   7.994592   0.270905
    30  H    0.000000  -0.008367  -0.000709  -0.015550   0.270905   0.418540
    31  H    0.000000  -0.000040  -0.048739   0.409129  -0.021017  -0.008660
    32  H    0.000000   0.031462  -0.001239   0.007865   0.001362   0.000009
    33  H    0.000000   0.041537   0.002713  -0.014534  -0.000177   0.000010
    34  H    0.000001   0.025354   0.003620   0.001263  -0.000898   0.000004
    35  H   -0.000153   0.014239  -0.037727   0.053386  -0.001544   0.000022
    36  H   -0.003749  -0.014629   0.000781   0.002620  -0.000009   0.000000
    37  H   -0.003853  -0.314284   0.004599   0.004703   0.000058   0.000001
    38  H    0.000000  -0.000005   0.000000   0.000000   0.000000   0.000000
    39  H    0.000000   0.000304   0.000000  -0.000015   0.000000   0.000000
    40  H    0.000000  -0.000011   0.000000  -0.000001   0.000000   0.000000
    41  H    0.000000   0.001898   0.000001  -0.000101   0.000000   0.000000
    42  H    0.000000  -0.000026   0.000000  -0.000010   0.000000   0.000000
    43  H    0.000000  -0.000979   0.000000   0.000000   0.000000   0.000000
    44  H    0.000000  -0.002119   0.000003   0.000001   0.000000   0.000000
    45  H    0.000000   0.030274   0.000287  -0.000090  -0.000004   0.000000
             31         32         33         34         35         36
     1  O    0.000000   0.000000   0.000000   0.000001   0.000000   0.000000
     2  C    0.000010   0.000205   0.000078  -0.003887  -0.000038  -0.000082
     3  C   -0.000009  -0.000094   0.000272   0.005343  -0.000114   0.003770
     4  O    0.000000   0.000000   0.000000   0.000001   0.000000   0.000002
     5  H    0.000000   0.000000   0.000000   0.000000   0.000000   0.000000
     6  C   -0.000159  -0.000475   0.011915   0.023297  -0.003306  -0.006310
     7  O    0.000000   0.000003   0.000008  -0.000742  -0.000067  -0.000921
     8  H    0.000000   0.000000   0.000000   0.000006   0.000000   0.000095
     9  C   -0.000005  -0.000232   0.000199  -0.000329   0.000109  -0.000069
    10  O    0.000000  -0.000010   0.000056   0.000005   0.000000   0.000000
    11  H    0.000000   0.000000   0.000000   0.000000   0.000000   0.000000
    12  C    0.000108   0.001132  -0.001278   0.000673   0.000997  -0.000235
    13  O    0.000014   0.000164  -0.000683  -0.001427  -0.000201   0.000022
    14  C    0.000527  -0.021420   0.006676   0.000838   0.070358   0.002044
    15  O    0.000166   0.000429  -0.004752  -0.040372  -0.001780  -0.005615
    16  C    0.054429   0.102481  -0.093210   0.126545   0.130703  -0.045480
    17  C   -0.019855  -0.184237   0.301055   0.030993  -0.057545  -0.009223
    18  O    0.000664   0.003242  -0.020470  -0.002346   0.000279  -0.000050
    19  H    0.000004  -0.000136  -0.004628   0.000070   0.000031   0.000001
    20  C   -0.104240   0.335506   0.016180   0.041254  -0.030693   0.001153
    21  O    0.004901  -0.016657   0.000975  -0.000119   0.000050  -0.000001
    22  H   -0.000343  -0.008191  -0.000028   0.000015   0.000000   0.000000
    23  C   -0.000712   0.005323   0.011279   0.027012   0.092592   0.441629
    24  O   -0.000168  -0.000084   0.000070   0.000722   0.001691  -0.037964
    25  H    0.000000   0.000000   0.000000   0.000001  -0.000153  -0.003749
    26  C   -0.000040   0.031462   0.041537   0.025354   0.014239  -0.014629
    27  O   -0.048739  -0.001239   0.002713   0.003620  -0.037727   0.000781
    28  C    0.409129   0.007865  -0.014534   0.001263   0.053386   0.002620
    29  O   -0.021017   0.001362  -0.000177  -0.000898  -0.001544  -0.000009
    30  H   -0.008660   0.000009   0.000010   0.000004   0.000022   0.000000
    31  H    0.589792   0.004664   0.001181  -0.000080   0.002326   0.000004
    32  H    0.004664   0.590410   0.005712   0.000984  -0.000140   0.000000
    33  H    0.001181   0.005712   0.603471   0.005789   0.001474  -0.000004
    34  H   -0.000080   0.000984   0.005789   0.619990   0.006754   0.000150
    35  H    0.002326  -0.000140   0.001474   0.006754   0.636263  -0.003857
    36  H    0.000004   0.000000  -0.000004   0.000150  -0.003857   0.570048
    37  H   -0.000002  -0.000046  -0.000004   0.003740   0.006408  -0.050606
    38  H    0.000000   0.000000   0.000000   0.000000   0.000000   0.000000
    39  H    0.000000   0.000000  -0.000002   0.000000   0.000000   0.000000
    40  H    0.000000   0.000000   0.000000   0.000000   0.000000   0.000000
    41  H    0.000000   0.000000  -0.000003  -0.000005   0.000000   0.000000
    42  H    0.000000   0.000000   0.000000   0.000000   0.000000   0.000000
    43  H    0.000000   0.000000   0.000000  -0.000005   0.000000   0.000000
    44  H    0.000000   0.000000  -0.000002  -0.000012  -0.000002  -0.000015
    45  H    0.000000  -0.000021  -0.000027   0.009103  -0.000011   0.000061
             37         38         39         40         41         42
[...]
 31,-0.00000665,-0.00889699,-0.00076784,0.00220816,0.00192820,0.0006515
 1,0.00049991,-0.00019313,-0.00010100,0.00015677,0.00007637,0.00000358,
 0.00004804,-0.00001281,0.00000858,0.00001647,-0.00000991,0.00000402,-0
 .00002005,0.00003313,0.00001723,-0.00002796,-0.00003007,-0.00002730,0.
 00003818,-0.00000761,-0.00000356,0.00000381,0.00000778,0.00000271,-0.0
 0000326,-0.00000518,0.00000042,-0.00000032,-0.00001104,-0.00000157,0.0
 0000246,0.00001068,0.00000222,-0.00000302,-0.00000496,0.,0.00000281,-0
 .00001287,-0.00000358,0.00000585,0.00001009,0.00000712,-0.00000586,-0.
 00000853,-0.00000488,0.00000294,0.00000590,0.00000117,-0.00000504,-0.0
 0000107,-0.00000018,0.00000070,0.00000202,0.00000013,0.00000099,0.0000
 0284,-0.00000066,-0.00000284,0.00000886,-0.00000207,0.00000835,0.00000
 945,-0.00000178,-0.00000830,0.00000659,-0.00000192,0.00000363,-0.00000
 188,0.00000253,-0.00000108,0.00000495,-0.00000078,-0.00000242,0.001029
 54,0.00007065,-0.00051183,0.00032090,-0.00074777,-0.00003606,-0.000001
 65,0.00007849,0.00004796,0.00050570,-0.00084716,0.00064038,0.37447572,
 -0.00793876,0.00000902,-0.00353161,0.00487648,-0.04381378,0.00015891,0
 .03128123,-0.00238672,-0.00713701,-0.00125971,0.00355562,-0.00018981,0
 .00048620,-0.00020836,0.00017928,0.00080959,0.00095736,0.00081668,-0.0
 0052816,-0.00020846,-0.00004016,-0.00000666,-0.00005994,-0.00007867,-0
 .00145373,0.00205931,-0.00004599,0.00051991,0.00008049,-0.00011857,0.0
 0003991,-0.00007252,-0.00003724,-0.02710476,-0.00058337,0.00637973,0.0
 0150670,0.00114669,-0.00196749,0.00014277,-0.00038178,0.00001699,0.000
 02446,0.00011422,-0.00004349,-0.00003556,0.00000971,0.00001146,0.00000
 047,-0.00001104,-0.00001496,0.00008045,0.00004652,-0.00005748,-0.00011
 390,-0.00006283,0.00004970,-0.00000044,0.00000150,0.00000471,0.0000042
 4,0.00000124,-0.00000536,-0.00000410,0.00000076,0.00000067,0.00000751,
 0.00000564,0.00000644,-0.00000977,-0.00000557,-0.00000802,0.00000356,0
 .00000147,0.00000020,0.00000410,0.00000356,0.00000194,0.00000001,0.000
 00219,-0.00000734,-0.00000265,-0.00000430,0.00000459,0.00000255,0.0000
 0070,-0.00000439,-0.00000017,0.00000008,0.00000101,0.00000047,0.000000
 70,0.00000051,0.00000056,-0.00000139,-0.00000236,0.00000916,0.00000368
 ,0.00001019,0.00000036,-0.00000644,0.00000597,-0.00000030,0.00000159,-
 0.00000060,0.00000592,-0.00000004,0.00000051,-0.00000394,-0.00000055,0
 .00000241,-0.00095474,0.00139842,0.00014879,0.00074164,-0.00031192,-0.
 00014726,-0.00005719,-0.00006591,-0.00009769,-0.00128923,-0.00283930,0
 .00322318,-0.00014233,0.04672533,-0.04023330,-0.00574737,-0.01064674,0
 .05918865,-0.00179822,-0.05287082,0.01404957,0.00093777,-0.00172068,-0
 .00156997,0.00112862,0.00075191,-0.00022107,-0.00026272,-0.00007700,0.
 00103716,0.00037976,0.00045551,-0.00033063,-0.00002798,-0.00003420,0.0
 0000673,-0.00002452,0.00000168,-0.00001320,-0.00153989,0.00010196,-0.0
 0013707,0.00006085,0.00004521,-0.00005674,0.00002680,0.00000289,0.0233
 6265,0.00093476,-0.00406468,-0.00103003,-0.00046601,0.00257084,0.00037
 585,-0.00021021,-0.00027276,-0.00010190,0.00002768,-0.00012381,0.00000
 230,-0.00002910,-0.00001519,0.00003820,0.00002247,0.00004396,-0.000120
 38,-0.00005582,0.00000647,0.00014467,0.00007586,-0.00004547,-0.0000059
 9,-0.00001080,0.00000260,-0.00000322,0.00000987,-0.00000903,0.00000104
 ,-0.00000511,0.00000662,0.00001436,0.00001074,0.00000305,-0.00001607,-
 0.00001109,-0.00001007,0.00000458,0.00000093,-0.00000075,0.00002170,0.
 00000414,0.00000452,-0.00001110,-0.00000170,-0.00001008,0.00001075,0.0
 0000115,0.00001502,-0.00000020,0.00000067,-0.00001318,0.00000091,-0.00
 000118,0.00000155,-0.00000251,0.00000002,-0.00000275,-0.00000422,0.000
 00116,0.00000486,-0.00001918,0.00000031,-0.00001888,-0.00001238,0.0000
 0423,0.00001254,-0.00000804,0.00000124,-0.00000549,0.00000480,-0.00000
 162,-0.00000084,-0.00000605,0.00000106,0.00000288,-0.00255593,0.000869
 55,0.00366062,-0.00039852,0.00044153,0.00020864,-0.00003940,0.00021079
 ,0.00006964,0.00076507,0.00296684,-0.00305824,-0.05204196,0.00483549,0
 .06576535,0.00133375,0.00017648,0.00038811,-0.01013156,0.00040301,-0.0
 0010045,-0.35382717,0.02084322,0.02491962,-0.00563614,-0.00749271,0.00
 812819,0.00024481,-0.00071797,-0.00002735,-0.01560356,0.00199442,0.000
 96995,0.00227790,0.00028775,0.00082286,0.00013920,0.00014339,0.0002070
 5,0.00056603,0.00019183,-0.00021759,-0.00003119,0.00006766,0.00006337,
 0.00000704,0.00003537,-0.00001580,-0.00083651,-0.00081933,0.00024475,0
 .00048871,0.00029056,-0.00003789,-0.00138876,-0.00102367,0.00086773,0.
 00060616,0.00010986,-0.00017057,-0.00006548,0.00008869,-0.00009725,-0.
 00001866,-0.00002104,-0.00007379,0.00006130,-0.00001605,0.00007090,-0.
 00005128,0.00002823,-0.00001656,-0.00000485,0.00002196,-0.00000296,0.0
 0000565,-0.00001105,0.00001019,-0.00000083,0.00000646,-0.00000741,-0.0
 0003312,-0.00002078,-0.00000042,0.00003169,0.00002055,0.00001397,-0.00
 001040,-0.00000250,0.00000344,0.00000395,-0.00000004,-0.00001731,0.000
 01025,0.00000473,0.00000556,-0.00001222,-0.00000580,-0.00002013,0.0000
 0027,0.00000040,0.00001768,-0.00000090,0.00000060,-0.00000244,0.000002
 73,0.00000001,0.00000310,0.00000482,-0.00000162,-0.00000436,0.00001244
 ,-0.00000303,0.00000881,0.00002042,-0.00000244,-0.00003840,0.00000763,
 -0.00000120,0.00001040,-0.00000798,0.00000308,0.00000126,0.00001288,-0
 .00000050,-0.00000804,0.00019438,-0.00022078,-0.00014571,0.00005243,-0
 .00029927,-0.00003832,-0.00000386,-0.00000486,-0.00000039,0.00119126,0
 .00024468,-0.00041492,0.00043590,0.00091927,0.00035505,0.37931913,-0.0
 0200573,0.00196006,0.00100749,0.03165604,-0.00441365,-0.00250744,0.021
 92990,-0.04101384,-0.00429540,-0.03134521,-0.00765677,0.01307982,-0.00
 013676,0.00023390,-0.00113407,-0.00614458,0.00128575,-0.00174363,-0.00
 013777,0.00041090,0.00114069,-0.00013889,-0.00002300,0.00002158,-0.000
 07466,0.00008246,-0.00003310,-0.00015415,-0.00013729,0.00005498,0.0000
 0913,0.00000754,0.00001262,0.00229112,0.00165605,-0.00153888,-0.000392
 01,-0.00008712,0.00032476,0.00037962,-0.00042746,0.00009916,0.00003945
 ,0.00005837,-0.00020094,-0.00003001,0.00001030,-0.00000463,0.00000661,
 -0.00000783,-0.00002029,-0.00003234,0.00000305,0.00003200,0.00004490,0
 .00001372,-0.00004537,-0.00000287,0.00000410,0.00000652,0.00000003,0.0
 0000444,-0.00000341,0.00000123,-0.00000089,-0.00000047,-0.00001771,0.0
 0000271,-0.00000022,0.00001392,-0.00000278,0.00000653,-0.00000724,-0.0
 0000118,-0.00000201,0.00000209,0.00001480,0.00000690,-0.00000040,-0.00
 000665,-0.00000982,0.00000077,0.00000088,0.00000376,0.00000034,-0.0000
 0097,-0.00000071,-0.00000001,0.00000023,-0.00000015,0.,-0.00000048,-0.
 00000063,-0.00000024,0.00000084,0.00000165,-0.00000341,-0.00000040,-0.
 00000303,0.00000239,0.00000784,-0.00000476,0.00000045,-0.00000508,-0.0
 0000019,-0.00000885,0.00000398,-0.00000032,0.00001004,0.00000139,-0.00
 000738,-0.00008931,0.00025057,0.00036049,-0.00023655,0.00007884,0.0000
 9601,0.00000875,-0.00000760,-0.00002177,-0.00060355,-0.00047190,0.0005
 4853,0.00116702,-0.00477493,-0.00232044,-0.01542711,0.05282504,-0.0004
 9368,0.00139190,0.00140767,0.01479404,-0.00455675,-0.00012648,0.024225
 58,-0.00570344,-0.04560388,0.02551032,0.01051479,-0.00845841,0.0013424
 1,-0.00010136,0.00066702,-0.03182581,0.00115482,0.00183398,0.00196810,
 0.00145865,0.00265026,0.00002861,0.00012572,0.00008043,-0.00018950,-0.
 00006881,0.00012779,-0.00001995,-0.00011359,-0.00002885,-0.00000426,-0
 .00001893,0.00001647,-0.00002200,0.00091384,-0.00055771,0.00013671,0.0
 0025196,-0.00022828,-0.00093009,-0.00101252,0.00141530,0.00046717,0.00
 008403,-0.00032068,-0.00005371,0.00003258,0.00006542,0.00001369,-0.000
 01786,-0.00006153,0.00003295,0.00001464,0.00000486,-0.00003225,-0.0000
 1833,0.00002526,-0.00001581,0.00000565,0.00001929,0.00000915,0.0000170
 6,-0.00001394,-0.00000302,-0.00000079,-0.00000023,-0.00002762,0.000006
 03,0.00003572,0.00001318,-0.00001347,-0.00001658,-0.00000785,0.0000026
 7,0.00000149,0.00000930,0.00000931,0.00003094,0.00000617,0.00001246,-0
 .00003820,-0.00000401,-0.00002080,0.00001701,0.00000830,0.00000387,-0.
 00001300,-0.00000050,-0.00000036,0.00000178,0.00000065,0.00000161,-0.0
 0000023,0.00000097,0.00000025,-0.00000310,0.00000307,-0.00000366,0.000
 00477,0.00002740,0.00001006,-0.00004374,0.00000626,-0.00000696,0.00000
 855,-0.00001008,0.00002178,0.00000615,0.00001670,0.00000144,-0.0000158
 8,-0.00005479,0.00036373,0.00011947,-0.00005101,0.00010314,0.00002800,
 -0.00000332,0.00000059,-0.00001202,-0.00051860,0.00033452,0.00042827,0
 .00081142,-0.00192684,-0.00070789,-0.03347282,-0.00243049,0.05252154,0
 .00043280,-0.00004241,-0.00021715,-0.00087531,0.00085982,0.00031847,-0
 .01534274,-0.00486149,0.00155239,0.00187806,0.00018127,0.00171978,0.00
 051502,0.00001920,0.00029649,-0.34613833,-0.05104739,0.03898519,-0.011
 13935,0.00567567,0.00542476,0.00106627,0.00025453,0.00057357,-0.000015
 02,-0.00000521,0.00002053,0.00002842,0.00002394,-0.00001549,-0.0000088
 7,-0.00000362,-0.00000284,-0.00007827,-0.00000897,0.00008034,0.0006994
 0,-0.00092028,-0.00034388,-0.00376515,-0.00079605,0.00066578,0.0009019
 6,0.00005334,-0.00004879,0.00020104,0.00002370,0.00010803,0.00003322,0
 .00001322,-0.00004692,0.00002914,0.00000377,-0.00002953,-0.00001413,-0
 .00001891,0.00000367,-0.00001496,0.00002020,0.00002114,0.00000860,0.00
 000432,-0.00001739,-0.00000599,-0.00000012,0.00000173,-0.00006274,-0.0
 0000246,0.00002692,0.00003885,-0.00001477,0.00000019,-0.00001752,-0.00
 000148,-0.00000629,-0.00000122,0.00001234,0.00005322,0.00000368,-0.000
 01522,-0.00001228,-0.00000228,0.00001201,0.00001141,0.00000493,-0.0000
 0569,-0.00000769,-0.00000087,0.00000153,0.00000067,0.00000227,-0.00000
 173,0.00000037,0.00000276,-0.00000054,-0.00000081,0.00000151,-0.000008
 22,0.00001036,0.00000772,0.00007014,-0.00020287,0.00000376,-0.00001573
 ,0.00000679,-0.00003056,0.00003182,0.00000161,0.00004215,0.00000496,-0
 .00003691,-0.00004000,-0.00013346,-0.00008863,0.00002443,-0.00003017,-
 0.00001038,0.00000370,0.00000226,-0.00000174,0.00008012,0.00011686,-0.
 00004240,0.00060613,-0.00046428,-0.00030694,-0.00015422,-0.00067216,-0
 .00202500,0.37044574,0.00018159,0.00007175,0.00002791,-0.00068265,0.00
 017756,0.00038530,-0.00577716,0.00057578,0.00288638,0.00113153,0.00033
 535,0.00015984,0.00002288,-0.00002947,-0.00001740,-0.05713587,-0.05301
 699,0.00829075,0.03470125,-0.00767550,-0.01313643,0.00200587,0.0028735
 0,-0.00024953,-0.00005862,0.00004993,0.00002575,0.00002682,-0.00003605
 ,-0.00001424,-0.00001002,-0.00000142,-0.00000388,-0.00007237,-0.000163
 28,0.00012316,0.00160700,0.00133943,-0.00058274,-0.02970923,-0.0033844
 5,0.00414362,0.00160064,0.00134786,-0.00199390,-0.00031120,0.00022219,
 0.00009108,-0.00001835,0.00000392,-0.00027635,0.00015546,-0.00016246,0
 .00011486,-0.00010546,0.00010297,0.00008721,0.00000228,0.00004328,0.00
 001587,0.00000921,0.00000330,0.00000443,0.00000161,0.00000769,-0.00001
 166,0.00004042,-0.00001884,0.00003949,-0.00004235,0.00001608,-0.000043
 76,0.00002026,0.00000810,0.00001107,0.00009209,-0.00006084,-0.00002052
 ,-0.00000289,0.00004026,-0.00002414,-0.00001890,-0.00004064,-0.0000146
 9,0.00000372,0.00000998,0.00001518,-0.00000096,-0.00000147,0.00000011,
 0.00000189,0.00000459,0.00000392,0.00000993,-0.00000246,-0.00000983,0.
 00003137,-0.00002594,0.00002878,0.00025576,-0.00007241,-0.00005006,0.0
 0001520,0.00003768,0.00004687,0.00006627,0.00000813,-0.00001807,-0.000
 04430,-0.00001130,0.00004069,0.00000220,0.00001395,-0.00001450,0.00003
 107,-0.00004311,-0.00001295,0.00000565,-0.00001882,-0.00000720,0.00012
 627,0.00009542,0.00001909,0.00012663,-0.00019346,-0.00047670,-0.000128
 88,0.00000593,-0.00121693,0.05175370,0.06123730,0.00049979,0.00000661,
 -0.00046075,-0.00098357,0.00114298,0.00120652,-0.03102107,-0.00616288,
 0.00158710,0.00114487,-0.00053142,0.00263729,0.00007199,-0.00021963,0.
 00054840,0.03773203,0.00688577,-0.04658271,0.01884236,-0.00509426,-0.0
 0462610,0.00006832,0.00081721,0.00070880,-0.00001835,0.00004565,0.0000
 6861,-0.00000001,-0.00005621,0.00000247,-0.00000254,0.00000067,0.00001
 008,-0.00033851,-0.00002531,-0.00040948,-0.00116013,-0.00016291,0.0007
 7815,0.02287199,0.00464713,-0.00375290,-0.00070665,-0.00118193,0.00253
 409,0.00045857,-0.00017849,-0.00032234,-0.00003774,0.00001092,0.000259
 37,-0.00010177,0.00007654,-0.00007658,0.00005837,-0.00005236,-0.000019
 93,0.00002092,-0.00003984,-0.00004457,-0.00002297,-0.00003429,0.000028
 13,0.00000545,-0.00000130,0.00000307,0.00010206,0.00000482,-0.00014118
 ,-0.00005496,0.00002770,0.00005692,0.00002853,-0.00000934,-0.00001222,
 -0.00008757,0.00000974,-0.00004751,-0.00002421,-0.00004634,0.00010410,
 0.00002422,0.00006459,-0.00003041,-0.00002159,-0.00001297,0.00002568,0
 .00000152,0.00000098,-0.00000539,-0.00000271,-0.00000476,-0.00000146,-
 0.00000856,0.00000031,0.00000875,-0.00002399,0.00003225,-0.00001687,-0
 .00030030,0.00003162,0.00002936,-0.00004820,0.00000952,-0.00005813,0.0
 0006417,-0.00009778,-0.00011207,-0.00006397,-0.00000952,0.00006401,0.0
 0001396,-0.00016971,-0.00007569,0.00001302,-0.00002255,0.00000165,0.00
 000291,0.00002098,0.00000063,0.00012994,0.00003517,-0.00012190,0.00043
 376,-0.00039076,-0.00018113,-0.00182377,-0.00070220,-0.00489329,-0.046
 23637,-0.00129583,0.05332757,0.00008114,-0.00009730,0.00015265,0.00000
 280,0.00046965,-0.00006535,-0.00062372,-0.00034199,-0.00028093,0.00047
 862,-0.00000803,-0.00011915,-0.00002442,-0.00000405,0.00012929,-0.0062
 4542,-0.00038144,0.00391782,0.00114964,0.00042453,-0.00055656,0.000442
 53,0.00014063,-0.00037055,0.00045052,-0.00014055,0.00018834,0.00001750
 ,0.00004581,-0.00000654,-0.00000060,-0.00001543,-0.00000036,0.00026508
 ,-0.00031621,-0.00012097,-0.00214598,0.00858986,0.00542090,-0.32472921
 ,-0.00163455,0.08360728,-0.02721772,-0.00085003,-0.00961976,-0.0001469
 2,-0.00164926,0.00479501,0.00005275,0.00012607,-0.00063811,0.00068731,
 -0.00058610,-0.00015378,-0.00078195,-0.00001174,0.00090030,-0.00002366
 ,0.00012096,0.00011574,0.00004849,0.00005772,-0.00006980,-0.00001336,0
 .00000438,-0.00000818,-0.00020633,0.00001424,0.00008286,0.00009257,-0.
 00003311,-0.00004157,-0.00002468,0.00000122,0.00000082,0.00077912,-0.0
 0021328,0.00013965,0.00000930,-0.00000910,-0.00025997,-0.00004494,-0.0
 0009193,0.00004592,0.00003255,0.00001635,-0.00003528,-0.00000227,-0.00
 000005,0.00000686,0.00001019,0.00000872,0.00000404,0.00003694,-0.00000
 083,-0.00003151,0.00003816,-0.00021139,0.00012503,0.00201262,0.0002548
 6,-0.00112470,0.00027336,0.00011419,0.00036073,-0.00003763,0.00012633,
 -0.00003186,0.00011146,-0.00002572,-0.00008027,-0.00000311,0.00000454,
 -0.00000473,-0.00003219,-0.00019253,-0.00013657,0.00000441,0.00013037,
 0.00004856,0.00027269,0.00043789,0.00118041,0.00001094,-0.00009719,-0.
 00013802,0.00078796,0.00009772,0.00033353,0.00064586,0.00009065,0.0005
 0078,0.35350963,-0.00003025,0.00034304,-0.00029875,-0.00040308,-0.0006
 9829,-0.00005784,-0.00072209,0.00017507,-0.00094457,0.00039849,-0.0000
 0736,0.00034727,0.00016947,-0.00007477,0.00007853,-0.02514793,-0.00163
 831,0.01036336,0.00024619,0.00222262,-0.00018823,-0.00000306,0.0005446
 8,-0.00014377,-0.00023636,0.00004333,-0.00039770,-0.00006253,-0.000168
 54,0.00010677,-0.00001127,0.00004479,0.00000578,0.00418150,0.00115154,
 0.00402712,0.03468571,-0.02068793,-0.02254492,-0.00670256,-0.04049231,
 0.00616331,-0.00291653,0.00532948,-0.00068032,0.00088776,-0.00029511,0
 .00067011,0.00042222,-0.00006618,0.00032385,-0.00079162,0.00037440,0.0
 0020051,0.00148154,-0.00017761,-0.00159264,-0.00002411,-0.00003452,0.0
 0007581,0.00000502,0.00008774,-0.00007416,-0.00001260,-0.00003276,0.00
 001660,-0.00010010,0.00008947,-0.00003616,0.00003997,-0.00005775,0.000
 00391,-0.00001549,-0.00000702,-0.00000509,-0.00001650,0.00001600,0.000
 06027,-0.00001766,-0.00001561,-0.00007826,0.00001763,0.00000796,0.0000
 8501,0.00001841,-0.00000141,-0.00007300,0.00000015,-0.00000291,0.00000
 758,-0.00000378,-0.00000272,-0.00001022,-0.00001984,0.00000890,0.00002
 512,-0.00010720,-0.00003948,-0.00006562,0.00057284,0.00037742,0.000297
 40,-0.00000142,-0.00002299,0.00002328,-0.00003182,0.00000543,0.0000122
 5,0.00003663,-0.00003598,-0.00006293,-0.00000936,0.00001044,0.00000427
 ,-0.00017955,0.00016159,0.00010937,-0.00014971,-0.00020880,-0.00004499
 ,-0.00134675,0.00039807,-0.00004487,-0.00000557,-0.00013318,0.00003619
 ,0.00033839,0.00011614,0.00039478,-0.00006828,-0.00367304,0.00263144,-
 0.00436489,0.05706649,-0.00006836,-0.00001765,-0.00024577,-0.00017894,
 0.00009311,-0.00012695,0.00124412,-0.00022996,0.00056853,-0.00044632,0
 .00003251,0.00004722,-0.00007546,-0.00005318,-0.00003107,0.02336426,0.
 00409018,-0.00517610,-0.00151232,-0.00150449,0.00099231,-0.00018776,-0
 .00045610,0.00014173,-0.00023668,-0.00010609,-0.00007017,-0.00003559,-
 0.00003770,-0.00000486,0.00000369,0.00001275,0.00000146,0.00284177,0.0
 0044672,0.00285317,0.01474906,-0.01270877,-0.00589206,0.09333098,0.005
 81522,-0.06840834,-0.03535391,0.00082622,-0.01119518,-0.00865199,-0.00
 091108,0.00238658,0.00032596,0.00024733,-0.00067766,-0.00010060,-0.000
 05634,0.00042246,0.00019027,0.00030586,-0.00051495,-0.00005345,0.00014
 019,0.00002863,0.00004672,0.00003365,-0.00001756,0.00000456,0.00001171
 ,-0.00001348,-0.00008982,0.00001235,0.00015253,0.00003858,-0.00000616,
 -0.00008338,-0.00000393,0.00000932,0.00000909,-0.00070505,-0.00012071,
 -0.00004837,0.00025552,0.00013498,-0.00018452,-0.00004979,-0.00016205,
 0.00001182,0.00002552,0.00003357,-0.00001749,-0.00000013,-0.00000031,0
 .00000480,0.00000085,0.00001106,0.00001017,0.00004689,0.00000310,-0.00
 003890,0.00012076,-0.00020593,-0.00000540,0.00081136,-0.00024604,-0.00
 133928,0.00034583,-0.00006594,-0.00016188,0.00002769,0.00010498,-0.000
 04640,0.00004520,-0.00006645,-0.00004576,-0.00002319,0.00000025,0.0000
 0286,-0.00014061,0.00015068,0.00005035,-0.00004766,-0.00008130,-0.0000
 2569,-0.00103082,0.00009442,-0.00002297,-0.00012478,-0.00000627,0.0001
 5133,-0.00035732,0.00022827,-0.00037349,-0.00018311,0.00292996,-0.0019
 9815,-0.08816200,0.00127412,0.08893081\\0.00311961,-0.01907702,-0.0016
 8636,0.00864406,0.03256565,-0.01309276,-0.02781202,-0.02625665,0.03265
 224,0.01959228,0.00259189,0.03133158,-0.01106251,-0.01087083,-0.025377
 88,0.01645642,0.01352406,-0.01857414,-0.02133831,-0.02234474,0.0163022
 6,0.01934385,0.02729124,-0.00458198,-0.01403548,0.02229415,0.01704933,
 0.00628303,0.00479153,-0.01089328,0.00325655,-0.03827388,-0.00328183,0
 .00855902,0.02549687,-0.03245990,-0.01427131,-0.01516349,0.01123746,-0
 .02805826,0.00735137,-0.02404071,0.02116810,0.01183737,0.03430406,-0.0
 1376347,-0.01902761,-0.00825891,0.02507734,0.00410500,0.00665355,-0.01
 732657,-0.00919608,0.00124861,0.01260678,0.01471250,-0.01543098,-0.014
 86578,0.01941714,-0.01369106,0.02234925,0.01761467,0.03303942,-0.02666
 531,-0.01539103,-0.01263940,-0.00431198,-0.00637250,-0.01391795,-0.003
 41752,-0.02204845,-0.00362744,0.00180487,0.03585366,0.00482638,-0.0082
 1597,-0.00231150,-0.02671620,-0.00087342,0.01071265,0.01609693,0.05274
 184,-0.03190426,-0.02051100,-0.01739150,0.00315017,0.00761581,-0.00132
 699,-0.00105489,-0.00160750,-0.01764230,0.00559329,-0.00277444,0.01617
 974,-0.00908680,-0.00120614,-0.01891682,0.00693218,0.00122635,0.019432
 90,-0.00312442,0.00175358,-0.02345272,0.00402917,0.00257454,-0.0045561
 5,-0.00241155,0.01546246,0.02012056,-0.00434115,0.00071473,-0.00105586
 ,-0.00063771,0.00055342,-0.02241958,-0.00000001,0.00450265,0.00751253,
 -0.00270866,0.01767887,0.02345343,-0.00279313,-0.00268344,-0.01755935,
 -0.00268440,0.00272996,0.01889659,-0.00042342,-0.00316040,-0.01600411,
 -0.00142440,0.00430874,0.01974456,-0.00093597,-0.00364922\\\@


 A MAN BEGINS CUTTING HIS WISDOM TEETH THE 1ST
 TIME HE BITES OFF MORE THAN HE CAN CHEW.
 Job cpu time:  3 days 22 hours 25 minutes  5.8 seconds.
 File lengths (MBytes):  RWF=   2340 Int=      0 D2E=      0 Chk=     43 Scr=      1
 Normal termination of Gaussian 09 at Tue Feb 16 10:52:48 2016.
Gaussian '09 finished on node006 at Tue Feb 16 10:52:48 EST 2016.
