Gaussian '09 started on node014 at Tue Mar  1 03:52:55 EST 2016.
 Entering Gaussian System, Link 0=/usr/local/gaussian/g09/g09
 Initial command:
 /usr/local/gaussian/g09/l1.exe /home/srmcgrat/thesis/gaussian/cellobiose/550/8000/2/gdp/gaussian20022/Gau-20058.inp -scrdir=/home/srmcgrat/thesis/gaussian/cellobiose/550/8000/2/gdp/gaussian20022/
 Entering Link 1 = /usr/local/gaussian/g09/l1.exe PID=     20060.
  
 Copyright (c) 1988,1990,1992,1993,1995,1998,2003,2009,2010,
            Gaussian, Inc.  All Rights Reserved.
  
 This is part of the Gaussian(R) 09 program.  It is based on
 the Gaussian(R) 03 system (copyright 2003, Gaussian, Inc.),
 the Gaussian(R) 98 system (copyright 1998, Gaussian, Inc.),
 the Gaussian(R) 94 system (copyright 1995, Gaussian, Inc.),
 the Gaussian 92(TM) system (copyright 1992, Gaussian, Inc.),
 the Gaussian 90(TM) system (copyright 1990, Gaussian, Inc.),
 the Gaussian 88(TM) system (copyright 1988, Gaussian, Inc.),
 the Gaussian 86(TM) system (copyright 1986, Carnegie Mellon
 University), and the Gaussian 82(TM) system (copyright 1983,
 Carnegie Mellon University). Gaussian is a federally registered
 trademark of Gaussian, Inc.
  
 This software contains proprietary and confidential information,
 including trade secrets, belonging to Gaussian, Inc.
  
 This software is provided under written license and may be
 used, copied, transmitted, or stored only in accord with that
 written license.
  
 The following legend is applicable only to US Government
 contracts under FAR:
  
                    RESTRICTED RIGHTS LEGEND
  
 Use, reproduction and disclosure by the US Government is
 subject to restrictions as set forth in subparagraphs (a)
 and (c) of the Commercial Computer Software - Restricted
 Rights clause in FAR 52.227-19.
  
 Gaussian, Inc.
 340 Quinnipiac St., Bldg. 40, Wallingford CT 06492
  
  
 ---------------------------------------------------------------
 Warning -- This program may not be used in any manner that
 competes with the business of Gaussian, Inc. or will provide
 assistance to any competitor of Gaussian, Inc.  The licensee
 of this program is prohibited from giving any competitor of
 Gaussian, Inc. access to this program.  By using this program,
 the user acknowledges that Gaussian, Inc. is engaged in the
 business of creating and licensing software in the field of
 computational chemistry and represents and warrants to the
 licensee that it is not a competitor of Gaussian, Inc. and that
 it will not use this program in any manner prohibited above.
 ---------------------------------------------------------------
  

 Cite this work as:
 Gaussian 09, Revision B.01,
 M. J. Frisch, G. W. Trucks, H. B. Schlegel, G. E. Scuseria, 
 M. A. Robb, J. R. Cheeseman, G. Scalmani, V. Barone, B. Mennucci, 
 G. A. Petersson, H. Nakatsuji, M. Caricato, X. Li, H. P. Hratchian, 
 A. F. Izmaylov, J. Bloino, G. Zheng, J. L. Sonnenberg, M. Hada, 
 M. Ehara, K. Toyota, R. Fukuda, J. Hasegawa, M. Ishida, T. Nakajima, 
 Y. Honda, O. Kitao, H. Nakai, T. Vreven, J. A. Montgomery, Jr., 
 J. E. Peralta, F. Ogliaro, M. Bearpark, J. J. Heyd, E. Brothers, 
 K. N. Kudin, V. N. Staroverov, T. Keith, R. Kobayashi, J. Normand, 
 K. Raghavachari, A. Rendell, J. C. Burant, S. S. Iyengar, J. Tomasi, 
 M. Cossi, N. Rega, J. M. Millam, M. Klene, J. E. Knox, J. B. Cross, 
 V. Bakken, C. Adamo, J. Jaramillo, R. Gomperts, R. E. Stratmann, 
 O. Yazyev, A. J. Austin, R. Cammi, C. Pomelli, J. W. Ochterski, 
 R. L. Martin, K. Morokuma, V. G. Zakrzewski, G. A. Voth, 
 P. Salvador, J. J. Dannenberg, S. Dapprich, A. D. Daniels, 
 O. Farkas, J. B. Foresman, J. V. Ortiz, J. Cioslowski, 
 and D. J. Fox, Gaussian, Inc., Wallingford CT, 2010.
 
 ******************************************
 Gaussian 09:  EM64L-G09RevB.01 12-Aug-2010
                 1-Mar-2016 
 ******************************************
 ------------------------------------------------
 # freq=raman b3lyp/6-31+g(d,p) geom=connectivity
 ------------------------------------------------
 1/10=4,30=1,38=1,57=2/1,3;
 2/12=2,17=6,18=5,40=1/2;
 3/5=1,6=6,7=111,11=2,16=1,25=1,30=1,71=2,74=-5/1,2,3;
 4//1;
 5/5=2,38=5,98=1/2;
 8/6=4,10=90,11=11/1;
 10/13=10,15=4/2;
 11/6=3,8=1,9=11,15=111,16=1/1,2,10;
 10/6=1/2;
 6/7=2,8=2,9=2,10=2,18=1,28=1/1;
 7/8=1,10=1,25=1/1,2,3,16;
 1/10=4,30=1/3;
 99//99;
 ------------
 550 8000.com
 ------------
 Symbolic Z-matrix:
 Charge =  0 Multiplicity = 1
 O                     9.675     7.402     22.071 
 C                     10.483    7.259     23.248 
 C                     10.856    8.612     23.833 
 O                     11.6      9.313     22.825 
 H                     11.346    8.953     21.928 
 C                     11.664    8.405     25.104 
 O                     11.728    9.714     25.688 
 H                     11.767    10.485    25.051 
 C                     8.765     5.493     24.071 
 O                     9.068     4.33      23.286 
 H                     9.446     4.633     22.412 
 C                     9.767     6.585     24.407 
 O                     10.747    6.272     25.408 
 C                     11.057    7.469     26.136 
 O                     11.926    7.195     27.245 
 C                     11.101    7.18      28.418 
 C                     10.514    5.875     28.931 
 O                     9.711     5.164     27.977 
 H                     8.844     5.607     27.75 
 C                     9.632     6.22      30.12 
 O                     8.83      5.177     30.693 
 H                     8.694     4.63      29.867 
 C                     12.938    8.807     29.057 
 O                     12.491    10.035    28.464 
 H                     11.724    9.958     27.827 
 C                     11.849    7.868     29.548 
 O                     10.847    8.28      30.489 
 C                     10.397    7.072     31.12 
 O                     9.689     7.29      32.349 
 H                     10.24273   7.49537   21.30252 
 H                     7.9484    5.97934   23.57953 
 H                     8.39346   5.1317    25.00712 
 H                     9.17228   7.35992   24.84371 
 H                     11.37214   6.71369   23.00933 
 H                     9.96516   9.15846   24.06253 
 H                     12.65033   8.07421   24.85374 
 H                     10.14858   7.8983    26.50394 
 H                     10.31838   7.41661   33.06275 
 H                     11.27702   6.51968   31.37575 
 H                     8.90772   6.89294   29.71077 
 H                     11.31001   5.23969   29.2591 
 H                     10.2627   7.80487   28.19064 
 H                     12.3816   7.08577   30.04736 
 H                     13.52652   8.28335   28.33288 
 H                     13.56733   9.04908   29.88781 
 

 GradGradGradGradGradGradGradGradGradGradGradGradGradGradGradGradGradGrad
 Berny optimization.
 Initialization pass.
 Trust Radius=3.00D-01 FncErr=1.00D-07 GrdErr=1.00D-07
 Number of steps in this run=      2 maximum allowed number of steps=      2.
 GradGradGradGradGradGradGradGradGradGradGradGradGradGradGradGradGradGrad

                          Input orientation:                          
 ---------------------------------------------------------------------
 Center     Atomic      Atomic             Coordinates (Angstroms)
 Number     Number       Type             X           Y           Z
 ---------------------------------------------------------------------
      1          8           0        9.675000    7.402000   22.071000
      2          6           0       10.483000    7.259000   23.248000
      3          6           0       10.856000    8.612000   23.833000
      4          8           0       11.600000    9.313000   22.825000
      5          1           0       11.346000    8.953000   21.928000
      6          6           0       11.664000    8.405000   25.104000
      7          8           0       11.728000    9.714000   25.688000
      8          1           0       11.767000   10.485000   25.051000
      9          6           0        8.765000    5.493000   24.071000
     10          8           0        9.068000    4.330000   23.286000
     11          1           0        9.446000    4.633000   22.412000
     12          6           0        9.767000    6.585000   24.407000
     13          8           0       10.747000    6.272000   25.408000
     14          6           0       11.057000    7.469000   26.136000
     15          8           0       11.926000    7.195000   27.245000
     16          6           0       11.101000    7.180000   28.418000
     17          6           0       10.514000    5.875000   28.931000
     18          8           0        9.711000    5.164000   27.977000
     19          1           0        8.844000    5.607000   27.750000
     20          6           0        9.632000    6.220000   30.120000
     21          8           0        8.830000    5.177000   30.693000
     22          1           0        8.694000    4.630000   29.867000
     23          6           0       12.938000    8.807000   29.057000
     24          8           0       12.491000   10.035000   28.464000
     25          1           0       11.724000    9.958000   27.827000
     26          6           0       11.849000    7.868000   29.548000
     27          8           0       10.847000    8.280000   30.489000
     28          6           0       10.397000    7.072000   31.120000
     29          8           0        9.689000    7.290000   32.349000
     30          1           0       10.242727    7.495367   21.302515
     31          1           0        7.948402    5.979336   23.579529
     32          1           0        8.393464    5.131696   25.007120
     33          1           0        9.172283    7.359916   24.843711
     34          1           0       11.372139    6.713687   23.009325
     35          1           0        9.965157    9.158457   24.062529
     36          1           0       12.650331    8.074214   24.853738
     37          1           0       10.148584    7.898302   26.503940
     38          1           0       10.318385    7.416606   33.062755
     39          1           0       11.277020    6.519681   31.375752
     40          1           0        8.907723    6.892941   29.710766
     41          1           0       11.310009    5.239689   29.259099
     42          1           0       10.262700    7.804869   28.190642
     43          1           0       12.381600    7.085774   30.047359
     44          1           0       13.526516    8.283354   28.332884
     45          1           0       13.567332    9.049081   29.887806
 ---------------------------------------------------------------------
                    Distance matrix (angstroms):
                    1          2          3          4          5
     1  O    0.000000
     2  C    1.434797   0.000000
     3  C    2.442029   1.520514   0.000000
     4  O    2.815326   2.376033   1.435619   0.000000
     5  H    2.284358   2.314477   1.996348   0.999362   0.000000
     6  C    3.763140   2.480486   1.520248   2.454058   3.238581
     7  O    4.758450   3.678403   2.327190   2.893778   3.855210
     8  H    4.770928   3.912357   2.412794   2.521220   3.503911
     9  C    2.910735   2.597616   3.762590   4.917534   4.819296
    10  O    3.358848   3.253108   4.672438   5.608372   5.329688
    11  H    2.799300   2.944510   4.454187   5.168432   4.744118
    12  C    2.476459   1.519938   2.371524   3.647547   3.774401
    13  O    3.682615   2.389449   2.822783   4.080095   4.433617
    14  C    4.294024   2.951969   2.578887   3.828564   4.471358
    15  O    5.646249   4.249983   3.846366   4.912087   5.630049
    16  C    6.509007   5.207405   4.809665   6.006691   6.732284
    17  C    7.077800   5.849180   5.796355   7.091014   7.694694
    18  O    6.315915   5.229575   5.511122   6.879362   7.322578
    19  H    6.013620   5.067882   5.331140   6.751711   7.165989
    20  C    8.135439   7.002007   6.837120   8.164355   8.804314
    21  O    8.944469   7.905388   7.934954   9.310468   9.869836
    22  H    8.332104   7.343250   7.545842   8.942320   9.420677
    23  C    7.837435   6.493675   5.626982   6.394068   7.306054
    24  O    7.465453   6.240585   5.113151   5.754432   6.723172
    25  H    6.622920   5.458198   4.303159   5.044939   5.995924
    26  C    7.800574   6.475094   5.848146   6.881043   7.713276
    27  O    8.544425   7.321681   6.664281   7.769877   8.601898
    28  C    9.083754   7.874690   7.462081   8.676192   9.430357
    29  O   10.278620   9.135622   8.696656   9.922249  10.682156
    30  H    0.960000   1.974465   2.833077   2.732021   1.932133
    31  H    2.698291   2.858608   3.930559   5.001680   4.807692
    32  H    3.926502   3.462093   4.422121   5.703229   5.727199
    33  H    2.818230   2.067476   2.328981   3.712619   3.970432
    34  H    2.057792   1.070000   2.132705   2.615784   2.486860
    35  H    2.671240   2.130623   1.070000   2.056228   2.550520
    36  H    4.128934   2.817853   2.133247   2.598762   3.321669
    37  H    4.485705   3.334919   2.853721   4.200307   4.846176
    38  H   11.010578   9.817400   9.322359  10.490494  11.287128
    39  H    9.482793   8.199843   7.838888   9.001240   9.756322
    40  H    7.695056   6.662045   6.426436   7.779384   8.411925
    41  H    7.682292   6.394910   6.404776   7.620603   8.217967
    42  H    6.160983   4.977571   4.471298   5.731749   6.458516
    43  H    8.428996   7.061584   6.578379   7.598283   8.395415
    44  H    7.404199   6.014012   5.242959   5.925236   6.798943
    45  H    8.886258   7.536877   6.648536   7.336435   8.264506
                    6          7          8          9         10
     6  C    0.000000
     7  O    1.434794   0.000000
     8  H    2.083223   1.000865   0.000000
     9  C    4.236866   5.404711   5.906985   0.000000
    10  O    5.162360   6.467817   6.948658   1.435480   0.000000
    11  H    5.137545   6.461908   6.826219   1.988880   0.999284
    12  C    2.719709   3.908596   4.429981   1.519659   2.613478
    13  O    2.341579   3.590003   4.349393   2.514505   3.330659
    14  C    1.519727   2.385575   3.282923   3.663614   4.683155
    15  O    2.473181   2.967965   3.957653   4.791973   5.661278
    16  C    3.577735   3.777193   4.764795   5.215292   6.212328
    17  C    4.729623   5.169987   6.154389   5.179240   6.028596
    18  O    4.751044   5.478167   6.411057   4.032368   4.807753
    19  H    4.773104   5.425564   6.294713   3.681614   4.648462
    20  C    5.836395   6.020289   6.960116   6.153911   7.112929
    21  O    7.049004   7.350701   8.284503   6.629854   7.459068
    22  H    6.764443   7.246810   8.180355   5.860326   6.598442
    23  C    4.172636   3.692819   4.498329   7.297720   8.265886
    24  O    3.824974   2.896789   3.517847   7.335618   8.430637
    25  H    3.135305   2.152876   2.825908   6.542128   7.703856
    26  C    4.480148   4.280416   5.203693   6.719316   7.711294
    27  O    5.448058   5.087447   5.939720   7.300193   8.405388
    28  C    6.290821   6.185333   7.096353   7.405745   8.405734
    29  O    7.591698   7.375786   8.233281   8.521049   9.554329
    30  H    4.159175   5.134281   5.031148   3.722588   3.915833
    31  H    4.691858   5.716531   6.086701   1.070000   2.014937
    32  H    4.628208   5.707910   6.327759   1.070000   2.014937
    33  H    2.714517   3.575783   4.067145   2.061150   3.408479
    34  H    2.708023   4.037798   4.306641   3.068290   3.326795
    35  H    2.130358   2.461381   2.446105   3.856945   4.972111
    36  H    1.070000   2.058054   2.575088   4.729814   5.413875
    37  H    2.124397   2.541077   3.379543   3.690390   4.924995
    38  H    8.131997   7.851882   8.700675   9.325498  10.328385
    39  H    6.560416   6.538928   7.481065   7.792543   8.667097
    40  H    5.577247   5.665243   6.541542   5.812673   6.918958
    41  H    5.235394   5.739941   6.740195   5.784255   6.444536
    42  H    3.442551   3.472046   4.393561   4.955733   6.128420
    43  H    5.166440   5.132132   6.074214   7.164746   8.018117
    44  H    3.729539   3.503830   4.325957   6.972931   7.808868
    45  H    5.188671   4.632885   5.357028   8.339264   9.278877
                   11         12         13         14         15
    11  H    0.000000
    12  C    2.809514   0.000000
    13  O    3.654441   1.435399   0.000000
    14  C    4.950393   2.331308   1.434884   0.000000
    15  O    6.006008   3.617682   2.369924   1.435311   0.000000
    16  C    6.730399   4.268689   3.163839   2.300648   1.434147
    17  C    6.721648   4.639901   3.552946   3.263083   2.564905
    18  O    5.596553   3.842821   2.983408   3.242533   3.093058
    19  H    5.459425   3.603340   3.090081   3.312010   3.503640
    20  C    7.871876   5.726240   4.842404   4.411676   3.805087
    21  O    8.321680   6.509549   5.727577   5.565882   5.054329
    22  H    7.492832   5.897877   5.176259   5.250148   4.888756
    23  C    8.589084   6.051035   4.953979   3.722989   2.627933
    24  O    8.664891   5.981799   5.151780   3.749706   3.141781
    25  H    7.928880   5.186847   4.515826   3.082124   2.830847
    26  C    8.195250   5.693039   4.571785   3.525367   2.400556
    27  O    8.972254   6.405478   5.464305   4.432881   3.586782
    28  C    9.092986   6.760062   5.778360   5.043160   4.167565
    29  O   10.288958   7.973611   7.094587   6.364341   5.573510
    30  H    3.171573   3.270002   4.313459   4.901664   6.183588
    31  H    2.327777   2.087783   3.355758   4.291623   5.543898
    32  H    2.844499   2.087783   2.645776   3.719111   4.663062
    33  H    3.663907   1.070000   1.995424   2.287808   3.657368
    34  H    2.897596   2.132258   2.517842   3.232013   4.298763
    35  H    4.844949   2.603960   3.279208   2.888887   4.222344
    36  H    5.298280   3.275810   2.679151   2.132882   2.648737
    37  H    5.282025   2.503502   2.050377   1.070000   2.050125
    38  H   11.043011   8.713076   7.751716   6.966221   6.039852
    39  H    9.341363   7.130774   5.996360   5.329599   4.235605
    40  H    7.659573   5.381739   4.720414   4.210723   3.909123
    41  H    7.122174   5.266270   4.026613   3.845464   2.873897
    42  H    6.642323   4.006213   3.213616   2.228290   2.008170
    43  H    8.540055   6.237031   4.985759   4.147307   2.841252
    44  H    8.064277   5.694816   4.508459   3.404113   2.220283
    45  H    9.611182   7.110095   5.977885   4.782726   3.621603
                   16         17         18         19         20
    16  C    0.000000
    17  C    1.520119   0.000000
    18  O    2.488139   1.435425   0.000000
    19  H    2.831007   2.062883   0.999733   0.000000
    20  C    2.444661   1.520089   2.390361   2.571695   0.000000
    21  O    3.787489   2.535292   2.855343   2.974281   1.435055
    22  H    3.794173   2.395521   2.211684   2.336390   1.863318
    23  C    2.535748   3.806347   4.985116   5.358086   4.330378
    24  O    3.175727   4.629494   5.629583   5.780795   5.046825
    25  H    2.907696   4.399296   5.201644   5.218384   4.858699
    26  C    1.519786   2.476886   3.788232   4.168327   2.821024
    27  O    2.358719   2.884836   4.160540   4.319613   2.419914
    28  C    2.794295   2.497643   3.740255   3.989353   1.520240
    29  O    4.178350   3.790194   4.861558   4.969639   2.473174
    30  H    7.173996   7.803394   7.089905   6.862392   8.930150
    31  H    5.898413   5.935607   4.807211   4.281771   6.757972
    32  H    4.812526   4.521726   3.249174   2.819980   5.372143
    33  H    4.065447   4.550946   3.863905   3.409839   5.417562
    34  H    5.435506   6.042022   5.462482   5.485457   7.337132
    35  H    4.916763   5.897824   5.598515   5.240924   6.740807
    36  H    3.987983   5.101423   5.183028   5.381788   6.346806
    37  H    2.255367   3.180865   3.136526   2.916277   4.019882
    38  H    4.716165   4.414319   5.595360   5.802917   3.250045
    39  H    3.035672   2.640952   3.980177   4.460791   2.091127
    40  H    2.562052   2.055326   2.576904   2.345700   1.070000
    41  H    2.125074   1.070000   2.050936   2.914361   2.125530
    42  H    1.070000   2.082228   2.706326   2.652829   2.575270
    43  H    2.074518   2.490012   3.887377   4.469814   2.883599
    44  H    2.666039   3.902968   4.941172   5.424811   4.755887
    45  H    3.425870   4.507006   5.797959   6.223182   4.852262
                   21         22         23         24         25
    21  O    0.000000
    22  H    0.999990   0.000000
    23  C    5.720932   6.009573   0.000000
    24  O    6.478544   6.752751   1.435076   0.000000
    25  H    6.280697   6.459883   2.076414   0.999993   0.000000
    26  C    4.203197   4.532155   1.519448   2.506613   2.710270
    27  O    3.706550   4.283082   2.588558   3.143785   3.266658
    28  C    2.495765   3.230106   3.704440   4.496503   4.575344
    29  O    2.818685   3.771730   4.867705   5.520820   5.630980
    30  H    9.775062   9.162930   8.313658   7.924098   7.129350
    31  H    7.212658   6.473710   7.930603   7.806515   6.937285
    32  H    5.702793   4.894942   7.110710   7.265137   6.506720
    33  H    6.252717   5.737127   5.833222   5.592535   4.707580
    34  H    8.237884   7.651267   6.588494   6.483552   5.818880
    35  H    7.816887   7.470920   5.822891   5.149870   4.231316
    36  H    7.555512   7.255892   4.276347   4.111455   3.639647
    37  H    5.166466   4.909968   3.889048   3.727496   2.911148
    38  H    3.584252   4.540556   4.984140   5.720559   5.987284
    39  H    2.873473   3.538251   3.656131   4.723295   4.961398
    40  H    1.978706   2.278374   4.509342   4.926138   4.568871
    41  H    2.865388   2.754046   3.926437   5.002193   4.948208
    42  H    3.901297   3.918008   2.985310   3.164417   2.627472
    43  H    4.083397   4.434157   2.062283   3.349168   3.689460
    44  H    6.105476   6.249297   1.070000   2.039056   2.511857
    45  H    6.171196   6.578607   1.070000   2.039056   2.910486
                   26         27         28         29         30
    26  C    0.000000
    27  O    1.435001   0.000000
    28  C    2.283222   1.435244   0.000000
    29  O    3.584032   2.404301   1.435001   0.000000
    30  H    8.408745   9.239713   9.827820  11.062261   0.000000
    31  H    7.375932   7.838094   8.003016   9.036103   3.570304
    32  H    6.328324   6.781052   6.719095   7.761436   4.767684
    33  H    5.436294   5.959909   6.401143   7.523380   3.701927
    34  H    6.656884   7.659938   8.176939   9.507609   2.190844
    35  H    5.941762   6.545904   7.372089   8.499000   3.234283
    36  H    4.766629   5.920349   6.734091   8.097125   4.329296
    37  H    3.486924   4.063765   4.696009   5.894572   5.217858
    38  H    3.860057   2.765700   1.974647   0.960000  11.760747
    39  H    2.342179   2.017416   1.070000   2.015542  10.173094
    40  H    3.102957   2.508062   2.058142   2.779987   8.534860
    41  H    2.698517   3.312179   2.766569   4.047090   8.338729
    42  H    2.088721   2.418596   3.022627   4.229204   6.895106
    43  H    1.070000   1.994046   2.255967   3.548148   9.011927
    44  H    2.112601   3.439281   4.362254   5.642913   7.799377
    45  H    2.112601   2.890177   3.934229   4.918669   9.336715
                   31         32         33         34         35
    31  H    0.000000
    32  H    1.718892   0.000000
    33  H    2.236525   2.366058   0.000000
    34  H    3.547729   3.919998   2.936316   0.000000
    35  H    3.795708   4.424622   2.115099   3.010936   0.000000
    36  H    5.302854   5.177148   3.550653   2.624246   3.001959
    37  H    4.132241   3.602086   1.999845   3.887510   2.753566
    38  H    9.879987   8.591821   8.298762  10.132914   9.174033
    39  H    8.494279   7.127474   6.914006   8.369217   7.884628
    40  H    6.272722   5.048835   4.896558   7.142464   6.176837
    41  H    6.641160   5.157250   5.344239   6.421542   6.646030
    42  H    5.472743   4.557928   3.548089   5.409952   4.354544
    43  H    7.918982   6.717712   6.119871   7.119788   6.778894
    44  H    7.682334   6.880544   5.655653   5.953611   5.628945
    45  H    8.988330   8.120093   6.900190   7.588573   6.849925
                   36         37         38         39         40
    36  H    0.000000
    37  H    3.002141   0.000000
    38  H    8.559111   6.578671   0.000000
    39  H    6.843919   5.187342   2.137623   0.000000
    40  H    6.244457   3.582488   3.674237   2.919773   0.000000
    41  H    5.407236   4.001004   4.493338   2.473801   2.950971
    42  H    4.111966   1.693138   4.887876   3.581268   2.231222
    43  H    5.293669   4.266425   3.668640   1.818018   3.495469
    44  H    3.593870   3.860535   5.780574   4.174904   5.016479
    45  H    5.208944   4.945976   4.827104   3.722550   5.137338
                   41         42         43         44         45
    41  H    0.000000
    42  H    2.969614   0.000000
    43  H    2.275454   2.907616   0.000000
    44  H    3.877457   3.301769   2.384209   0.000000
    45  H    4.472387   3.917783   2.299129   1.733720   0.000000
 Stoichiometry    C12H22O11
 Framework group  C1[X(C12H22O11)]
 Deg. of freedom   129
 Full point group                 C1      NOp   1
 Largest Abelian subgroup         C1      NOp   1
 Largest concise Abelian subgroup C1      NOp   1
                         Standard orientation:                         
 ---------------------------------------------------------------------
 Center     Atomic      Atomic             Coordinates (Angstroms)
 Number     Number       Type             X           Y           Z
 ---------------------------------------------------------------------
      1          8           0       -4.901043    0.466725   -0.686253
      2          6           0       -3.697984    0.107103    0.007983
      3          6           0       -3.132511   -1.207553   -0.505712
      4          8           0       -4.133603   -2.211064   -0.278152
      5          1           0       -5.029440   -1.769818   -0.239396
      6          6           0       -1.834094   -1.515443    0.222622
      7          8           0       -1.277698   -2.613039   -0.515172
      8          1           0       -1.930255   -3.259525   -0.912610
      9          6           0       -2.886647    2.544745   -0.375737
     10          8           0       -3.636397    3.308817    0.580648
     11          1           0       -4.505461    2.842275    0.740757
     12          6           0       -2.545775    1.072200   -0.218322
     13          8           0       -1.509779    0.749322    0.721270
     14          6           0       -0.799783   -0.402178    0.242894
     15          8           0        0.340020   -0.691529    1.065842
     16          6           0        1.488384   -0.195862    0.364163
     17          6           0        2.012831    1.204748    0.636216
     18          8           0        1.051742    2.252524    0.438934
     19          1           0        0.789646    2.403218   -0.513990
     20          6           0        3.167515    1.442474   -0.323399
     21          8           0        3.739799    2.757210   -0.381204
     22          1           0        2.922526    3.280476   -0.139880
     23          6           0        2.144633   -2.592005    0.871953
     24          8           0        1.511651   -3.323062   -0.188392
     25          1           0        0.854317   -2.809858   -0.740225
     26          6           0        2.624252   -1.192862    0.523980
     27          8           0        3.526099   -0.938711   -0.562900
     28          6           0        4.170326    0.302844   -0.241283
     29          8           0        5.372903    0.541165   -0.987097
     30          1           0       -5.654446    0.058379   -0.253543
     31          1           0       -3.412521    2.630972   -1.303596
     32          1           0       -1.954020    3.054637   -0.498690
     33          1           0       -2.144004    0.793826   -1.170157
     34          1           0       -3.898326    0.026588    1.055972
     35          1           0       -2.941384   -1.126956   -1.555414
     36          1           0       -2.047934   -1.826668    1.223777
     37          1           0       -0.468251   -0.216540   -0.757369
     38          1           0        6.101806    0.068556   -0.578511
     39          1           0        4.463965    0.232969    0.785262
     40          1           0        2.722382    1.323379   -1.289097
     41          1           0        2.378150    1.251325    1.640841
     42          1           0        1.222730   -0.209232   -0.672249
     43          1           0        3.156260   -0.872824    1.395441
     44          1           0        1.449888   -2.513156    1.681899
     45          1           0        2.987940   -3.158145    1.208434
 ---------------------------------------------------------------------
 Rotational constants (GHZ):      0.3971959      0.1541676      0.1173672
 Standard basis: 6-31+G(d,p) (6D, 7F)
 There are   547 symmetry adapted basis functions of A   symmetry.
 Integral buffers will be    131072 words long.
 Raffenetti 2 integral format.
 Two-electron integral symmetry is turned on.
   547 basis functions,   890 primitive gaussians,   547 cartesian basis functions
    91 alpha electrons       91 beta electrons
       nuclear repulsion energy      2306.4699991488 Hartrees.
 NAtoms=   45 NActive=   45 NUniq=   45 SFac= 1.00D+00 NAtFMM=   50 NAOKFM=F Big=F
 One-electron integrals computed using PRISM.
 NBasis=   547 RedAO= T  NBF=   547
 NBsUse=   547 1.00D-06 NBFU=   547
 Harris functional with IExCor=  402 diagonalized for initial guess.
 ExpMin= 4.38D-02 ExpMax= 5.48D+03 ExpMxC= 8.25D+02 IAcc=2 IRadAn=         0 AccDes= 0.00D+00
 HarFok:  IExCor=  402 AccDes= 0.00D+00 IRadAn=         0 IDoV= 1
 ScaDFX=  1.000000  1.000000  1.000000  1.000000
 FoFCou: FMM=F IPFlag=           0 FMFlag=      100000 FMFlg1=           0
         NFxFlg=           0 DoJE=T BraDBF=F KetDBF=T FulRan=T
         Omega=  0.000000  0.000000  1.000000  0.000000  0.000000 ICntrl=     500 IOpCl=  0
         NMat0=    1 NMatS0=    1 NMatT0=    0 NMatD0=    1 NMtDS0=    0 NMtDT0=    0
         I1Cent=           4 NGrid=           0.
 Petite list used in FoFCou.
 Initial guess orbital symmetries:
       Occupied  (A) (A) (A) (A) (A) (A) (A) (A) (A) (A) (A) (A)
                 (A) (A) (A) (A) (A) (A) (A) (A) (A) (A) (A) (A)
                 (A) (A) (A) (A) (A) (A) (A) (A) (A) (A) (A) (A)
                 (A) (A) (A) (A) (A) (A) (A) (A) (A) (A) (A) (A)
                 (A) (A) (A) (A) (A) (A) (A) (A) (A) (A) (A) (A)
                 (A) (A) (A) (A) (A) (A) (A) (A) (A) (A) (A) (A)
                 (A) (A) (A) (A) (A) (A) (A) (A) (A) (A) (A) (A)
                 (A) (A) (A) (A) (A) (A) (A)
       Virtual   (A) (A) (A) (A) (A) (A) (A) (A) (A) (A) (A) (A)
                 (A) (A) (A) (A) (A) (A) (A) (A) (A) (A) (A) (A)
                 (A) (A) (A) (A) (A) (A) (A) (A) (A) (A) (A) (A)
                 (A) (A) (A) (A) (A) (A) (A) (A) (A) (A) (A) (A)
                 (A) (A) (A) (A) (A) (A) (A) (A) (A) (A) (A) (A)
                 (A) (A) (A) (A) (A) (A) (A) (A) (A) (A) (A) (A)
                 (A) (A) (A) (A) (A) (A) (A) (A) (A) (A) (A) (A)
                 (A) (A) (A) (A) (A) (A) (A) (A) (A) (A) (A) (A)
                 (A) (A) (A) (A) (A) (A) (A) (A) (A) (A) (A) (A)
                 (A) (A) (A) (A) (A) (A) (A) (A) (A) (A) (A) (A)
                 (A) (A) (A) (A) (A) (A) (A) (A) (A) (A) (A) (A)
                 (A) (A) (A) (A) (A) (A) (A) (A) (A) (A) (A) (A)
                 (A) (A) (A) (A) (A) (A) (A) (A) (A) (A) (A) (A)
                 (A) (A) (A) (A) (A) (A) (A) (A) (A) (A) (A) (A)
                 (A) (A) (A) (A) (A) (A) (A) (A) (A) (A) (A) (A)
                 (A) (A) (A) (A) (A) (A) (A) (A) (A) (A) (A) (A)
                 (A) (A) (A) (A) (A) (A) (A) (A) (A) (A) (A) (A)
                 (A) (A) (A) (A) (A) (A) (A) (A) (A) (A) (A) (A)
                 (A) (A) (A) (A) (A) (A) (A) (A) (A) (A) (A) (A)
                 (A) (A) (A) (A) (A) (A) (A) (A) (A) (A) (A) (A)
                 (A) (A) (A) (A) (A) (A) (A) (A) (A) (A) (A) (A)
                 (A) (A) (A) (A) (A) (A) (A) (A) (A) (A) (A) (A)
                 (A) (A) (A) (A) (A) (A) (A) (A) (A) (A) (A) (A)
                 (A) (A) (A) (A) (A) (A) (A) (A) (A) (A) (A) (A)
                 (A) (A) (A) (A) (A) (A) (A) (A) (A) (A) (A) (A)
                 (A) (A) (A) (A) (A) (A) (A) (A) (A) (A) (A) (A)
                 (A) (A) (A) (A) (A) (A) (A) (A) (A) (A) (A) (A)
                 (A) (A) (A) (A) (A) (A) (A) (A) (A) (A) (A) (A)
                 (A) (A) (A) (A) (A) (A) (A) (A) (A) (A) (A) (A)
                 (A) (A) (A) (A) (A) (A) (A) (A) (A) (A) (A) (A)
                 (A) (A) (A) (A) (A) (A) (A) (A) (A) (A) (A) (A)
                 (A) (A) (A) (A) (A) (A) (A) (A) (A) (A) (A) (A)
                 (A) (A) (A) (A) (A) (A) (A) (A) (A) (A) (A) (A)
                 (A) (A) (A) (A) (A) (A) (A) (A) (A) (A) (A) (A)
                 (A) (A) (A) (A) (A) (A) (A) (A) (A) (A) (A) (A)
                 (A) (A) (A) (A) (A) (A) (A) (A) (A) (A) (A) (A)
                 (A) (A) (A) (A) (A) (A) (A) (A) (A) (A) (A) (A)
                 (A) (A) (A) (A) (A) (A) (A) (A) (A) (A) (A) (A)
 The electronic state of the initial guess is 1-A.
 Requested convergence on RMS density matrix=1.00D-08 within 128 cycles.
 Requested convergence on MAX density matrix=1.00D-06.
 Requested convergence on             energy=1.00D-06.
 No special actions if energy rises.
 SCF Done:  E(RB3LYP) =  -1297.89272030     A.U. after   14 cycles
             Convg  =    0.4410D-08             -V/T =  2.0086
 Range of M.O.s used for correlation:     1   547
 NBasis=   547 NAE=    91 NBE=    91 NFC=     0 NFV=     0
 NROrb=    547 NOA=    91 NOB=    91 NVA=   456 NVB=   456

 **** Warning!!: The largest alpha MO coefficient is  0.81815070D+02

          Differentiating once with respect to electric field.
                with respect to dipole field.
          Electric field/nuclear overlap derivatives assumed to be zero.
          There are     3 degrees of freedom in the 1st order CPHF.  IDoFFX=0.
      3 vectors produced by pass  0 Test12= 1.38D-12 3.33D-08 XBig12= 1.20D+02 1.10D+00.
 AX will form     3 AO Fock derivatives at one time.
      3 vectors produced by pass  1 Test12= 1.38D-12 3.33D-08 XBig12= 2.54D+01 3.14D-01.
      3 vectors produced by pass  2 Test12= 1.38D-12 3.33D-08 XBig12= 9.33D+00 2.10D-01.
      3 vectors produced by pass  3 Test12= 1.38D-12 3.33D-08 XBig12= 1.13D+00 7.11D-02.
      3 vectors produced by pass  4 Test12= 1.38D-12 3.33D-08 XBig12= 2.86D-01 3.30D-02.
      3 vectors produced by pass  5 Test12= 1.38D-12 3.33D-08 XBig12= 6.75D-02 1.81D-02.
      3 vectors produced by pass  6 Test12= 1.38D-12 3.33D-08 XBig12= 2.01D-02 1.16D-02.
      3 vectors produced by pass  7 Test12= 1.38D-12 3.33D-08 XBig12= 2.70D-03 6.03D-03.
      3 vectors produced by pass  8 Test12= 1.38D-12 3.33D-08 XBig12= 6.81D-04 2.44D-03.
      3 vectors produced by pass  9 Test12= 1.38D-12 3.33D-08 XBig12= 1.73D-04 1.49D-03.
      3 vectors produced by pass 10 Test12= 1.38D-12 3.33D-08 XBig12= 3.47D-05 3.99D-04.
      3 vectors produced by pass 11 Test12= 1.38D-12 3.33D-08 XBig12= 6.30D-06 2.36D-04.
      3 vectors produced by pass 12 Test12= 1.38D-12 3.33D-08 XBig12= 7.04D-07 7.24D-05.
      3 vectors produced by pass 13 Test12= 1.38D-12 3.33D-08 XBig12= 3.23D-07 5.79D-05.
      3 vectors produced by pass 14 Test12= 1.38D-12 3.33D-08 XBig12= 2.71D-08 1.47D-05.
      3 vectors produced by pass 15 Test12= 1.38D-12 3.33D-08 XBig12= 4.44D-09 8.31D-06.
      3 vectors produced by pass 16 Test12= 1.38D-12 3.33D-08 XBig12= 7.11D-10 2.26D-06.
      3 vectors produced by pass 17 Test12= 1.38D-12 3.33D-08 XBig12= 1.01D-10 7.49D-07.
      3 vectors produced by pass 18 Test12= 1.38D-12 3.33D-08 XBig12= 2.39D-11 3.22D-07.
      3 vectors produced by pass 19 Test12= 1.38D-12 3.33D-08 XBig12= 3.35D-11 4.18D-07.
      3 vectors produced by pass 20 Test12= 1.38D-12 3.33D-08 XBig12= 1.44D-11 2.61D-07.
      3 vectors produced by pass 21 Test12= 1.38D-12 3.33D-08 XBig12= 3.26D-12 1.92D-07.
      2 vectors produced by pass 22 Test12= 1.38D-12 3.33D-08 XBig12= 9.91D-13 5.79D-08.
 Inverted reduced A of dimension    68 with in-core refinement.
 End of Minotr Frequency-dependent properties file   721 does not exist.
 End of Minotr Frequency-dependent properties file   722 does not exist.
 Symmetrizing basis deriv contribution to polar:
 IMax=3 JMax=2 DiffMx= 0.00D+00
 G2DrvN: will do    23 centers at a time, making    2 passes doing MaxLOS=2.
 Calling FoFCou, ICntrl=  3107 FMM=F I1Cent=   0 AccDes= 0.00D+00.
 Calling FoFCou, ICntrl=  3107 FMM=F I1Cent=   0 AccDes= 0.00D+00.
 FoFDir/FoFCou used for L=0 through L=2.
 End of G2Drv Frequency-dependent properties file   721 does not exist.
 End of G2Drv Frequency-dependent properties file   722 does not exist.
          IDoAtm=111111111111111111111111111111111111111111111
          Differentiating once with respect to electric field.
                with respect to dipole field.
          Differentiating once with respect to nuclear coordinates.
          There are   138 degrees of freedom in the 1st order CPHF.  IDoFFX=5.
 Will reuse    3 saved solutions.
    135 vectors produced by pass  0 Test12= 4.15D-14 1.00D-09 XBig12= 3.24D-01 1.13D-01.
 AX will form    68 AO Fock derivatives at one time.
    135 vectors produced by pass  1 Test12= 4.15D-14 1.00D-09 XBig12= 3.44D-02 1.93D-02.
    132 vectors produced by pass  2 Test12= 4.15D-14 1.00D-09 XBig12= 1.80D-04 1.63D-03.
    132 vectors produced by pass  3 Test12= 4.15D-14 1.00D-09 XBig12= 6.44D-07 9.67D-05.
    132 vectors produced by pass  4 Test12= 4.15D-14 1.00D-09 XBig12= 1.03D-09 2.32D-06.
    131 vectors produced by pass  5 Test12= 4.15D-14 1.00D-09 XBig12= 6.88D-12 2.19D-07.
     81 vectors produced by pass  6 Test12= 4.15D-14 1.00D-09 XBig12= 2.73D-13 2.49D-08.
      1 vectors produced by pass  7 Test12= 4.15D-14 1.00D-09 XBig12= 4.85D-16 1.07D-09.
 Inverted reduced A of dimension   879 with in-core refinement.
 Isotropic polarizability for W=    0.000000      184.31 Bohr**3.
 End of Minotr Frequency-dependent properties file   721 does not exist.
 End of Minotr Frequency-dependent properties file   722 does not exist.

 **********************************************************************

            Population analysis using the SCF density.

 **********************************************************************

 Orbital symmetries:
       Occupied  (A) (A) (A) (A) (A) (A) (A) (A) (A) (A) (A) (A)
                 (A) (A) (A) (A) (A) (A) (A) (A) (A) (A) (A) (A)
                 (A) (A) (A) (A) (A) (A) (A) (A) (A) (A) (A) (A)
                 (A) (A) (A) (A) (A) (A) (A) (A) (A) (A) (A) (A)
                 (A) (A) (A) (A) (A) (A) (A) (A) (A) (A) (A) (A)
                 (A) (A) (A) (A) (A) (A) (A) (A) (A) (A) (A) (A)
                 (A) (A) (A) (A) (A) (A) (A) (A) (A) (A) (A) (A)
                 (A) (A) (A) (A) (A) (A) (A)
       Virtual   (A) (A) (A) (A) (A) (A) (A) (A) (A) (A) (A) (A)
                 (A) (A) (A) (A) (A) (A) (A) (A) (A) (A) (A) (A)
                 (A) (A) (A) (A) (A) (A) (A) (A) (A) (A) (A) (A)
                 (A) (A) (A) (A) (A) (A) (A) (A) (A) (A) (A) (A)
                 (A) (A) (A) (A) (A) (A) (A) (A) (A) (A) (A) (A)
                 (A) (A) (A) (A) (A) (A) (A) (A) (A) (A) (A) (A)
                 (A) (A) (A) (A) (A) (A) (A) (A) (A) (A) (A) (A)
                 (A) (A) (A) (A) (A) (A) (A) (A) (A) (A) (A) (A)
                 (A) (A) (A) (A) (A) (A) (A) (A) (A) (A) (A) (A)
                 (A) (A) (A) (A) (A) (A) (A) (A) (A) (A) (A) (A)
                 (A) (A) (A) (A) (A) (A) (A) (A) (A) (A) (A) (A)
                 (A) (A) (A) (A) (A) (A) (A) (A) (A) (A) (A) (A)
                 (A) (A) (A) (A) (A) (A) (A) (A) (A) (A) (A) (A)
                 (A) (A) (A) (A) (A) (A) (A) (A) (A) (A) (A) (A)
                 (A) (A) (A) (A) (A) (A) (A) (A) (A) (A) (A) (A)
                 (A) (A) (A) (A) (A) (A) (A) (A) (A) (A) (A) (A)
                 (A) (A) (A) (A) (A) (A) (A) (A) (A) (A) (A) (A)
                 (A) (A) (A) (A) (A) (A) (A) (A) (A) (A) (A) (A)
                 (A) (A) (A) (A) (A) (A) (A) (A) (A) (A) (A) (A)
                 (A) (A) (A) (A) (A) (A) (A) (A) (A) (A) (A) (A)
                 (A) (A) (A) (A) (A) (A) (A) (A) (A) (A) (A) (A)
                 (A) (A) (A) (A) (A) (A) (A) (A) (A) (A) (A) (A)
                 (A) (A) (A) (A) (A) (A) (A) (A) (A) (A) (A) (A)
                 (A) (A) (A) (A) (A) (A) (A) (A) (A) (A) (A) (A)
                 (A) (A) (A) (A) (A) (A) (A) (A) (A) (A) (A) (A)
                 (A) (A) (A) (A) (A) (A) (A) (A) (A) (A) (A) (A)
                 (A) (A) (A) (A) (A) (A) (A) (A) (A) (A) (A) (A)
                 (A) (A) (A) (A) (A) (A) (A) (A) (A) (A) (A) (A)
                 (A) (A) (A) (A) (A) (A) (A) (A) (A) (A) (A) (A)
                 (A) (A) (A) (A) (A) (A) (A) (A) (A) (A) (A) (A)
                 (A) (A) (A) (A) (A) (A) (A) (A) (A) (A) (A) (A)
                 (A) (A) (A) (A) (A) (A) (A) (A) (A) (A) (A) (A)
                 (A) (A) (A) (A) (A) (A) (A) (A) (A) (A) (A) (A)
                 (A) (A) (A) (A) (A) (A) (A) (A) (A) (A) (A) (A)
                 (A) (A) (A) (A) (A) (A) (A) (A) (A) (A) (A) (A)
                 (A) (A) (A) (A) (A) (A) (A) (A) (A) (A) (A) (A)
                 (A) (A) (A) (A) (A) (A) (A) (A) (A) (A) (A) (A)
                 (A) (A) (A) (A) (A) (A) (A) (A) (A) (A) (A) (A)
 The electronic state is 1-A.
 Alpha  occ. eigenvalues --  -19.21099 -19.20563 -19.19552 -19.19223 -19.18932
 Alpha  occ. eigenvalues --  -19.18432 -19.18099 -19.17802 -19.17549 -19.17468
 Alpha  occ. eigenvalues --  -19.14234 -10.32216 -10.30785 -10.27500 -10.27249
 Alpha  occ. eigenvalues --  -10.27172 -10.27089 -10.27015 -10.26295 -10.25711
 Alpha  occ. eigenvalues --  -10.25653 -10.25142 -10.23539  -1.10725  -1.08814
 Alpha  occ. eigenvalues --   -1.08434  -1.05909  -1.05688  -1.05297  -1.03567
 Alpha  occ. eigenvalues --   -1.03100  -1.02852  -1.02340  -0.99793  -0.83286
 Alpha  occ. eigenvalues --   -0.82751  -0.79938  -0.78371  -0.72978  -0.71535
 Alpha  occ. eigenvalues --   -0.68233  -0.66640  -0.64865  -0.63523  -0.63293
 Alpha  occ. eigenvalues --   -0.62109  -0.58116  -0.56898  -0.56476  -0.56062
 Alpha  occ. eigenvalues --   -0.54147  -0.53758  -0.52478  -0.52019  -0.51402
 Alpha  occ. eigenvalues --   -0.51232  -0.50764  -0.49327  -0.48981  -0.48090
 Alpha  occ. eigenvalues --   -0.47069  -0.46807  -0.45659  -0.44706  -0.44403
 Alpha  occ. eigenvalues --   -0.43875  -0.42974  -0.42382  -0.40331  -0.39254
 Alpha  occ. eigenvalues --   -0.39010  -0.38937  -0.38448  -0.37679  -0.37583
 Alpha  occ. eigenvalues --   -0.36665  -0.36085  -0.35152  -0.35082  -0.33978
 Alpha  occ. eigenvalues --   -0.33090  -0.32340  -0.32017  -0.31400  -0.30858
 Alpha  occ. eigenvalues --   -0.30569  -0.29973  -0.28921  -0.28038  -0.27919
 Alpha  occ. eigenvalues --   -0.26410
 Alpha virt. eigenvalues --   -0.05065  -0.03273  -0.01335  -0.00918  -0.00111
 Alpha virt. eigenvalues --    0.00878   0.01422   0.01891   0.02592   0.02825
 Alpha virt. eigenvalues --    0.03870   0.04148   0.04337   0.04896   0.05254
 Alpha virt. eigenvalues --    0.05779   0.06030   0.06655   0.07200   0.07369
 Alpha virt. eigenvalues --    0.07507   0.08002   0.08967   0.09126   0.09445
 Alpha virt. eigenvalues --    0.09638   0.10197   0.10924   0.11006   0.11239
 Alpha virt. eigenvalues --    0.12045   0.12216   0.12658   0.12947   0.13112
 Alpha virt. eigenvalues --    0.13372   0.13575   0.14073   0.14562   0.14796
 Alpha virt. eigenvalues --    0.15222   0.15521   0.15853   0.16113   0.16443
 Alpha virt. eigenvalues --    0.16868   0.17208   0.17758   0.17880   0.18167
 Alpha virt. eigenvalues --    0.18310   0.18659   0.19005   0.19387   0.19444
 Alpha virt. eigenvalues --    0.19718   0.19997   0.20510   0.20885   0.21023
 Alpha virt. eigenvalues --    0.21316   0.21711   0.22142   0.22459   0.22567
 Alpha virt. eigenvalues --    0.22634   0.22911   0.23278   0.23466   0.23895
 Alpha virt. eigenvalues --    0.24027   0.24630   0.25074   0.25327   0.25682
 Alpha virt. eigenvalues --    0.25961   0.26140   0.26529   0.26853   0.26937
 Alpha virt. eigenvalues --    0.27289   0.27803   0.28019   0.28349   0.28692
 Alpha virt. eigenvalues --    0.29295   0.29384   0.29830   0.29934   0.30242
 Alpha virt. eigenvalues --    0.30368   0.30812   0.31055   0.31095   0.31844
 Alpha virt. eigenvalues --    0.31994   0.32500   0.32651   0.33505   0.33778
 Alpha virt. eigenvalues --    0.33943   0.34521   0.34860   0.35063   0.35146
 Alpha virt. eigenvalues --    0.35284   0.36031   0.36096   0.36550   0.36920
 Alpha virt. eigenvalues --    0.37116   0.37655   0.37940   0.38218   0.38545
 Alpha virt. eigenvalues --    0.39196   0.39393   0.39784   0.40201   0.41071
 Alpha virt. eigenvalues --    0.41374   0.41553   0.41630   0.42381   0.42559
 Alpha virt. eigenvalues --    0.43580   0.43993   0.45002   0.45211   0.45930
 Alpha virt. eigenvalues --    0.46962   0.48052   0.48294   0.49665   0.50769
 Alpha virt. eigenvalues --    0.51805   0.53845   0.56185   0.63465   0.64653
 Alpha virt. eigenvalues --    0.65263   0.66137   0.66774   0.68436   0.70299
 Alpha virt. eigenvalues --    0.70742   0.71760   0.72494   0.73808   0.74069
 Alpha virt. eigenvalues --    0.74776   0.75374   0.76030   0.77854   0.78050
 Alpha virt. eigenvalues --    0.79451   0.79773   0.80604   0.82217   0.82469
 Alpha virt. eigenvalues --    0.82833   0.84010   0.86874   0.87548   0.89677
 Alpha virt. eigenvalues --    0.90802   0.91573   0.92588   0.94199   0.95415
 Alpha virt. eigenvalues --    0.95953   0.96890   0.97070   0.98276   0.99493
 Alpha virt. eigenvalues --    1.00199   1.00986   1.01700   1.02365   1.03310
 Alpha virt. eigenvalues --    1.04031   1.04434   1.04903   1.04922   1.05552
 Alpha virt. eigenvalues --    1.06271   1.06655   1.07341   1.07968   1.09693
 Alpha virt. eigenvalues --    1.10045   1.10502   1.11795   1.12534   1.12616
 Alpha virt. eigenvalues --    1.14125   1.15689   1.18400   1.19938   1.21569
 Alpha virt. eigenvalues --    1.22495   1.23158   1.24111   1.24551   1.25060
 Alpha virt. eigenvalues --    1.25380   1.26243   1.26451   1.26982   1.28000
 Alpha virt. eigenvalues --    1.29101   1.29437   1.30162   1.30854   1.31269
 Alpha virt. eigenvalues --    1.31985   1.32119   1.32586   1.32999   1.33579
 Alpha virt. eigenvalues --    1.34186   1.35063   1.36030   1.37666   1.38596
 Alpha virt. eigenvalues --    1.39210   1.39556   1.41184   1.41846   1.42705
 Alpha virt. eigenvalues --    1.43579   1.44384   1.44594   1.46006   1.47438
 Alpha virt. eigenvalues --    1.48476   1.49097   1.50089   1.51219   1.52454
 Alpha virt. eigenvalues --    1.52900   1.53832   1.54536   1.55308   1.56174
 Alpha virt. eigenvalues --    1.57261   1.57522   1.59321   1.59563   1.59705
 Alpha virt. eigenvalues --    1.60486   1.61350   1.62036   1.63214   1.64009
 Alpha virt. eigenvalues --    1.65404   1.65741   1.66645   1.67738   1.68170
 Alpha virt. eigenvalues --    1.69017   1.69108   1.69951   1.70634   1.71998
 Alpha virt. eigenvalues --    1.72301   1.73392   1.74238   1.75161   1.75335
 Alpha virt. eigenvalues --    1.77021   1.77376   1.79705   1.79883   1.80795
 Alpha virt. eigenvalues --    1.81159   1.82342   1.83344   1.83996   1.85208
 Alpha virt. eigenvalues --    1.86437   1.86721   1.87964   1.88786   1.89444
 Alpha virt. eigenvalues --    1.90370   1.90896   1.92154   1.93127   1.93891
 Alpha virt. eigenvalues --    1.94569   1.95105   1.96918   1.97253   1.98000
 Alpha virt. eigenvalues --    1.99417   1.99809   2.00361   2.02293   2.02898
 Alpha virt. eigenvalues --    2.04355   2.04955   2.05275   2.06680   2.07102
 Alpha virt. eigenvalues --    2.08661   2.09819   2.10562   2.12113   2.13032
 Alpha virt. eigenvalues --    2.13711   2.14596   2.15581   2.16427   2.16769
 Alpha virt. eigenvalues --    2.17641   2.19372   2.20314   2.21512   2.23151
 Alpha virt. eigenvalues --    2.24188   2.24813   2.26023   2.27786   2.28318
 Alpha virt. eigenvalues --    2.30400   2.30494   2.31414   2.33822   2.34630
 Alpha virt. eigenvalues --    2.35011   2.35575   2.37836   2.38131   2.38898
 Alpha virt. eigenvalues --    2.40067   2.40773   2.42547   2.42947   2.43737
 Alpha virt. eigenvalues --    2.45021   2.45390   2.46512   2.46945   2.48893
 Alpha virt. eigenvalues --    2.49131   2.50711   2.51675   2.51955   2.53278
 Alpha virt. eigenvalues --    2.54736   2.55774   2.56419   2.58147   2.59329
 Alpha virt. eigenvalues --    2.59805   2.60725   2.61117   2.61845   2.62776
 Alpha virt. eigenvalues --    2.64296   2.64995   2.66209   2.68019   2.68884
 Alpha virt. eigenvalues --    2.69991   2.70301   2.71946   2.73675   2.74465
 Alpha virt. eigenvalues --    2.74563   2.76223   2.77007   2.77993   2.78663
 Alpha virt. eigenvalues --    2.80306   2.81823   2.82122   2.83655   2.84473
 Alpha virt. eigenvalues --    2.85616   2.85900   2.87161   2.87909   2.89018
 Alpha virt. eigenvalues --    2.89573   2.90773   2.91417   2.92123   2.94341
 Alpha virt. eigenvalues --    2.95099   2.95860   2.97060   2.98149   2.98723
 Alpha virt. eigenvalues --    2.99842   3.00258   3.04001   3.04288   3.06418
 Alpha virt. eigenvalues --    3.07075   3.08981   3.12862   3.13064   3.15353
 Alpha virt. eigenvalues --    3.17374   3.20774   3.22712   3.24606   3.29271
 Alpha virt. eigenvalues --    3.32839   3.38107   3.38958   3.39636   3.40147
 Alpha virt. eigenvalues --    3.42106   3.44206   3.44880   3.46285   3.49026
 Alpha virt. eigenvalues --    3.49677   3.49974   3.50888   3.52242   3.52853
 Alpha virt. eigenvalues --    3.53492   3.54753   3.58782   3.59142   3.59590
 Alpha virt. eigenvalues --    3.62248   3.64791   3.65902   4.25302   4.29918
 Alpha virt. eigenvalues --    4.31340   4.33731   4.38800   4.43374   4.44203
 Alpha virt. eigenvalues --    4.46150   4.47460   4.51444   4.52389   4.53574
 Alpha virt. eigenvalues --    4.56378   4.59634   4.60115   4.63570   4.72004
 Alpha virt. eigenvalues --    4.74905   4.80152   4.86659   4.93296   4.94423
 Alpha virt. eigenvalues --    4.96932
          Condensed to atoms (all electrons):
              1          2          3          4          5          6
     1  O    8.314833   0.221142   0.001705  -0.029390   0.032033   0.055871
     2  C    0.221142  10.929815  -0.643428   0.107829  -0.142715  -3.733164
     3  C    0.001705  -0.643428   8.448794   0.215328   0.105882  -2.405889
     4  O   -0.029390   0.107829   0.215328   8.272308   0.186550  -0.234487
     5  H    0.032033  -0.142715   0.105882   0.186550   0.472539  -0.044849
     6  C    0.055871  -3.733164  -2.405889  -0.234487  -0.044849  21.760995
     7  O   -0.001982   0.075510  -0.057088  -0.011206  -0.000428   0.137487
     8  H   -0.000108   0.017301   0.008099   0.007950  -0.000238  -0.033010
     9  C   -0.074894  -0.377849  -0.891505  -0.011381  -0.003275   1.290616
    10  O    0.000001  -0.015411   0.012039  -0.000033   0.000006  -0.011288
    11  H    0.002477   0.020616   0.016979  -0.000006   0.000000   0.001297
    12  C   -0.242793  -2.801396  -0.276112  -0.084389   0.041795   2.168721
    13  O    0.006713  -0.027740   0.008775  -0.001446   0.000236  -0.041315
    14  C    0.063663   1.910503   0.884007   0.132782   0.028275  -9.471698
    15  O    0.000440  -0.024890  -0.003318  -0.000952   0.000088   0.033013
    16  C    0.005009   0.213434   0.252187  -0.003802   0.002800  -1.395326
    17  C    0.000508  -0.016487   0.072608   0.000954   0.000079  -0.076002
    18  O    0.000055  -0.001757   0.001432  -0.000016   0.000000   0.060699
    19  H   -0.000002   0.002326  -0.001501   0.000000   0.000000   0.018449
    20  C    0.000122   0.014370   0.005125   0.000258   0.000009  -0.166259
    21  O    0.000000  -0.000122   0.000062   0.000000   0.000000   0.000424
    22  H    0.000000   0.000017  -0.000063   0.000000   0.000000   0.000360
    23  C    0.000468   0.024181   0.031357  -0.000635   0.000078  -0.222612
    24  O   -0.000006   0.001508   0.003880   0.000050  -0.000001   0.002127
    25  H    0.000002  -0.001155  -0.010277  -0.000035   0.000000   0.041923
    26  C   -0.000913  -0.040688   0.090920   0.002233  -0.000067  -1.677317
    27  O    0.000000  -0.000584   0.000973   0.000001   0.000000  -0.002000
    28  C   -0.000023   0.000262  -0.007060  -0.000051  -0.000002   0.078112
    29  O    0.000000  -0.000014  -0.000007   0.000000   0.000000  -0.000245
    30  H    0.214920  -0.009953  -0.041715  -0.003536   0.009186   0.006582
    31  H   -0.001249  -0.066560   0.010885  -0.000005  -0.000007   0.004144
    32  H   -0.000976  -0.004842   0.011737   0.000019   0.000000   0.010951
    33  H    0.007789   0.047610   0.099381   0.000851  -0.000025  -0.218783
    34  H   -0.042093   0.498374  -0.060793   0.001347  -0.000505  -0.096212
    35  H   -0.008325   0.121525   0.479305  -0.048281   0.000844  -0.436081
    36  H   -0.000483   0.039451  -0.024178   0.001787  -0.000209   0.423717
    37  H    0.000273   0.033640  -0.036109  -0.000644  -0.000004  -0.156269
    38  H    0.000000   0.000000  -0.000001   0.000000   0.000000   0.000000
    39  H    0.000000  -0.000001  -0.000014   0.000000   0.000000   0.000912
    40  H    0.000000   0.000288   0.000025   0.000000   0.000000   0.000921
    41  H    0.000000   0.000507  -0.000261   0.000000   0.000000   0.009120
    42  H    0.000000   0.003055  -0.003253   0.000012   0.000000   0.019301
    43  H    0.000000   0.000009  -0.000709   0.000000   0.000000   0.009281
    44  H    0.000000   0.000733   0.002662   0.000005   0.000000  -0.000481
    45  H    0.000000  -0.000008  -0.000347   0.000000   0.000000   0.002149
              7          8          9         10         11         12
     1  O   -0.001982  -0.000108  -0.074894   0.000001   0.002477  -0.242793
     2  C    0.075510   0.017301  -0.377849  -0.015411   0.020616  -2.801396
     3  C   -0.057088   0.008099  -0.891505   0.012039   0.016979  -0.276112
     4  O   -0.011206   0.007950  -0.011381  -0.000033  -0.000006  -0.084389
     5  H   -0.000428  -0.000238  -0.003275   0.000006   0.000000   0.041795
     6  C    0.137487  -0.033010   1.290616  -0.011288   0.001297   2.168721
     7  O    8.397545   0.212917   0.003925  -0.000020  -0.000003  -0.015129
     8  H    0.212917   0.378303  -0.000051   0.000001   0.000000  -0.001548
     9  C    0.003925  -0.000051   9.885833   0.265706   0.006059  -2.111958
    10  O   -0.000020   0.000001   0.265706   8.163884   0.238384  -0.104255
    11  H   -0.000003   0.000000   0.006059   0.238384   0.424110  -0.046815
    12  C   -0.015129  -0.001548  -2.111958  -0.104255  -0.046815  11.830400
    13  O    0.014428  -0.000782  -0.158619   0.005653  -0.001722   0.017776
    14  C   -0.100184   0.018830  -1.879779   0.038102  -0.004069  -1.713485
    15  O   -0.003282   0.000382  -0.008157  -0.000014  -0.000012   0.002083
    16  C   -0.004468  -0.002101  -0.418294  -0.001324   0.000099  -0.734079
    17  C   -0.000323  -0.001066  -0.099885  -0.000448  -0.000080  -0.347477
    18  O    0.000851   0.000004  -0.007129  -0.000135   0.000002  -0.010053
    19  H    0.000045   0.000000   0.000703  -0.000015   0.000000  -0.009745
    20  C    0.003707  -0.000186  -0.026938   0.000822  -0.000015  -0.108212
    21  O    0.000006   0.000000   0.000628  -0.000002   0.000000   0.001323
    22  H   -0.000001   0.000000   0.000646   0.000000   0.000000   0.000034
    23  C    0.018904  -0.002010  -0.030658   0.000051  -0.000003  -0.211809
    24  O   -0.014327   0.002764   0.000287   0.000000   0.000000   0.004075
    25  H   -0.003728  -0.000565  -0.000109   0.000000   0.000000  -0.001977
    26  C   -0.039952   0.002947  -0.049412  -0.000066   0.000009   0.175371
    27  O   -0.000050   0.000001  -0.000048   0.000000   0.000000   0.001067
    28  C   -0.002279   0.000076   0.019064  -0.000088   0.000002   0.045718
    29  O    0.000005   0.000000  -0.000027   0.000000   0.000000  -0.000039
    30  H   -0.000126   0.000000   0.021484  -0.000227  -0.000340   0.050712
    31  H   -0.000020   0.000000   0.351591  -0.059033  -0.006679   0.079990
    32  H   -0.000020   0.000000   0.572817  -0.058581   0.007419  -0.170607
    33  H   -0.001202   0.000035  -0.273095   0.008387   0.000018   0.176704
    34  H   -0.000059   0.000005  -0.093968   0.001651  -0.000541  -0.137409
    35  H    0.005438  -0.002344  -0.004770   0.000012  -0.000001  -0.098594
    36  H   -0.038285  -0.000716   0.004660   0.000022   0.000000  -0.006925
    37  H    0.013362  -0.000014   0.004140   0.000067   0.000000   0.003371
    38  H    0.000000   0.000000   0.000001   0.000000   0.000000   0.000009
    39  H    0.000012   0.000000   0.000018   0.000000   0.000000  -0.000042
    40  H    0.000066   0.000000  -0.001058   0.000000   0.000000  -0.000376
    41  H    0.000035   0.000000  -0.000002   0.000001   0.000000  -0.000683
    42  H   -0.000744  -0.000002  -0.001267   0.000006   0.000000   0.010641
    43  H   -0.000100   0.000000   0.000128   0.000000   0.000000   0.000768
    44  H   -0.000280  -0.000020  -0.000274   0.000000   0.000000  -0.004832
    45  H   -0.000037   0.000001  -0.000004   0.000000   0.000000  -0.000079
             13         14         15         16         17         18
     1  O    0.006713   0.063663   0.000440   0.005009   0.000508   0.000055
     2  C   -0.027740   1.910503  -0.024890   0.213434  -0.016487  -0.001757
     3  C    0.008775   0.884007  -0.003318   0.252187   0.072608   0.001432
     4  O   -0.001446   0.132782  -0.000952  -0.003802   0.000954  -0.000016
     5  H    0.000236   0.028275   0.000088   0.002800   0.000079   0.000000
     6  C   -0.041315  -9.471698   0.033013  -1.395326  -0.076002   0.060699
     7  O    0.014428  -0.100184  -0.003282  -0.004468  -0.000323   0.000851
     8  H   -0.000782   0.018830   0.000382  -0.002101  -0.001066   0.000004
     9  C   -0.158619  -1.879779  -0.008157  -0.418294  -0.099885  -0.007129
    10  O    0.005653   0.038102  -0.000014  -0.001324  -0.000448  -0.000135
    11  H   -0.001722  -0.004069  -0.000012   0.000099  -0.000080   0.000002
    12  C    0.017776  -1.713485   0.002083  -0.734079  -0.347477  -0.010053
    13  O    8.272024   0.344251   0.047129  -0.122616   0.016282  -0.017371
    14  C    0.344251  19.955077   0.369931  -1.866492  -1.556498  -0.024177
    15  O    0.047129   0.369931   8.267387  -0.040226  -0.061289   0.001827
    16  C   -0.122616  -1.866492  -0.040226  23.235105  -4.155511  -0.213914
    17  C    0.016282  -1.556498  -0.061289  -4.155511  12.510326   0.252741
    18  O   -0.017371  -0.024177   0.001827  -0.213914   0.252741   8.107509
    19  H   -0.007762   0.058717  -0.003873  -0.048683   0.000904   0.270069
    20  C   -0.006635  -0.421536   0.024546  -2.421705  -0.957124   0.190627
    21  O    0.000109  -0.004466  -0.000580  -0.128899   0.098314  -0.035749
    22  H    0.000084   0.011892   0.000239   0.069301  -0.196540   0.042839
    23  C   -0.006144  -1.391441  -0.152898   0.656164   0.253464   0.016344
    24  O   -0.000168   0.000669   0.011003   0.101899   0.015076   0.000309
    25  H   -0.000561  -0.070884   0.003454   0.105179   0.032099   0.000000
    26  C    0.053391  -0.780969  -0.025975  -9.999630   0.984028  -0.088444
    27  O    0.000981  -0.034343   0.005891  -0.199186  -0.012094  -0.004204
    28  C    0.000439   0.661390   0.030774   2.222647  -0.891674   0.009968
    29  O   -0.000001  -0.005893   0.000143  -0.040846   0.118141  -0.001719
    30  H   -0.000372  -0.011130   0.000002   0.000070  -0.000008   0.000000
    31  H    0.007913  -0.020329  -0.000003  -0.003580  -0.000930  -0.000111
    32  H   -0.010641  -0.029261  -0.000058  -0.003229  -0.000048   0.000073
    33  H   -0.059235   0.341785   0.003140   0.063574   0.001612   0.001512
    34  H    0.000492   0.172683  -0.000110   0.005349   0.001183   0.000015
    35  H    0.004210   0.209207  -0.001140   0.012012   0.001601   0.000024
    36  H    0.008808  -0.179143  -0.004085   0.034050   0.004117   0.000051
    37  H   -0.050857   0.330222  -0.087480   0.087811  -0.021177   0.004097
    38  H    0.000000   0.001096   0.000007   0.014444  -0.019309   0.000059
    39  H    0.000020  -0.000538  -0.000099   0.109348  -0.000413   0.000586
    40  H    0.000361  -0.050662  -0.004203   0.130059  -0.024497  -0.024790
    41  H   -0.000255   0.028067  -0.006737   0.013979   0.383565  -0.041953
    42  H    0.001295   0.020607  -0.073490   0.372043  -0.084122   0.001293
    43  H   -0.000118   0.045174   0.002345   0.216298   0.053536   0.000651
    44  H   -0.000318  -0.020602  -0.012618  -0.156488   0.010963   0.000031
    45  H   -0.000041  -0.014872  -0.002376   0.143007   0.008705   0.000036
             19         20         21         22         23         24
     1  O   -0.000002   0.000122   0.000000   0.000000   0.000468  -0.000006
     2  C    0.002326   0.014370  -0.000122   0.000017   0.024181   0.001508
     3  C   -0.001501   0.005125   0.000062  -0.000063   0.031357   0.003880
     4  O    0.000000   0.000258   0.000000   0.000000  -0.000635   0.000050
     5  H    0.000000   0.000009   0.000000   0.000000   0.000078  -0.000001
     6  C    0.018449  -0.166259   0.000424   0.000360  -0.222612   0.002127
     7  O    0.000045   0.003707   0.000006  -0.000001   0.018904  -0.014327
     8  H    0.000000  -0.000186   0.000000   0.000000  -0.002010   0.002764
     9  C    0.000703  -0.026938   0.000628   0.000646  -0.030658   0.000287
    10  O   -0.000015   0.000822  -0.000002   0.000000   0.000051   0.000000
    11  H    0.000000  -0.000015   0.000000   0.000000  -0.000003   0.000000
    12  C   -0.009745  -0.108212   0.001323   0.000034  -0.211809   0.004075
    13  O   -0.007762  -0.006635   0.000109   0.000084  -0.006144  -0.000168
    14  C    0.058717  -0.421536  -0.004466   0.011892  -1.391441   0.000669
    15  O   -0.003873   0.024546  -0.000580   0.000239  -0.152898   0.011003
    16  C   -0.048683  -2.421705  -0.128899   0.069301   0.656164   0.101899
    17  C    0.000904  -0.957124   0.098314  -0.196540   0.253464   0.015076
    18  O    0.270069   0.190627  -0.035749   0.042839   0.016344   0.000309
    19  H    0.389314  -0.015972  -0.003671  -0.001798   0.000467   0.000012
    20  C   -0.015972  10.385948   0.312976   0.080496   0.962140  -0.002137
    21  O   -0.003671   0.312976   8.236309   0.185377  -0.003364  -0.000040
    22  H   -0.001798   0.080496   0.185377   0.434283   0.000042   0.000002
    23  C    0.000467   0.962140  -0.003364   0.000042   9.634089   0.352641
    24  O    0.000012  -0.002137  -0.000040   0.000002   0.352641   8.151754
    25  H    0.000000   0.000984  -0.000007   0.000000  -0.005206   0.248380
    26  C   -0.028499   1.172121   0.110060  -0.030444  -3.247906  -0.322033
    27  O   -0.000454  -0.165328   0.005164  -0.000112  -0.128380   0.011664
    28  C    0.006310  -2.371910  -0.309231   0.060349  -1.026852   0.007098
    29  O   -0.000069  -0.247358   0.009030  -0.001044   0.006115  -0.000031
    30  H    0.000000   0.000002   0.000000   0.000000  -0.000003   0.000000
    31  H    0.000015   0.000157   0.000000   0.000000  -0.000021   0.000000
    32  H    0.000753  -0.002255  -0.000003   0.000002  -0.000158   0.000000
    33  H   -0.000073   0.003710  -0.000006   0.000000   0.003176   0.000002
    34  H    0.000000   0.000082   0.000000   0.000000   0.000538   0.000001
    35  H    0.000001   0.000281   0.000000   0.000000   0.000895   0.000038
    36  H    0.000000   0.000449   0.000000   0.000000   0.009488   0.000455
    37  H    0.000055   0.017759   0.000010   0.000003   0.012714   0.000022
    38  H    0.000000   0.056956  -0.001197   0.000019   0.003744  -0.000014
    39  H    0.000008  -0.192675   0.010269  -0.000352   0.000733   0.000093
    40  H    0.005943   0.186419  -0.051402  -0.004739   0.005133   0.000067
    41  H    0.006279  -0.108661   0.003050  -0.000900  -0.008764   0.000026
    42  H    0.002529  -0.021760  -0.000555   0.000020  -0.083020   0.004649
    43  H   -0.000001  -0.106284  -0.000224  -0.000012  -0.127527   0.012111
    44  H    0.000000   0.003106  -0.000003   0.000000   0.455769  -0.060238
    45  H    0.000000   0.003969  -0.000009   0.000000   0.577808  -0.053132
             25         26         27         28         29         30
     1  O    0.000002  -0.000913   0.000000  -0.000023   0.000000   0.214920
     2  C   -0.001155  -0.040688  -0.000584   0.000262  -0.000014  -0.009953
     3  C   -0.010277   0.090920   0.000973  -0.007060  -0.000007  -0.041715
     4  O   -0.000035   0.002233   0.000001  -0.000051   0.000000  -0.003536
     5  H    0.000000  -0.000067   0.000000  -0.000002   0.000000   0.009186
     6  C    0.041923  -1.677317  -0.002000   0.078112  -0.000245   0.006582
     7  O   -0.003728  -0.039952  -0.000050  -0.002279   0.000005  -0.000126
     8  H   -0.000565   0.002947   0.000001   0.000076   0.000000   0.000000
     9  C   -0.000109  -0.049412  -0.000048   0.019064  -0.000027   0.021484
    10  O    0.000000  -0.000066   0.000000  -0.000088   0.000000  -0.000227
    11  H    0.000000   0.000009   0.000000   0.000002   0.000000  -0.000340
    12  C   -0.001977   0.175371   0.001067   0.045718  -0.000039   0.050712
    13  O   -0.000561   0.053391   0.000981   0.000439  -0.000001  -0.000372
    14  C   -0.070884  -0.780969  -0.034343   0.661390  -0.005893  -0.011130
    15  O    0.003454  -0.025975   0.005891   0.030774   0.000143   0.000002
    16  C    0.105179  -9.999630  -0.199186   2.222647  -0.040846   0.000070
    17  C    0.032099   0.984028  -0.012094  -0.891674   0.118141  -0.000008
    18  O    0.000000  -0.088444  -0.004204   0.009968  -0.001719   0.000000
    19  H    0.000000  -0.028499  -0.000454   0.006310  -0.000069   0.000000
    20  C    0.000984   1.172121  -0.165328  -2.371910  -0.247358   0.000002
    21  O   -0.000007   0.110060   0.005164  -0.309231   0.009030   0.000000
    22  H    0.000000  -0.030444  -0.000112   0.060349  -0.001044   0.000000
    23  C   -0.005206  -3.247906  -0.128380  -1.026852   0.006115  -0.000003
    24  O    0.248380  -0.322033   0.011664   0.007098  -0.000031   0.000000
    25  H    0.375521  -0.081225  -0.003512  -0.004728  -0.000002   0.000000
    26  C   -0.081225  21.439215   0.501943  -2.116661  -0.082563   0.000005
    27  O   -0.003512   0.501943   8.354668   0.161953  -0.029169   0.000000
    28  C   -0.004728  -2.116661   0.161953   8.034476   0.443262   0.000000
    29  O   -0.000002  -0.082563  -0.029169   0.443262   8.154928   0.000000
    30  H    0.000000   0.000005   0.000000   0.000000   0.000000   0.427607
    31  H    0.000000   0.000089   0.000000  -0.000026   0.000000   0.000135
    32  H    0.000000   0.000071   0.000001   0.000303   0.000000  -0.000006
    33  H   -0.000002  -0.002953  -0.000004  -0.000672   0.000000  -0.000384
    34  H    0.000000  -0.000888   0.000000  -0.000015   0.000000  -0.010839
    35  H   -0.000004   0.000315   0.000000  -0.000060   0.000000   0.000219
    36  H   -0.000020  -0.015496  -0.000017  -0.000222   0.000000   0.000011
    37  H   -0.000317   0.031579  -0.001290  -0.004781   0.000005   0.000000
    38  H    0.000000  -0.002314  -0.003544  -0.038805   0.237848   0.000000
    39  H   -0.000003  -0.110391  -0.069181   0.496902  -0.054062   0.000000
    40  H    0.000011   0.057308   0.002470  -0.040692  -0.001976   0.000000
    41  H    0.000000  -0.075049   0.003467   0.041695  -0.001057   0.000000
    42  H   -0.001048  -0.009597  -0.005677   0.049639  -0.001303   0.000000
    43  H    0.000012   0.038277  -0.056552   0.108761  -0.000408   0.000000
    44  H   -0.001615   0.075093   0.006514   0.005777  -0.000007   0.000000
    45  H    0.005299  -0.316344  -0.005689  -0.023786   0.000132   0.000000
             31         32         33         34         35         36
     1  O   -0.001249  -0.000976   0.007789  -0.042093  -0.008325  -0.000483
     2  C   -0.066560  -0.004842   0.047610   0.498374   0.121525   0.039451
     3  C    0.010885   0.011737   0.099381  -0.060793   0.479305  -0.024178
     4  O   -0.000005   0.000019   0.000851   0.001347  -0.048281   0.001787
     5  H   -0.000007   0.000000  -0.000025  -0.000505   0.000844  -0.000209
     6  C    0.004144   0.010951  -0.218783  -0.096212  -0.436081   0.423717
     7  O   -0.000020  -0.000020  -0.001202  -0.000059   0.005438  -0.038285
     8  H    0.000000   0.000000   0.000035   0.000005  -0.002344  -0.000716
     9  C    0.351591   0.572817  -0.273095  -0.093968  -0.004770   0.004660
    10  O   -0.059033  -0.058581   0.008387   0.001651   0.000012   0.000022
    11  H   -0.006679   0.007419   0.000018  -0.000541  -0.000001   0.000000
    12  C    0.079990  -0.170607   0.176704  -0.137409  -0.098594  -0.006925
    13  O    0.007913  -0.010641  -0.059235   0.000492   0.004210   0.008808
    14  C   -0.020329  -0.029261   0.341785   0.172683   0.209207  -0.179143
    15  O   -0.000003  -0.000058   0.003140  -0.000110  -0.001140  -0.004085
    16  C   -0.003580  -0.003229   0.063574   0.005349   0.012012   0.034050
    17  C   -0.000930  -0.000048   0.001612   0.001183   0.001601   0.004117
    18  O   -0.000111   0.000073   0.001512   0.000015   0.000024   0.000051
    19  H    0.000015   0.000753  -0.000073   0.000000   0.000001   0.000000
    20  C    0.000157  -0.002255   0.003710   0.000082   0.000281   0.000449
    21  O    0.000000  -0.000003  -0.000006   0.000000   0.000000   0.000000
    22  H    0.000000   0.000002   0.000000   0.000000   0.000000   0.000000
    23  C   -0.000021  -0.000158   0.003176   0.000538   0.000895   0.009488
    24  O    0.000000   0.000000   0.000002   0.000001   0.000038   0.000455
    25  H    0.000000   0.000000  -0.000002   0.000000  -0.000004  -0.000020
    26  C    0.000089   0.000071  -0.002953  -0.000888   0.000315  -0.015496
    27  O    0.000000   0.000001  -0.000004   0.000000   0.000000  -0.000017
    28  C   -0.000026   0.000303  -0.000672  -0.000015  -0.000060  -0.000222
    29  O    0.000000   0.000000   0.000000   0.000000   0.000000   0.000000
    30  H    0.000135  -0.000006  -0.000384  -0.010839   0.000219   0.000011
    31  H    0.607418  -0.043288  -0.005297  -0.000061   0.000024   0.000001
    32  H   -0.043288   0.584920  -0.002672  -0.000043  -0.000012   0.000001
    33  H   -0.005297  -0.002672   0.678204   0.006787   0.005231   0.000220
    34  H   -0.000061  -0.000043   0.006787   0.585624   0.005009   0.001713
    35  H    0.000024  -0.000012   0.005231   0.005009   0.591036   0.005218
    36  H    0.000001   0.000001   0.000220   0.001713   0.005218   0.569126
    37  H   -0.000047  -0.000073   0.012997  -0.000047   0.001772   0.005717
    38  H    0.000000   0.000000   0.000000   0.000000   0.000000   0.000000
    39  H    0.000000   0.000000   0.000000   0.000000   0.000000   0.000000
    40  H    0.000000   0.000000   0.000000   0.000000   0.000000   0.000000
    41  H    0.000000   0.000000  -0.000001   0.000000   0.000000  -0.000001
    42  H    0.000000  -0.000004  -0.000174   0.000000  -0.000005  -0.000028
    43  H    0.000000   0.000000   0.000000   0.000000   0.000000  -0.000002
    44  H    0.000000   0.000000   0.000000   0.000000   0.000000  -0.000080
    45  H    0.000000   0.000000   0.000000   0.000000   0.000000   0.000000
             37         38         39         40         41         42
     1  O    0.000273   0.000000   0.000000   0.000000   0.000000   0.000000
     2  C    0.033640   0.000000  -0.000001   0.000288   0.000507   0.003055
     3  C   -0.036109  -0.000001  -0.000014   0.000025  -0.000261  -0.003253
     4  O   -0.000644   0.000000   0.000000   0.000000   0.000000   0.000012
     5  H   -0.000004   0.000000   0.000000   0.000000   0.000000   0.000000
     6  C   -0.156269   0.000000   0.000912   0.000921   0.009120   0.019301
     7  O    0.013362   0.000000   0.000012   0.000066   0.000035  -0.000744
     8  H   -0.000014   0.000000   0.000000   0.000000   0.000000  -0.000002
     9  C    0.004140   0.000001   0.000018  -0.001058  -0.000002  -0.001267
    10  O    0.000067   0.000000   0.000000   0.000000   0.000001   0.000006
    11  H    0.000000   0.000000   0.000000   0.000000   0.000000   0.000000
    12  C    0.003371   0.000009  -0.000042  -0.000376  -0.000683   0.010641
    13  O   -0.050857   0.000000   0.000020   0.000361  -0.000255   0.001295
    14  C    0.330222   0.001096  -0.000538  -0.050662   0.028067   0.020607
    15  O   -0.087480   0.000007  -0.000099  -0.004203  -0.006737  -0.073490
    16  C    0.087811   0.014444   0.109348   0.130059   0.013979   0.372043
    17  C   -0.021177  -0.019309  -0.000413  -0.024497   0.383565  -0.084122
    18  O    0.004097   0.000059   0.000586  -0.024790  -0.041953   0.001293
    19  H    0.000055   0.000000   0.000008   0.005943   0.006279   0.002529
    20  C    0.017759   0.056956  -0.192675   0.186419  -0.108661  -0.021760
    21  O    0.000010  -0.001197   0.010269  -0.051402   0.003050  -0.000555
    22  H    0.000003   0.000019  -0.000352  -0.004739  -0.000900   0.000020
    23  C    0.012714   0.003744   0.000733   0.005133  -0.008764  -0.083020
    24  O    0.000022  -0.000014   0.000093   0.000067   0.000026   0.004649
    25  H   -0.000317   0.000000  -0.000003   0.000011   0.000000  -0.001048
    26  C    0.031579  -0.002314  -0.110391   0.057308  -0.075049  -0.009597
    27  O   -0.001290  -0.003544  -0.069181   0.002470   0.003467  -0.005677
    28  C   -0.004781  -0.038805   0.496902  -0.040692   0.041695   0.049639
    29  O    0.000005   0.237848  -0.054062  -0.001976  -0.001057  -0.001303
    30  H    0.000000   0.000000   0.000000   0.000000   0.000000   0.000000
    31  H   -0.000047   0.000000   0.000000   0.000000   0.000000   0.000000
    32  H   -0.000073   0.000000   0.000000   0.000000   0.000000  -0.000004
    33  H    0.012997   0.000000   0.000000   0.000000  -0.000001  -0.000174
    34  H   -0.000047   0.000000   0.000000   0.000000   0.000000   0.000000
    35  H    0.001772   0.000000   0.000000   0.000000   0.000000  -0.000005
    36  H    0.005717   0.000000   0.000000   0.000000  -0.000001  -0.000028
    37  H    0.696675   0.000000  -0.000001  -0.000264  -0.000049   0.017257
    38  H    0.000000   0.412644  -0.011510  -0.000151   0.000007   0.000004
    39  H   -0.000001  -0.011510   0.692053   0.008473   0.004508   0.000303
    40  H   -0.000264  -0.000151   0.008473   0.666482   0.007381   0.005223
    41  H   -0.000049   0.000007   0.004508   0.007381   0.572963   0.006672
    42  H    0.017257   0.000004   0.000303   0.005223   0.006672   0.654527
    43  H   -0.000090  -0.000088   0.016639   0.000570   0.004883   0.007884
    44  H    0.000042   0.000000  -0.000039   0.000001   0.000021   0.000634
    45  H    0.000001  -0.000002  -0.000035   0.000002  -0.000016  -0.000182
             43         44         45
     1  O    0.000000   0.000000   0.000000
     2  C    0.000009   0.000733  -0.000008
     3  C   -0.000709   0.002662  -0.000347
     4  O    0.000000   0.000005   0.000000
     5  H    0.000000   0.000000   0.000000
     6  C    0.009281  -0.000481   0.002149
     7  O   -0.000100  -0.000280  -0.000037
     8  H    0.000000  -0.000020   0.000001
     9  C    0.000128  -0.000274  -0.000004
    10  O    0.000000   0.000000   0.000000
    11  H    0.000000   0.000000   0.000000
    12  C    0.000768  -0.004832  -0.000079
    13  O   -0.000118  -0.000318  -0.000041
    14  C    0.045174  -0.020602  -0.014872
    15  O    0.002345  -0.012618  -0.002376
    16  C    0.216298  -0.156488   0.143007
    17  C    0.053536   0.010963   0.008705
    18  O    0.000651   0.000031   0.000036
    19  H   -0.000001   0.000000   0.000000
    20  C   -0.106284   0.003106   0.003969
    21  O   -0.000224  -0.000003  -0.000009
    22  H   -0.000012   0.000000   0.000000
    23  C   -0.127527   0.455769   0.577808
    24  O    0.012111  -0.060238  -0.053132
    25  H    0.000012  -0.001615   0.005299
    26  C    0.038277   0.075093  -0.316344
    27  O   -0.056552   0.006514  -0.005689
    28  C    0.108761   0.005777  -0.023786
    29  O   -0.000408  -0.000007   0.000132
    30  H    0.000000   0.000000   0.000000
    31  H    0.000000   0.000000   0.000000
    32  H    0.000000   0.000000   0.000000
    33  H    0.000000   0.000000   0.000000
    34  H    0.000000   0.000000   0.000000
    35  H    0.000000   0.000000   0.000000
    36  H   -0.000002  -0.000080   0.000000
    37  H   -0.000090   0.000042   0.000001
    38  H   -0.000088   0.000000  -0.000002
    39  H    0.016639  -0.000039  -0.000035
    40  H    0.000570   0.000001   0.000002
    41  H    0.004883   0.000021  -0.000016
    42  H    0.007884   0.000634  -0.000182
    43  H    0.675236  -0.000677  -0.005317
    44  H   -0.000677   0.596870  -0.049962
    45  H   -0.005317  -0.049962   0.599795
 Mulliken atomic charges:
              1
     1  O   -0.524789
     2  C   -0.375241
     3  C   -0.300520
     4  O   -0.499968
     5  H    0.311924
     6  C    0.286112
     7  O   -0.588923
     8  H    0.395144
     9  C    0.096099
    10  O   -0.483854
    11  H    0.342815
    12  C    0.630263
    13  O   -0.296649
    14  C    0.025519
    15  O   -0.285960
    16  C   -0.105470
    17  C   -0.297806
    18  O   -0.492183
    19  H    0.359219
    20  C   -0.084192
    21  O   -0.433580
    22  H    0.350000
    23  C   -0.377093
    24  O   -0.480536
    25  H    0.374115
    26  C    0.410818
    27  O   -0.335343
    28  C    0.354643
    29  O   -0.501768
    30  H    0.347701
    31  H    0.144885
    32  H    0.137712
    33  H    0.101851
    34  H    0.162728
    35  H    0.155401
    36  H    0.160828
    37  H    0.085923
    38  H    0.350096
    39  H    0.098479
    40  H    0.127608
    41  H    0.158161
    42  H    0.108638
    43  H    0.105547
    44  H    0.150313
    45  H    0.131331
 Sum of Mulliken atomic charges =   0.00000
 Mulliken charges with hydrogens summed into heavy atoms:
              1
     1  O   -0.177088
     2  C   -0.212513
     3  C   -0.145119
     4  O   -0.188044
     6  C    0.446941
     7  O   -0.193778
     9  C    0.378695
    10  O   -0.141040
    12  C    0.732114
    13  O   -0.296649
    14  C    0.111442
    15  O   -0.285960
    16  C    0.003168
    17  C   -0.139645
    18  O   -0.132964
    20  C    0.043416
    21  O   -0.083579
    23  C   -0.095449
    24  O   -0.106420
    26  C    0.516365
    27  O   -0.335343
    28  C    0.453122
    29  O   -0.151671
 Sum of Mulliken charges with hydrogens summed into heavy atoms =   0.00000
 APT atomic charges:
              1
     1  O   -0.639293
     2  C    0.387535
     3  C    0.409007
     4  O   -0.641707
     5  H    0.250893
     6  C    0.345809
     7  O   -0.644398
     8  H    0.274959
     9  C    0.467767
    10  O   -0.595292
    11  H    0.251409
    12  C    0.410392
    13  O   -0.789317
    14  C    0.928898
    15  O   -0.838318
    16  C    0.406720
    17  C    0.362806
    18  O   -0.618935
    19  H    0.253740
    20  C    0.347815
    21  O   -0.580552
    22  H    0.275788
    23  C    0.452614
    24  O   -0.637909
    25  H    0.311417
    26  C    0.398001
    27  O   -0.789106
    28  C    0.949962
    29  O   -0.674188
    30  H    0.248668
    31  H   -0.044168
    32  H   -0.021884
    33  H   -0.046506
    34  H   -0.033558
    35  H   -0.043667
    36  H   -0.022023
    37  H   -0.048533
    38  H    0.266663
    39  H   -0.084846
    40  H   -0.070122
    41  H   -0.015286
    42  H   -0.024407
    43  H   -0.053464
    44  H   -0.010248
    45  H   -0.033135
[...]
 046480,0.00020048,-0.00180009,0.00165103,-0.00796987,-0.02706172,0.012
 31204,0.01450415,-0.22324172,0.13795268,-0.05569716,0.00725797,-0.0090
 9963,0.00214353,0.00170695,0.00087904,0.00115022,-0.00011262,0.0005853
 5,-0.00008145,0.00024469,-0.00084243,0.00078766,-0.00008588,-0.0001344
 7,0.00011164,-0.00003810,0.00003812,0.00001023,-0.00012739,0.00137276,
 -0.00058456,0.00091406,-0.00067215,0.00041183,-0.00064722,-0.00081633,
 0.00045682,-0.01561240,0.01129368,-0.00842710,0.00260903,0.00026590,0.
 00381066,0.00020579,-0.00018708,0.00002276,0.00009843,-0.00007341,0.00
 003938,0.00000008,0.00000599,0.00000849,0.00002012,0.00001384,0.000004
 51,-0.00000076,0.00001008,-0.00001313,0.00008489,-0.00000719,0.0000405
 9,0.00000527,-0.00000149,-0.00001275,0.00003582,-0.00001630,0.00003270
 ,0.00019228,0.00028729,-0.00043498,0.00334865,-0.00089590,-0.00080336,
 -0.00001795,0.00005174,0.00001320,-0.00024353,-0.00011416,0.00023422,0
 .00027397,-0.00094895,0.00035605,-0.00057798,-0.00191516,0.00101113,0.
 25187186,0.00000157,-0.00001817,0.00004868,-0.00000851,0.00002633,-0.0
 0003094,0.00005451,0.00009721,-0.00008361,-0.00002535,-0.00005945,0.00
 002546,0.00000619,0.00001068,-0.00001093,-0.00088507,0.00068300,0.0001
 7100,0.00000832,-0.00023512,-0.00014456,-0.00001083,-0.00000006,-0.000
 01424,0.00000078,-0.00006603,-0.00004809,-0.00001443,0.00006363,0.0000
 5253,0.00000111,-0.00000462,-0.00000813,-0.00000822,-0.00004521,-0.000
 20939,-0.00004510,0.00017341,0.00037681,0.00037235,0.00173639,0.004314
 44,0.00405582,0.00158194,-0.00288356,0.13969274,-0.15443345,0.04061324
 ,0.02465188,-0.02543978,0.01426912,0.00020498,0.00381871,-0.00060093,-
 0.00104946,-0.00063880,-0.00043843,0.00282620,-0.00115100,-0.00117636,
 -0.00072744,0.00086348,-0.00061732,0.00025737,-0.00012336,0.00012141,-
 0.00017209,0.00063518,0.00002177,0.00044258,-0.00024216,0.00034888,-0.
 00048280,-0.00046063,0.00014758,-0.01271993,0.01067591,-0.00701566,-0.
 00134856,0.00122657,0.00169383,-0.00004128,0.00025605,-0.00011954,0.00
 001521,0.00002273,0.00002648,0.00000228,-0.00000277,-0.00000345,-0.000
 00005,0.00000956,0.00000150,-0.00001182,-0.00002316,0.00000345,-0.0000
 4434,0.00004516,-0.00002356,-0.00000630,-0.00000730,0.00001190,-0.0000
 0525,0.00000824,-0.00000250,-0.00006978,-0.00023903,0.00024000,-0.0013
 1159,0.00162478,0.00023441,-0.00001010,0.00000609,0.00001245,0.0000145
 6,-0.00015220,-0.00017388,-0.00124849,0.00121754,0.00014963,-0.0028453
 2,-0.00433850,0.00221100,-0.14817033,0.16448216,0.00000205,-0.00001797
 ,0.00002918,0.00000098,0.00000572,-0.00001692,0.00005558,-0.00000450,0
 .00002094,-0.00003631,-0.00000222,0.00002728,-0.00000305,0.00000878,-0
 .00000370,0.00063185,-0.00033329,-0.00059685,-0.00016317,0.00002462,0.
 00010674,-0.00002418,0.00001523,0.00002013,-0.00008230,-0.00001464,-0.
 00002642,0.00001963,0.00004489,0.00003234,-0.00000399,-0.00000390,-0.0
 0001061,-0.00012548,-0.00000453,-0.00024457,-0.00119522,0.00048345,0.0
 0040870,0.01303655,-0.00496011,-0.00677922,0.02798047,-0.01244593,-0.0
 1450177,-0.06326079,0.04523199,-0.05032717,-0.00794088,0.00715069,-0.0
 0170016,0.00102553,-0.00058360,0.00034531,0.00014425,0.00014993,0.0004
 0135,-0.00062197,0.00205442,-0.00050405,0.00004981,-0.00063952,0.00002
 121,-0.00010832,0.00003068,0.00006944,0.00007130,0.00066282,-0.0002253
 7,0.00050899,-0.00059042,0.00040052,-0.00017729,-0.00017399,0.00033893
 ,-0.01953402,0.01291887,-0.00959251,-0.00065745,-0.00010977,0.00154322
 ,-0.00013966,0.00074515,-0.00081298,0.00003233,-0.00009953,-0.00001376
 ,0.00000107,-0.00000092,-0.00000197,-0.00000386,-0.00000340,-0.0000018
 7,-0.00000195,-0.00000454,-0.00000727,-0.00008090,0.00003469,-0.000077
 79,0.00000212,0.00000124,0.00001898,-0.00004203,0.00001913,-0.00004137
 ,-0.00017868,0.00015299,-0.00007945,-0.00030651,0.00048142,-0.00558736
 ,-0.00000816,0.00003695,-0.00003053,0.00043561,-0.00029370,0.00035611,
 0.00097475,0.00039758,-0.00027488,0.00101303,0.00135999,-0.00024667,0.
 05059658,-0.04911867,0.09035707,-0.00000258,0.00000968,-0.00003354,0.0
 0000059,-0.00001193,0.00003722,0.00002133,0.00003266,0.00006477,0.0000
 1217,0.00002805,-0.00005555,-0.00000144,0.00000351,-0.00000064,0.00001
 391,-0.00030859,-0.00011851,0.00007997,0.00021228,0.00015891,-0.000022
 31,-0.00001458,-0.00000933,0.00000373,0.00005493,-0.00001028,-0.000002
 18,-0.00003647,-0.00001676,0.00000087,0.00000542,0.00000664,0.00005792
 ,-0.00003979,0.00006546,-0.00009907,-0.00011272,-0.00025912,0.00013544
 ,0.00006909,-0.00024481,-0.00009128,-0.00013210,-0.00131544,-0.0113685
 5,0.01171717,-0.01340859,-0.00055565,0.00137407,-0.00087678,0.00071350
 ,-0.00015081,0.00040626,0.00019253,0.00017980,0.00005253,-0.00015486,-
 0.00035670,0.00028895,0.00000181,-0.00030838,-0.00003559,-0.00007494,-
 0.00003041,0.00000620,0.01138588,-0.01781766,0.00996642,-0.00276257,-0
 .00449719,0.00240600,-0.00060157,-0.00008793,-0.00025920,-0.10921947,0
 .09983322,-0.07140955,-0.02862469,0.02103492,0.00583911,-0.00368303,0.
 00770229,-0.00116157,0.00093527,-0.00117966,-0.00011542,-0.00000033,0.
 00000341,0.00000215,-0.00000794,-0.00001160,-0.00000095,-0.00000148,0.
 00000186,0.00000112,0.00000887,-0.00000110,0.00000636,0.00000060,0.000
 00062,-0.00000441,-0.00000348,-0.00000313,-0.00000547,0.00000886,0.000
 04637,-0.00002424,0.00022563,-0.00010878,-0.00000559,-0.00003450,0.000
 23782,0.00008279,0.00029012,-0.00179064,0.00220354,0.00057082,0.000101
 09,0.00017668,0.00006657,-0.00100087,0.00015058,-0.00136649,-0.0014253
 4,-0.00192201,0.14231136,0.00001145,0.00002090,0.00001761,-0.00000315,
 -0.00002174,-0.00000128,0.00000856,0.00002562,0.00000587,-0.00000919,0
 .00001682,0.00001528,0.00000549,-0.00000076,-0.00000422,0.00010907,-0.
 00025625,-0.00007653,0.00003610,0.00018837,0.00019263,-0.00000842,-0.0
 0000635,-0.00001725,0.00001200,-0.00001565,-0.00001921,-0.00001078,0.0
 0001434,0.00001201,0.00000300,-0.00000529,-0.00000045,0.00001982,-0.00
 000267,0.00002655,0.00003865,-0.00002873,-0.00002437,-0.00031763,0.000
 18351,-0.00003895,0.00015883,-0.00017878,0.00096729,-0.00999197,0.0100
 4863,-0.00845541,-0.00189803,0.00020783,-0.00179989,0.00001998,0.00044
 694,0.00038976,-0.00000924,-0.00012527,-0.00002236,-0.00021438,-0.0000
 2815,-0.00021877,0.00017922,0.00025089,0.00008087,0.00003351,-0.000008
 31,-0.00003261,0.01231597,-0.01860303,0.01307305,-0.00453394,-0.003124
 22,0.00238437,-0.00035106,0.00028537,-0.00072106,0.10609324,-0.2014519
 1,0.10888336,0.02182064,-0.01347424,-0.00276618,-0.00563322,-0.0010292
 3,0.00490906,-0.00132197,0.00044635,-0.00026233,0.,-0.00000681,-0.0000
 0570,-0.00000277,0.00000146,-0.00000089,0.00000019,0.00000078,0.000001
 40,0.00000253,0.00000427,0.00000669,-0.00000133,0.00000274,0.00000353,
 -0.00000766,-0.00000006,-0.00000308,0.00000487,0.00004319,-0.00000369,
 0.00011600,-0.00006886,-0.00013281,0.00019852,-0.00010603,-0.00015482,
 -0.00139212,0.00217214,0.00063760,0.00002906,-0.00026805,-0.00000573,0
 .00018076,0.00007929,-0.00053078,-0.00164171,-0.00133451,-0.00234634,-
 0.11416079,0.22447472,-0.00003124,-0.00001681,-0.00008163,0.00000908,0
 .00002373,0.00004650,-0.00000146,-0.00004611,0.00008855,0.00002274,0.0
 0001875,-0.00008963,-0.00000707,0.00000046,0.00000756,0.00011885,-0.00
 003822,0.00002164,0.00001469,-0.00001374,-0.00010855,0.00000618,-0.000
 02078,0.00000678,0.00000626,0.00008484,0.00000852,0.00000037,-0.000067
 41,-0.00003480,0.00000160,0.00001461,0.00001174,0.00008226,-0.00003190
 ,0.00010022,-0.00004014,-0.00030285,-0.00034647,-0.00029845,0.00040771
 ,-0.00011556,0.00047890,-0.00142384,-0.00040592,-0.02008942,0.01891438
 ,-0.01496533,-0.00026444,0.00200703,0.00006876,0.00079670,-0.00026973,
 0.00021060,0.00028804,0.00024438,0.00006398,-0.00057905,0.00056237,-0.
 00007682,-0.00001709,-0.00005495,0.00016623,-0.00001720,0.00004395,0.0
 0000596,-0.00587980,0.00707620,-0.00414680,0.00210630,0.00117679,0.000
 60213,0.00008703,-0.00052377,0.00049826,-0.07747575,0.11205495,-0.1138
 5358,0.02320220,-0.01698282,0.00284139,0.00745174,-0.00580384,-0.00011
 252,0.00025617,0.00004296,0.00002658,0.00000041,0.00001312,0.00001255,
 -0.00000819,-0.00001622,-0.00000433,-0.00000035,0.00000125,0.00000229,
 0.00002203,0.00000228,0.00001308,0.00000081,-0.00000092,-0.00000731,0.
 00000833,-0.00000643,0.00000253,0.00002954,0.00003492,-0.00006285,0.00
 044448,-0.00018783,-0.00013967,-0.00004060,-0.00002106,0.00002778,0.00
 088405,0.00036547,-0.00114184,0.00009798,0.00003356,-0.00034270,0.0000
 9345,-0.00116702,0.00066667,-0.00208433,-0.00249217,-0.00282555,0.0697
 3697,-0.11337007,0.13256722,0.00003243,-0.00002016,0.00012602,0.000007
 76,0.00000438,-0.00009702,-0.00005134,-0.00001058,-0.00016770,-0.00002
 538,-0.00006797,0.00014955,0.00000480,0.00000038,-0.00000371,0.0000221
 7,0.00033073,0.00000622,-0.00005191,-0.00039739,-0.00017761,0.00006321
 ,0.00006801,0.00004593,-0.00000403,-0.00010727,0.00000776,0.00002542,0
 .00007371,0.00005151,-0.00001255,-0.00001560,-0.00002296,-0.00018737,0
 .00013955,-0.00010867,0.00048045,0.00014313,0.00060990,-0.00065294,0.0
 0033749,-0.00187074,0.00027455,-0.00119106,-0.00083416,-0.00112318,0.0
 0080141,0.00156674,0.00012593,-0.00021608,0.00006470,0.00009356,0.0000
 7341,-0.00024142,-0.00005370,-0.00003501,0.00007247,0.00008762,0.00011
 286,0.00025276,0.00001305,-0.00016092,-0.00021746,-0.00007266,-0.00002
 205,0.00005744,-0.13745303,0.07539628,0.11901037,-0.00419870,0.0160534
 3,0.00030076,-0.00040423,0.00071407,0.00113527,-0.01448263,0.01199314,
 0.01758408,-0.00220442,-0.00554767,0.00158155,-0.00040310,0.00162619,-
 0.00034885,-0.00033642,-0.00033569,0.00059722,-0.00000100,-0.00000695,
 -0.00001114,0.00002456,0.00002302,0.00001588,-0.00001299,0.00000210,-0
 .00000449,0.00000528,-0.00000946,0.00000083,0.00000324,-0.00000102,-0.
 00000019,0.00001690,-0.00000048,0.00002574,0.00004744,-0.00004486,-0.0
 0008231,0.00028232,-0.00010870,0.00018415,-0.00005738,-0.00002222,-0.0
 0008079,0.00003574,-0.00011824,0.00009349,-0.00001125,0.00000515,-0.00
 000567,-0.00002893,-0.00003421,0.00003600,0.00020329,-0.00010652,-0.00
 008186,0.00067564,-0.00033265,0.00004526,0.14658236,0.00002117,0.00001
 725,0.00004012,-0.00001252,-0.00001930,-0.00001481,-0.00000849,0.00002
 954,-0.00002760,-0.00002597,0.00000485,0.00005333,0.00000667,-0.000001
 51,-0.00000309,0.00020161,-0.00015443,0.00001311,-0.00015660,0.0002165
 2,0.00029879,0.00002127,-0.00003145,-0.00001748,-0.00001028,-0.0000337
 4,-0.00000359,0.00000788,0.00002984,0.00001468,-0.00000323,-0.00000884
 ,-0.00000782,-0.00004383,-0.00000956,-0.00006292,0.00001804,0.00011950
 ,0.00002656,-0.00039359,-0.00026455,-0.00043541,-0.00362238,-0.0019045
 2,-0.00291790,-0.00040334,0.00041218,-0.00014449,-0.00003169,-0.000093
 69,0.00022099,0.00007999,0.00007367,-0.00016006,-0.00001666,-0.0000176
 2,0.00005390,0.00006540,-0.00002662,0.00026706,-0.00007431,-0.00018343
 ,-0.00014785,-0.00004508,-0.00001195,0.00004331,0.07838627,-0.10821994
 ,-0.10551007,0.02402890,-0.03361449,-0.00650719,-0.00034545,-0.0004007
 4,-0.00182974,-0.00928015,0.01184027,0.01216214,-0.00472980,-0.0041539
 9,0.00185061,-0.00035565,0.00174196,-0.00072076,-0.00028437,-0.0002962
 3,0.00070557,0.00000060,-0.00000770,-0.00000912,0.00000154,0.00000486,
 0.00000188,0.00000095,0.00000233,-0.00000033,-0.00000087,-0.00000591,0
 .00000754,0.00000075,0.00000433,0.00000263,-0.00001519,-0.00000201,-0.
 00001108,-0.00000065,0.00009257,0.00004172,0.00006293,-0.00001622,-0.0
 0003813,-0.00004174,-0.00004521,-0.00007463,0.00014411,-0.00013286,0.0
 0005129,-0.00001338,-0.00000920,-0.00001238,0.00000091,-0.00000460,0.0
 0000841,0.00013610,-0.00010401,-0.00007370,0.00111683,0.00121999,0.000
 26853,-0.08909076,0.13622001,0.00004039,0.00002593,0.00006225,-0.00003
 775,-0.00004267,-0.00003055,0.00001092,0.00000246,-0.00009807,-0.00000
 245,-0.00000463,0.00007723,0.00000447,-0.00000054,-0.00000817,-0.00007
 318,-0.00015211,-0.00018627,0.00028032,-0.00003789,0.00022681,0.000036
 44,0.00006437,0.00005077,-0.00000505,-0.00002841,-0.00003752,0.0000022
 4,0.00002955,0.00002083,-0.00000343,-0.00001020,-0.00000763,-0.0000452
 5,-0.00001580,-0.00005073,-0.00001895,0.00010596,-0.00007149,-0.000887
 58,-0.00048858,-0.00010747,-0.00495048,-0.00303732,-0.00333390,0.00034
 246,-0.00002503,-0.00057917,0.00026793,-0.00013433,0.00002124,0.000014
 49,0.00010208,0.00006919,-0.00002182,-0.00000929,-0.00001667,-0.000080
 71,0.00007114,-0.00008279,0.00004426,0.00010729,0.00002588,0.00001415,
 -0.00000585,-0.00000412,0.12529623,-0.10791052,-0.19938639,-0.01214132
 ,0.01515255,0.01243786,-0.00092167,0.00063000,0.00131906,0.00465346,-0
 .00530303,-0.00578354,-0.00000413,0.00188034,-0.00009548,0.00014998,-0
 .00079651,0.00051817,0.00008873,0.00012144,-0.00020656,-0.00000258,-0.
 00000808,-0.00001631,-0.00000107,0.00000376,0.00000455,0.00000024,0.00
 000296,0.00000015,0.00000050,-0.00000794,0.00000385,0.00000155,0.00000
 020,0.00000004,0.00001220,0.00000204,0.00002552,-0.00000862,0.00002321
 ,-0.00015737,0.00005087,0.00005546,-0.00012272,0.00001288,-0.00002931,
 0.00005398,-0.00006443,0.00007672,-0.00005875,-0.00002051,0.00000682,-
 0.00000637,0.00000390,0.00005116,-0.00002148,0.00009187,0.00001722,-0.
 00011769,-0.00014673,0.00033736,-0.00014150,-0.12521800,0.11040513,0.2
 1189108,-0.00001549,-0.00000707,-0.00003316,0.00001005,0.00001464,0.00
 001211,0.00000351,-0.00004085,0.00000903,0.00000857,0.00000521,-0.0000
 3133,-0.00000220,-0.00000377,0.00000526,-0.00007440,0.00014844,0.00000
 766,0.00002025,-0.00014955,-0.00025765,0.00000470,-0.00001644,-0.00001
 550,-0.00000395,0.00001098,0.00002991,-0.00000058,-0.00001670,-0.00002
 059,0.00000218,0.00000444,0.00000460,0.00002269,0.00000847,0.00004646,
 0.00006473,-0.00003202,0.00001471,0.00009322,0.00017370,-0.00012874,0.
 00107291,0.00065117,0.00063987,-0.00183272,-0.00339274,0.00372124,-0.0
 0013356,0.00036567,-0.00125506,-0.00055136,-0.00073880,-0.00003014,0.0
 0006462,-0.00000300,-0.00000205,0.00012886,0.00014369,-0.00032003,-0.0
 0002889,0.00004513,0.00016671,0.00006124,0.00002566,-0.00006644,-0.150
 95480,-0.04624442,-0.14078039,-0.00852609,0.00329570,-0.01101061,0.001
 12270,0.00180608,-0.00044781,-0.01699786,-0.01158397,-0.02044236,0.001
 50018,0.00169098,0.00013882,-0.00005754,-0.00035761,0.00003733,0.00009
 564,0.00013575,0.00006384,0.00000111,0.00000326,0.00000741,0.00000085,
 -0.00000036,-0.00000462,0.00000779,0.00000201,-0.00000035,0.00000233,0
 .00000016,0.00000100,-0.00000047,-0.00000150,-0.00000324,0.00000824,-0
 .00000114,0.00000853,0.00000983,-0.00003176,-0.00003381,0.00005808,-0.
 00005043,0.00006188,-0.00006321,-0.00006740,0.00005649,-0.00003295,-0.
 00004627,-0.00003019,0.00000470,-0.00000293,0.00002888,-0.00000506,-0.
 00006207,0.00002862,0.00008502,0.00018585,0.00011754,0.00096498,0.0004
 4457,0.00054215,0.01272142,0.00470406,0.01323525,0.16114070,0.00002757
 ,0.00005120,-0.00001803,-0.00002331,-0.00005281,0.00005800,0.00003705,
 0.00009450,0.00006493,0.00001288,0.00005466,-0.00003939,-0.00000155,0.
 00000188,-0.00000469,-0.00003371,-0.00060700,-0.00011774,0.00000709,0.
 00057192,0.00072816,-0.00001700,0.00001123,0.00004070,-0.00001890,0.00
 003566,0.00001246,0.00000060,-0.00002472,-0.00003475,0.00000126,-0.000
 00016,0.00000747,0.00007207,-0.00008381,0.00008614,-0.00016996,0.00005
 091,-0.00033557,0.00029628,-0.00034984,0.00085738,-0.00094553,-0.00004
 090,-0.00026567,-0.00262033,-0.00186056,0.00148780,-0.00001747,0.00067
 236,-0.00080380,-0.00045839,-0.00071205,-0.00004201,0.00009264,0.00002
 876,0.00001245,0.00012765,0.00003146,-0.00024989,-0.00010436,-0.000043
 37,0.00015807,0.00005945,0.00003448,-0.00005360,-0.05081836,-0.0624509
 0,-0.06882660,0.02622195,0.00044618,0.02988049,0.00078309,-0.00458408,
 0.00298945,-0.01187000,-0.00724466,-0.01615313,0.00086769,0.00079455,0
 .00084043,-0.00006287,-0.00004291,-0.00016007,0.00001709,0.00002980,0.
 00011310,-0.00000205,-0.00000413,-0.00000595,-0.00001169,-0.00001002,-
 0.00000900,0.00001840,0.00000883,-0.00000157,-0.00000546,-0.00000592,0
 .00000249,-0.00000001,0.00000389,-0.00000090,-0.00001705,-0.00000062,-
 0.00002069,-0.00001089,0.00009273,0.00003937,-0.00005301,-0.00000515,-
 0.00008732,-0.00003998,0.00000757,0.00000552,0.00000395,-0.00003828,0.
 00000282,0.00001502,-0.00000830,0.00003421,0.00000520,-0.00005685,0.00
 002966,-0.00027737,-0.00014543,-0.00018601,-0.00017793,0.00001076,-0.0
 0053376,-0.00989495,-0.00225534,-0.01122712,0.04898519,0.07759449,-0.0
 0004901,-0.00002780,-0.00010091,0.00001560,0.00004273,0.00004139,-0.00
 000576,-0.00007685,0.00009466,0.00002161,0.00001475,-0.00010335,-0.000
 00800,-0.00000415,0.00001077,0.00003131,0.00026665,0.00008013,-0.00002
 629,-0.00016705,-0.00038758,-0.00001462,-0.00005193,-0.00001510,0.0000
 0298,0.00007193,0.00000629,-0.00001035,-0.00005457,-0.00003111,0.00000
 603,0.00001564,0.00001380,0.00008951,-0.00003934,0.00003812,-0.0002144
 1,-0.00013630,-0.00022834,0.00020212,-0.00005666,0.00061738,-0.0016691
 8,-0.00088036,-0.00054880,0.00302971,0.00157271,-0.00167771,0.00001031
 ,-0.00023901,0.00054598,0.00022009,0.00037668,0.00010842,-0.00001241,0
 .00000898,-0.00003019,-0.00001179,-0.00005725,0.00003242,-0.00002633,-
 0.00005986,0.00000515,-0.00000669,0.00000672,0.00001046,-0.14228493,-0
 .06586880,-0.23660711,-0.01095407,0.00588799,-0.00937076,0.00178170,0.
 00115531,-0.00012228,0.00957195,0.00551991,0.00915249,-0.00121346,-0.0
 0059731,0.00093580,-0.00007618,0.00031957,-0.00013222,-0.00007039,-0.0
 0005136,0.00010976,0.00000166,0.00001231,0.00001744,-0.00000870,-0.000
 01247,-0.00000604,0.00000020,-0.00000516,0.00000278,0.00000125,0.00000
 712,-0.00000239,-0.00000133,-0.00000301,-0.00000269,0.00000464,-0.0000
 0044,-0.00000440,-0.00000204,-0.00003010,0.00001308,-0.00006292,0.0000
 6659,-0.00006625,-0.00000952,0.00000254,-0.00002307,0.00000152,-0.0000
 2613,0.00003189,0.00000790,-0.00001528,0.00000842,-0.00000398,0.000020
 42,-0.00001554,0.00007894,0.00010310,0.00015102,-0.00021859,-0.0009295
 0,0.00093585,-0.01404684,-0.00780714,-0.01607973,0.15592876,0.06172619
 ,0.25259208\\0.00777849,0.00378238,-0.00850410,0.01011996,-0.00754226,
 -0.00674252,-0.01319769,0.03261802,0.03592692,-0.00422008,-0.00102344,
 0.01129779,-0.00526172,-0.01586741,-0.03011275,-0.00523575,-0.04794508
 ,0.00114355,-0.00406927,-0.02732500,-0.00721161,-0.00220931,0.03188900
 ,-0.01222166,-0.00169181,0.01257843,0.00520677,-0.02621232,-0.01707547
 ,0.01683522,0.01261439,0.00824118,-0.02448329,-0.00426959,0.01770613,0
 .01009283,0.00179284,0.00696513,-0.00277670,-0.02587619,0.01970170,0.0
 2124257,0.03753867,0.00741224,0.02987428,-0.00690443,-0.01114520,-0.00
 168575,0.01719237,0.00299584,0.00942056,0.01367711,0.00170923,0.003451
 86,-0.02877304,0.00424870,-0.01018629,0.02844921,-0.02414042,-0.015178
 97,-0.02465973,0.01602459,0.03316530,0.00303273,-0.00227291,-0.0261635
 7,0.03256737,-0.02738211,0.00368390,0.01616859,-0.00443854,-0.00050931
 ,-0.02888203,0.00745197,-0.01459832,-0.00099836,0.01048371,0.00747162,
 -0.00313212,-0.00280837,-0.00620187,0.00428014,0.00500750,-0.03954849,
 0.00466236,-0.00280337,0.03688526,-0.00118763,0.00346877,0.00535097,0.
 01387921,-0.01361565,0.00670855,0.00501244,0.01038044,-0.01341966,0.02
 238403,-0.00980082,-0.00633688,-0.01507018,0.01055740,0.00331334,0.015
 77784,-0.01033854,-0.00328943,-0.01718817,0.00783143,0.00428310,0.0148
 2184,-0.00760921,-0.00442929,-0.00590902,-0.00242125,-0.00085777,-0.01
 842733,0.00999086,-0.00866527,0.01563268,-0.01870901,0.00940451,-0.010
 55542,0.01970294,0.00373488,0.01346662,-0.01156902,-0.00186148,-0.0201
 8232,0.01270098,-0.00853054,-0.00854566,0.01360828,0.00713994,-0.00818
 972,-0.01122376,-0.01211821\\\@


 IF NO USE IS MADE OF THE LABOR OF PAST AGES,
 THE WORLD MUST REMAIN ALWAYS IN THE INFANCY OF KNOWLEDGE.

                          -- CICERO
 Job cpu time:  0 days 13 hours 40 minutes 36.9 seconds.
 File lengths (MBytes):  RWF=   1372 Int=      0 D2E=      0 Chk=     19 Scr=      1
 Normal termination of Gaussian 09 at Tue Mar  1 17:34:05 2016.
Gaussian '09 finished on node014 at Tue Mar  1 17:34:05 EST 2016.
