Gaussian '09 started on node008 at Tue Mar  1 03:33:49 EST 2016.
 Entering Gaussian System, Link 0=/usr/local/gaussian/g09/g09
 Initial command:
 /usr/local/gaussian/g09/l1.exe /home/srmcgrat/thesis/gaussian/cellobiose/500/9000/2/gdp/gaussian27404/Gau-27440.inp -scrdir=/home/srmcgrat/thesis/gaussian/cellobiose/500/9000/2/gdp/gaussian27404/
 Entering Link 1 = /usr/local/gaussian/g09/l1.exe PID=     27442.
  
 Copyright (c) 1988,1990,1992,1993,1995,1998,2003,2009,2010,
            Gaussian, Inc.  All Rights Reserved.
  
 This is part of the Gaussian(R) 09 program.  It is based on
 the Gaussian(R) 03 system (copyright 2003, Gaussian, Inc.),
 the Gaussian(R) 98 system (copyright 1998, Gaussian, Inc.),
 the Gaussian(R) 94 system (copyright 1995, Gaussian, Inc.),
 the Gaussian 92(TM) system (copyright 1992, Gaussian, Inc.),
 the Gaussian 90(TM) system (copyright 1990, Gaussian, Inc.),
 the Gaussian 88(TM) system (copyright 1988, Gaussian, Inc.),
 the Gaussian 86(TM) system (copyright 1986, Carnegie Mellon
 University), and the Gaussian 82(TM) system (copyright 1983,
 Carnegie Mellon University). Gaussian is a federally registered
 trademark of Gaussian, Inc.
  
 This software contains proprietary and confidential information,
 including trade secrets, belonging to Gaussian, Inc.
  
 This software is provided under written license and may be
 used, copied, transmitted, or stored only in accord with that
 written license.
  
 The following legend is applicable only to US Government
 contracts under FAR:
  
                    RESTRICTED RIGHTS LEGEND
  
 Use, reproduction and disclosure by the US Government is
 subject to restrictions as set forth in subparagraphs (a)
 and (c) of the Commercial Computer Software - Restricted
 Rights clause in FAR 52.227-19.
  
 Gaussian, Inc.
 340 Quinnipiac St., Bldg. 40, Wallingford CT 06492
  
  
 ---------------------------------------------------------------
 Warning -- This program may not be used in any manner that
 competes with the business of Gaussian, Inc. or will provide
 assistance to any competitor of Gaussian, Inc.  The licensee
 of this program is prohibited from giving any competitor of
 Gaussian, Inc. access to this program.  By using this program,
 the user acknowledges that Gaussian, Inc. is engaged in the
 business of creating and licensing software in the field of
 computational chemistry and represents and warrants to the
 licensee that it is not a competitor of Gaussian, Inc. and that
 it will not use this program in any manner prohibited above.
 ---------------------------------------------------------------
  

 Cite this work as:
 Gaussian 09, Revision B.01,
 M. J. Frisch, G. W. Trucks, H. B. Schlegel, G. E. Scuseria, 
 M. A. Robb, J. R. Cheeseman, G. Scalmani, V. Barone, B. Mennucci, 
 G. A. Petersson, H. Nakatsuji, M. Caricato, X. Li, H. P. Hratchian, 
 A. F. Izmaylov, J. Bloino, G. Zheng, J. L. Sonnenberg, M. Hada, 
 M. Ehara, K. Toyota, R. Fukuda, J. Hasegawa, M. Ishida, T. Nakajima, 
 Y. Honda, O. Kitao, H. Nakai, T. Vreven, J. A. Montgomery, Jr., 
 J. E. Peralta, F. Ogliaro, M. Bearpark, J. J. Heyd, E. Brothers, 
 K. N. Kudin, V. N. Staroverov, T. Keith, R. Kobayashi, J. Normand, 
 K. Raghavachari, A. Rendell, J. C. Burant, S. S. Iyengar, J. Tomasi, 
 M. Cossi, N. Rega, J. M. Millam, M. Klene, J. E. Knox, J. B. Cross, 
 V. Bakken, C. Adamo, J. Jaramillo, R. Gomperts, R. E. Stratmann, 
 O. Yazyev, A. J. Austin, R. Cammi, C. Pomelli, J. W. Ochterski, 
 R. L. Martin, K. Morokuma, V. G. Zakrzewski, G. A. Voth, 
 P. Salvador, J. J. Dannenberg, S. Dapprich, A. D. Daniels, 
 O. Farkas, J. B. Foresman, J. V. Ortiz, J. Cioslowski, 
 and D. J. Fox, Gaussian, Inc., Wallingford CT, 2010.
 
 ******************************************
 Gaussian 09:  EM64L-G09RevB.01 12-Aug-2010
                 1-Mar-2016 
 ******************************************
 ------------------------------------------------
 # freq=raman b3lyp/6-31+g(d,p) geom=connectivity
 ------------------------------------------------
 1/10=4,30=1,38=1,57=2/1,3;
 2/12=2,17=6,18=5,40=1/2;
 3/5=1,6=6,7=111,11=2,16=1,25=1,30=1,71=2,74=-5/1,2,3;
 4//1;
 5/5=2,38=5,98=1/2;
 8/6=4,10=90,11=11/1;
 10/13=10,15=4/2;
 11/6=3,8=1,9=11,15=111,16=1/1,2,10;
 10/6=1/2;
 6/7=2,8=2,9=2,10=2,18=1,28=1/1;
 7/8=1,10=1,25=1/1,2,3,16;
 1/10=4,30=1/3;
 99//99;
 ------------
 500 9000.com
 ------------
 Symbolic Z-matrix:
 Charge =  0 Multiplicity = 1
 O                     8.324     6.326     22.398 
 C                     9.121     6.411     23.589 
 C                     9.001     7.771     24.258 
 O                     9.401     8.825     23.37 
 H                     9.215     8.561     22.423 
 C                     9.83      7.822     25.531 
 O                     9.507     9.046     26.207 
 H                     9.661     9.841     25.621 
 C                     8.697     3.961     24.053 
 O                     8.718     2.95      25.071 
 H                     8.588     2.        24.788 
 C                     8.759     5.366     24.631 
 O                     9.818     5.407     25.599 
 C                     9.625     6.587     26.393 
 O                     10.538    6.5       27.497 
 C                     9.784     6.553     28.717 
 C                     9.361     5.135     29.065 
 O                     8.52      4.364     28.194 
 H                     8.925     4.059     27.332 
 C                     8.783     5.04      30.468 
 O                     8.749     3.696     30.97 
 H                     7.928     3.335     30.529 
 C                     11.013    8.516     29.339 
 O                     9.901     9.393     29.107 
 H                     9.572     9.238     28.176 
 C                     10.585    7.154     29.86 
 O                     9.874     7.065     31.103 
 C                     9.666     5.705     31.511 
 O                     8.963     6.017     32.723 
 H                     9.5954    6.19706   33.42246 
 H                     11.66684   8.9694    30.05442 
 H                     11.54498   8.38258   28.42025 
 H                     11.47315   6.5672    29.96844 
 H                     8.90838   7.14701   28.5578 
 H                     10.27941   4.58741   29.10457 
 H                     7.80173   5.46595   30.49216 
 H                     10.58384   5.18315   31.68464 
 H                     8.89915   6.27128   21.63131 
 H                     9.5354    3.81633   23.40412 
 H                     7.79665   3.86033   23.48368 
 H                     7.82741   5.61539   25.09452 
 H                     10.14453   6.26487   23.31343 
 H                     7.97516   7.92545   24.5201 
 H                     10.86231   7.86101   25.25222 
 H                     8.62395   6.59098   26.77086 
 

 GradGradGradGradGradGradGradGradGradGradGradGradGradGradGradGradGradGrad
 Berny optimization.
 Initialization pass.
 Trust Radius=3.00D-01 FncErr=1.00D-07 GrdErr=1.00D-07
 Number of steps in this run=      2 maximum allowed number of steps=      2.
 GradGradGradGradGradGradGradGradGradGradGradGradGradGradGradGradGradGrad

                          Input orientation:                          
 ---------------------------------------------------------------------
 Center     Atomic      Atomic             Coordinates (Angstroms)
 Number     Number       Type             X           Y           Z
 ---------------------------------------------------------------------
      1          8           0        8.324000    6.326000   22.398000
      2          6           0        9.121000    6.411000   23.589000
      3          6           0        9.001000    7.771000   24.258000
      4          8           0        9.401000    8.825000   23.370000
      5          1           0        9.215000    8.561000   22.423000
      6          6           0        9.830000    7.822000   25.531000
      7          8           0        9.507000    9.046000   26.207000
      8          1           0        9.661000    9.841000   25.621000
      9          6           0        8.697000    3.961000   24.053000
     10          8           0        8.718000    2.950000   25.071000
     11          1           0        8.588000    2.000000   24.788000
     12          6           0        8.759000    5.366000   24.631000
     13          8           0        9.818000    5.407000   25.599000
     14          6           0        9.625000    6.587000   26.393000
     15          8           0       10.538000    6.500000   27.497000
     16          6           0        9.784000    6.553000   28.717000
     17          6           0        9.361000    5.135000   29.065000
     18          8           0        8.520000    4.364000   28.194000
     19          1           0        8.925000    4.059000   27.332000
     20          6           0        8.783000    5.040000   30.468000
     21          8           0        8.749000    3.696000   30.970000
     22          1           0        7.928000    3.335000   30.529000
     23          6           0       11.013000    8.516000   29.339000
     24          8           0        9.901000    9.393000   29.107000
     25          1           0        9.572000    9.238000   28.176000
     26          6           0       10.585000    7.154000   29.860000
     27          8           0        9.874000    7.065000   31.103000
     28          6           0        9.666000    5.705000   31.511000
     29          8           0        8.963000    6.017000   32.723000
     30          1           0        9.595405    6.197059   33.422459
     31          1           0       11.666839    8.969400   30.054418
     32          1           0       11.544977    8.382584   28.420250
     33          1           0       11.473148    6.567200   29.968443
     34          1           0        8.908380    7.147007   28.557796
     35          1           0       10.279409    4.587407   29.104575
     36          1           0        7.801733    5.465948   30.492164
     37          1           0       10.583836    5.183150   31.684636
     38          1           0        8.899145    6.271282   21.631310
     39          1           0        9.535404    3.816329   23.404117
     40          1           0        7.796645    3.860326   23.483679
     41          1           0        7.827410    5.615386   25.094517
     42          1           0       10.144528    6.264874   23.313430
     43          1           0        7.975160    7.925451   24.520102
     44          1           0       10.862307    7.861012   25.252215
     45          1           0        8.623946    6.590981   26.770856
 ---------------------------------------------------------------------
                    Distance matrix (angstroms):
                    1          2          3          4          5
     1  O    0.000000
     2  C    1.435589   0.000000
     3  C    2.450705   1.520382   0.000000
     4  O    2.889587   2.440032   1.435082   0.000000
     5  H    2.406186   2.447630   2.009259   1.000550   0.000000
     6  C    3.784408   2.502991   1.519990   2.420738   3.253308
     7  O    4.827667   3.734454   2.383330   2.847568   3.826114
     8  H    4.952830   4.023124   2.564814   2.483316   3.473402
     9  C    2.910563   2.529342   3.827603   4.961915   4.907670
    10  O    4.324065   3.786457   4.897254   6.154309   6.224326
    11  H    4.949351   4.602022   5.809984   7.018000   7.002362
    12  C    2.469233   1.519484   2.445755   3.737240   3.910400
    13  O    3.650068   2.352430   2.838004   4.101835   4.516448
    14  C    4.209602   2.854366   2.519813   3.767937   4.452603
    15  O    5.561643   4.157917   3.803805   4.871398   5.634139
    16  C    6.489445   5.172632   4.688208   5.822292   6.631008
    17  C    6.851477   5.627819   5.494119   6.786068   7.474955
    18  O    6.122212   5.075178   5.227916   6.629303   7.169538
    19  H    5.463044   4.424971   4.820186   6.216010   6.667112
    20  C    8.184704   7.022430   6.787487   8.067822   8.792388
    21  O    8.976453   7.873295   7.856212   9.191939   9.845638
    22  H    8.672719   7.684310   7.755957   9.141177   9.730092
    23  C    7.759143   6.408837   5.515408   6.190556   7.146040
    24  O    7.543481   6.320526   5.191694   5.786691   6.770427
    25  H    6.589578   5.407023   4.222423   4.826743   5.803687
    26  C    7.840864   6.482344   5.854242   6.805453   7.691913
    27  O    8.872747   7.579902   6.936468   7.944849   8.832593
    28  C    9.232192   7.972048   7.570772   8.722414   9.536870
    29  O   10.349368   9.143859   8.644894   9.775240  10.612513
    30  H   11.098279   9.847220   9.317613  10.392103  11.257043
    31  H    8.762584   7.404616   6.491635   7.059484   8.026010
    32  H    7.132442   5.753589   4.916318   5.504307   6.436430
    33  H    8.202860   6.801050   6.337965   7.275363   8.124541
    34  H    6.241686   5.027509   4.345825   5.474629   6.303104
    35  H    7.198922   5.923594   5.937919   7.184298   7.846391
    36  H    8.156466   7.091351   6.753984   8.035303   8.757173
    37  H    9.625724   8.317862   8.022297   9.153979   9.952963
    38  H    0.960000   1.975169   3.026389   3.129916   2.443224
    39  H    2.962806   2.634052   4.080946   5.010590   4.855631
    40  H    2.745241   2.875925   4.164542   5.218703   5.023256
    41  H    2.832451   2.138447   2.593019   3.968850   4.211775
    42  H    2.038644   1.070000   2.113831   2.666510   2.632315
    43  H    2.680158   2.115056   1.070000   2.040819   2.517729
    44  H    4.116529   2.810867   2.112115   2.570491   3.347844
    45  H    4.391134   3.225471   2.801617   4.142521   4.809800
                    6          7          8          9         10
     6  C    0.000000
     7  O    1.435089   0.000000
     8  H    2.028059   0.999568   0.000000
     9  C    4.286665   5.581491   6.161357   0.000000
    10  O    5.018419   6.250939   6.976936   1.434882   0.000000
    11  H    5.999191   7.245981   7.957795   2.097052   0.999744
    12  C    2.826478   4.072552   4.671116   1.520511   2.456082
    13  O    2.415987   3.702527   4.436833   2.395344   2.743289
    14  C    1.519965   2.468846   3.344517   3.637672   3.974683
    15  O    2.472671   3.034663   3.930749   4.657997   4.669087
    16  C    3.429734   3.548504   4.517885   5.445450   5.235578
    17  C    4.464200   4.846174   5.839313   5.190310   4.597794
    18  O    4.556910   5.181068   6.157901   4.164327   3.433909
    19  H    4.268817   5.145339   6.074598   3.288378   2.526826
    20  C    5.762786   5.893075   6.878510   6.505679   5.787913
    21  O    6.911958   7.203002   8.197839   6.922270   5.946064
    22  H    6.980743   7.334061   8.331854   6.551474   5.528299
    23  C    4.047467   3.515446   4.172176   7.352121   7.379919
    24  O    3.906515   2.947142   3.522854   7.516592   7.694221
    25  H    3.011253   1.979406   2.626700   6.753627   7.064650
    26  C    4.444827   4.252782   5.103221   6.890649   6.640318
    27  O    5.623359   5.294324   6.148485   7.792474   7.392874
    28  C    6.345785   6.270564   7.197126   7.720250   7.068404
    29  O    7.465559   7.206180   8.096208   8.914415   8.247401
    30  H    8.060434   7.758036   8.610771   9.674391   9.003338
    31  H    5.015158   4.412867   4.943508   8.361880   8.352442
    32  H    3.406342   3.080900   3.675887   6.836245   6.980132
    33  H    4.895442   4.915143   5.736018   7.035036   6.682808
    34  H    3.235196   3.080708   4.055713   5.521640   5.459749
    35  H    4.840971   5.373231   6.333874   5.330555   4.624805
    36  H    5.854741   5.838436   6.806334   6.673020   6.046367
    37  H    6.737880   6.788643   7.701615   7.955857   7.225544
    38  H    4.298697   5.385674   5.407489   3.353036   4.784893
    39  H    4.544867   5.933500   6.420826   1.070000   2.048701
    40  H    4.901113   6.101885   6.619095   1.070000   2.048701
    41  H    3.011649   3.978411   4.636276   2.139611   2.810335
    42  H    2.727853   4.063723   4.283381   2.819599   4.014028
    43  H    2.114958   2.539250   2.779093   4.056613   5.060673
    44  H    1.070000   2.037809   2.345099   4.619174   5.361803
    45  H    2.123021   2.669239   3.600038   3.782708   4.019341
                   11         12         13         14         15
    11  H    0.000000
    12  C    3.373996   0.000000
    13  O    3.711909   1.435335   0.000000
    14  C    4.969101   2.312021   1.435300   0.000000
    15  O    5.602783   3.558757   2.305527   1.435254   0.000000
    16  C    6.131661   4.376641   3.322107   2.329681   1.435174
    17  C    5.358963   4.480638   3.506564   3.052472   2.388970
    18  O    4.146560   3.708921   3.083290   3.066978   3.020038
    19  H    3.290135   3.005196   2.370199   2.786127   2.930439
    20  C    6.445310   5.846146   4.991300   4.439347   3.746794
    21  O    6.412446   6.555297   5.737414   5.483994   4.808811
    22  H    5.931012   6.293006   5.671877   5.528274   5.101211
    23  C    8.309662   6.096579   5.008144   3.785036   2.771795
    24  O    8.662227   6.128252   5.310475   3.913516   3.371545
    25  H    8.052046   5.312286   4.623636   3.195262   2.981751
    26  C    7.501794   5.820108   4.668664   3.641865   2.452283
    27  O    8.196783   6.783554   5.748575   4.740737   3.709900
    28  C    7.751635   6.947803   5.921457   5.193605   4.183850
    29  O    8.901749   8.120707   7.201007   6.389996   5.479506
    30  H    9.653188   8.870174   7.866400   7.040328   6.007605
    31  H    9.262124   7.131163   5.996637   4.821921   3.729960
    32  H    7.916712   5.587473   4.449269   3.319665   2.326051
    33  H    7.484677   6.107190   4.814313   4.024902   2.643302
    34  H    6.387933   4.314398   3.550987   2.348083   2.049284
    35  H    5.309271   4.788603   3.629557   3.432093   2.511808
    36  H    6.720751   5.939662   5.292623   4.624306   4.186577
    37  H    7.853623   7.288157   6.137718   5.558019   4.390044
    38  H    5.320278   3.136450   4.163393   4.827032   6.094627
    39  H    2.472197   2.123564   2.725364   4.076526   4.995896
    40  H    2.405890   2.123564   3.309480   4.386545   5.530791
    41  H    3.707218   1.070000   2.064067   2.421037   3.728507
    42  H    4.773498   2.112736   2.463006   3.139653   4.208605
    43  H    5.963079   2.679084   3.301920   2.832167   4.178754
    44  H    6.303922   3.321881   2.689426   2.110788   2.645106
    45  H    5.001012   2.469373   2.049591   1.070000   2.049186
                   16         17         18         19         20
    16  C    0.000000
    17  C    1.520117   0.000000
    18  O    2.581268   1.435396   0.000000
    19  H    2.979285   2.085944   1.000047   0.000000
    20  C    2.521343   1.520368   2.386885   3.288924   0.000000
    21  O    3.782814   2.464607   2.864409   3.660299   1.435094
    22  H    4.133232   2.727047   2.619452   3.426222   1.908342
    23  C    2.398060   3.772975   4.976462   5.315321   4.281369
    24  O    2.869040   4.292310   5.294485   5.705678   4.695834
    25  H    2.747153   4.203505   4.986272   5.287058   4.847576
    26  C    1.519622   2.491297   3.850179   4.327287   2.843565
    27  O    2.441975   2.853334   4.194162   4.914985   2.386238
    28  C    2.922236   2.529988   3.756872   4.552190   1.519790
    29  O    4.124242   3.783820   4.841539   5.735686   2.464134
    30  H    4.722669   4.491143   5.643880   6.489563   3.275304
    31  H    3.342568   4.582408   5.879920   6.248301   4.891601
    32  H    2.556653   3.966391   5.034947   5.171261   4.795275
    33  H    2.102268   2.707134   4.089477   4.442404   3.133495
    34  H    1.070000   2.123745   2.833428   3.322444   2.846766
    35  H    2.063783   1.070000   1.993634   2.292523   2.074370
    36  H    2.874416   2.139541   2.647971   3.637013   1.070000
    37  H    3.364980   2.891390   4.137024   4.791752   2.178005
    38  H    7.146282   7.534202   6.844734   6.114960   8.922816
    39  H    5.981463   5.815059   4.926862   3.982430   7.208462
    40  H    6.211901   5.934908   4.792082   4.015249   7.151591
    41  H    4.222529   4.283387   3.413567   2.938260   5.488036
    42  H    5.423243   5.913636   5.483828   4.743631   7.385252
    43  H    4.771738   5.510288   5.145708   4.874260   6.660025
    44  H    3.857250   4.921625   5.135133   4.746995   6.283792
    45  H    2.265975   2.815355   2.644917   2.610832   4.012445
                   21         22         23         24         25
    21  O    0.000000
    22  H    0.999421   0.000000
    23  C    5.569404   6.146225   0.000000
    24  O    6.103579   6.527954   1.435095   0.000000
    25  H    6.260793   6.563898   1.987545   0.999513   0.000000
    26  C    4.069491   4.700210   1.519760   2.459265   2.864451
    27  O    3.554360   4.246091   2.552336   3.066648   3.657931
    28  C    2.273687   3.098688   3.799173   4.408604   4.859336
    29  O    2.916478   3.616350   4.679632   5.035144   5.605438
    30  H    3.603644   4.398150   4.905273   5.378719   6.064091
    31  H    6.095968   6.778688   1.070000   2.048225   2.826473
    32  H    6.023518   6.558006   1.070000   2.048225   2.164262
    33  H    4.082633   4.830053   2.098989   3.346472   3.736360
    34  H    4.213499   4.402066   2.629420   2.516228   2.226749
    35  H    2.572270   3.021032   4.003368   4.820469   4.794861
    36  H    2.063579   2.135003   4.576553   4.663404   4.767267
    37  H    2.467579   3.435785   4.098058   4.983303   5.456752
    38  H    9.688434   9.419860   8.301544   8.163013   7.217141
    39  H    7.607595   7.319794   7.713173   7.984723   7.222653
    40  H    7.548442   7.066100   8.142789   8.164589   7.354531
    41  H    6.249374   5.894394   6.047907   5.888138   5.065814
    42  H    8.195711   8.097012   6.490709   6.588621   5.728163
    43  H    7.751663   7.561833   5.727041   5.186733   4.199795
    44  H    7.382849   7.545820   4.141682   4.257988   3.479871
    45  H    5.101898   5.020896   4.001080   3.865197   3.143238
                   26         27         28         29         30
    26  C    0.000000
    27  O    1.434744   0.000000
    28  C    2.381168   1.435036   0.000000
    29  O    3.481440   2.133688   1.435443   0.000000
    30  H    3.819182   2.492153   1.975039   0.960000   0.000000
    31  H    2.122228   2.817896   4.096498   4.811314   4.829122
    32  H    2.122228   3.424228   4.500305   5.547634   5.796502
    33  H    1.070000   2.022943   2.527579   3.767114   3.948816
    34  H    2.122932   2.723456   3.372652   4.316112   5.003933
    35  H    2.692852   3.208820   2.723264   4.107271   4.658644
    36  H    3.315980   2.687820   2.137911   2.574651   3.512607
    37  H    2.685804   2.093687   1.070000   2.097765   2.241659
    38  H    8.445865   9.554750   9.925574  11.094788  11.811921
    39  H    7.343033   8.363092   8.325004   9.592298  10.297507
    40  H    7.699394   8.522874   8.446016   9.559114  10.367024
    41  H    5.716771   6.510897   6.675305   7.722993   8.533391
    42  H    6.621339   7.835227   8.230589   9.486699  10.124159
    43  H    5.993406   6.905108   7.527417   8.479714   9.212193
    44  H    4.669951   5.986824   6.726955   7.925930   8.433662
    45  H    3.702098   4.533740   4.933539   5.989360   6.733701
                   31         32         33         34         35
    31  H    0.000000
    32  H    1.740606   0.000000
    33  H    2.411529   2.386980   0.000000
    34  H    3.629062   2.914997   2.983979   0.000000
    35  H    4.693509   4.058734   2.467967   2.954698   0.000000
    36  H    5.234963   5.177978   3.868633   2.791488   2.972561
    37  H    4.262182   4.670800   2.377349   4.054752   2.665389
    38  H    9.267617   7.586022   8.730455   6.981632   7.783974
    39  H    8.678921   7.074649   7.376484   6.168223   5.800287
    40  H    9.179087   7.672713   7.930699   6.146941   6.187667
    41  H    7.112752   5.704225   6.160560   3.938104   4.811403
    42  H    7.421105   5.703118   6.793072   5.459816   6.030708
    43  H    6.734017   5.306950   6.615526   4.216616   6.121233
    44  H    4.993690   3.282456   4.928476   3.905701   5.088903
    45  H    5.069305   3.802994   4.282882   1.892940   3.493009
                   36         37         38         39         40
    36  H    0.000000
    37  H    3.040076   0.000000
    38  H    8.964798  10.251418   0.000000
    39  H    7.481127   8.457801   3.094263   0.000000
    40  H    7.190056   8.762076   3.234113   1.741134   0.000000
    41  H    5.399776   7.156422   3.684104   3.001882   2.382431
    42  H    7.593496   8.452230   2.092976   2.524803   3.365024
    43  H    6.461018   8.102836   3.454727   4.534828   4.198962
    44  H    6.523841   6.973129   4.414997   4.640647   5.341488
    45  H    3.973646   5.474339   5.156828   4.456948   4.352750
                   41         42         43         44         45
    41  H    0.000000
    42  H    2.993850   0.000000
    43  H    2.384992   2.986591   0.000000
    44  H    3.778664   2.611848   2.979221   0.000000
    45  H    2.096752   3.791083   2.695854   2.988228   0.000000
 Stoichiometry    C12H22O11
 Framework group  C1[X(C12H22O11)]
 Deg. of freedom   129
 Full point group                 C1      NOp   1
 Largest Abelian subgroup         C1      NOp   1
 Largest concise Abelian subgroup C1      NOp   1
                         Standard orientation:                         
 ---------------------------------------------------------------------
 Center     Atomic      Atomic             Coordinates (Angstroms)
 Number     Number       Type             X           Y           Z
 ---------------------------------------------------------------------
      1          8           0       -5.004485    0.418589   -0.630299
      2          6           0       -3.764423    0.096763    0.017458
      3          6           0       -3.174316   -1.205938   -0.498589
      4          8           0       -4.082178   -2.300670   -0.306736
      5          1           0       -5.025898   -1.969985   -0.340489
      6          6           0       -1.848557   -1.505550    0.181829
      7          8           0       -1.259469   -2.624958   -0.495948
      8          1           0       -1.871508   -3.415227   -0.500542
      9          6           0       -3.211293    2.558727    0.191681
     10          8           0       -2.145484    3.500001    0.383876
     11          1           0       -2.389626    4.459444    0.522990
     12          6           0       -2.700845    1.168508   -0.152829
     13          8           0       -1.661695    0.828491    0.777085
     14          6           0       -0.943433   -0.285265    0.225966
     15          8           0        0.226942   -0.468153    1.036355
     16          6           0        1.384789   -0.361709    0.195054
     17          6           0        1.771162    1.106472    0.118140
     18          8           0        0.880748    2.092864   -0.424591
     19          1           0        0.066675    2.308917    0.114577
     20          6           0        3.131440    1.305310   -0.531187
     21          8           0        3.695803    2.597595   -0.264745
     22          1           0        3.214800    3.170111   -0.927847
     23          6           0        1.996132   -2.591890    0.830072
     24          8           0        1.640659   -3.146764   -0.444782
     25          1           0        0.697070   -2.885132   -0.645320
     26          6           0        2.551688   -1.181619    0.719787
     27          8           0        3.742626   -0.949717   -0.045968
     28          6           0        4.201506    0.405467    0.064637
     29          8           0        5.342220    0.248851   -0.792533
     30          1           0        6.075966   -0.108065   -0.286739
     31          1           0        2.733751   -3.218834    1.285878
     32          1           0        1.126230   -2.572521    1.452804
     33          1           0        2.753398   -0.845975    1.715556
     34          1           0        1.133066   -0.706037   -0.786258
     35          1           0        1.904522    1.398501    1.138843
     36          1           0        3.063048    1.145054   -1.586905
     37          1           0        4.467086    0.668825    1.067138
     38          1           0       -5.723691    0.346370    0.001465
     39          1           0       -3.789553    2.502344    1.090200
     40          1           0       -3.838820    2.903915   -0.603276
     41          1           0       -2.319207    1.153119   -1.152337
     42          1           0       -3.957295   -0.016742    1.063793
     43          1           0       -2.995441   -1.099485   -1.548147
     44          1           0       -2.053193   -1.800063    1.189939
     45          1           0       -0.639976   -0.043228   -0.771146
 ---------------------------------------------------------------------
 Rotational constants (GHZ):      0.4064569      0.1593772      0.1201667
 Standard basis: 6-31+G(d,p) (6D, 7F)
 There are   547 symmetry adapted basis functions of A   symmetry.
 Integral buffers will be    131072 words long.
 Raffenetti 2 integral format.
 Two-electron integral symmetry is turned on.
   547 basis functions,   890 primitive gaussians,   547 cartesian basis functions
    91 alpha electrons       91 beta electrons
       nuclear repulsion energy      2319.9601111891 Hartrees.
 NAtoms=   45 NActive=   45 NUniq=   45 SFac= 1.00D+00 NAtFMM=   50 NAOKFM=F Big=F
 One-electron integrals computed using PRISM.
 NBasis=   547 RedAO= T  NBF=   547
 NBsUse=   547 1.00D-06 NBFU=   547
 Harris functional with IExCor=  402 diagonalized for initial guess.
 ExpMin= 4.38D-02 ExpMax= 5.48D+03 ExpMxC= 8.25D+02 IAcc=2 IRadAn=         0 AccDes= 0.00D+00
 HarFok:  IExCor=  402 AccDes= 0.00D+00 IRadAn=         0 IDoV= 1
 ScaDFX=  1.000000  1.000000  1.000000  1.000000
 FoFCou: FMM=F IPFlag=           0 FMFlag=      100000 FMFlg1=           0
         NFxFlg=           0 DoJE=T BraDBF=F KetDBF=T FulRan=T
         Omega=  0.000000  0.000000  1.000000  0.000000  0.000000 ICntrl=     500 IOpCl=  0
         NMat0=    1 NMatS0=    1 NMatT0=    0 NMatD0=    1 NMtDS0=    0 NMtDT0=    0
         I1Cent=           4 NGrid=           0.
 Petite list used in FoFCou.
 Initial guess orbital symmetries:
       Occupied  (A) (A) (A) (A) (A) (A) (A) (A) (A) (A) (A) (A)
                 (A) (A) (A) (A) (A) (A) (A) (A) (A) (A) (A) (A)
                 (A) (A) (A) (A) (A) (A) (A) (A) (A) (A) (A) (A)
                 (A) (A) (A) (A) (A) (A) (A) (A) (A) (A) (A) (A)
                 (A) (A) (A) (A) (A) (A) (A) (A) (A) (A) (A) (A)
                 (A) (A) (A) (A) (A) (A) (A) (A) (A) (A) (A) (A)
                 (A) (A) (A) (A) (A) (A) (A) (A) (A) (A) (A) (A)
                 (A) (A) (A) (A) (A) (A) (A)
       Virtual   (A) (A) (A) (A) (A) (A) (A) (A) (A) (A) (A) (A)
                 (A) (A) (A) (A) (A) (A) (A) (A) (A) (A) (A) (A)
                 (A) (A) (A) (A) (A) (A) (A) (A) (A) (A) (A) (A)
                 (A) (A) (A) (A) (A) (A) (A) (A) (A) (A) (A) (A)
                 (A) (A) (A) (A) (A) (A) (A) (A) (A) (A) (A) (A)
                 (A) (A) (A) (A) (A) (A) (A) (A) (A) (A) (A) (A)
                 (A) (A) (A) (A) (A) (A) (A) (A) (A) (A) (A) (A)
                 (A) (A) (A) (A) (A) (A) (A) (A) (A) (A) (A) (A)
                 (A) (A) (A) (A) (A) (A) (A) (A) (A) (A) (A) (A)
                 (A) (A) (A) (A) (A) (A) (A) (A) (A) (A) (A) (A)
                 (A) (A) (A) (A) (A) (A) (A) (A) (A) (A) (A) (A)
                 (A) (A) (A) (A) (A) (A) (A) (A) (A) (A) (A) (A)
                 (A) (A) (A) (A) (A) (A) (A) (A) (A) (A) (A) (A)
                 (A) (A) (A) (A) (A) (A) (A) (A) (A) (A) (A) (A)
                 (A) (A) (A) (A) (A) (A) (A) (A) (A) (A) (A) (A)
                 (A) (A) (A) (A) (A) (A) (A) (A) (A) (A) (A) (A)
                 (A) (A) (A) (A) (A) (A) (A) (A) (A) (A) (A) (A)
                 (A) (A) (A) (A) (A) (A) (A) (A) (A) (A) (A) (A)
                 (A) (A) (A) (A) (A) (A) (A) (A) (A) (A) (A) (A)
                 (A) (A) (A) (A) (A) (A) (A) (A) (A) (A) (A) (A)
                 (A) (A) (A) (A) (A) (A) (A) (A) (A) (A) (A) (A)
                 (A) (A) (A) (A) (A) (A) (A) (A) (A) (A) (A) (A)
                 (A) (A) (A) (A) (A) (A) (A) (A) (A) (A) (A) (A)
                 (A) (A) (A) (A) (A) (A) (A) (A) (A) (A) (A) (A)
                 (A) (A) (A) (A) (A) (A) (A) (A) (A) (A) (A) (A)
                 (A) (A) (A) (A) (A) (A) (A) (A) (A) (A) (A) (A)
                 (A) (A) (A) (A) (A) (A) (A) (A) (A) (A) (A) (A)
                 (A) (A) (A) (A) (A) (A) (A) (A) (A) (A) (A) (A)
                 (A) (A) (A) (A) (A) (A) (A) (A) (A) (A) (A) (A)
                 (A) (A) (A) (A) (A) (A) (A) (A) (A) (A) (A) (A)
                 (A) (A) (A) (A) (A) (A) (A) (A) (A) (A) (A) (A)
                 (A) (A) (A) (A) (A) (A) (A) (A) (A) (A) (A) (A)
                 (A) (A) (A) (A) (A) (A) (A) (A) (A) (A) (A) (A)
                 (A) (A) (A) (A) (A) (A) (A) (A) (A) (A) (A) (A)
                 (A) (A) (A) (A) (A) (A) (A) (A) (A) (A) (A) (A)
                 (A) (A) (A) (A) (A) (A) (A) (A) (A) (A) (A) (A)
                 (A) (A) (A) (A) (A) (A) (A) (A) (A) (A) (A) (A)
                 (A) (A) (A) (A) (A) (A) (A) (A) (A) (A) (A) (A)
 The electronic state of the initial guess is 1-A.
 Requested convergence on RMS density matrix=1.00D-08 within 128 cycles.
 Requested convergence on MAX density matrix=1.00D-06.
 Requested convergence on             energy=1.00D-06.
 No special actions if energy rises.
 SCF Done:  E(RB3LYP) =  -1297.94429856     A.U. after   14 cycles
             Convg  =    0.2454D-08             -V/T =  2.0087
 Range of M.O.s used for correlation:     1   547
 NBasis=   547 NAE=    91 NBE=    91 NFC=     0 NFV=     0
 NROrb=    547 NOA=    91 NOB=    91 NVA=   456 NVB=   456

 **** Warning!!: The largest alpha MO coefficient is  0.77918407D+02

          Differentiating once with respect to electric field.
                with respect to dipole field.
          Electric field/nuclear overlap derivatives assumed to be zero.
          There are     3 degrees of freedom in the 1st order CPHF.  IDoFFX=0.
      3 vectors produced by pass  0 Test12= 1.38D-12 3.33D-08 XBig12= 1.18D+02 1.16D+00.
 AX will form     3 AO Fock derivatives at one time.
      3 vectors produced by pass  1 Test12= 1.38D-12 3.33D-08 XBig12= 2.57D+01 4.06D-01.
      3 vectors produced by pass  2 Test12= 1.38D-12 3.33D-08 XBig12= 9.68D+00 2.09D-01.
      3 vectors produced by pass  3 Test12= 1.38D-12 3.33D-08 XBig12= 8.73D-01 9.18D-02.
      3 vectors produced by pass  4 Test12= 1.38D-12 3.33D-08 XBig12= 2.56D-01 3.17D-02.
      3 vectors produced by pass  5 Test12= 1.38D-12 3.33D-08 XBig12= 4.98D-02 1.83D-02.
      3 vectors produced by pass  6 Test12= 1.38D-12 3.33D-08 XBig12= 1.43D-02 1.45D-02.
      3 vectors produced by pass  7 Test12= 1.38D-12 3.33D-08 XBig12= 2.24D-03 8.84D-03.
      3 vectors produced by pass  8 Test12= 1.38D-12 3.33D-08 XBig12= 3.84D-04 3.29D-03.
      3 vectors produced by pass  9 Test12= 1.38D-12 3.33D-08 XBig12= 1.04D-04 1.90D-03.
      3 vectors produced by pass 10 Test12= 1.38D-12 3.33D-08 XBig12= 2.24D-05 8.34D-04.
      3 vectors produced by pass 11 Test12= 1.38D-12 3.33D-08 XBig12= 6.92D-06 5.76D-04.
      3 vectors produced by pass 12 Test12= 1.38D-12 3.33D-08 XBig12= 7.56D-07 1.86D-04.
      3 vectors produced by pass 13 Test12= 1.38D-12 3.33D-08 XBig12= 1.82D-07 6.86D-05.
      3 vectors produced by pass 14 Test12= 1.38D-12 3.33D-08 XBig12= 2.55D-08 2.56D-05.
      3 vectors produced by pass 15 Test12= 1.38D-12 3.33D-08 XBig12= 6.63D-09 1.14D-05.
      3 vectors produced by pass 16 Test12= 1.38D-12 3.33D-08 XBig12= 1.48D-09 7.20D-06.
      3 vectors produced by pass 17 Test12= 1.38D-12 3.33D-08 XBig12= 1.65D-10 1.54D-06.
      3 vectors produced by pass 18 Test12= 1.38D-12 3.33D-08 XBig12= 5.48D-11 4.87D-07.
      3 vectors produced by pass 19 Test12= 1.38D-12 3.33D-08 XBig12= 2.51D-11 3.62D-07.
      3 vectors produced by pass 20 Test12= 1.38D-12 3.33D-08 XBig12= 9.75D-12 3.05D-07.
      2 vectors produced by pass 21 Test12= 1.38D-12 3.33D-08 XBig12= 1.71D-12 8.92D-08.
 Inverted reduced A of dimension    65 with in-core refinement.
 End of Minotr Frequency-dependent properties file   721 does not exist.
 End of Minotr Frequency-dependent properties file   722 does not exist.
 Symmetrizing basis deriv contribution to polar:
 IMax=3 JMax=2 DiffMx= 0.00D+00
 G2DrvN: will do    23 centers at a time, making    2 passes doing MaxLOS=2.
 Calling FoFCou, ICntrl=  3107 FMM=F I1Cent=   0 AccDes= 0.00D+00.
 Calling FoFCou, ICntrl=  3107 FMM=F I1Cent=   0 AccDes= 0.00D+00.
 FoFDir/FoFCou used for L=0 through L=2.
 End of G2Drv Frequency-dependent properties file   721 does not exist.
 End of G2Drv Frequency-dependent properties file   722 does not exist.
          IDoAtm=111111111111111111111111111111111111111111111
          Differentiating once with respect to electric field.
                with respect to dipole field.
          Differentiating once with respect to nuclear coordinates.
          There are   138 degrees of freedom in the 1st order CPHF.  IDoFFX=5.
 Will reuse    3 saved solutions.
    135 vectors produced by pass  0 Test12= 4.15D-14 1.00D-09 XBig12= 2.93D-01 1.04D-01.
 AX will form    68 AO Fock derivatives at one time.
    135 vectors produced by pass  1 Test12= 4.15D-14 1.00D-09 XBig12= 3.10D-02 2.33D-02.
    132 vectors produced by pass  2 Test12= 4.15D-14 1.00D-09 XBig12= 1.62D-04 1.77D-03.
    132 vectors produced by pass  3 Test12= 4.15D-14 1.00D-09 XBig12= 5.54D-07 6.40D-05.
    132 vectors produced by pass  4 Test12= 4.15D-14 1.00D-09 XBig12= 1.15D-09 2.46D-06.
    132 vectors produced by pass  5 Test12= 4.15D-14 1.00D-09 XBig12= 6.30D-12 2.04D-07.
     84 vectors produced by pass  6 Test12= 4.15D-14 1.00D-09 XBig12= 1.80D-13 2.54D-08.
 Inverted reduced A of dimension   882 with in-core refinement.
 Isotropic polarizability for W=    0.000000      185.18 Bohr**3.
 End of Minotr Frequency-dependent properties file   721 does not exist.
 End of Minotr Frequency-dependent properties file   722 does not exist.

 **********************************************************************

            Population analysis using the SCF density.

 **********************************************************************

 Orbital symmetries:
       Occupied  (A) (A) (A) (A) (A) (A) (A) (A) (A) (A) (A) (A)
                 (A) (A) (A) (A) (A) (A) (A) (A) (A) (A) (A) (A)
                 (A) (A) (A) (A) (A) (A) (A) (A) (A) (A) (A) (A)
                 (A) (A) (A) (A) (A) (A) (A) (A) (A) (A) (A) (A)
                 (A) (A) (A) (A) (A) (A) (A) (A) (A) (A) (A) (A)
                 (A) (A) (A) (A) (A) (A) (A) (A) (A) (A) (A) (A)
                 (A) (A) (A) (A) (A) (A) (A) (A) (A) (A) (A) (A)
                 (A) (A) (A) (A) (A) (A) (A)
       Virtual   (A) (A) (A) (A) (A) (A) (A) (A) (A) (A) (A) (A)
                 (A) (A) (A) (A) (A) (A) (A) (A) (A) (A) (A) (A)
                 (A) (A) (A) (A) (A) (A) (A) (A) (A) (A) (A) (A)
                 (A) (A) (A) (A) (A) (A) (A) (A) (A) (A) (A) (A)
                 (A) (A) (A) (A) (A) (A) (A) (A) (A) (A) (A) (A)
                 (A) (A) (A) (A) (A) (A) (A) (A) (A) (A) (A) (A)
                 (A) (A) (A) (A) (A) (A) (A) (A) (A) (A) (A) (A)
                 (A) (A) (A) (A) (A) (A) (A) (A) (A) (A) (A) (A)
                 (A) (A) (A) (A) (A) (A) (A) (A) (A) (A) (A) (A)
                 (A) (A) (A) (A) (A) (A) (A) (A) (A) (A) (A) (A)
                 (A) (A) (A) (A) (A) (A) (A) (A) (A) (A) (A) (A)
                 (A) (A) (A) (A) (A) (A) (A) (A) (A) (A) (A) (A)
                 (A) (A) (A) (A) (A) (A) (A) (A) (A) (A) (A) (A)
                 (A) (A) (A) (A) (A) (A) (A) (A) (A) (A) (A) (A)
                 (A) (A) (A) (A) (A) (A) (A) (A) (A) (A) (A) (A)
                 (A) (A) (A) (A) (A) (A) (A) (A) (A) (A) (A) (A)
                 (A) (A) (A) (A) (A) (A) (A) (A) (A) (A) (A) (A)
                 (A) (A) (A) (A) (A) (A) (A) (A) (A) (A) (A) (A)
                 (A) (A) (A) (A) (A) (A) (A) (A) (A) (A) (A) (A)
                 (A) (A) (A) (A) (A) (A) (A) (A) (A) (A) (A) (A)
                 (A) (A) (A) (A) (A) (A) (A) (A) (A) (A) (A) (A)
                 (A) (A) (A) (A) (A) (A) (A) (A) (A) (A) (A) (A)
                 (A) (A) (A) (A) (A) (A) (A) (A) (A) (A) (A) (A)
                 (A) (A) (A) (A) (A) (A) (A) (A) (A) (A) (A) (A)
                 (A) (A) (A) (A) (A) (A) (A) (A) (A) (A) (A) (A)
                 (A) (A) (A) (A) (A) (A) (A) (A) (A) (A) (A) (A)
                 (A) (A) (A) (A) (A) (A) (A) (A) (A) (A) (A) (A)
                 (A) (A) (A) (A) (A) (A) (A) (A) (A) (A) (A) (A)
                 (A) (A) (A) (A) (A) (A) (A) (A) (A) (A) (A) (A)
                 (A) (A) (A) (A) (A) (A) (A) (A) (A) (A) (A) (A)
                 (A) (A) (A) (A) (A) (A) (A) (A) (A) (A) (A) (A)
                 (A) (A) (A) (A) (A) (A) (A) (A) (A) (A) (A) (A)
                 (A) (A) (A) (A) (A) (A) (A) (A) (A) (A) (A) (A)
                 (A) (A) (A) (A) (A) (A) (A) (A) (A) (A) (A) (A)
                 (A) (A) (A) (A) (A) (A) (A) (A) (A) (A) (A) (A)
                 (A) (A) (A) (A) (A) (A) (A) (A) (A) (A) (A) (A)
                 (A) (A) (A) (A) (A) (A) (A) (A) (A) (A) (A) (A)
                 (A) (A) (A) (A) (A) (A) (A) (A) (A) (A) (A) (A)
 The electronic state is 1-A.
 Alpha  occ. eigenvalues --  -19.20523 -19.19823 -19.19369 -19.19208 -19.18832
 Alpha  occ. eigenvalues --  -19.18062 -19.15876 -19.15866 -19.15677 -19.15523
 Alpha  occ. eigenvalues --  -19.13638 -10.31686 -10.29078 -10.27700 -10.27312
 Alpha  occ. eigenvalues --  -10.27035 -10.26804 -10.26026 -10.24455 -10.23942
 Alpha  occ. eigenvalues --  -10.23903 -10.23824 -10.22165  -1.10493  -1.07842
 Alpha  occ. eigenvalues --   -1.07156  -1.05994  -1.04970  -1.03813  -1.03236
 Alpha  occ. eigenvalues --   -1.02646  -1.00616  -1.00054  -0.98984  -0.82817
 Alpha  occ. eigenvalues --   -0.81668  -0.78808  -0.77091  -0.72668  -0.69563
 Alpha  occ. eigenvalues --   -0.67624  -0.65358  -0.63902  -0.63199  -0.61159
 Alpha  occ. eigenvalues --   -0.59694  -0.57630  -0.56518  -0.55690  -0.54778
 Alpha  occ. eigenvalues --   -0.54122  -0.53124  -0.52716  -0.52175  -0.51500
 Alpha  occ. eigenvalues --   -0.50596  -0.49768  -0.48391  -0.47640  -0.46599
 Alpha  occ. eigenvalues --   -0.45945  -0.45534  -0.45454  -0.44361  -0.43459
 Alpha  occ. eigenvalues --   -0.42698  -0.42419  -0.41041  -0.39687  -0.38977
 Alpha  occ. eigenvalues --   -0.38420  -0.37872  -0.37648  -0.37303  -0.36253
 Alpha  occ. eigenvalues --   -0.35550  -0.34780  -0.34045  -0.33797  -0.33613
 Alpha  occ. eigenvalues --   -0.31946  -0.31602  -0.31442  -0.30613  -0.30124
 Alpha  occ. eigenvalues --   -0.29340  -0.29124  -0.28376  -0.27070  -0.26577
 Alpha  occ. eigenvalues --   -0.25648
 Alpha virt. eigenvalues --   -0.04245  -0.02237  -0.00707   0.00108   0.00812
 Alpha virt. eigenvalues --    0.01323   0.01643   0.02438   0.02829   0.03527
 Alpha virt. eigenvalues --    0.04151   0.04502   0.04808   0.05371   0.06048
 Alpha virt. eigenvalues --    0.06388   0.06677   0.06849   0.07116   0.07612
 Alpha virt. eigenvalues --    0.08379   0.08985   0.09391   0.09936   0.10513
 Alpha virt. eigenvalues --    0.10627   0.11252   0.11581   0.11824   0.12223
 Alpha virt. eigenvalues --    0.12531   0.12663   0.13179   0.13194   0.13704
 Alpha virt. eigenvalues --    0.14145   0.14573   0.14828   0.15260   0.15309
 Alpha virt. eigenvalues --    0.15394   0.16119   0.16351   0.16643   0.16770
 Alpha virt. eigenvalues --    0.17319   0.17685   0.17884   0.18471   0.18742
 Alpha virt. eigenvalues --    0.19139   0.19262   0.19691   0.20030   0.20147
 Alpha virt. eigenvalues --    0.20552   0.20739   0.21005   0.21457   0.21772
 Alpha virt. eigenvalues --    0.22060   0.22208   0.22412   0.22702   0.22805
 Alpha virt. eigenvalues --    0.23373   0.23609   0.23934   0.24547   0.24667
 Alpha virt. eigenvalues --    0.25084   0.25402   0.25677   0.26017   0.26320
 Alpha virt. eigenvalues --    0.26865   0.26927   0.27258   0.27453   0.27647
 Alpha virt. eigenvalues --    0.27905   0.28144   0.28375   0.28802   0.29155
 Alpha virt. eigenvalues --    0.29389   0.29782   0.29901   0.30349   0.30791
 Alpha virt. eigenvalues --    0.30958   0.31290   0.31620   0.31977   0.32224
 Alpha virt. eigenvalues --    0.32593   0.33151   0.33228   0.34094   0.34370
 Alpha virt. eigenvalues --    0.34627   0.35474   0.35712   0.35776   0.36008
 Alpha virt. eigenvalues --    0.36539   0.36918   0.37120   0.37583   0.37790
 Alpha virt. eigenvalues --    0.37999   0.38829   0.39043   0.39663   0.40025
 Alpha virt. eigenvalues --    0.40177   0.40616   0.40825   0.41592   0.41856
 Alpha virt. eigenvalues --    0.42313   0.42935   0.43327   0.44504   0.44638
 Alpha virt. eigenvalues --    0.44928   0.45461   0.45917   0.46738   0.47088
 Alpha virt. eigenvalues --    0.47226   0.47866   0.48877   0.50782   0.51799
 Alpha virt. eigenvalues --    0.52146   0.52636   0.54972   0.64025   0.64936
 Alpha virt. eigenvalues --    0.65265   0.67087   0.68333   0.68607   0.70192
 Alpha virt. eigenvalues --    0.71228   0.71969   0.73498   0.74012   0.74301
 Alpha virt. eigenvalues --    0.75303   0.76404   0.76901   0.78013   0.79762
 Alpha virt. eigenvalues --    0.80060   0.81537   0.82512   0.82734   0.83853
 Alpha virt. eigenvalues --    0.84438   0.85898   0.86319   0.87668   0.88992
 Alpha virt. eigenvalues --    0.90538   0.91427   0.92620   0.93934   0.94325
 Alpha virt. eigenvalues --    0.94771   0.98059   0.99310   0.99657   1.00304
 Alpha virt. eigenvalues --    1.01093   1.01579   1.02517   1.04039   1.05108
 Alpha virt. eigenvalues --    1.05386   1.05897   1.06500   1.06938   1.07289
 Alpha virt. eigenvalues --    1.08371   1.08895   1.09306   1.10147   1.10466
 Alpha virt. eigenvalues --    1.11640   1.12807   1.13209   1.14670   1.15253
 Alpha virt. eigenvalues --    1.16058   1.16874   1.18544   1.19216   1.21105
 Alpha virt. eigenvalues --    1.22213   1.23695   1.23887   1.24249   1.25452
 Alpha virt. eigenvalues --    1.26106   1.26310   1.27185   1.27736   1.28391
 Alpha virt. eigenvalues --    1.28942   1.30108   1.30236   1.30764   1.31765
 Alpha virt. eigenvalues --    1.32432   1.32800   1.33464   1.33702   1.34080
 Alpha virt. eigenvalues --    1.35015   1.35689   1.37296   1.37854   1.38624
 Alpha virt. eigenvalues --    1.39567   1.41039   1.42079   1.42338   1.43445
 Alpha virt. eigenvalues --    1.43790   1.44416   1.46743   1.47961   1.48544
 Alpha virt. eigenvalues --    1.49700   1.51847   1.52165   1.53239   1.53546
 Alpha virt. eigenvalues --    1.54180   1.55950   1.56371   1.57090   1.57588
 Alpha virt. eigenvalues --    1.57740   1.59515   1.60557   1.60915   1.62105
 Alpha virt. eigenvalues --    1.62581   1.62865   1.63726   1.64327   1.64906
 Alpha virt. eigenvalues --    1.65136   1.66076   1.66489   1.66876   1.68788
 Alpha virt. eigenvalues --    1.69419   1.70585   1.71905   1.72481   1.72831
 Alpha virt. eigenvalues --    1.75012   1.75390   1.76554   1.77330   1.78373
 Alpha virt. eigenvalues --    1.79474   1.80638   1.80644   1.81250   1.82384
 Alpha virt. eigenvalues --    1.82499   1.83639   1.84938   1.86263   1.86631
 Alpha virt. eigenvalues --    1.87816   1.88111   1.90001   1.90843   1.91903
 Alpha virt. eigenvalues --    1.92529   1.93293   1.93552   1.95054   1.95349
 Alpha virt. eigenvalues --    1.95809   1.96776   1.97228   1.97700   1.98841
 Alpha virt. eigenvalues --    1.99699   2.00593   2.01187   2.01922   2.04044
 Alpha virt. eigenvalues --    2.04280   2.05236   2.05803   2.06444   2.07497
 Alpha virt. eigenvalues --    2.09222   2.10720   2.11023   2.12362   2.13110
 Alpha virt. eigenvalues --    2.13648   2.14415   2.14772   2.15436   2.16869
 Alpha virt. eigenvalues --    2.17882   2.18713   2.19832   2.20840   2.21192
 Alpha virt. eigenvalues --    2.22733   2.23816   2.25792   2.26847   2.27602
 Alpha virt. eigenvalues --    2.30249   2.31776   2.32125   2.34165   2.35494
 Alpha virt. eigenvalues --    2.36249   2.36448   2.37473   2.38463   2.40810
 Alpha virt. eigenvalues --    2.41371   2.42544   2.43289   2.44078   2.44995
 Alpha virt. eigenvalues --    2.46068   2.46618   2.47627   2.48386   2.49390
 Alpha virt. eigenvalues --    2.51441   2.53147   2.53223   2.53891   2.55626
 Alpha virt. eigenvalues --    2.56056   2.58670   2.58702   2.59073   2.60542
 Alpha virt. eigenvalues --    2.60942   2.61468   2.62290   2.63181   2.64538
 Alpha virt. eigenvalues --    2.65622   2.66352   2.66872   2.68662   2.69301
 Alpha virt. eigenvalues --    2.69959   2.70116   2.71387   2.72921   2.74145
 Alpha virt. eigenvalues --    2.75904   2.76559   2.76830   2.78809   2.80336
 Alpha virt. eigenvalues --    2.80765   2.81473   2.83955   2.84295   2.85993
 Alpha virt. eigenvalues --    2.87331   2.88192   2.88996   2.89291   2.89792
 Alpha virt. eigenvalues --    2.91426   2.92169   2.92724   2.93997   2.94651
 Alpha virt. eigenvalues --    2.95827   2.96654   2.97338   2.98582   2.99898
 Alpha virt. eigenvalues --    3.00589   3.01452   3.01896   3.05989   3.06458
 Alpha virt. eigenvalues --    3.08353   3.10281   3.10337   3.11235   3.16210
 Alpha virt. eigenvalues --    3.17355   3.19622   3.23786   3.25829   3.29792
 Alpha virt. eigenvalues --    3.31510   3.37199   3.38202   3.39818   3.41074
 Alpha virt. eigenvalues --    3.41501   3.44951   3.46288   3.47463   3.48909
 Alpha virt. eigenvalues --    3.49171   3.50634   3.52260   3.52610   3.54392
 Alpha virt. eigenvalues --    3.55239   3.57822   3.58959   3.59997   3.63181
 Alpha virt. eigenvalues --    3.64366   3.66449   3.68043   4.30508   4.33851
 Alpha virt. eigenvalues --    4.34444   4.36829   4.39215   4.41154   4.42711
 Alpha virt. eigenvalues --    4.45685   4.49301   4.51729   4.52279   4.57026
 Alpha virt. eigenvalues --    4.57742   4.60475   4.63025   4.66742   4.73100
 Alpha virt. eigenvalues --    4.80158   4.81772   4.84716   4.88875   4.89753
 Alpha virt. eigenvalues --    4.92762
          Condensed to atoms (all electrons):
              1          2          3          4          5          6
     1  O    8.289788   0.314037  -0.135906  -0.013660   0.033150   0.054790
     2  C    0.314037  10.403831  -1.200647   0.082126  -0.074808  -1.770251
     3  C   -0.135906  -1.200647   8.691877   0.190044   0.035858  -1.499128
     4  O   -0.013660   0.082126   0.190044   8.285423   0.213048  -0.177345
     5  H    0.033150  -0.074808   0.035858   0.213048   0.409218  -0.013480
     6  C    0.054790  -1.770251  -1.499128  -0.177345  -0.013480  16.169945
     7  O   -0.001068   0.026282  -0.094490  -0.008902   0.000808   0.145434
     8  H   -0.000146   0.018442  -0.027927   0.013088  -0.000267  -0.016206
     9  C   -0.039259   0.927671  -0.408369   0.000170  -0.005604   0.164943
    10  O   -0.000022   0.000242   0.005153   0.000115  -0.000001  -0.006255
    11  H    0.000044   0.000573   0.002154   0.000000   0.000000   0.000349
    12  C   -0.207381  -3.116607  -0.544126  -0.045080   0.038261   0.764153
    13  O    0.007461   0.048494   0.024201  -0.000892   0.000044  -0.036750
    14  C    0.028419   0.468497   0.195388   0.066719   0.007996  -6.582862
    15  O    0.000573  -0.034044   0.012157  -0.000851   0.000061  -0.052350
    16  C    0.004494   0.116580   0.140080  -0.009712   0.000510   0.403339
    17  C   -0.000429  -0.307943   0.099622   0.002417   0.000138  -0.606921
    18  O    0.000116   0.007673  -0.011437  -0.000012   0.000000   0.022440
    19  H   -0.000027   0.001232   0.000717   0.000001   0.000000  -0.021720
    20  C    0.000108  -0.002149   0.031380   0.000094   0.000001  -0.418483
    21  O    0.000000   0.000221   0.000086   0.000000   0.000000   0.002393
    22  H    0.000000   0.000034  -0.000017   0.000000   0.000000  -0.000133
    23  C    0.000183   0.025879  -0.057325  -0.000026  -0.000064  -0.023006
    24  O   -0.000012   0.004386  -0.000168   0.000227  -0.000001  -0.033927
    25  H    0.000002  -0.001662  -0.010444  -0.000010   0.000000   0.059384
    26  C   -0.000511  -0.030776   0.235470  -0.001014  -0.000012  -0.563319
    27  O    0.000000   0.000010   0.001434  -0.000002   0.000000  -0.014164
    28  C   -0.000004   0.004778  -0.003280   0.000022   0.000000  -0.002814
    29  O    0.000000   0.000018  -0.000026   0.000000   0.000000   0.001013
    30  H    0.000000   0.000000   0.000000   0.000000   0.000000   0.000009
    31  H    0.000000   0.000068  -0.001199   0.000000   0.000000   0.000018
    32  H    0.000001  -0.000049   0.000698  -0.000017   0.000000  -0.022735
    33  H    0.000000   0.000437  -0.001602   0.000000   0.000000  -0.002874
    34  H   -0.000004   0.004572  -0.012933   0.000012   0.000000  -0.033896
    35  H    0.000000   0.001279  -0.001444   0.000000   0.000000   0.014594
    36  H    0.000000   0.000138  -0.000119   0.000000   0.000000   0.004906
    37  H    0.000000   0.000006  -0.000018   0.000000   0.000000   0.000600
    38  H    0.236037   0.061337  -0.035435   0.000406  -0.002833   0.002406
    39  H   -0.000402   0.063978  -0.000499  -0.000056   0.000000   0.009795
    40  H    0.005220  -0.006594  -0.018673   0.000018  -0.000002  -0.002426
    41  H    0.008316  -0.047448   0.034226  -0.000020  -0.000012  -0.081924
    42  H   -0.045313   0.416488  -0.083898   0.002247  -0.000815  -0.042171
    43  H   -0.007344   0.080590   0.423612  -0.049631  -0.000042  -0.367248
    44  H   -0.001013   0.015482  -0.031048   0.002238   0.000034   0.314382
    45  H   -0.000054  -0.042789   0.052565  -0.000781   0.000003  -0.211628
              7          8          9         10         11         12
     1  O   -0.001068  -0.000146  -0.039259  -0.000022   0.000044  -0.207381
     2  C    0.026282   0.018442   0.927671   0.000242   0.000573  -3.116607
     3  C   -0.094490  -0.027927  -0.408369   0.005153   0.002154  -0.544126
     4  O   -0.008902   0.013088   0.000170   0.000115   0.000000  -0.045080
     5  H    0.000808  -0.000267  -0.005604  -0.000001   0.000000   0.038261
     6  C    0.145434  -0.016206   0.164943  -0.006255   0.000349   0.764153
     7  O    8.333493   0.218055   0.001055  -0.000038   0.000000  -0.040909
     8  H    0.218055   0.366123   0.000788   0.000000   0.000000  -0.000600
     9  C    0.001055   0.000788   7.431070   0.191213  -0.069405  -2.712426
    10  O   -0.000038   0.000000   0.191213   8.363897   0.220806  -0.015489
    11  H    0.000000   0.000000  -0.069405   0.220806   0.397963   0.058916
    12  C   -0.040909  -0.000600  -2.712426  -0.015489   0.058916  13.457847
    13  O    0.008123  -0.000529  -0.000376   0.005472   0.000254  -0.296910
    14  C    0.065098   0.031510  -0.566481  -0.056438   0.007728  -0.667505
    15  O   -0.001608   0.000200  -0.000708  -0.000600   0.000015  -0.003623
    16  C   -0.032076  -0.001025  -0.009248   0.020766  -0.001481  -0.476408
    17  C   -0.001516  -0.000469   0.016946  -0.016865   0.001820  -0.416283
    18  O    0.000040  -0.000004   0.001033  -0.000625   0.000304  -0.009578
    19  H   -0.000047   0.000000  -0.009196   0.007556  -0.000219   0.017439
    20  C   -0.000339  -0.000161  -0.006658   0.000125  -0.000222  -0.041497
    21  O    0.000002   0.000000  -0.000411   0.000010  -0.000001   0.001071
    22  H    0.000000   0.000000  -0.000032  -0.000004   0.000000   0.000316
    23  C   -0.008064  -0.002095   0.002904   0.000055   0.000000  -0.040223
    24  O   -0.005273   0.001679   0.000257  -0.000002   0.000000   0.005412
    25  H    0.011703  -0.000327   0.000089   0.000000   0.000000  -0.001144
    26  C    0.014563   0.001530   0.001957  -0.000840  -0.000031   0.120862
    27  O    0.000177  -0.000005  -0.000048  -0.000001   0.000000   0.001327
    28  C    0.000184   0.000016  -0.000556   0.000400  -0.000019   0.010551
    29  O    0.000013   0.000000   0.000011   0.000000   0.000000   0.000059
    30  H    0.000000   0.000000   0.000000   0.000000   0.000000  -0.000001
    31  H   -0.000547   0.000004   0.000010   0.000000   0.000000  -0.000151
    32  H    0.001604  -0.000099  -0.000017   0.000000   0.000000  -0.001854
    33  H   -0.000020   0.000000   0.000183   0.000001   0.000000   0.001441
    34  H   -0.001046   0.000025   0.000193  -0.000011   0.000000   0.019949
    35  H    0.000043   0.000000   0.000986  -0.000039   0.000000   0.005769
    36  H    0.000020   0.000000   0.000031   0.000001   0.000000   0.000273
    37  H    0.000002   0.000000   0.000001   0.000000   0.000000   0.000048
    38  H   -0.000016   0.000001   0.009897  -0.000033  -0.000001  -0.018307
    39  H    0.000004   0.000000   0.608960  -0.062724  -0.002198  -0.343478
    40  H    0.000000   0.000000   0.467389  -0.056089  -0.005238  -0.058982
    41  H   -0.000097   0.000003   0.026288   0.005211  -0.000021   0.153326
    42  H    0.000070   0.000008  -0.001571   0.000227  -0.000002  -0.070327
    43  H    0.003775  -0.000348   0.017878  -0.000016   0.000000  -0.046455
    44  H   -0.051118  -0.003994   0.015687  -0.000023   0.000000   0.002868
    45  H    0.006793  -0.000170   0.021919  -0.000559  -0.000003   0.002580
             13         14         15         16         17         18
     1  O    0.007461   0.028419   0.000573   0.004494  -0.000429   0.000116
     2  C    0.048494   0.468497  -0.034044   0.116580  -0.307943   0.007673
     3  C    0.024201   0.195388   0.012157   0.140080   0.099622  -0.011437
     4  O   -0.000892   0.066719  -0.000851  -0.009712   0.002417  -0.000012
     5  H    0.000044   0.007996   0.000061   0.000510   0.000138   0.000000
     6  C   -0.036750  -6.582862  -0.052350   0.403339  -0.606921   0.022440
     7  O    0.008123   0.065098  -0.001608  -0.032076  -0.001516   0.000040
     8  H   -0.000529   0.031510   0.000200  -0.001025  -0.000469  -0.000004
     9  C   -0.000376  -0.566481  -0.000708  -0.009248   0.016946   0.001033
    10  O    0.005472  -0.056438  -0.000600   0.020766  -0.016865  -0.000625
    11  H    0.000254   0.007728   0.000015  -0.001481   0.001820   0.000304
    12  C   -0.296910  -0.667505  -0.003623  -0.476408  -0.416283  -0.009578
    13  O    8.245377   0.432665   0.049066  -0.048154  -0.012153   0.008728
    14  C    0.432665  16.707297   0.438059  -2.890491  -0.348034  -0.009093
    15  O    0.049066   0.438059   8.256509  -0.077150  -0.124920  -0.006546
    16  C   -0.048154  -2.890491  -0.077150  21.255637  -6.013609  -0.154799
    17  C   -0.012153  -0.348034  -0.124920  -6.013609  15.837729   0.340975
    18  O    0.008728  -0.009093  -0.006546  -0.154799   0.340975   8.263362
    19  H    0.017399  -0.009827   0.002650  -0.067818   0.058682   0.219707
    20  C   -0.012172  -0.624196   0.035570  -1.894020  -1.068391  -0.095396
    21  O    0.000224   0.002889  -0.000803  -0.017732  -0.107496   0.009076
    22  H   -0.000011   0.001471  -0.000082   0.050247  -0.152320   0.011137
    23  C   -0.004847  -0.337891  -0.125497   1.219038  -0.353569   0.018853
    24  O    0.000539   0.069167  -0.001589   0.059362   0.005467   0.000269
    25  H   -0.000349  -0.059598   0.002089   0.113063   0.021126   0.000049
    26  C   -0.000948  -1.286240   0.091305  -7.479265  -0.451203   0.010497
    27  O    0.000368  -0.011823   0.006140  -0.341687  -0.055149   0.000993
    28  C    0.003345   0.152156   0.015298   1.117553  -0.540018   0.005047
    29  O   -0.000008   0.007227   0.000094   0.075694  -0.007231   0.000501
    30  H    0.000000   0.000441   0.000001   0.005973  -0.004155   0.000006
    31  H   -0.000021  -0.004760  -0.003582   0.188731   0.017375   0.000049
    32  H   -0.000556  -0.018749  -0.001660  -0.038654   0.005024   0.000021
    33  H    0.000131   0.086936   0.006559   0.122381  -0.001835  -0.000862
    34  H    0.003573   0.139748  -0.057843   0.317419  -0.063529  -0.002978
    35  H    0.001597   0.077353  -0.008387   0.037152   0.412118  -0.059873
    36  H    0.000096   0.003710  -0.001140   0.103948  -0.047392   0.003592
    37  H    0.000007   0.009331   0.000013   0.124077  -0.008032  -0.000607
    38  H   -0.000633  -0.004330   0.000005   0.000456  -0.000080   0.000000
    39  H    0.005507   0.010878   0.000215   0.000760  -0.000043  -0.000104
    40  H    0.003758  -0.009786  -0.000044   0.001409  -0.001303  -0.000049
    41  H   -0.044621   0.136599   0.002036   0.021963   0.023868  -0.002147
    42  H    0.001801   0.074720  -0.000580  -0.007124   0.003354  -0.000044
    43  H    0.004073   0.170253  -0.001455  -0.000398   0.007553  -0.000026
    44  H    0.005530  -0.058738  -0.008847   0.028236   0.015855  -0.000107
    45  H   -0.047602   0.280820  -0.057277   0.040060   0.084954  -0.006252
             19         20         21         22         23         24
     1  O   -0.000027   0.000108   0.000000   0.000000   0.000183  -0.000012
     2  C    0.001232  -0.002149   0.000221   0.000034   0.025879   0.004386
     3  C    0.000717   0.031380   0.000086  -0.000017  -0.057325  -0.000168
     4  O    0.000001   0.000094   0.000000   0.000000  -0.000026   0.000227
     5  H    0.000000   0.000001   0.000000   0.000000  -0.000064  -0.000001
     6  C   -0.021720  -0.418483   0.002393  -0.000133  -0.023006  -0.033927
     7  O   -0.000047  -0.000339   0.000002   0.000000  -0.008064  -0.005273
     8  H    0.000000  -0.000161   0.000000   0.000000  -0.002095   0.001679
     9  C   -0.009196  -0.006658  -0.000411  -0.000032   0.002904   0.000257
    10  O    0.007556   0.000125   0.000010  -0.000004   0.000055  -0.000002
    11  H   -0.000219  -0.000222  -0.000001   0.000000   0.000000   0.000000
    12  C    0.017439  -0.041497   0.001071   0.000316  -0.040223   0.005412
    13  O    0.017399  -0.012172   0.000224  -0.000011  -0.004847   0.000539
    14  C   -0.009827  -0.624196   0.002889   0.001471  -0.337891   0.069167
    15  O    0.002650   0.035570  -0.000803  -0.000082  -0.125497  -0.001589
    16  C   -0.067818  -1.894020  -0.017732   0.050247   1.219038   0.059362
    17  C    0.058682  -1.068391  -0.107496  -0.152320  -0.353569   0.005467
    18  O    0.219707  -0.095396   0.009076   0.011137   0.018853   0.000269
    19  H    0.343647   0.032698   0.000297  -0.000451  -0.001343  -0.000010
    20  C    0.032698   9.617336   0.324846   0.096673   0.018939  -0.008365
    21  O    0.000297   0.324846   8.183428   0.219567  -0.002870  -0.000094
    22  H   -0.000451   0.096673   0.219567   0.412347   0.001178   0.000002
    23  C   -0.001343   0.018939  -0.002870   0.001178   7.276582   0.412894
    24  O   -0.000010  -0.008365  -0.000094   0.000002   0.412894   8.186858
    25  H    0.000000  -0.002220  -0.000005   0.000000  -0.043136   0.239970
    26  C    0.003601   1.067704   0.028701  -0.004027  -2.688511  -0.374946
    27  O   -0.000028  -0.075134   0.007412  -0.001126  -0.034423   0.012925
    28  C   -0.001008  -0.584121  -0.145642   0.018160  -0.000278   0.010364
    29  O    0.000000  -0.177210  -0.006460  -0.000144  -0.012812  -0.000337
    30  H    0.000000   0.030817  -0.002381   0.000037   0.001676   0.000007
    31  H    0.000000  -0.001620  -0.000014   0.000000   0.518671  -0.053927
    32  H    0.000000   0.002412   0.000002   0.000000   0.516671  -0.049833
    33  H    0.000014  -0.066803  -0.000725  -0.000002   0.001952   0.011631
    34  H    0.000088  -0.018078  -0.000529  -0.000004  -0.000689   0.012110
    35  H   -0.007242  -0.221933  -0.000702  -0.000217   0.007708   0.000105
    36  H   -0.000112   0.241086  -0.042521  -0.008883   0.007526   0.000131
    37  H    0.000008  -0.148705   0.005032   0.000051   0.003108   0.000000
    38  H    0.000000   0.000001   0.000000   0.000000  -0.000002   0.000000
    39  H    0.000039  -0.000081   0.000000   0.000000   0.000004   0.000000
    40  H    0.000050   0.000063   0.000000   0.000000   0.000008   0.000000
    41  H    0.000240   0.001070   0.000000   0.000000  -0.000099  -0.000015
    42  H    0.000003   0.000030   0.000000   0.000000   0.000137   0.000000
    43  H   -0.000001   0.000499   0.000000   0.000000   0.000037  -0.000001
    44  H    0.000003   0.001419   0.000000   0.000000   0.004612  -0.000452
    45  H   -0.000736   0.022140  -0.000006   0.000000  -0.016163  -0.001498
             25         26         27         28         29         30
     1  O    0.000002  -0.000511   0.000000  -0.000004   0.000000   0.000000
     2  C   -0.001662  -0.030776   0.000010   0.004778   0.000018   0.000000
     3  C   -0.010444   0.235470   0.001434  -0.003280  -0.000026   0.000000
     4  O   -0.000010  -0.001014  -0.000002   0.000022   0.000000   0.000000
     5  H    0.000000  -0.000012   0.000000   0.000000   0.000000   0.000000
     6  C    0.059384  -0.563319  -0.014164  -0.002814   0.001013   0.000009
     7  O    0.011703   0.014563   0.000177   0.000184   0.000013   0.000000
     8  H   -0.000327   0.001530  -0.000005   0.000016   0.000000   0.000000
     9  C    0.000089   0.001957  -0.000048  -0.000556   0.000011   0.000000
    10  O    0.000000  -0.000840  -0.000001   0.000400   0.000000   0.000000
    11  H    0.000000  -0.000031   0.000000  -0.000019   0.000000   0.000000
    12  C   -0.001144   0.120862   0.001327   0.010551   0.000059  -0.000001
    13  O   -0.000349  -0.000948   0.000368   0.003345  -0.000008   0.000000
    14  C   -0.059598  -1.286240  -0.011823   0.152156   0.007227   0.000441
    15  O    0.002089   0.091305   0.006140   0.015298   0.000094   0.000001
    16  C    0.113063  -7.479265  -0.341687   1.117553   0.075694   0.005973
    17  C    0.021126  -0.451203  -0.055149  -0.540018  -0.007231  -0.004155
    18  O    0.000049   0.010497   0.000993   0.005047   0.000501   0.000006
    19  H    0.000000   0.003601  -0.000028  -0.001008   0.000000   0.000000
    20  C   -0.002220   1.067704  -0.075134  -0.584121  -0.177210   0.030817
    21  O   -0.000005   0.028701   0.007412  -0.145642  -0.006460  -0.002381
    22  H    0.000000  -0.004027  -0.001126   0.018160  -0.000144   0.000037
    23  C   -0.043136  -2.688511  -0.034423  -0.000278  -0.012812   0.001676
    24  O    0.239970  -0.374946   0.012925   0.010364  -0.000337   0.000007
    25  H    0.358742  -0.075494  -0.002672  -0.001510  -0.000009   0.000000
    26  C   -0.075494  18.012988   0.553385  -0.926217  -0.083113  -0.017148
    27  O   -0.002672   0.553385   8.443980   0.048475  -0.093977  -0.006560
    28  C   -0.001510  -0.926217   0.048475   5.592185   0.448147   0.000668
    29  O   -0.000009  -0.083113  -0.093977   0.448147   8.154639   0.237467
    30  H    0.000000  -0.017148  -0.006560   0.000668   0.237467   0.411300
    31  H    0.006446  -0.337198  -0.005376  -0.004079  -0.000207   0.000002
    32  H   -0.011894  -0.084842   0.008239   0.002128   0.000046   0.000000
    33  H   -0.000095   0.056578  -0.056104   0.060265  -0.000978  -0.000009
    34  H   -0.001291  -0.103294   0.001870   0.028773  -0.001119   0.000004
    35  H   -0.000003  -0.067422   0.003989   0.030664  -0.000140   0.000002
    36  H    0.000000  -0.001742   0.003347  -0.015238  -0.003590   0.000165
    37  H    0.000000  -0.055955  -0.060986   0.413855  -0.038040  -0.008455
    38  H    0.000000   0.000008   0.000000   0.000000   0.000000   0.000000
    39  H    0.000000  -0.000003   0.000000   0.000003   0.000000   0.000000
    40  H    0.000000   0.000018   0.000000   0.000000   0.000000   0.000000
    41  H    0.000000   0.001720   0.000000  -0.000055   0.000000   0.000000
    42  H    0.000000  -0.000504   0.000000   0.000002   0.000000   0.000000
    43  H    0.000002  -0.000937   0.000000   0.000028   0.000000   0.000000
    44  H    0.000144  -0.008278   0.000013  -0.000020   0.000000   0.000000
    45  H   -0.000084   0.080962   0.000304  -0.002063  -0.000005   0.000000
             31         32         33         34         35         36
     1  O    0.000000   0.000001   0.000000  -0.000004   0.000000   0.000000
     2  C    0.000068  -0.000049   0.000437   0.004572   0.001279   0.000138
     3  C   -0.001199   0.000698  -0.001602  -0.012933  -0.001444  -0.000119
     4  O    0.000000  -0.000017   0.000000   0.000012   0.000000   0.000000
     5  H    0.000000   0.000000   0.000000   0.000000   0.000000   0.000000
     6  C    0.000018  -0.022735  -0.002874  -0.033896   0.014594   0.004906
     7  O   -0.000547   0.001604  -0.000020  -0.001046   0.000043   0.000020
     8  H    0.000004  -0.000099   0.000000   0.000025   0.000000   0.000000
     9  C    0.000010  -0.000017   0.000183   0.000193   0.000986   0.000031
    10  O    0.000000   0.000000   0.000001  -0.000011  -0.000039   0.000001
    11  H    0.000000   0.000000   0.000000   0.000000   0.000000   0.000000
    12  C   -0.000151  -0.001854   0.001441   0.019949   0.005769   0.000273
    13  O   -0.000021  -0.000556   0.000131   0.003573   0.001597   0.000096
    14  C   -0.004760  -0.018749   0.086936   0.139748   0.077353   0.003710
    15  O   -0.003582  -0.001660   0.006559  -0.057843  -0.008387  -0.001140
    16  C    0.188731  -0.038654   0.122381   0.317419   0.037152   0.103948
    17  C    0.017375   0.005024  -0.001835  -0.063529   0.412118  -0.047392
    18  O    0.000049   0.000021  -0.000862  -0.002978  -0.059873   0.003592
    19  H    0.000000   0.000000   0.000014   0.000088  -0.007242  -0.000112
    20  C   -0.001620   0.002412  -0.066803  -0.018078  -0.221933   0.241086
    21  O   -0.000014   0.000002  -0.000725  -0.000529  -0.000702  -0.042521
    22  H    0.000000   0.000000  -0.000002  -0.000004  -0.000217  -0.008883
    23  C    0.518671   0.516671   0.001952  -0.000689   0.007708   0.007526
    24  O   -0.053927  -0.049833   0.011631   0.012110   0.000105   0.000131
    25  H    0.006446  -0.011894  -0.000095  -0.001291  -0.000003   0.000000
    26  C   -0.337198  -0.084842   0.056578  -0.103294  -0.067422  -0.001742
    27  O   -0.005376   0.008239  -0.056104   0.001870   0.003989   0.003347
    28  C   -0.004079   0.002128   0.060265   0.028773   0.030664  -0.015238
    29  O   -0.000207   0.000046  -0.000978  -0.001119  -0.000140  -0.003590
    30  H    0.000002   0.000000  -0.000009   0.000004   0.000002   0.000165
    31  H    0.591185  -0.040203  -0.001492   0.000169  -0.000009   0.000001
    32  H   -0.040203   0.583155  -0.001138   0.000438   0.000003   0.000002
    33  H   -0.001492  -0.001138   0.653071   0.006690   0.003888   0.000028
    34  H    0.000169   0.000438   0.006690   0.606724   0.006919   0.002002
    35  H   -0.000009   0.000003   0.003888   0.006919   0.616416   0.006410
    36  H    0.000001   0.000002   0.000028   0.002002   0.006410   0.586384
    37  H   -0.000025  -0.000001   0.006792  -0.000020   0.002526   0.004476
    38  H    0.000000   0.000000   0.000000   0.000000   0.000000   0.000000
    39  H    0.000000   0.000000   0.000000   0.000000   0.000000   0.000000
    40  H    0.000000   0.000000   0.000000   0.000000   0.000000   0.000000
    41  H    0.000000   0.000000   0.000000  -0.000048  -0.000010  -0.000001
    42  H    0.000000   0.000000   0.000000   0.000000   0.000000   0.000000
    43  H    0.000000   0.000001   0.000000   0.000010   0.000000   0.000000
    44  H    0.000000   0.000227  -0.000002   0.000023  -0.000002   0.000000
    45  H   -0.000001   0.000120  -0.000071   0.004563  -0.000024  -0.000054
             37         38         39         40         41         42
     1  O    0.000000   0.236037  -0.000402   0.005220   0.008316  -0.045313
     2  C    0.000006   0.061337   0.063978  -0.006594  -0.047448   0.416488
     3  C   -0.000018  -0.035435  -0.000499  -0.018673   0.034226  -0.083898
     4  O    0.000000   0.000406  -0.000056   0.000018  -0.000020   0.002247
     5  H    0.000000  -0.002833   0.000000  -0.000002  -0.000012  -0.000815
     6  C    0.000600   0.002406   0.009795  -0.002426  -0.081924  -0.042171
     7  O    0.000002  -0.000016   0.000004   0.000000  -0.000097   0.000070
     8  H    0.000000   0.000001   0.000000   0.000000   0.000003   0.000008
     9  C    0.000001   0.009897   0.608960   0.467389   0.026288  -0.001571
    10  O    0.000000  -0.000033  -0.062724  -0.056089   0.005211   0.000227
    11  H    0.000000  -0.000001  -0.002198  -0.005238  -0.000021  -0.000002
    12  C    0.000048  -0.018307  -0.343478  -0.058982   0.153326  -0.070327
    13  O    0.000007  -0.000633   0.005507   0.003758  -0.044621   0.001801
    14  C    0.009331  -0.004330   0.010878  -0.009786   0.136599   0.074720
    15  O    0.000013   0.000005   0.000215  -0.000044   0.002036  -0.000580
    16  C    0.124077   0.000456   0.000760   0.001409   0.021963  -0.007124
    17  C   -0.008032  -0.000080  -0.000043  -0.001303   0.023868   0.003354
    18  O   -0.000607   0.000000  -0.000104  -0.000049  -0.002147  -0.000044
    19  H    0.000008   0.000000   0.000039   0.000050   0.000240   0.000003
    20  C   -0.148705   0.000001  -0.000081   0.000063   0.001070   0.000030
    21  O    0.005032   0.000000   0.000000   0.000000   0.000000   0.000000
    22  H    0.000051   0.000000   0.000000   0.000000   0.000000   0.000000
    23  C    0.003108  -0.000002   0.000004   0.000008  -0.000099   0.000137
    24  O    0.000000   0.000000   0.000000   0.000000  -0.000015   0.000000
    25  H    0.000000   0.000000   0.000000   0.000000   0.000000   0.000000
    26  C   -0.055955   0.000008  -0.000003   0.000018   0.001720  -0.000504
    27  O   -0.060986   0.000000   0.000000   0.000000   0.000000   0.000000
    28  C    0.413855   0.000000   0.000003   0.000000  -0.000055   0.000002
    29  O   -0.038040   0.000000   0.000000   0.000000   0.000000   0.000000
    30  H   -0.008455   0.000000   0.000000   0.000000   0.000000   0.000000
    31  H   -0.000025   0.000000   0.000000   0.000000   0.000000   0.000000
    32  H   -0.000001   0.000000   0.000000   0.000000   0.000000   0.000000
    33  H    0.006792   0.000000   0.000000   0.000000   0.000000   0.000000
    34  H   -0.000020   0.000000   0.000000   0.000000  -0.000048   0.000000
    35  H    0.002526   0.000000   0.000000   0.000000  -0.000010   0.000000
    36  H    0.004476   0.000000   0.000000   0.000000  -0.000001   0.000000
    37  H    0.620325   0.000000   0.000000   0.000000   0.000000   0.000000
    38  H    0.000000   0.398817  -0.000219  -0.000040  -0.000206  -0.013148
    39  H    0.000000  -0.000219   0.626459  -0.050892   0.006496   0.003041
    40  H    0.000000  -0.000040  -0.050892   0.587948  -0.007817   0.000137
    41  H    0.000000  -0.000206   0.006496  -0.007817   0.603975   0.005599
    42  H    0.000000  -0.013148   0.003041   0.000137   0.005599   0.597572
    43  H    0.000000   0.000033  -0.000002   0.000008   0.003164   0.005848
    44  H    0.000000   0.000023  -0.000007   0.000001   0.000040   0.002721
    45  H   -0.000001   0.000003  -0.000001   0.000005   0.010569   0.000084
             43         44         45
     1  O   -0.007344  -0.001013  -0.000054
     2  C    0.080590   0.015482  -0.042789
     3  C    0.423612  -0.031048   0.052565
     4  O   -0.049631   0.002238  -0.000781
     5  H   -0.000042   0.000034   0.000003
     6  C   -0.367248   0.314382  -0.211628
     7  O    0.003775  -0.051118   0.006793
     8  H   -0.000348  -0.003994  -0.000170
     9  C    0.017878   0.015687   0.021919
    10  O   -0.000016  -0.000023  -0.000559
    11  H    0.000000   0.000000  -0.000003
    12  C   -0.046455   0.002868   0.002580
    13  O    0.004073   0.005530  -0.047602
    14  C    0.170253  -0.058738   0.280820
    15  O   -0.001455  -0.008847  -0.057277
    16  C   -0.000398   0.028236   0.040060
    17  C    0.007553   0.015855   0.084954
    18  O   -0.000026  -0.000107  -0.006252
    19  H   -0.000001   0.000003  -0.000736
    20  C    0.000499   0.001419   0.022140
    21  O    0.000000   0.000000  -0.000006
    22  H    0.000000   0.000000   0.000000
    23  C    0.000037   0.004612  -0.016163
    24  O   -0.000001  -0.000452  -0.001498
    25  H    0.000002   0.000144  -0.000084
    26  C   -0.000937  -0.008278   0.080962
    27  O    0.000000   0.000013   0.000304
    28  C    0.000028  -0.000020  -0.002063
    29  O    0.000000   0.000000  -0.000005
    30  H    0.000000   0.000000   0.000000
    31  H    0.000000   0.000000  -0.000001
    32  H    0.000001   0.000227   0.000120
    33  H    0.000000  -0.000002  -0.000071
    34  H    0.000010   0.000023   0.004563
    35  H    0.000000  -0.000002  -0.000024
    36  H    0.000000   0.000000  -0.000054
    37  H    0.000000   0.000000  -0.000001
    38  H    0.000033   0.000023   0.000003
    39  H   -0.000002  -0.000007  -0.000001
    40  H    0.000008   0.000001   0.000005
    41  H    0.003164   0.000040   0.010569
    42  H    0.005848   0.002721   0.000084
    43  H    0.594078   0.005949   0.002609
    44  H    0.005949   0.586399   0.006328
    45  H    0.002609   0.006328   0.642965
 Mulliken atomic charges:
              1
     1  O   -0.530184
     2  C   -0.459616
     3  C    0.003438
     4  O   -0.550401
     5  H    0.358811
     6  C    0.469125
     7  O   -0.590167
     8  H    0.402900
     9  C   -0.079161
    10  O   -0.604575
    11  H    0.387919
    12  C    0.512875
    13  O   -0.370302
    14  C   -0.126232
    15  O   -0.347429
    16  C   -0.008078
    17  C   -0.244137
    18  O   -0.563924
    19  H    0.413716
    20  C   -0.057054
    21  O   -0.456865
    22  H    0.356236
    23  C   -0.285684
    24  O   -0.503314
    25  H    0.399138
    26  C    0.361941
    27  O   -0.335124
    28  C    0.263855
    29  O   -0.499522
    30  H    0.350134
    31  H    0.131682
    32  H    0.151510
    33  H    0.115637
    34  H    0.141439
    35  H    0.137925
    36  H    0.152521
    37  H    0.130587
    38  H    0.365852
    39  H    0.124572
    40  H    0.151903
    41  H    0.139832
    42  H    0.151408
    43  H    0.153905
    44  H    0.155433
    45  H    0.127477
 Sum of Mulliken atomic charges =   0.00000
 Mulliken charges with hydrogens summed into heavy atoms:
              1
     1  O   -0.164332
     2  C   -0.308208
     3  C    0.157342
     4  O   -0.191590
     6  C    0.624558
     7  O   -0.187266
     9  C    0.197315
    10  O   -0.216657
    12  C    0.652706
    13  O   -0.370302
    14  C    0.001244
    15  O   -0.347429
    16  C    0.133360
    17  C   -0.106212
    18  O   -0.150208
    20  C    0.095466
    21  O   -0.100630
    23  C   -0.002492
    24  O   -0.104176
    26  C    0.477578
    27  O   -0.335124
    28  C    0.394442
    29  O   -0.149388
 Sum of Mulliken charges with hydrogens summed into heavy atoms =   0.00000
 APT atomic charges:
              1
     1  O   -0.653242
     2  C    0.444168
     3  C    0.381144
     4  O   -0.656631
     5  H    0.271845
     6  C    0.355073
     7  O   -0.664547
     8  H    0.290584
     9  C    0.480027
    10  O   -0.649045
    11  H    0.265442
    12  C    0.395308
    13  O   -0.766802
    14  C    0.899114
    15  O   -0.834341
    16  C    0.367377
    17  C    0.395916
    18  O   -0.700684
    19  H    0.332686
    20  C    0.374951
    21  O   -0.600495
    22  H    0.256654
    23  C    0.421263
    24  O   -0.641454
    25  H    0.346809
    26  C    0.401160
    27  O   -0.731567
    28  C    0.909512
    29  O   -0.665870
    30  H    0.266889
    31  H   -0.042833
    32  H   -0.007829
    33  H   -0.066690
    34  H   -0.019402
    35  H   -0.047300
    36  H   -0.029079
    37  H   -0.067472
    38  H    0.258159
    39  H   -0.059179
    40  H   -0.032629
    41  H   -0.033044
    42  H   -0.041895
    43  H   -0.043356
    44  H   -0.031648
    45  H   -0.027047
 Sum of APT charges=   0.00000
 APT Atomic charges with hydrogens summed into heavy atoms:
              1
     1  O   -0.395083
     2  C    0.402273
     3  C    0.337788
[...]
 009252,-0.00029277,-0.00004271,-0.00005892,0.00000694,-0.01027362,0.00
 163375,0.00408882,0.00265705,0.00111354,-0.00228163,0.00003030,0.00007
 865,0.00010134,0.00007580,-0.00002252,0.00000039,-0.00001794,0.0000021
 6,0.00001594,-0.00000841,-0.00000949,-0.00001197,0.00006038,-0.0000067
 9,-0.00001154,-0.00006480,-0.00000838,0.00004226,-0.00000851,0.0000008
 7,0.00000195,0.00000750,-0.00000230,-0.00000344,-0.00000525,0.00000230
 ,0.00000092,-0.00001630,0.00001348,0.00000160,0.00002054,-0.00000752,0
 .00000830,-0.00000895,0.00000206,-0.00000743,-0.00000538,0.00000248,0.
 00000057,0.00000921,0.00000247,-0.00000659,-0.00000720,-0.00000345,0.0
 0000247,0.00000453,-0.00000083,-0.00000379,-0.00000073,0.00000043,0.00
 000040,0.00000197,-0.00000070,0.00000117,0.00000144,0.00000009,-0.0000
 0279,0.00000315,-0.00000333,0.00000256,0.00000329,-0.00000434,-0.00000
 480,0.00000880,-0.00000028,0.00000889,0.00000277,-0.00000130,-0.000003
 75,0.00000203,-0.00000013,0.00000070,0.00076879,-0.00001552,-0.0003811
 7,0.00033911,-0.00068991,-0.00050332,0.00025986,0.00014200,-0.00005456
 ,0.00026515,-0.00117564,0.00079848,0.35638125,-0.00314481,0.00242790,-
 0.00050191,0.04394758,-0.05210978,-0.01193736,0.03226628,-0.00693630,-
 0.01207272,-0.00136914,0.00396128,0.00030650,0.00068884,-0.00047511,0.
 00075177,0.00119226,0.00067448,0.00061617,-0.00090743,-0.00004247,0.00
 000096,0.00018052,0.00000881,-0.00001076,-0.00135969,0.00185850,0.0009
 1401,0.00046869,-0.00008023,-0.00021911,0.00003011,-0.00003045,-0.0000
 6205,-0.02487228,0.00219421,0.01062106,-0.00036138,0.00087529,-0.00272
 934,0.00002201,-0.00014557,0.00003584,0.00001791,0.00007213,-0.0000713
 9,-0.00001825,0.00000749,0.00003133,-0.00004319,-0.00004639,-0.0000441
 7,0.00009029,0.00000352,0.00007857,-0.00011521,0.00003484,-0.00002286,
 0.00001026,0.00000442,0.00000643,0.00000275,0.00000528,0.00000199,-0.0
 0000027,0.00000153,-0.00000602,0.00002423,-0.00001748,0.00000735,-0.00
 002627,0.00001058,-0.00002748,0.00000878,0.00000361,0.00003537,0.00000
 059,0.00000846,-0.00000087,0.00000216,0.00000741,-0.00000718,-0.000007
 68,-0.00001479,0.00000231,0.00000240,0.00000398,0.00000116,-0.00000022
 ,-0.00000029,0.00000103,-0.00000288,0.00000219,-0.00000365,0.00000327,
 0.00000275,0.00000306,-0.00000131,0.00000191,-0.00000241,-0.00000114,-
 0.00000485,0.00000163,0.00001494,0.00000553,0.00000994,-0.00000055,-0.
 00000199,-0.00000336,0.00000070,0.00000161,0.00000112,0.00001406,0.001
 29511,0.00019605,0.00042285,-0.00033962,-0.00043899,0.00003732,-0.0000
 3603,0.00001935,-0.00049727,-0.00291380,0.00302363,-0.04591987,0.05497
 737,-0.04200324,0.00305732,-0.00885630,0.08965996,-0.01322328,-0.06679
 037,0.01651343,-0.00227935,-0.00444473,-0.00156523,0.00078984,0.001346
 52,-0.00038572,-0.00024814,0.00005522,0.00127033,-0.00014095,0.0001578
 7,-0.00056079,0.00013117,-0.00004963,0.00012146,0.00003502,0.00005244,
 -0.00020193,-0.00132626,-0.00001556,-0.00019739,0.00011001,0.00007210,
 -0.00005827,0.00002717,0.00003078,0.02097477,-0.00157530,-0.00778271,0
 .00027787,0.00001787,0.00137819,0.00034978,-0.00050158,-0.00058966,-0.
 00006558,0.00005368,-0.00010675,-0.00000985,-0.00001649,-0.00003176,0.
 00006358,0.00005388,0.00006805,-0.00011357,-0.00000659,-0.00012850,0.0
 0012246,-0.00004467,0.00004565,-0.00001343,-0.00001741,0.00000326,-0.0
 0000238,0.00001207,-0.00001722,-0.00000194,-0.00000637,0.00001265,0.00
 002526,-0.00001236,-0.00000903,-0.00003558,0.00000087,-0.00001814,0.00
 001988,0.00001055,0.00002605,0.00001914,0.00000246,0.00001315,-0.00001
 241,-0.00000328,-0.00001255,0.00001438,0.00000856,0.00002156,-0.000001
 63,-0.00000356,-0.00002003,0.00000137,-0.00000196,0.00000319,-0.000004
 89,-0.00000264,-0.00000359,0.00000247,0.00000009,0.00000442,-0.0000060
 4,0.00000534,-0.00000480,-0.00000694,0.00000722,0.00001601,-0.00002043
 ,-0.00000183,-0.00001805,-0.00000287,0.00000247,0.00000586,-0.00000312
 ,-0.00000095,-0.00000319,-0.00291062,0.00049134,0.00379716,-0.00027598
 ,0.00036746,0.00044943,-0.00005404,0.00002269,-0.00005850,0.00006704,0
 .00280505,-0.00254244,-0.07983946,0.01450097,0.08499824,0.00121326,0.0
 0043920,0.00064054,-0.00303008,0.00059765,-0.00012883,-0.33326622,0.05
 251316,0.06606772,-0.00467360,-0.00856278,0.01067481,-0.00098940,-0.00
 056738,-0.00050137,-0.02137484,0.00609328,0.00231410,0.00365418,0.0003
 5971,0.00182689,-0.00050824,-0.00019809,0.00005080,0.00042567,0.000042
 14,-0.00036871,0.00002799,0.00005598,0.00006112,-0.00000367,0.00002852
 ,-0.00001233,-0.00030810,-0.00023727,0.00045536,0.00066881,0.00024674,
 -0.00000503,-0.00120250,-0.00160226,0.00093537,0.00042829,0.00020859,-
 0.00059933,-0.00017468,0.00015418,0.00007861,-0.00000701,-0.00004269,-
 0.00011052,0.00007168,-0.00000733,0.00006749,-0.00004302,0.00001050,-0
 .00000690,-0.00000921,0.00002940,0.00001436,0.00001257,0.00000108,-0.0
 0000221,-0.00000413,0.00000567,-0.00000605,-0.00010248,0.00006788,0.00
 002253,0.00011015,-0.00003187,0.00005749,-0.00007471,-0.00000772,-0.00
 008060,0.00002457,-0.00001736,-0.00000493,0.00001807,0.00000732,-0.000
 01987,-0.00001397,-0.00001633,-0.00000447,0.00000875,0.00000222,0.0000
 0404,-0.00000151,0.00000110,-0.00000159,0.00001562,-0.00000547,0.00000
 024,0.00001327,0.00000181,-0.00000022,0.00001050,-0.00000734,0.0000162
 0,0.00003651,-0.00002707,-0.00003801,0.00001274,-0.00001395,0.00001060
 ,0.00000764,-0.00000208,-0.00001086,0.00000385,0.00000065,0.00000218,0
 .00019341,-0.00019369,-0.00013969,-0.00004166,-0.00024494,-0.00003497,
 -0.00001095,0.00004130,0.00003127,0.00071144,0.00031475,-0.00066089,0.
 00073957,-0.00009862,-0.00039049,0.35783500,-0.00175797,0.00213512,0.0
 0160437,0.03184760,-0.00917339,-0.00753412,0.05354919,-0.04865352,-0.0
 1613218,-0.02962240,-0.00626380,0.01964367,-0.00186424,-0.00046079,-0.
 00011957,-0.00193020,0.00182319,-0.00188071,-0.00073449,0.00063112,0.0
 0065415,-0.00052506,-0.00010411,0.00017013,-0.00005352,0.00000871,-0.0
 0021526,-0.00012404,-0.00008283,0.00012913,0.00002146,0.00000288,-0.00
 000322,0.00230491,0.00148943,-0.00164571,-0.00040949,-0.00036739,0.000
 57410,0.00049614,-0.00025625,-0.00047217,-0.00007644,0.00007546,-0.000
 18840,-0.00003903,0.00003245,0.00002685,0.00002131,-0.00000494,-0.0000
 0793,-0.00002691,0.00001902,-0.00000747,0.00002858,-0.00000669,-0.0000
 2174,0.00000330,0.00000378,0.00000415,-0.00000009,0.00000193,-0.000004
 87,0.00000071,-0.00000105,0.00000122,-0.00003342,0.00003604,-0.0000049
 1,0.00004695,-0.00003309,0.00005061,-0.00004107,0.00002366,-0.00008432
 ,0.00000837,0.00000665,0.00000771,-0.00000343,-0.00001017,-0.00000457,
 0.00000389,0.00000708,0.00000281,-0.00000079,-0.00000260,-0.00000009,0
 .00000020,0.00000079,-0.00000072,0.00000535,-0.00000648,0.00000351,0.0
 0000431,-0.00000093,-0.00000228,-0.00000236,-0.00000531,-0.00000162,0.
 00000496,0.00000979,0.00000498,-0.00000444,-0.00000281,-0.00000380,0.0
 0000015,0.00000123,0.00000154,-0.00000057,-0.00000106,-0.00000062,0.00
 002216,0.00015992,0.00043227,-0.00019123,0.00009026,0.00021871,-0.0000
 6747,-0.00004538,0.00000642,-0.00068819,-0.00031239,0.00068617,0.00014
 296,-0.00498802,-0.00280940,-0.04988912,0.06399542,-0.00038765,0.00133
 985,0.00174294,0.01691237,-0.00692064,-0.00298051,0.06701305,-0.016714
 03,-0.05783674,0.02452396,0.01077475,-0.01330104,0.00203486,0.00040669
 ,-0.00034220,-0.03124811,0.00459888,0.00397007,0.00180814,0.00166705,0
 .00275507,-0.00025329,-0.00034326,-0.00027928,-0.00010888,-0.00000858,
 0.00004229,-0.00006622,-0.00010074,0.00003627,0.00000565,-0.00001492,0
 .00001394,-0.00037820,0.00109316,-0.00052545,-0.00006009,0.00059160,-0
 .00032099,-0.00065760,-0.00103213,0.00179850,0.00038478,0.00002689,-0.
 00048164,-0.00011585,0.00011269,0.00011134,0.00002942,-0.00002192,-0.0
 0005095,0.00001869,0.00000909,-0.00000225,-0.00001158,-0.00001099,-0.0
 0000174,-0.00001104,0.00001429,0.00002066,0.00000747,0.00001390,-0.000
 01800,-0.00000282,-0.00000131,0.00000363,-0.00010588,0.00008623,0.0000
 2978,0.00009616,-0.00006172,0.00009235,-0.00006217,0.00001730,-0.00014
 240,0.00003309,-0.00001247,0.00001730,0.00000430,0.00000318,-0.0000352
 5,0.00000054,-0.00000861,0.00002048,0.00000632,-0.00000122,-0.00001573
 ,0.00000012,-0.00000014,0.00000238,0.00001612,-0.00001211,-0.00001031,
 0.00002470,0.00001323,0.00001344,0.00000198,-0.00000669,0.00001053,0.0
 0003213,-0.00000736,-0.00003700,-0.00000184,-0.00001077,0.00000474,0.0
 0000336,0.00000014,-0.00000669,0.00000081,0.00000029,-0.00000053,0.000
 01538,0.00040484,0.00023398,-0.00003182,0.00012446,0.00008585,-0.00003
 728,-0.00001942,-0.00000506,-0.00043675,0.00015832,0.00054309,0.000275
 63,-0.00255793,-0.00109760,-0.07693096,0.00690090,0.07062305,0.0005443
 5,-0.00015137,-0.00036786,-0.00093900,0.00149635,0.00070153,-0.0216434
 0,-0.00313719,0.00346844,0.00289859,-0.00025040,0.00125340,0.00024214,
 -0.00002989,0.00013454,-0.33969023,-0.02004871,0.07489482,-0.00265464,
 0.00907081,0.00558523,0.00020980,0.00022311,0.00064477,0.00002678,0.00
 000871,0.00004703,0.00003327,-0.00000497,-0.00002141,-0.00001708,-0.00
 000353,0.00000423,-0.00011735,0.00002548,0.00000122,0.00126867,-0.0006
 4236,-0.00080684,-0.00583412,-0.00015110,0.00159060,0.00135531,-0.0001
 1791,-0.00016983,0.00001395,0.00020774,0.00011538,0.00008211,0.0000106
 4,-0.00015800,0.00003307,-0.00008035,-0.00001761,-0.00002874,-0.000000
 21,0.00003366,-0.00000994,0.00004240,0.00002117,0.00000987,-0.00000461
 ,-0.00001787,-0.00000578,0.00000382,-0.00000130,-0.00022930,0.00015637
 ,0.00002341,0.00020509,-0.00013246,0.00019911,-0.00011416,0.00005655,-
 0.00040469,0.00001307,-0.00002269,0.00002212,0.00000164,-0.00002102,-0
 .00000275,0.00000204,0.00002673,-0.00000709,0.,-0.00000988,0.00000673,
 -0.00000095,0.00000416,-0.00000308,0.00003877,-0.00002195,-0.00000012,
 0.00003856,0.00001928,-0.00003407,0.00000577,-0.00001715,0.00001796,0.
 00007048,-0.00000615,-0.00013039,0.00000060,-0.00002247,0.00001598,0.0
 0000702,-0.00000270,-0.00000579,0.00000199,-0.00000306,0.00000140,-0.0
 0007070,-0.00012705,-0.00012695,0.00001256,-0.00004040,-0.00002858,0.0
 0000636,0.00001293,0.00000191,0.00015430,0.00015887,-0.00005044,0.0005
 9530,-0.00070214,-0.00049587,-0.00096146,-0.00041037,-0.00277034,0.363
 77021,0.00008030,0.00004944,0.00007912,-0.00045868,-0.00009053,0.00029
 414,-0.00157730,0.00221450,0.00235058,0.00071949,0.00028915,-0.0005054
 4,-0.00000295,0.00001155,-0.00004461,-0.02293610,-0.04191521,0.0092954
 4,0.03505224,-0.01592593,-0.02012690,0.00127575,0.00132634,-0.00067287
 ,0.,0.00007226,0.00005689,0.00001873,-0.00003670,-0.00001145,-0.000005
 55,-0.00000190,0.00000474,-0.00028632,-0.00005200,-0.00007701,0.001387
 86,0.00221162,-0.00031081,-0.03024418,-0.00271286,0.00937002,0.0014926
 5,0.00120342,-0.00202676,-0.00015685,0.00050419,0.00000362,-0.00018094
 ,-0.00008115,-0.00049705,0.00014900,-0.00033235,0.00043015,-0.00009170
 ,0.00019134,0.00005441,0.00002823,0.00003370,0.00000365,0.00000869,0.0
 0001953,0.00002683,0.00000983,0.00000933,-0.00002768,0.00032072,-0.000
 29990,0.00003081,-0.00039246,0.00025728,-0.00042240,0.00036376,-0.0001
 5085,0.00093418,0.00004060,-0.00005746,-0.00003330,0.00000819,0.000058
 50,-0.00001678,-0.00003873,-0.00007537,-0.00000457,0.00000975,0.000023
 99,0.00001647,-0.00000126,-0.00000393,0.00000214,-0.00005688,0.0000529
 5,-0.00001883,-0.00001851,0.00006461,0.00005574,0.00002850,0.00004325,
 0.00002749,0.00013776,-0.00018497,-0.00001621,0.00004085,-0.00000952,0
 .00002219,0.00000384,-0.00000517,-0.00001252,0.00000292,0.00000874,0.0
 0000286,0.00000459,0.00005437,-0.00000105,0.00001469,-0.00004303,-0.00
 003472,0.00000452,-0.00000798,-0.00000575,0.00025970,0.00007274,0.0000
 2880,-0.00016043,-0.00011397,-0.00031989,0.00002268,0.00014512,-0.0006
 4816,0.01489304,0.05747289,0.00051319,0.00005169,-0.00050627,-0.000880
 30,0.00115948,0.00133816,-0.03167265,-0.00224851,0.00477090,0.00175078
 ,-0.00084683,0.00272135,-0.00000335,-0.00020624,0.00026484,0.07437714,
 0.00835608,-0.06207340,0.02000194,-0.01141475,-0.00789327,-0.00036453,
 0.00073969,0.00011295,-0.00006320,0.00003207,0.00005024,-0.00001050,-0
 .00005570,0.00002546,0.00000696,0.00000078,0.00001113,-0.00033835,-0.0
 0008576,-0.00038688,-0.00163751,-0.00067030,0.00097434,0.02415064,0.00
 410054,-0.00656055,-0.00064007,-0.00130059,0.00251972,0.00040657,-0.00
 049939,-0.00030008,0.00004351,0.00006237,0.00039386,-0.00010714,0.0002
 2005,-0.00025413,0.00005945,-0.00011980,-0.00004292,-0.00000884,-0.000
 05630,-0.00001586,-0.00001628,-0.00001607,0.00000458,-0.00000243,-0.00
 000800,0.00001214,0.00044362,-0.00032521,-0.00017630,-0.00043431,0.000
 19589,-0.00031682,0.00038367,-0.00008421,0.00067520,-0.00012267,0.0001
 2142,0.00002159,-0.00003555,-0.00004357,0.00007140,0.00002618,0.000048
 70,-0.00000947,-0.00001863,-0.00000944,0.00001351,0.00000202,-0.000001
 55,-0.00000304,-0.00006711,0.00002491,0.00003244,-0.00009075,-0.000003
 19,-0.00005595,-0.00003520,0.00002094,-0.00005546,-0.00021083,0.000094
 95,0.00007211,-0.00002610,0.00003832,-0.00002264,-0.00000907,0.0000029
 0,0.00001323,-0.00000398,-0.00000200,-0.00000254,0.00001509,-0.0001626
 8,-0.00013087,0.00000273,-0.00000843,0.00000571,0.00000300,-0.00000009
 ,-0.00001014,0.00003528,0.00003676,-0.00019340,0.00024722,-0.00040755,
 -0.00021712,-0.00277519,-0.00006933,-0.00462648,-0.08317271,0.00014674
 ,0.07153958,0.00009833,-0.00007358,0.00017285,0.00000188,0.00038182,-0
 .00003098,-0.00036240,-0.00032089,-0.00014096,0.00018303,-0.00003665,-
 0.00001499,0.00002461,-0.00002657,0.00005681,-0.00330670,-0.00042381,0
 .00410694,0.00058371,-0.00046339,-0.00061041,0.00011234,-0.00012518,-0
 .00012546,0.00087618,-0.00008562,-0.00042779,0.00005629,0.00002556,0.0
 0002934,-0.00000159,0.00000112,0.00001804,0.00160605,-0.00212380,-0.00
 227592,-0.00274506,0.00620874,0.00528978,-0.31486864,-0.00661654,0.102
 45793,-0.02650497,0.00074256,-0.00782905,-0.00222297,0.00154174,0.0056
 0055,-0.00007155,0.00026981,-0.00138623,0.00018228,-0.00171921,0.00114
 277,-0.00029871,0.00044160,0.00027126,0.00012284,0.00012656,0.00006010
 ,0.00001877,0.00003584,-0.00001166,0.00001298,0.00001305,-0.00004327,-
 0.00034535,0.00007239,0.00009669,0.00030969,-0.00000102,0.00000964,-0.
 00022899,-0.00022310,-0.00003169,0.00078397,-0.00071651,-0.00011161,-0
 .00003202,-0.00001418,-0.00018593,-0.00006379,-0.00006713,-0.00000403,
 0.00002566,0.00002411,0.00001423,-0.00000413,0.00000187,0.00000140,0.0
 0005016,0.00000159,-0.00004537,0.00011217,0.00016400,-0.00004461,0.000
 31540,0.00008738,0.00040225,0.00257330,-0.00095395,-0.00004435,0.00003
 842,-0.00026825,0.00013597,0.00002362,-0.00000179,-0.00003987,0.000009
 28,0.00000682,0.00000505,0.00000271,0.00000258,0.00000074,-0.00010968,
 -0.00030784,-0.00017970,-0.00002218,0.00014315,0.00006217,0.00104420,-
 0.00019844,0.00046191,-0.00005854,0.00000082,-0.00026352,0.00055787,-0
 .00001617,0.00042934,0.00067522,0.00022998,0.00027827,0.34084632,-0.00
 002193,0.00037306,-0.00018527,-0.00050868,-0.00047022,-0.00001525,-0.0
 0134334,0.00031054,-0.00093673,0.00058319,-0.00027459,0.00039855,0.000
 13186,-0.00009445,0.00000469,-0.02809859,-0.00017375,0.01440100,0.0012
 5073,0.00255780,-0.00134520,0.00021095,0.00037319,-0.00006750,0.000140
 12,0.00012819,-0.00002416,-0.00011792,-0.00010471,0.00012026,-0.000000
 68,0.00001925,0.00000620,0.00548063,-0.00004906,0.00213418,0.02838288,
 -0.01321751,-0.02575250,-0.01457542,-0.04583331,0.00929567,0.00629280,
 0.00310731,0.00060128,-0.00119845,0.00170434,-0.00158702,0.00124784,0.
 00023798,0.00104791,-0.00073769,0.00025528,-0.00100459,0.00055852,-0.0
 0103582,-0.00006077,-0.00012850,0.00001139,0.00003772,0.00001291,0.000
 00668,-0.00013773,-0.00003867,-0.00003462,0.00007807,-0.00011964,0.000
 13703,-0.00008654,0.00014895,0.00006487,0.00000022,-0.00014312,-0.0001
 4710,0.00010184,-0.00005114,-0.00006680,-0.00008835,-0.00000285,-0.000
 08354,0.00003417,0.00009206,0.00017713,0.00002194,-0.00002202,-0.00005
 171,-0.00005280,0.00000599,-0.00000180,-0.00000131,-0.00000125,-0.0000
 2982,0.00004051,-0.00001444,-0.00004900,0.00005153,0.00000905,-0.00001
 987,-0.00000561,-0.00032822,0.00023934,-0.00101465,-0.00016856,-0.0000
 8972,-0.00007631,0.00000829,0.00002141,0.00002738,-0.00000894,-0.00001
 774,-0.00001013,-0.00000927,-0.00000061,-0.00000779,-0.00009812,0.0000
 5845,0.00011037,-0.00008964,-0.00007937,0.00003725,-0.00115935,0.00044
 440,-0.00016906,-0.00010382,-0.00015308,0.00002913,0.00052786,0.000083
 96,0.00015741,-0.00025490,-0.00429001,0.00319120,0.00426052,0.05605661
 ,-0.00007950,0.00000196,-0.00018131,-0.00035953,0.00031542,-0.00011350
 ,0.00093087,-0.00054071,0.00057687,-0.00043686,0.00000165,0.00020202,-
 0.00003861,-0.00005645,0.00000962,0.02070061,0.00404676,-0.00540257,-0
 .00113673,-0.00009746,0.00073071,-0.00010141,-0.00000195,0.00006586,-0
 .00020540,-0.00011177,0.00002866,-0.00005981,0.00007959,-0.00004452,-0
 .00000364,0.00000502,-0.00000653,0.00522043,-0.00188569,0.00064058,0.0
 1389858,-0.01130921,-0.01249856,0.11232829,0.00594172,-0.08367197,-0.0
 3125055,0.00014685,-0.00617716,-0.00914836,0.00041317,-0.00136449,-0.0
 0068482,0.00052144,-0.00083260,0.00030487,0.00056920,-0.00017885,0.000
 10146,0.00004649,0.00000622,0.00003997,0.00004064,-0.00006053,0.000007
 19,-0.00003508,0.00007239,0.00001013,0.00002190,-0.00001345,-0.0001854
 3,0.00007698,0.00017687,0.00019721,0.00006509,0.00000435,-0.00003271,0
 .00002386,0.00005301,-0.00018470,0.00021963,-0.00024358,0.00016745,0.0
 0005711,-0.00021234,-0.00009697,-0.00018602,0.00000834,0.00004460,0.00
 004009,-0.00000467,-0.00000410,-0.00000291,0.00000987,0.00005972,-0.00
 000519,-0.00007242,0.00010874,0.00011407,-0.00009365,0.00015975,-0.000
 12932,-0.00008415,-0.00097360,-0.00127766,-0.00253393,0.00012092,-0.00
 023489,0.00004055,0.00003844,0.00000044,-0.00006387,0.00001017,0.00001
 348,0.00001505,-0.00001558,0.00000193,-0.00001373,-0.00011631,0.000155
 24,0.00008269,-0.00003968,-0.00007671,-0.00003270,-0.00136886,-0.00031
 841,-0.00042429,-0.00018080,-0.00004048,0.00026045,-0.00049773,0.00009
 164,-0.00005384,0.00000896,0.00259774,-0.00179087,-0.10725664,0.000700
 77,0.11318595\\0.00750858,-0.00546732,-0.00647523,0.00723465,-0.002043
 11,0.00602120,-0.00471472,0.00585499,0.02194105,-0.00289138,0.00567424
 ,0.01804374,-0.00012491,-0.00686851,-0.03069051,-0.00414198,-0.0225211
 9,0.01360518,-0.00017615,-0.01340873,-0.00212011,0.00256836,0.02750705
 ,-0.01263329,0.00134160,0.01920614,-0.00784967,0.00221855,0.01373816,-
 0.01291842,-0.00275479,-0.03626791,0.00310049,-0.01873060,0.02430488,0
 .00598121,0.01054747,-0.01529615,-0.00753479,-0.02560467,0.00739987,-0
 .01005071,0.01803007,-0.01405891,0.02121111,0.01906674,0.03040088,-0.0
 0194451,-0.01282284,0.02471339,-0.00368936,0.00975597,-0.00816744,0.01
 756468,0.00110357,-0.01257188,-0.02554469,-0.01420760,0.01877692,-0.02
 638652,0.03939209,0.01267028,0.02990649,-0.02679906,0.00157801,-0.0146
 6936,0.02456043,-0.01480698,-0.01954853,0.00341100,0.00468967,0.018165
 70,-0.01110212,-0.00704606,-0.02152907,0.00138991,0.00410060,0.0173292
 8,-0.02427131,-0.01690660,0.03298277,0.03725612,-0.06821621,-0.0163356
 0,0.00674423,0.03730146,0.01117400,-0.00560911,-0.00071633,-0.00152907
 ,-0.00800302,-0.01273360,-0.01131797,-0.01141765,0.00662985,0.01038026
 ,-0.02204292,0.01051585,-0.00013972,0.01228134,-0.01360955,-0.00162945
 ,-0.02124309,0.00948776,-0.00252606,0.01597382,-0.01031386,-0.00343599
 ,-0.01571690,0.01065162,-0.00169014,-0.00202727,0.00289793,0.00296621,
 -0.01561350,0.00173767,0.01279762,0.01381305,-0.00246104,0.01223287,0.
 01747538,-0.00201513,-0.01005292,-0.01852842,0.00495635,0.00248580,0.0
 2026987,-0.00352927,-0.00492079,-0.01984520,0.00187878,0.00487823,0.01
 644641,0.00235345,-0.00560539\\\@


 SACRED COWS MAKE GREAT HAMBURGERS -- ROBERT REISNER
 Job cpu time:  0 days 13 hours 23 minutes 12.8 seconds.
 File lengths (MBytes):  RWF=   1331 Int=      0 D2E=      0 Chk=     19 Scr=      1
 Normal termination of Gaussian 09 at Tue Mar  1 16:57:34 2016.
Gaussian '09 finished on node008 at Tue Mar  1 16:57:34 EST 2016.
