Gaussian '09 started on node031 at Sat Oct 17 21:50:16 EDT 2015.
 Entering Gaussian System, Link 0=/usr/local/gaussian/g09/g09
 Initial command:
 /usr/local/gaussian/g09/l1.exe /home/srmcgrat/data/gaussian/cellobiose/450/6-31gdp/8000ps/gaussian14395/Gau-14431.inp -scrdir=/home/srmcgrat/data/gaussian/cellobiose/450/6-31gdp/8000ps/gaussian14395/
 Entering Link 1 = /usr/local/gaussian/g09/l1.exe PID=     14433.
  
 Copyright (c) 1988,1990,1992,1993,1995,1998,2003,2009,2010,
            Gaussian, Inc.  All Rights Reserved.
  
 This is part of the Gaussian(R) 09 program.  It is based on
 the Gaussian(R) 03 system (copyright 2003, Gaussian, Inc.),
 the Gaussian(R) 98 system (copyright 1998, Gaussian, Inc.),
 the Gaussian(R) 94 system (copyright 1995, Gaussian, Inc.),
 the Gaussian 92(TM) system (copyright 1992, Gaussian, Inc.),
 the Gaussian 90(TM) system (copyright 1990, Gaussian, Inc.),
 the Gaussian 88(TM) system (copyright 1988, Gaussian, Inc.),
 the Gaussian 86(TM) system (copyright 1986, Carnegie Mellon
 University), and the Gaussian 82(TM) system (copyright 1983,
 Carnegie Mellon University). Gaussian is a federally registered
 trademark of Gaussian, Inc.
  
 This software contains proprietary and confidential information,
 including trade secrets, belonging to Gaussian, Inc.
  
 This software is provided under written license and may be
 used, copied, transmitted, or stored only in accord with that
 written license.
  
 The following legend is applicable only to US Government
 contracts under FAR:
  
                    RESTRICTED RIGHTS LEGEND
  
 Use, reproduction and disclosure by the US Government is
 subject to restrictions as set forth in subparagraphs (a)
 and (c) of the Commercial Computer Software - Restricted
 Rights clause in FAR 52.227-19.
  
 Gaussian, Inc.
 340 Quinnipiac St., Bldg. 40, Wallingford CT 06492
  
  
 ---------------------------------------------------------------
 Warning -- This program may not be used in any manner that
 competes with the business of Gaussian, Inc. or will provide
 assistance to any competitor of Gaussian, Inc.  The licensee
 of this program is prohibited from giving any competitor of
 Gaussian, Inc. access to this program.  By using this program,
 the user acknowledges that Gaussian, Inc. is engaged in the
 business of creating and licensing software in the field of
 computational chemistry and represents and warrants to the
 licensee that it is not a competitor of Gaussian, Inc. and that
 it will not use this program in any manner prohibited above.
 ---------------------------------------------------------------
  

 Cite this work as:
 Gaussian 09, Revision B.01,
 M. J. Frisch, G. W. Trucks, H. B. Schlegel, G. E. Scuseria, 
 M. A. Robb, J. R. Cheeseman, G. Scalmani, V. Barone, B. Mennucci, 
 G. A. Petersson, H. Nakatsuji, M. Caricato, X. Li, H. P. Hratchian, 
 A. F. Izmaylov, J. Bloino, G. Zheng, J. L. Sonnenberg, M. Hada, 
 M. Ehara, K. Toyota, R. Fukuda, J. Hasegawa, M. Ishida, T. Nakajima, 
 Y. Honda, O. Kitao, H. Nakai, T. Vreven, J. A. Montgomery, Jr., 
 J. E. Peralta, F. Ogliaro, M. Bearpark, J. J. Heyd, E. Brothers, 
 K. N. Kudin, V. N. Staroverov, T. Keith, R. Kobayashi, J. Normand, 
 K. Raghavachari, A. Rendell, J. C. Burant, S. S. Iyengar, J. Tomasi, 
 M. Cossi, N. Rega, J. M. Millam, M. Klene, J. E. Knox, J. B. Cross, 
 V. Bakken, C. Adamo, J. Jaramillo, R. Gomperts, R. E. Stratmann, 
 O. Yazyev, A. J. Austin, R. Cammi, C. Pomelli, J. W. Ochterski, 
 R. L. Martin, K. Morokuma, V. G. Zakrzewski, G. A. Voth, 
 P. Salvador, J. J. Dannenberg, S. Dapprich, A. D. Daniels, 
 O. Farkas, J. B. Foresman, J. V. Ortiz, J. Cioslowski, 
 and D. J. Fox, Gaussian, Inc., Wallingford CT, 2010.
 
 ******************************************
 Gaussian 09:  EM64L-G09RevB.01 12-Aug-2010
                17-Oct-2015 
 ******************************************
 -------------------------------
 ## freq=raman b3lyp/6-31+g(d,p)
 -------------------------------
 1/10=4,30=1,38=1/1,3;
 2/12=2,17=6,18=5,40=1/2;
 3/5=1,6=6,7=111,11=2,16=1,25=1,30=1,71=2,74=-5/1,2,3;
 4//1;
 5/5=2,38=5,98=1/2;
 8/6=4,10=90,11=11/1;
 10/13=10,15=4/2;
 11/6=3,8=1,9=11,15=111,16=1/1,2,10;
 10/6=1/2;
 6/7=2,8=2,9=2,10=2,18=1,28=1/1;
 7/8=1,10=1,25=1/1,2,3,16;
 1/10=4,30=1/3;
 99//99;
 -----------------------------
 450K 8000ps Cellobiose Unit 1
 -----------------------------
 Symbolic Z-matrix:
 Charge =  0 Multiplicity = 1
 O(PDBName=O1,ResName=GLC,ResNum=6)  10.722    7.55      32.32 
 C(PDBName=C4,ResName=GLC,ResNum=7)  11.361    7.497     33.604 
 C(PDBName=C3,ResName=GLC,ResNum=7)  11.738    8.889     34.082 
 O(PDBName=O3,ResName=GLC,ResNum=7)  12.699    9.435     33.166 
 H(PDBName=HO3,ResName=GLC,ResNum=7)  12.365    9.12      32.278 
 C(PDBName=C2,ResName=GLC,ResNum=7)  12.472    8.782     35.409 
 O(PDBName=O2,ResName=GLC,ResNum=7)  13.147    9.936     35.929 
 H(PDBName=HO2,ResName=GLC,ResNum=7)  13.033    10.729    35.33 
 C(PDBName=C6,ResName=GLC,ResNum=7)  10.416    5.342     34.146 
 O(PDBName=O6,ResName=GLC,ResNum=7)  9.617     4.58      35.063 
 H(PDBName=HO6,ResName=GLC,ResNum=7)  9.555     3.666     34.662 
 C(PDBName=C5,ResName=GLC,ResNum=7)  10.61     6.748     34.692 
 O(PDBName=O5,ResName=GLC,ResNum=7)  11.111    6.883     36.03 
 C(PDBName=C1,ResName=GLC,ResNum=7)  11.55     8.181     36.457 
 O(PDBName=O1,ResName=GLC,ResNum=7)  12.154    7.886     37.725 
 C(PDBName=C4,ResName=GLC,ResNum=8)  11.326    8.227     38.846 
 C(PDBName=C3,ResName=GLC,ResNum=8)  10.693    6.919     39.292 
 O(PDBName=O3,ResName=GLC,ResNum=8)  9.83      6.303     38.326 
 H(PDBName=HO3,ResName=GLC,ResNum=8)  10.347    6.338     37.47 
 C(PDBName=C2,ResName=GLC,ResNum=8)  10.006    6.946     40.648 
 O(PDBName=O2,ResName=GLC,ResNum=8)  9.403     5.668     40.901 
 H(PDBName=HO2,ResName=GLC,ResNum=8)  8.776     5.583     40.126 
 C(PDBName=C6,ResName=GLC,ResNum=8)  12.497    10.29     39.694 
 O(PDBName=O6,ResName=GLC,ResNum=8)  13.199    11.036    40.698 
 H(PDBName=HO6,ResName=GLC,ResNum=8)  14.117    10.674    40.865 
 C(PDBName=C5,ResName=GLC,ResNum=8)  12.14     8.839     39.974 
 O(PDBName=O5,ResName=GLC,ResNum=8)  11.398    8.844     41.202 
 C(PDBName=C1,ResName=GLC,ResNum=8)  11.005    7.532     41.632 
 O(PDBName=O1,ResName=GLC,ResNum=8)  10.53     7.608     42.984 
 H                     11.38996   7.57844   31.63107 
 H                     11.27815   7.64176   43.5846 
 
 Residue   4                        charge    0.00000000 ave dist*************
 Residue   2 PDB Number     7_0 GLC charge    0.00000000 ave dist*************
 Residue   3 PDB Number     8_0 GLC charge    0.00000000 ave dist*************
 Residue   1 PDB Number     6_0 GLC charge    0.00000000 ave dist*************

 GradGradGradGradGradGradGradGradGradGradGradGradGradGradGradGradGradGrad
 Berny optimization.
 Initialization pass.
 Trust Radius=3.00D-01 FncErr=1.00D-07 GrdErr=1.00D-07
 Number of steps in this run=      2 maximum allowed number of steps=      2.
 GradGradGradGradGradGradGradGradGradGradGradGradGradGradGradGradGradGrad

                          Input orientation:                          
 ---------------------------------------------------------------------
 Center     Atomic      Atomic             Coordinates (Angstroms)
 Number     Number       Type             X           Y           Z
 ---------------------------------------------------------------------
      1          8           0       10.722000    7.550000   32.320000
      2          6           0       11.361000    7.497000   33.604000
      3          6           0       11.738000    8.889000   34.082000
      4          8           0       12.699000    9.435000   33.166000
      5          1           0       12.365000    9.120000   32.278000
      6          6           0       12.472000    8.782000   35.409000
      7          8           0       13.147000    9.936000   35.929000
      8          1           0       13.033000   10.729000   35.330000
      9          6           0       10.416000    5.342000   34.146000
     10          8           0        9.617000    4.580000   35.063000
     11          1           0        9.555000    3.666000   34.662000
     12          6           0       10.610000    6.748000   34.692000
     13          8           0       11.111000    6.883000   36.030000
     14          6           0       11.550000    8.181000   36.457000
     15          8           0       12.154000    7.886000   37.725000
     16          6           0       11.326000    8.227000   38.846000
     17          6           0       10.693000    6.919000   39.292000
     18          8           0        9.830000    6.303000   38.326000
     19          1           0       10.347000    6.338000   37.470000
     20          6           0       10.006000    6.946000   40.648000
     21          8           0        9.403000    5.668000   40.901000
     22          1           0        8.776000    5.583000   40.126000
     23          6           0       12.497000   10.290000   39.694000
     24          8           0       13.199000   11.036000   40.698000
     25          1           0       14.117000   10.674000   40.865000
     26          6           0       12.140000    8.839000   39.974000
     27          8           0       11.398000    8.844000   41.202000
     28          6           0       11.005000    7.532000   41.632000
     29          8           0       10.530000    7.608000   42.984000
     30          1           0       11.389960    7.578437   31.631073
     31          1           0       11.278155    7.641762   43.584604
 ---------------------------------------------------------------------
                    Distance matrix (angstroms):
                    1          2          3          4          5
     1  O    0.000000
     2  C    1.435195   0.000000
     3  C    2.435122   1.519301   0.000000
     4  O    2.859628   2.395398   1.435511   0.000000
     5  H    2.272908   2.323881   1.923774   0.999662   0.000000
     6  C    3.757958   2.478623   1.520241   2.347123   3.151008
     7  O    4.959688   3.813678   2.548117   2.843567   3.821934
     8  H    4.950441   4.027466   2.572961   2.543401   3.514230
     9  C    2.881523   2.414708   3.785893   4.788020   4.643416
    10  O    4.191178   3.698528   4.901886   6.055440   5.993274
    11  H    4.683194   4.365497   5.690485   6.738257   6.582224
    12  C    2.506418   1.519456   2.495669   3.729955   3.812323
    13  O    3.789500   2.514950   2.865636   4.151740   4.544688
    14  C    4.265972   2.939930   2.485404   3.704510   4.360044
    15  O    5.601566   4.214595   3.801383   4.845710   5.589015
    16  C    6.588765   5.292701   4.827389   5.967143   6.709366
    17  C    7.000556   5.756184   5.667188   6.919694   7.538977
    18  O    6.198605   5.105574   5.323476   6.683277   7.137228
    19  H    5.303967   4.161422   4.463298   5.800666   6.226453
    20  C    8.380516   7.194273   7.063103   8.332328   8.963708
    21  O    8.883425   7.773366   7.894671   9.213258   9.749148
    22  H    8.281886   7.272008   7.498868   8.869579   9.326435
    23  C    8.064372   6.795546   5.833817   6.586852   7.508887
    24  O    9.406307   8.138034   7.107432   7.716490   8.675426
    25  H    9.710944   8.391125   7.406413   7.925935   8.900617
    26  C    7.890245   6.556272   5.905910   6.856862   7.704414
    27  O    9.001185   7.716565   7.128255   8.162057   8.980481
    28  C    9.316317   8.035966   7.705922   8.841052   9.584814
    29  O   10.665886   9.417393   9.074460  10.219374  10.966850
    30  H    0.960000   1.974819   2.801026   2.741607   1.935364
    31  H   11.278698   9.981997   9.595131  10.666856  11.454506
                    6          7          8          9         10
     6  C    0.000000
     7  O    1.434483   0.000000
     8  H    2.027750   1.000323   0.000000
     9  C    4.201893   5.634029   6.104942   0.000000
    10  O    5.091910   6.472835   7.039215   1.435247   0.000000
    11  H    5.936359   7.336256   7.901182   1.953600   1.000020
    12  C    2.849261   4.257920   4.703864   1.520720   2.413279
    13  O    2.417470   3.671009   4.356122   2.531237   2.910487
    14  C    1.519733   2.430888   3.156220   3.832310   4.318209
    15  O    2.503557   2.900718   3.819858   4.722480   4.944922
    16  C    3.665284   3.840001   4.640701   5.589394   5.525611
    17  C    4.659753   5.141418   5.974039   5.389339   4.951074
    18  O    4.651289   5.472366   6.230947   4.328893   3.696115
    19  H    3.838813   4.812513   5.574502   3.470699   3.068731
    20  C    6.074469   6.408974   7.194091   6.709465   6.077952
    21  O    7.019816   7.546797   8.356235   6.838309   5.942372
    22  H    6.792945   7.461170   8.222225   6.205488   5.229461
    23  C    4.542677   3.837062   4.418655   7.719687   7.895864
    24  O    5.795047   4.894493   5.379334   9.115669   9.287835
    25  H    6.004467   5.084254   5.640417   9.341980   9.542014
    26  C    4.577412   4.310392   5.092768   7.011902   6.972986
    27  O    5.892043   5.661801   6.380191   7.938228   7.683813
    28  C    6.514623   6.549167   7.351789   7.821970   7.334344
    29  O    7.907608   7.876630   8.636514   9.124582   8.529044
    30  H    4.110001   5.207443   5.129102   3.503585   4.890004
    31  H    8.340618   8.207581   8.986045   9.752920   9.206061
                   11         12         13         14         15
    11  H    0.000000
    12  C    3.257706   0.000000
    13  O    3.826441   1.435085   0.000000
    14  C    5.252359   2.460145   1.435219   0.000000
    15  O    5.826248   3.588603   2.228650   1.435153   0.000000
    16  C    6.437781   4.467193   3.127686   2.399919   1.434749
    17  C    5.771824   4.603925   3.288870   3.219366   2.350553
    18  O    4.522642   3.743312   2.692392   3.158868   2.875424
    19  H    3.956224   2.820382   1.718814   2.422814   2.393027
    20  C    6.840614   5.989821   4.748781   4.633966   3.747190
    21  O    6.554100   6.416769   5.302842   5.538404   4.751263
    22  H    5.842690   5.852276   4.890751   5.282636   4.741254
    23  C    8.823478   6.412998   5.191680   3.977796   3.126312
    24  O   10.199457   7.820607   6.587669   5.371807   4.455699
    25  H   10.411586   8.112857   6.839952   5.677588   4.635290
    26  C    7.852356   5.883256   4.521052   3.626342   2.442623
    27  O    8.542829   6.884349   5.538725   4.793506   3.684946
    28  C    8.101195   6.995304   5.640465   5.243935   4.087807
    29  O    9.259896   8.336862   7.015789   6.631022   5.511056
    30  H    5.278329   3.266074   4.462287   4.866032   6.149333
    31  H    9.919113   8.962346   7.594452   7.153140   5.929731
                   16         17         18         19         20
    16  C    0.000000
    17  C    1.520023   0.000000
    18  O    2.492026   1.434357   0.000000
    19  H    2.533799   1.943441   1.000625   0.000000
    20  C    2.574988   1.520340   2.415804   3.253556   0.000000
    21  O    3.803871   2.412049   2.686295   3.621022   1.435584
    22  H    3.889940   2.480996   2.206653   3.176854   1.908705
    23  C    2.519189   3.844432   4.988034   5.018663   4.277562
    24  O    3.850781   5.020614   6.275176   6.373782   5.189012
    25  H    4.225382   5.319599   6.628011   6.673816   5.553863
    26  C    1.519712   2.499066   3.805693   3.967350   2.931157
    27  O    2.436516   2.801919   4.145682   4.616542   2.418054
    28  C    2.889267   2.438998   3.717620   4.379594   1.519754
    29  O    4.259087   3.759276   4.887739   5.661324   2.483891
    30  H    7.244301   7.720778   6.991585   6.059663   9.144413
    31  H    4.774847   4.392179   5.616258   6.321014   3.275073
                   21         22         23         24         25
    21  O    0.000000
    22  H    1.000489   0.000000
    23  C    5.691447   6.015672   0.000000
    24  O    6.577708   7.044524   1.434342   0.000000
    25  H    6.876273   7.415570   2.035460   1.000828   0.000000
    26  C    4.290191   4.684137   1.520280   2.544104   2.840710
    27  O    3.762659   4.320507   2.360674   2.881403   3.294758
    28  C    2.564227   3.321909   3.686254   4.238397   4.488318
    29  O    3.061473   3.917308   4.678281   4.909230   5.172725
    30  H    9.671056   9.109245   8.578397   9.870994  10.113588
    31  H    3.822783   4.739327   4.861641   4.852111   4.964852
                   26         27         28         29         30
    26  C    0.000000
    27  O    1.434773   0.000000
    28  C    2.396964   1.435511   0.000000
    29  O    3.628713   2.335946   1.435028   0.000000
    30  H    8.470892   9.654240  10.008441  11.385489   0.000000
    31  H    3.900336   2.671430   1.974670   0.960000  11.954221
                   31
    31  H    0.000000
 Stoichiometry    C12H8O11
 Framework group  C1[X(C12H8O11)]
 Deg. of freedom    87
 Full point group                 C1      NOp   1
 Largest Abelian subgroup         C1      NOp   1
 Largest concise Abelian subgroup C1      NOp   1
                         Standard orientation:                         
 ---------------------------------------------------------------------
 Center     Atomic      Atomic             Coordinates (Angstroms)
 Number     Number       Type             X           Y           Z
 ---------------------------------------------------------------------
      1          8           0        5.175690   -0.315295   -0.654820
      2          6           0        3.918218   -0.051515   -0.015313
      3          6           0        3.353098    1.287564   -0.457788
      4          8           0        4.255626    2.319934   -0.033115
      5          1           0        5.153652    1.909137   -0.188422
      6          6           0        2.059428    1.558859    0.293178
      7          8           0        1.478281    2.868967    0.232954
      8          1           0        2.015321    3.482578   -0.346456
      9          6           0        3.504271   -2.383486    0.455189
     10          8           0        2.621000   -3.501983    0.285687
     11          1           0        3.084422   -4.272491    0.723407
     12          6           0        2.864948   -1.139377   -0.141506
     13          8           0        1.536098   -0.801260    0.281938
     14          6           0        1.030388    0.497704   -0.059829
     15          8           0       -0.194835    0.543135    0.686113
     16          6           0       -1.361343    0.307548   -0.115300
     17          6           0       -1.731023   -1.146468    0.128918
     18          8           0       -0.749299   -2.101256   -0.297673
     19          1           0        0.116892   -1.743463    0.052966
     20          6           0       -3.105173   -1.570655   -0.364248
     21          8           0       -3.283695   -2.974815   -0.124733
     22          1           0       -2.523456   -3.366961   -0.643613
     23          6           0       -2.319955    2.632868   -0.257659
     24          8           0       -3.353630    3.601902   -0.034447
     25          1           0       -3.467089    3.816601    0.936474
     26          6           0       -2.505741    1.224437    0.283688
     27          8           0       -3.752324    0.756421   -0.250694
     28          6           0       -4.098677   -0.564324    0.192437
     29          8           0       -5.466087   -0.827973   -0.153953
     30          1           0        5.880239    0.115490   -0.165294
     31          1           0       -6.045206   -0.402021    0.482275
 ---------------------------------------------------------------------
 Rotational constants (GHZ):      0.4027351      0.1543568      0.1132708
 Standard basis: 6-31+G(d,p) (6D, 7F)
 There are   477 symmetry adapted basis functions of A   symmetry.
 Integral buffers will be    131072 words long.
 Raffenetti 2 integral format.
 Two-electron integral symmetry is turned on.
   477 basis functions,   792 primitive gaussians,   477 cartesian basis functions
    84 alpha electrons       84 beta electrons
       nuclear repulsion energy      1915.8746936514 Hartrees.
 NAtoms=   31 NActive=   31 NUniq=   31 SFac= 1.00D+00 NAtFMM=   50 NAOKFM=F Big=F
 One-electron integrals computed using PRISM.
 NBasis=   477 RedAO= T  NBF=   477
 NBsUse=   477 1.00D-06 NBFU=   477
 Harris functional with IExCor=  402 diagonalized for initial guess.
 ExpMin= 4.38D-02 ExpMax= 5.48D+03 ExpMxC= 8.25D+02 IAcc=2 IRadAn=         0 AccDes= 0.00D+00
 HarFok:  IExCor=  402 AccDes= 0.00D+00 IRadAn=         0 IDoV= 1
 ScaDFX=  1.000000  1.000000  1.000000  1.000000
 FoFCou: FMM=F IPFlag=           0 FMFlag=      100000 FMFlg1=           0
         NFxFlg=           0 DoJE=T BraDBF=F KetDBF=T FulRan=T
         Omega=  0.000000  0.000000  1.000000  0.000000  0.000000 ICntrl=     500 IOpCl=  0
         NMat0=    1 NMatS0=    1 NMatT0=    0 NMatD0=    1 NMtDS0=    0 NMtDT0=    0
         I1Cent=           4 NGrid=           0.
 Petite list used in FoFCou.
 Initial guess orbital symmetries:
       Occupied  (A) (A) (A) (A) (A) (A) (A) (A) (A) (A) (A) (A)
                 (A) (A) (A) (A) (A) (A) (A) (A) (A) (A) (A) (A)
                 (A) (A) (A) (A) (A) (A) (A) (A) (A) (A) (A) (A)
                 (A) (A) (A) (A) (A) (A) (A) (A) (A) (A) (A) (A)
                 (A) (A) (A) (A) (A) (A) (A) (A) (A) (A) (A) (A)
                 (A) (A) (A) (A) (A) (A) (A) (A) (A) (A) (A) (A)
                 (A) (A) (A) (A) (A) (A) (A) (A) (A) (A) (A) (A)
       Virtual   (A) (A) (A) (A) (A) (A) (A) (A) (A) (A) (A) (A)
                 (A) (A) (A) (A) (A) (A) (A) (A) (A) (A) (A) (A)
                 (A) (A) (A) (A) (A) (A) (A) (A) (A) (A) (A) (A)
                 (A) (A) (A) (A) (A) (A) (A) (A) (A) (A) (A) (A)
                 (A) (A) (A) (A) (A) (A) (A) (A) (A) (A) (A) (A)
                 (A) (A) (A) (A) (A) (A) (A) (A) (A) (A) (A) (A)
                 (A) (A) (A) (A) (A) (A) (A) (A) (A) (A) (A) (A)
                 (A) (A) (A) (A) (A) (A) (A) (A) (A) (A) (A) (A)
                 (A) (A) (A) (A) (A) (A) (A) (A) (A) (A) (A) (A)
                 (A) (A) (A) (A) (A) (A) (A) (A) (A) (A) (A) (A)
                 (A) (A) (A) (A) (A) (A) (A) (A) (A) (A) (A) (A)
                 (A) (A) (A) (A) (A) (A) (A) (A) (A) (A) (A) (A)
                 (A) (A) (A) (A) (A) (A) (A) (A) (A) (A) (A) (A)
                 (A) (A) (A) (A) (A) (A) (A) (A) (A) (A) (A) (A)
                 (A) (A) (A) (A) (A) (A) (A) (A) (A) (A) (A) (A)
                 (A) (A) (A) (A) (A) (A) (A) (A) (A) (A) (A) (A)
                 (A) (A) (A) (A) (A) (A) (A) (A) (A) (A) (A) (A)
                 (A) (A) (A) (A) (A) (A) (A) (A) (A) (A) (A) (A)
                 (A) (A) (A) (A) (A) (A) (A) (A) (A) (A) (A) (A)
                 (A) (A) (A) (A) (A) (A) (A) (A) (A) (A) (A) (A)
                 (A) (A) (A) (A) (A) (A) (A) (A) (A) (A) (A) (A)
                 (A) (A) (A) (A) (A) (A) (A) (A) (A) (A) (A) (A)
                 (A) (A) (A) (A) (A) (A) (A) (A) (A) (A) (A) (A)
                 (A) (A) (A) (A) (A) (A) (A) (A) (A) (A) (A) (A)
                 (A) (A) (A) (A) (A) (A) (A) (A) (A) (A) (A) (A)
                 (A) (A) (A) (A) (A) (A) (A) (A) (A) (A) (A) (A)
                 (A) (A) (A) (A) (A) (A) (A) (A) (A) (A) (A) (A)
                 (A) (A) (A) (A) (A) (A) (A) (A) (A) (A) (A) (A)
                 (A) (A) (A) (A) (A) (A) (A) (A) (A) (A) (A) (A)
                 (A) (A) (A) (A) (A) (A) (A) (A) (A) (A) (A) (A)
                 (A) (A) (A) (A) (A) (A) (A) (A) (A) (A) (A) (A)
                 (A) (A) (A) (A) (A) (A) (A) (A) (A) (A) (A) (A)
                 (A) (A) (A) (A) (A) (A) (A) (A) (A)
 The electronic state of the initial guess is 1-A.
 Requested convergence on RMS density matrix=1.00D-08 within 128 cycles.
 Requested convergence on MAX density matrix=1.00D-06.
 Requested convergence on             energy=1.00D-06.
 No special actions if energy rises.
 Rare condition: small coef for last iteration:  0.000D+00
 EnCoef did   100 forward-backward iterations
 EnCoef did   100 forward-backward iterations
 EnCoef did     1 forward-backward iterations
 EnCoef did    10 forward-backward iterations
 EnCoef did    12 forward-backward iterations
 EnCoef did     3 forward-backward iterations
 Restarting incremental Fock formation.
 SCF Done:  E(RB3LYP) =  -1288.87498257     A.U. after   29 cycles
             Convg  =    0.5493D-08             -V/T =  2.0107
 Range of M.O.s used for correlation:     1   477
 NBasis=   477 NAE=    84 NBE=    84 NFC=     0 NFV=     0
 NROrb=    477 NOA=    84 NOB=    84 NVA=   393 NVB=   393

 **** Warning!!: The largest alpha MO coefficient is  0.74424245D+02


 **** Warning!!: The smallest alpha delta epsilon is  0.22174901D-01

          Differentiating once with respect to electric field.
                with respect to dipole field.
          Electric field/nuclear overlap derivatives assumed to be zero.
          There are     3 degrees of freedom in the 1st order CPHF.  IDoFFX=0.
      3 vectors produced by pass  0 Test12= 1.10D-12 3.33D-08 XBig12= 4.64D+04 2.14D+02.
 AX will form     3 AO Fock derivatives at one time.
      3 vectors produced by pass  1 Test12= 1.10D-12 3.33D-08 XBig12= 7.86D+04 1.47D+02.
      3 vectors produced by pass  2 Test12= 1.10D-12 3.33D-08 XBig12= 6.23D+04 6.24D+01.
      3 vectors produced by pass  3 Test12= 1.10D-12 3.33D-08 XBig12= 3.29D+04 8.61D+01.
      3 vectors produced by pass  4 Test12= 1.10D-12 3.33D-08 XBig12= 2.42D+04 3.13D+01.
      3 vectors produced by pass  5 Test12= 1.10D-12 3.33D-08 XBig12= 9.33D+03 2.63D+01.
      3 vectors produced by pass  6 Test12= 1.10D-12 3.33D-08 XBig12= 3.67D+03 2.02D+01.
      3 vectors produced by pass  7 Test12= 1.10D-12 3.33D-08 XBig12= 1.40D+03 7.38D+00.
      3 vectors produced by pass  8 Test12= 1.10D-12 3.33D-08 XBig12= 3.55D+02 4.17D+00.
      3 vectors produced by pass  9 Test12= 1.10D-12 3.33D-08 XBig12= 2.66D+02 3.91D+00.
      3 vectors produced by pass 10 Test12= 1.10D-12 3.33D-08 XBig12= 8.30D+01 2.11D+00.
      3 vectors produced by pass 11 Test12= 1.10D-12 3.33D-08 XBig12= 3.58D+01 1.62D+00.
      3 vectors produced by pass 12 Test12= 1.10D-12 3.33D-08 XBig12= 1.44D+01 8.91D-01.
      3 vectors produced by pass 13 Test12= 1.10D-12 3.33D-08 XBig12= 2.64D+00 3.61D-01.
      3 vectors produced by pass 14 Test12= 1.10D-12 3.33D-08 XBig12= 1.04D+00 1.64D-01.
      3 vectors produced by pass 15 Test12= 1.10D-12 3.33D-08 XBig12= 1.96D-01 7.91D-02.
      3 vectors produced by pass 16 Test12= 1.10D-12 3.33D-08 XBig12= 2.59D-02 2.77D-02.
      3 vectors produced by pass 17 Test12= 1.10D-12 3.33D-08 XBig12= 9.95D-03 1.47D-02.
      3 vectors produced by pass 18 Test12= 1.10D-12 3.33D-08 XBig12= 9.57D-04 5.47D-03.
      3 vectors produced by pass 19 Test12= 1.10D-12 3.33D-08 XBig12= 5.30D-05 1.05D-03.
      3 vectors produced by pass 20 Test12= 1.10D-12 3.33D-08 XBig12= 3.09D-06 3.03D-04.
      3 vectors produced by pass 21 Test12= 1.10D-12 3.33D-08 XBig12= 1.23D-07 4.30D-05.
      3 vectors produced by pass 22 Test12= 1.10D-12 3.33D-08 XBig12= 4.59D-09 8.46D-06.
      3 vectors produced by pass 23 Test12= 1.10D-12 3.33D-08 XBig12= 2.44D-10 2.29D-06.
      1 vectors produced by pass 24 Test12= 1.10D-12 3.33D-08 XBig12= 1.77D-11 5.42D-07.
      1 vectors produced by pass 25 Test12= 1.10D-12 3.33D-08 XBig12= 5.56D-13 6.74D-08.
 Inverted reduced A of dimension    74 with in-core refinement.
 End of Minotr Frequency-dependent properties file   721 does not exist.
 End of Minotr Frequency-dependent properties file   722 does not exist.
 Symmetrizing basis deriv contribution to polar:
 IMax=3 JMax=2 DiffMx= 0.00D+00
 G2DrvN: will do    32 centers at a time, making    1 passes doing MaxLOS=2.
 Calling FoFCou, ICntrl=  3107 FMM=F I1Cent=   0 AccDes= 0.00D+00.
 FoFDir/FoFCou used for L=0 through L=2.
 End of G2Drv Frequency-dependent properties file   721 does not exist.
 End of G2Drv Frequency-dependent properties file   722 does not exist.
          IDoAtm=1111111111111111111111111111111
          Differentiating once with respect to electric field.
                with respect to dipole field.
          Differentiating once with respect to nuclear coordinates.
          There are    96 degrees of freedom in the 1st order CPHF.  IDoFFX=5.
 Will reuse    3 saved solutions.
     90 vectors produced by pass  0 Test12= 3.44D-14 1.04D-09 XBig12= 7.16D-01 6.51D-01.
 AX will form    90 AO Fock derivatives at one time.
     90 vectors produced by pass  1 Test12= 3.44D-14 1.04D-09 XBig12= 2.39D-01 8.27D-02.
     90 vectors produced by pass  2 Test12= 3.44D-14 1.04D-09 XBig12= 1.74D-03 5.84D-03.
     90 vectors produced by pass  3 Test12= 3.44D-14 1.04D-09 XBig12= 3.07D-05 3.93D-04.
     90 vectors produced by pass  4 Test12= 3.44D-14 1.04D-09 XBig12= 1.74D-07 3.02D-05.
     90 vectors produced by pass  5 Test12= 3.44D-14 1.04D-09 XBig12= 5.12D-10 1.54D-06.
     76 vectors produced by pass  6 Test12= 3.44D-14 1.04D-09 XBig12= 2.73D-12 1.11D-07.
     49 vectors produced by pass  7 Test12= 3.44D-14 1.04D-09 XBig12= 1.72D-13 2.93D-08.
      3 vectors produced by pass  8 Test12= 3.44D-14 1.04D-09 XBig12= 7.43D-16 2.22D-09.
      1 vectors produced by pass  9 Test12= 3.44D-14 1.04D-09 XBig12= 2.13D-16 1.12D-09.
 Inverted reduced A of dimension   669 with in-core refinement.
 Isotropic polarizability for W=    0.000000      394.72 Bohr**3.
 End of Minotr Frequency-dependent properties file   721 does not exist.
 End of Minotr Frequency-dependent properties file   722 does not exist.

 **********************************************************************

            Population analysis using the SCF density.

 **********************************************************************

 Orbital symmetries:
       Occupied  (A) (A) (A) (A) (A) (A) (A) (A) (A) (A) (A) (A)
                 (A) (A) (A) (A) (A) (A) (A) (A) (A) (A) (A) (A)
                 (A) (A) (A) (A) (A) (A) (A) (A) (A) (A) (A) (A)
                 (A) (A) (A) (A) (A) (A) (A) (A) (A) (A) (A) (A)
                 (A) (A) (A) (A) (A) (A) (A) (A) (A) (A) (A) (A)
                 (A) (A) (A) (A) (A) (A) (A) (A) (A) (A) (A) (A)
                 (A) (A) (A) (A) (A) (A) (A) (A) (A) (A) (A) (A)
       Virtual   (A) (A) (A) (A) (A) (A) (A) (A) (A) (A) (A) (A)
                 (A) (A) (A) (A) (A) (A) (A) (A) (A) (A) (A) (A)
                 (A) (A) (A) (A) (A) (A) (A) (A) (A) (A) (A) (A)
                 (A) (A) (A) (A) (A) (A) (A) (A) (A) (A) (A) (A)
                 (A) (A) (A) (A) (A) (A) (A) (A) (A) (A) (A) (A)
                 (A) (A) (A) (A) (A) (A) (A) (A) (A) (A) (A) (A)
                 (A) (A) (A) (A) (A) (A) (A) (A) (A) (A) (A) (A)
                 (A) (A) (A) (A) (A) (A) (A) (A) (A) (A) (A) (A)
                 (A) (A) (A) (A) (A) (A) (A) (A) (A) (A) (A) (A)
                 (A) (A) (A) (A) (A) (A) (A) (A) (A) (A) (A) (A)
                 (A) (A) (A) (A) (A) (A) (A) (A) (A) (A) (A) (A)
                 (A) (A) (A) (A) (A) (A) (A) (A) (A) (A) (A) (A)
                 (A) (A) (A) (A) (A) (A) (A) (A) (A) (A) (A) (A)
                 (A) (A) (A) (A) (A) (A) (A) (A) (A) (A) (A) (A)
                 (A) (A) (A) (A) (A) (A) (A) (A) (A) (A) (A) (A)
                 (A) (A) (A) (A) (A) (A) (A) (A) (A) (A) (A) (A)
                 (A) (A) (A) (A) (A) (A) (A) (A) (A) (A) (A) (A)
                 (A) (A) (A) (A) (A) (A) (A) (A) (A) (A) (A) (A)
                 (A) (A) (A) (A) (A) (A) (A) (A) (A) (A) (A) (A)
                 (A) (A) (A) (A) (A) (A) (A) (A) (A) (A) (A) (A)
                 (A) (A) (A) (A) (A) (A) (A) (A) (A) (A) (A) (A)
                 (A) (A) (A) (A) (A) (A) (A) (A) (A) (A) (A) (A)
                 (A) (A) (A) (A) (A) (A) (A) (A) (A) (A) (A) (A)
                 (A) (A) (A) (A) (A) (A) (A) (A) (A) (A) (A) (A)
                 (A) (A) (A) (A) (A) (A) (A) (A) (A) (A) (A) (A)
                 (A) (A) (A) (A) (A) (A) (A) (A) (A) (A) (A) (A)
                 (A) (A) (A) (A) (A) (A) (A) (A) (A) (A) (A) (A)
                 (A) (A) (A) (A) (A) (A) (A) (A) (A) (A) (A) (A)
                 (A) (A) (A) (A) (A) (A) (A) (A) (A) (A) (A) (A)
                 (A) (A) (A) (A) (A) (A) (A) (A) (A) (A) (A) (A)
                 (A) (A) (A) (A) (A) (A) (A) (A) (A) (A) (A) (A)
                 (A) (A) (A) (A) (A) (A) (A) (A) (A) (A) (A) (A)
                 (A) (A) (A) (A) (A) (A) (A) (A) (A)
 The electronic state is 1-A.
 Alpha  occ. eigenvalues --  -19.24442 -19.24272 -19.23022 -19.22368 -19.22119
 Alpha  occ. eigenvalues --  -19.21899 -19.21872 -19.21704 -19.21552 -19.21503
 Alpha  occ. eigenvalues --  -19.21372 -10.35425 -10.33123 -10.31674 -10.31643
 Alpha  occ. eigenvalues --  -10.31342 -10.31261 -10.30103 -10.29477 -10.29451
 Alpha  occ. eigenvalues --  -10.29349 -10.29300 -10.27502  -1.12446  -1.11546
 Alpha  occ. eigenvalues --   -1.09463  -1.07663  -1.07102  -1.06547  -1.06075
 Alpha  occ. eigenvalues --   -1.05569  -1.05388  -1.05158  -1.04870  -0.81592
 Alpha  occ. eigenvalues --   -0.80947  -0.79311  -0.77442  -0.69962  -0.68506
 Alpha  occ. eigenvalues --   -0.67750  -0.64264  -0.62397  -0.61773  -0.58738
 Alpha  occ. eigenvalues --   -0.57495  -0.56681  -0.56363  -0.55335  -0.53064
 Alpha  occ. eigenvalues --   -0.51828  -0.50950  -0.50502  -0.49517  -0.48173
 Alpha  occ. eigenvalues --   -0.47668  -0.47330  -0.46582  -0.45558  -0.44640
 Alpha  occ. eigenvalues --   -0.44581  -0.43650  -0.43207  -0.42319  -0.41657
 Alpha  occ. eigenvalues --   -0.41121  -0.40079  -0.39028  -0.38827  -0.38485
 Alpha  occ. eigenvalues --   -0.37965  -0.37683  -0.36577  -0.35744  -0.34791
 Alpha  occ. eigenvalues --   -0.33725  -0.32188  -0.30029  -0.29331  -0.28022
 Alpha  occ. eigenvalues --   -0.27516  -0.23796  -0.22334  -0.17770
 Alpha virt. eigenvalues --   -0.15552  -0.12836  -0.12022  -0.08953  -0.07977
 Alpha virt. eigenvalues --   -0.07107  -0.05131  -0.03214  -0.00942  -0.00378
 Alpha virt. eigenvalues --    0.00243   0.00585   0.01094   0.03808   0.04345
 Alpha virt. eigenvalues --    0.05273   0.05604   0.06076   0.06602   0.06724
 Alpha virt. eigenvalues --    0.07328   0.07430   0.07799   0.08248   0.08451
 Alpha virt. eigenvalues --    0.08854   0.09287   0.09969   0.10324   0.10814
 Alpha virt. eigenvalues --    0.11173   0.11402   0.11575   0.12022   0.12493
 Alpha virt. eigenvalues --    0.12813   0.12891   0.13613   0.14167   0.14706
 Alpha virt. eigenvalues --    0.14828   0.15080   0.15496   0.15913   0.16250
 Alpha virt. eigenvalues --    0.16385   0.16790   0.16963   0.17237   0.17878
 Alpha virt. eigenvalues --    0.18003   0.18350   0.18863   0.18891   0.19282
 Alpha virt. eigenvalues --    0.19857   0.19970   0.20180   0.20503   0.20983
 Alpha virt. eigenvalues --    0.21050   0.21446   0.21741   0.22404   0.22683
 Alpha virt. eigenvalues --    0.22855   0.22941   0.23614   0.23807   0.24044
 Alpha virt. eigenvalues --    0.24287   0.24558   0.24712   0.25110   0.25341
 Alpha virt. eigenvalues --    0.25781   0.25891   0.26799   0.26846   0.27274
 Alpha virt. eigenvalues --    0.27391   0.27542   0.27611   0.28227   0.28710
 Alpha virt. eigenvalues --    0.28780   0.29060   0.29222   0.29809   0.29913
 Alpha virt. eigenvalues --    0.30259   0.30877   0.30997   0.31451   0.31801
 Alpha virt. eigenvalues --    0.31948   0.32181   0.32416   0.32712   0.33326
 Alpha virt. eigenvalues --    0.33493   0.33792   0.34379   0.34638   0.35237
 Alpha virt. eigenvalues --    0.35608   0.36088   0.36598   0.36809   0.37095
 Alpha virt. eigenvalues --    0.37392   0.37824   0.38369   0.39131   0.39264
 Alpha virt. eigenvalues --    0.40323   0.40564   0.41211   0.41476   0.42249
 Alpha virt. eigenvalues --    0.42730   0.43638   0.44487   0.45212   0.45882
 Alpha virt. eigenvalues --    0.46937   0.47385   0.47642   0.48535   0.50663
 Alpha virt. eigenvalues --    0.52123   0.64769   0.64996   0.66125   0.67485
 Alpha virt. eigenvalues --    0.68844   0.70292   0.71068   0.71775   0.72230
 Alpha virt. eigenvalues --    0.73226   0.73498   0.74553   0.75010   0.75328
 Alpha virt. eigenvalues --    0.75866   0.77419   0.77709   0.78204   0.78953
 Alpha virt. eigenvalues --    0.80634   0.80853   0.81560   0.84116   0.85123
 Alpha virt. eigenvalues --    0.86031   0.87855   0.88850   0.89612   0.90632
 Alpha virt. eigenvalues --    0.91010   0.93096   0.93859   0.95218   0.97151
 Alpha virt. eigenvalues --    0.98028   0.98860   0.99557   1.00605   1.01023
 Alpha virt. eigenvalues --    1.01254   1.02439   1.02985   1.04726   1.09471
 Alpha virt. eigenvalues --    1.09957   1.11898   1.12047   1.13283   1.14433
 Alpha virt. eigenvalues --    1.14833   1.15349   1.16078   1.16907   1.18082
 Alpha virt. eigenvalues --    1.19586   1.20585   1.20901   1.21926   1.22037
 Alpha virt. eigenvalues --    1.22398   1.22516   1.23265   1.23542   1.24461
 Alpha virt. eigenvalues --    1.25058   1.25458   1.26535   1.27084   1.27359
 Alpha virt. eigenvalues --    1.28079   1.28521   1.29135   1.29850   1.30623
 Alpha virt. eigenvalues --    1.31114   1.32195   1.32510   1.33860   1.35301
 Alpha virt. eigenvalues --    1.36367   1.36795   1.37255   1.37715   1.38675
 Alpha virt. eigenvalues --    1.41034   1.42006   1.42824   1.43313   1.43544
 Alpha virt. eigenvalues --    1.45418   1.45804   1.48677   1.49524   1.49877
 Alpha virt. eigenvalues --    1.50385   1.52306   1.53382   1.54438   1.55172
 Alpha virt. eigenvalues --    1.55910   1.56248   1.57615   1.58489   1.58936
 Alpha virt. eigenvalues --    1.59846   1.60887   1.61945   1.62460   1.62763
 Alpha virt. eigenvalues --    1.63356   1.64920   1.65177   1.66051   1.67504
 Alpha virt. eigenvalues --    1.68245   1.68377   1.69199   1.70108   1.70260
 Alpha virt. eigenvalues --    1.70744   1.72316   1.74290   1.75812   1.76197
 Alpha virt. eigenvalues --    1.77568   1.77933   1.78528   1.79198   1.80316
 Alpha virt. eigenvalues --    1.81527   1.82380   1.82902   1.83537   1.84349
 Alpha virt. eigenvalues --    1.85452   1.87262   1.87965   1.88412   1.89890
 Alpha virt. eigenvalues --    1.90400   1.90770   1.92369   1.92622   1.93508
 Alpha virt. eigenvalues --    1.94035   1.95176   1.95442   1.96447   1.97383
 Alpha virt. eigenvalues --    1.98155   1.98976   2.00946   2.02311   2.02587
 Alpha virt. eigenvalues --    2.04187   2.05350   2.07825   2.08036   2.09377
 Alpha virt. eigenvalues --    2.10340   2.11061   2.13570   2.15029   2.15604
 Alpha virt. eigenvalues --    2.17067   2.18244   2.21051   2.24745   2.26898
 Alpha virt. eigenvalues --    2.29202   2.30446   2.30936   2.31560   2.32638
 Alpha virt. eigenvalues --    2.32841   2.34454   2.35252   2.36024   2.37386
 Alpha virt. eigenvalues --    2.39023   2.41089   2.42390   2.43140   2.45171
 Alpha virt. eigenvalues --    2.45917   2.49172   2.49943   2.50527   2.51980
 Alpha virt. eigenvalues --    2.53873   2.54706   2.55105   2.55778   2.58466
 Alpha virt. eigenvalues --    2.59483   2.60083   2.61529   2.62518   2.63451
 Alpha virt. eigenvalues --    2.63815   2.63966   2.64557   2.66630   2.67312
 Alpha virt. eigenvalues --    2.68891   2.69687   2.72024   2.72928   2.76494
 Alpha virt. eigenvalues --    2.79508   2.81620   2.84873   2.85514   2.87028
 Alpha virt. eigenvalues --    2.88450   2.89989   2.91888   2.94796   2.95453
 Alpha virt. eigenvalues --    2.96887   2.98577   2.99477   3.01268   3.01392
 Alpha virt. eigenvalues --    3.03836   3.05922   3.08245   3.10199   3.12581
 Alpha virt. eigenvalues --    3.15359   3.18398   3.39693   3.43070   3.44963
 Alpha virt. eigenvalues --    3.45684   3.46970   3.47589   3.48636   3.65932
 Alpha virt. eigenvalues --    4.14941   4.18578   4.20300   4.24410   4.27640
 Alpha virt. eigenvalues --    4.28619   4.28761   4.32475   4.32792   4.34292
 Alpha virt. eigenvalues --    4.38104   4.39157   4.40897   4.42533   4.46449
 Alpha virt. eigenvalues --    4.47916   4.52743   4.56188   4.58396   4.60407
 Alpha virt. eigenvalues --    4.63031   4.64604   4.69386
          Condensed to atoms (all electrons):
              1          2          3          4          5          6
     1  O    8.101557   0.372749  -0.195332  -0.029465   0.034732   0.062975
     2  C    0.372749  10.611588  -2.303512   0.011153  -0.087209  -1.853517
     3  C   -0.195332  -2.303512  11.507757   0.039510   0.028597  -0.590415
     4  O   -0.029465   0.011153   0.039510   8.253350   0.168021  -0.158720
     5  H    0.034732  -0.087209   0.028597   0.168021   0.485690  -0.016379
     6  C    0.062975  -1.853517  -0.590415  -0.158720  -0.016379  16.220949
     7  O   -0.002094  -0.005834   0.069381   0.015727  -0.000832   0.372111
     8  H    0.000069   0.039146  -0.132519   0.010856  -0.000111   0.123780
     9  C    0.052460  -0.128747  -0.754403  -0.001927  -0.001835   0.288289
    10  O   -0.001821   0.058042  -0.017627   0.000177  -0.000012  -0.003984
    11  H    0.000068   0.002225   0.004205   0.000001   0.000000   0.001491
    12  C   -0.192808  -2.739990   0.748893   0.005139   0.042989   0.929481
    13  O    0.009821   0.044584  -0.174617  -0.002297  -0.000454   0.201333
    14  C    0.012204   1.507426  -1.999782   0.104698   0.030292  -7.407592
    15  O    0.000299  -0.029786   0.094115  -0.001441   0.000142  -0.048643
    16  C    0.002792   0.288843  -0.396625   0.005618   0.001275  -1.117316
    17  C    0.000533  -0.137390   0.085743  -0.000922   0.000148   0.408363
    18  O   -0.000035   0.001301   0.012109  -0.000037   0.000000  -0.017369
    19  H   -0.000003  -0.002762   0.001890  -0.000003   0.000000   0.022341
    20  C    0.000095  -0.001420  -0.008196   0.000036   0.000006   0.030436
    21  O    0.000000  -0.000018  -0.000001   0.000000   0.000000   0.000768
    22  H    0.000000  -0.000011  -0.000005   0.000000   0.000000   0.000278
    23  C   -0.000025   0.030296   0.035147   0.000000  -0.000041  -0.175015
    24  O    0.000000  -0.000170  -0.000309  -0.000003   0.000000   0.005571
    25  H    0.000000   0.000010   0.000073   0.000000   0.000000   0.001529
    26  C    0.000198  -0.007778  -0.164677   0.002691  -0.000008  -0.817924
    27  O    0.000000   0.000304  -0.000523   0.000000   0.000000  -0.005971
    28  C    0.000022  -0.004975  -0.025100   0.000121   0.000001  -0.050758
    29  O    0.000000   0.000001   0.000086   0.000000   0.000000   0.000543
    30  H    0.216319  -0.018346  -0.032306  -0.000239   0.009499  -0.014024
    31  H    0.000000   0.000000   0.000001   0.000000   0.000000   0.000031
              7          8          9         10         11         12
     1  O   -0.002094   0.000069   0.052460  -0.001821   0.000068  -0.192808
     2  C   -0.005834   0.039146  -0.128747   0.058042   0.002225  -2.739990
     3  C    0.069381  -0.132519  -0.754403  -0.017627   0.004205   0.748893
     4  O    0.015727   0.010856  -0.001927   0.000177   0.000001   0.005139
     5  H   -0.000832  -0.000111  -0.001835  -0.000012   0.000000   0.042989
     6  C    0.372111   0.123780   0.288289  -0.003984   0.001491   0.929481
     7  O    8.028185   0.205018  -0.006130  -0.000009   0.000000   0.008241
     8  H    0.205018   0.408027   0.000944   0.000000   0.000000  -0.008478
     9  C   -0.006130   0.000944   9.198817   0.027328  -0.056975  -1.820185
    10  O   -0.000009   0.000000   0.027328   8.171912   0.198007   0.000028
    11  H    0.000000   0.000000  -0.056975   0.198007   0.423964   0.037016
    12  C    0.008241  -0.008478  -1.820185   0.000028   0.037016   9.746640
    13  O    0.014795  -0.000101   0.164980   0.016062  -0.001149  -0.131616
    14  C   -0.277100  -0.019203  -0.574568  -0.003346  -0.000216  -0.656674
    15  O    0.005765  -0.000237  -0.010724  -0.002191  -0.000025   0.018402
    16  C   -0.027234   0.008796  -0.060650   0.017286  -0.000589  -0.202327
    17  C   -0.005928   0.000584   0.018843  -0.011566  -0.000210  -0.075870
    18  O    0.000271  -0.000003   0.006394   0.003763  -0.000102  -0.032402
    19  H   -0.000117   0.000001  -0.008388   0.003808  -0.000106   0.017310
    20  C   -0.000199  -0.000049  -0.006615   0.000608  -0.000023   0.009435
    21  O   -0.000004   0.000000  -0.000253  -0.000038  -0.000001   0.000630
    22  H    0.000000   0.000000  -0.000135   0.000001   0.000000   0.000093
    23  C    0.019458  -0.001402  -0.006970  -0.000030  -0.000002  -0.047632
    24  O   -0.000461   0.000035   0.000023   0.000000   0.000000   0.000408
    25  H    0.000011   0.000000  -0.000001   0.000000   0.000000  -0.000055
    26  C   -0.020111  -0.002772   0.034490  -0.000789   0.000009   0.115394
    27  O    0.000146   0.000001   0.000012   0.000006   0.000000  -0.000515
    28  C   -0.000148  -0.000044   0.003485   0.000850   0.000002   0.004848
    29  O   -0.000001   0.000000  -0.000001  -0.000001   0.000000   0.000023
    30  H   -0.000045  -0.000001  -0.000878   0.000068   0.000000   0.059003
    31  H    0.000000   0.000000   0.000000   0.000000   0.000000   0.000001
             13         14         15         16         17         18
     1  O    0.009821   0.012204   0.000299   0.002792   0.000533  -0.000035
     2  C    0.044584   1.507426  -0.029786   0.288843  -0.137390   0.001301
     3  C   -0.174617  -1.999782   0.094115  -0.396625   0.085743   0.012109
     4  O   -0.002297   0.104698  -0.001441   0.005618  -0.000922  -0.000037
     5  H   -0.000454   0.030292   0.000142   0.001275   0.000148   0.000000
     6  C    0.201333  -7.407592  -0.048643  -1.117316   0.408363  -0.017369
     7  O    0.014795  -0.277100   0.005765  -0.027234  -0.005928   0.000271
     8  H   -0.000101  -0.019203  -0.000237   0.008796   0.000584  -0.000003
     9  C    0.164980  -0.574568  -0.010724  -0.060650   0.018843   0.006394
    10  O    0.016062  -0.003346  -0.002191   0.017286  -0.011566   0.003763
    11  H   -0.001149  -0.000216  -0.000025  -0.000589  -0.000210  -0.000102
    12  C   -0.131616  -0.656674   0.018402  -0.202327  -0.075870  -0.032402
    13  O    8.435430  -0.196122  -0.077758   0.006230  -0.007511   0.015449
    14  C   -0.196122  15.469631   0.268689  -1.148235   0.327675   0.007778
    15  O   -0.077758   0.268689   8.124820   0.029651  -0.121452   0.003870
    16  C    0.006230  -1.148235   0.029651  19.444785  -5.416889  -0.237698
    17  C   -0.007511   0.327675  -0.121452  -5.416889  12.744135   0.515649
    18  O    0.015449   0.007778   0.003870  -0.237698   0.515649   8.153389
    19  H    0.028388  -0.019697   0.017801  -0.036170  -0.024455   0.193758
    20  C   -0.012982  -0.428219   0.055330  -0.443311  -2.467858  -0.214674
    21  O    0.000339  -0.002169  -0.000436  -0.025443  -0.173043   0.004092
    22  H    0.000006   0.004567  -0.000204   0.038554  -0.051585   0.024100
    23  C    0.013624  -0.418941   0.010511   2.086820  -0.718012   0.003551
    24  O   -0.000141   0.016365  -0.002708  -0.115966   0.001180   0.000123
    25  H   -0.000001  -0.005093  -0.000234   0.067790   0.003048   0.000003
    26  C   -0.050642   0.742529  -0.049888  -7.760991   0.475647   0.026905
    27  O    0.000842  -0.040553   0.004485   0.011177  -0.227548   0.003267
    28  C    0.007301   0.110765  -0.020751   0.507561   0.350360   0.026743
    29  O   -0.000016   0.003930   0.000453   0.003853   0.069247  -0.000800
    30  H   -0.001063   0.009599   0.000002   0.000333   0.000004  -0.000001
    31  H    0.000000   0.000417   0.000000   0.008407  -0.009904   0.000031
             19         20         21         22         23         24
     1  O   -0.000003   0.000095   0.000000   0.000000  -0.000025   0.000000
     2  C   -0.002762  -0.001420  -0.000018  -0.000011   0.030296  -0.000170
     3  C    0.001890  -0.008196  -0.000001  -0.000005   0.035147  -0.000309
     4  O   -0.000003   0.000036   0.000000   0.000000   0.000000  -0.000003
     5  H    0.000000   0.000006   0.000000   0.000000  -0.000041   0.000000
     6  C    0.022341   0.030436   0.000768   0.000278  -0.175015   0.005571
     7  O   -0.000117  -0.000199  -0.000004   0.000000   0.019458  -0.000461
     8  H    0.000001  -0.000049   0.000000   0.000000  -0.001402   0.000035
     9  C   -0.008388  -0.006615  -0.000253  -0.000135  -0.006970   0.000023
    10  O    0.003808   0.000608  -0.000038   0.000001  -0.000030   0.000000
    11  H   -0.000106  -0.000023  -0.000001   0.000000  -0.000002   0.000000
    12  C    0.017310   0.009435   0.000630   0.000093  -0.047632   0.000408
    13  O    0.028388  -0.012982   0.000339   0.000006   0.013624  -0.000141
    14  C   -0.019697  -0.428219  -0.002169   0.004567  -0.418941   0.016365
    15  O    0.017801   0.055330  -0.000436  -0.000204   0.010511  -0.002708
    16  C   -0.036170  -0.443311  -0.025443   0.038554   2.086820  -0.115966
    17  C   -0.024455  -2.467858  -0.173043  -0.051585  -0.718012   0.001180
    18  O    0.193758  -0.214674   0.004092   0.024100   0.003551   0.000123
    19  H    0.310960   0.048291   0.001131  -0.000447  -0.000615   0.000003
    20  C    0.048291  10.922985   0.485632  -0.052455   0.719389  -0.024826
    21  O    0.001131   0.485632   8.020482   0.224816  -0.007613   0.000026
    22  H   -0.000447  -0.052455   0.224816   0.379612   0.000111   0.000000
    23  C   -0.000615   0.719389  -0.007613   0.000111  11.080179  -0.258470
    24  O    0.000003  -0.024826   0.000026   0.000000  -0.258470   8.155005
    25  H    0.000000   0.000509  -0.000001   0.000000   0.109696   0.214119
    26  C    0.002688   0.580823   0.040815  -0.016121  -5.561459   0.372139
    27  O   -0.000012   0.018465   0.004118  -0.000326   0.236751  -0.007631
    28  C   -0.006252  -2.987884  -0.189476   0.067291  -0.954070   0.028508
    29  O    0.000027  -0.173456   0.011868  -0.000740   0.011686  -0.000545
    30  H    0.000000   0.000001   0.000000   0.000000   0.000000   0.000000
    31  H    0.000000   0.062227  -0.001033   0.000003   0.004325  -0.000001
             25         26         27         28         29         30
     1  O    0.000000   0.000198   0.000000   0.000022   0.000000   0.216319
     2  C    0.000010  -0.007778   0.000304  -0.004975   0.000001  -0.018346
     3  C    0.000073  -0.164677  -0.000523  -0.025100   0.000086  -0.032306
     4  O    0.000000   0.002691   0.000000   0.000121   0.000000  -0.000239
     5  H    0.000000  -0.000008   0.000000   0.000001   0.000000   0.009499
     6  C    0.001529  -0.817924  -0.005971  -0.050758   0.000543  -0.014024
     7  O    0.000011  -0.020111   0.000146  -0.000148  -0.000001  -0.000045
     8  H    0.000000  -0.002772   0.000001  -0.000044   0.000000  -0.000001
     9  C   -0.000001   0.034490   0.000012   0.003485  -0.000001  -0.000878
    10  O    0.000000  -0.000789   0.000006   0.000850  -0.000001   0.000068
    11  H    0.000000   0.000009   0.000000   0.000002   0.000000   0.000000
    12  C   -0.000055   0.115394  -0.000515   0.004848   0.000023   0.059003
    13  O   -0.000001  -0.050642   0.000842   0.007301  -0.000016  -0.001063
    14  C   -0.005093   0.742529  -0.040553   0.110765   0.003930   0.009599
    15  O   -0.000234  -0.049888   0.004485  -0.020751   0.000453   0.000002
    16  C    0.067790  -7.760991   0.011177   0.507561   0.003853   0.000333
    17  C    0.003048   0.475647  -0.227548   0.350360   0.069247   0.000004
    18  O    0.000003   0.026905   0.003267   0.026743  -0.000800  -0.000001
    19  H    0.000000   0.002688  -0.000012  -0.006252   0.000027   0.000000
    20  C    0.000509   0.580823   0.018465  -2.987884  -0.173456   0.000001
    21  O   -0.000001   0.040815   0.004118  -0.189476   0.011868   0.000000
    22  H    0.000000  -0.016121  -0.000326   0.067291  -0.000740   0.000000
    23  C    0.109696  -5.561459   0.236751  -0.954070   0.011686   0.000000
    24  O    0.214119   0.372139  -0.007631   0.028508  -0.000545   0.000000
    25  H    0.403353  -0.151780   0.000787  -0.010363   0.000098   0.000000
    26  C   -0.151780  18.332952   0.105841  -0.027453  -0.064036   0.000004
    27  O    0.000787   0.105841   8.227239  -0.061279  -0.057758   0.000000
    28  C   -0.010363  -0.027453  -0.061279   8.676428   0.322568   0.000000
    29  O    0.000098  -0.064036  -0.057758   0.322568   8.104321   0.000000
    30  H    0.000000   0.000004   0.000000   0.000000   0.000000   0.424957
    31  H    0.000003  -0.005108  -0.000443  -0.054095   0.228838   0.000000
             31
     1  O    0.000000
     2  C    0.000000
     3  C    0.000001
     4  O    0.000000
     5  H    0.000000
     6  C    0.000031
     7  O    0.000000
     8  H    0.000000
     9  C    0.000000
    10  O    0.000000
    11  H    0.000000
    12  C    0.000001
    13  O    0.000000
    14  C    0.000417
    15  O    0.000000
    16  C    0.008407
    17  C   -0.009904
    18  O    0.000031
    19  H    0.000000
    20  C    0.062227
    21  O   -0.001033
    22  H    0.000003
    23  C    0.004325
    24  O   -0.000001
    25  H    0.000003
    26  C   -0.005108
    27  O   -0.000443
    28  C   -0.054095
    29  O    0.228838
    30  H    0.000000
    31  H    0.401371
 Mulliken atomic charges:
              1
     1  O   -0.445311
     2  C    0.353796
     3  C    0.168445
     4  O   -0.422045
     5  H    0.305489
     6  C   -0.392640
     7  O   -0.392861
     8  H    0.367664
     9  C   -0.356681
    10  O   -0.456533
    11  H    0.392412
    12  C    0.164579
    13  O   -0.302714
    14  C    0.580944
    15  O   -0.267859
    16  C    0.459669
    17  C    0.448986
    18  O   -0.499428
    19  H    0.450631
    20  C   -0.112103
    21  O   -0.395188
    22  H    0.382594
    23  C   -0.211244
    24  O   -0.382275
    25  H    0.366498
    26  C   -0.131591
    27  O   -0.210881
    28  C    0.285791
    29  O   -0.460189
    30  H    0.347115
    31  H    0.364930
 Sum of Mulliken atomic charges =   0.00000
 Mulliken charges with hydrogens summed into heavy atoms:
              1
     1  O   -0.098196
     2  C    0.353796
     3  C    0.168445
     4  O   -0.116556
     6  C   -0.392640
     7  O   -0.025197
     9  C   -0.356681
    10  O   -0.064121
    12  C    0.164579
    13  O   -0.302714
    14  C    0.580944
    15  O   -0.267859
    16  C    0.459669
    17  C    0.448986
    18  O   -0.048797
    20  C   -0.112103
    21  O   -0.012593
    23  C   -0.211244
    24  O   -0.015777
    26  C   -0.131591
    27  O   -0.210881
    28  C    0.285791
    29  O   -0.095259
 Sum of Mulliken charges with hydrogens summed into heavy atoms =   0.00000
 APT atomic charges:
              1
     1  O   -0.668599
     2  C    0.787961
     3  C    0.097067
     4  O   -0.817003
     5  H    0.299651
     6  C    0.573025
     7  O   -0.476114
     8  H    0.286121
     9  C    0.330583
    10  O   -0.377830
    11  H    0.336950
    12  C   -0.784189
    13  O    0.212657
    14  C   -0.158111
    15  O    0.114069
    16  C   -0.225050
    17  C    0.274284
    18  O   -0.097204
    19  H    0.016244
    20  C    0.277771
    21  O   -0.548233
    22  H    0.271535
    23  C    1.127756
    24  O   -1.202194
    25  H    0.338811
    26  C   -0.045576
    27  O   -0.534114
    28  C    0.844333
    29  O   -0.948415
    30  H    0.324029
    31  H    0.369787
 Sum of APT charges=   0.00000
 APT Atomic charges with hydrogens summed into heavy atoms:
              1
     1  O   -0.344570
     2  C    0.787961
     3  C    0.097067
     4  O   -0.517352
     5  H    0.000000
     6  C    0.573025
     7  O   -0.189993
     8  H    0.000000
     9  C    0.330583
    10  O   -0.040879
    11  H    0.000000
    12  C   -0.784189
    13  O    0.212657
    14  C   -0.158111
    15  O    0.114069
    16  C   -0.225050
    17  C    0.274284
    18  O   -0.080960
    19  H    0.000000
    20  C    0.277771
    21  O   -0.276698
    22  H    0.000000
    23  C    1.127756
    24  O   -0.863384
    25  H    0.000000
    26  C   -0.045576
    27  O   -0.534114
    28  C    0.844333
    29  O   -0.578628
    30  H    0.000000
    31  H    0.000000
 Sum of APT charges=   0.00000
 Electronic spatial extent (au):  <R**2>=           8645.4622
 Charge=              0.0000 electrons
 Dipole moment (field-independent basis, Debye):
    X=              1.9899    Y=              0.6073    Z=              2.7054  Tot=              3.4129
 Quadrupole moment (field-independent basis, Debye-Ang):
   XX=           -104.2285   YY=           -127.3032   ZZ=           -133.8742
   XY=              0.5698   XZ=            -10.5545   YZ=              3.8066
 Traceless Quadrupole moment (field-independent basis, Debye-Ang):
   XX=             17.5735   YY=             -5.5013   ZZ=            -12.0722
   XY=              0.5698   XZ=            -10.5545   YZ=              3.8066
 Octapole moment (field-independent basis, Debye-Ang**2):
  XXX=             66.5637  YYY=            -46.6641  ZZZ=              3.7972  XYY=             36.2771
  XXY=             82.8097  XXZ=             79.7382  XZZ=            -20.4035  YZZ=             -0.1902
  YYZ=             24.8181  XYZ=            -45.9263
 Hexadecapole moment (field-independent basis, Debye-Ang**3):
 XXXX=          -6196.2999 YYYY=          -2556.8556 ZZZZ=           -224.0733 XXXY=            140.3492
 XXXZ=           -302.9670 YYYX=           -189.9728 YYYZ=             43.8575 ZZZX=             -5.7751
 ZZZY=             18.1651 XXYY=          -1834.6419 XXZZ=          -1356.8278 YYZZ=           -496.6213
 XXYZ=             53.7288 YYXZ=            -63.1626 ZZXY=             -7.3934
 N-N= 1.915874693651D+03 E-N=-6.849464993206D+03  KE= 1.275191635551D+03
  Exact polarizability: 703.212 -65.647 357.183 -14.454  -5.645 123.756
 Approx polarizability:4530.504********1080.895-275.128  30.556 263.636
 Calling FoFJK, ICntrl=    100127 FMM=F ISym2X=0 I1Cent= 0 IOpClX= 0 NMat=1 NMatS=1 NMatT=0.
 Full mass-weighted force constant matrix:
 Low frequencies --- -471.9521 -423.7608 -228.8879 -139.3975   -0.0007    0.0004
 Low frequencies ---    0.0007   37.4673   45.2479
 ******    4 imaginary frequencies (negative Signs) ****** 
 Harmonic frequencies (cm**-1), IR intensities (KM/Mole), Raman scattering
 activities (A**4/AMU), depolarization ratios for plane and unpolarized
 incident light, reduced masses (AMU), force constants (mDyne/A),
 and normal coordinates:
                     1                      2                      3
                     A                      A                      A
 Frequencies --  -471.9263              -423.7279              -227.0775
 Red. masses --     1.1700                 1.1541                 3.2847
 Frc consts  --     0.1535                 0.1221                 0.0998
 IR Inten    --    96.7419                54.3881               398.9930
 Raman Activ --    49.0689               135.1480              2264.4997
 Depolar (P) --     0.7500                 0.3060                 0.2933
 Depolar (U) --     0.8571                 0.4686                 0.4536
  Atom  AN      X      Y      Z        X      Y      Z        X      Y      Z
     1   8    -0.01  -0.08   0.04     0.00   0.00   0.00    -0.02  -0.01  -0.01
     2   6     0.02  -0.01  -0.01     0.00   0.00   0.00    -0.01  -0.02   0.02
     3   6     0.00   0.00  -0.03     0.00   0.00   0.00    -0.03   0.01   0.01
     4   8    -0.01   0.03   0.03     0.00   0.00   0.00    -0.01  -0.01  -0.03
     5   1     0.01   0.10   0.05     0.00   0.00   0.00    -0.01  -0.02  -0.03
     6   6     0.00   0.00   0.00     0.00   0.00   0.01    -0.01   0.01  -0.07
     7   8     0.00   0.00   0.00     0.00   0.00   0.00     0.01  -0.01  -0.02
     8   1     0.00   0.00   0.00     0.00   0.00  -0.01     0.02   0.03   0.02
     9   6     0.00   0.00   0.00     0.00   0.00   0.00     0.00  -0.01   0.07
    10   8     0.00   0.00   0.00     0.00   0.00   0.00     0.03   0.01   0.01
    11   1     0.00   0.00   0.00     0.00   0.00   0.00     0.01   0.00   0.01
    12   6     0.01   0.00  -0.01     0.00   0.00   0.00    -0.02   0.03   0.06
    13   8     0.00   0.00   0.00     0.00   0.00   0.00     0.03   0.00   0.03
    14   6     0.01   0.00   0.01     0.02   0.00   0.02    -0.09  -0.01  -0.13
    15   8     0.00   0.00   0.00     0.00   0.01  -0.02     0.01  -0.07   0.06
    16   6     0.00   0.00   0.00    -0.02   0.00   0.02     0.06   0.00  -0.09
    17   6     0.00   0.00   0.00     0.00  -0.01   0.01     0.02   0.05  -0.08
    18   8     0.00   0.00   0.00     0.01   0.00  -0.01    -0.01   0.01   0.06
    19   1     0.00   0.00   0.00     0.00  -0.01   0.00    -0.01   0.03   0.04
    20   6     0.00   0.00   0.00     0.00   0.01   0.02    -0.01   0.02  -0.07
    21   8     0.00   0.00   0.00     0.00   0.01  -0.01     0.01   0.01   0.03
    22   1     0.00   0.00   0.00     0.02   0.01   0.01    -0.05  -0.01  -0.03
    23   6     0.00   0.00  -0.01    -0.02   0.01  -0.03     0.10  -0.05   0.24
    24   8     0.00   0.00   0.00     0.02   0.00   0.00    -0.10   0.00  -0.01
    25   1    -0.01  -0.01   0.00    -0.08  -0.08   0.01     0.46   0.55  -0.07
    26   6     0.00   0.00   0.00    -0.01  -0.01   0.00     0.01   0.06  -0.04
    27   8     0.00   0.00   0.00     0.01   0.01  -0.02    -0.02   0.00   0.06
    28   6     0.00   0.00   0.00    -0.01   0.00   0.04     0.03   0.00  -0.13
    29   8     0.00   0.00   0.00    -0.02   0.04  -0.04     0.01   0.00  -0.02
    30   1    -0.12   0.79  -0.57     0.01  -0.04   0.03    -0.02   0.05  -0.08
    31   1     0.00  -0.03   0.02    -0.03  -0.83   0.53     0.05  -0.42   0.30
                     4                      5                      6
                     A                      A                      A
 Frequencies --  -128.4749                85.5543                91.0455
 Red. masses --     7.6726                 7.0105                 9.4165
 Frc consts  --     0.0746                 0.0302                 0.0460
 IR Inten    --   314.7392                26.3505                 0.2561
 Raman Activ --   592.5074                16.9099                 5.3862
 Depolar (P) --     0.3401                 0.4468                 0.5381
 Depolar (U) --     0.5076                 0.6176                 0.6997
  Atom  AN      X      Y      Z        X      Y      Z        X      Y      Z
     1   8     0.08   0.02   0.03    -0.03  -0.02  -0.15     0.06   0.17   0.01
     2   6     0.06   0.04  -0.06     0.01  -0.01  -0.06     0.04   0.07   0.01
     3   6     0.05  -0.05  -0.01     0.06   0.04   0.13    -0.06   0.04   0.02
     4   8    -0.03   0.02  -0.16     0.07  -0.03   0.41    -0.14   0.10   0.04
     5   1    -0.01   0.07  -0.16     0.08  -0.05   0.52    -0.12   0.15   0.05
     6   6     0.00  -0.01   0.17     0.02   0.02   0.03    -0.07  -0.07  -0.01
     7   8    -0.01   0.02   0.05     0.03   0.02   0.05    -0.14  -0.10   0.03
     8   1    -0.06  -0.06  -0.08     0.03   0.03   0.06    -0.17  -0.07   0.05
     9   6    -0.02   0.03  -0.05    -0.01   0.00  -0.12     0.22   0.04  -0.01
    10   8    -0.03   0.00   0.06    -0.02   0.02  -0.11     0.30  -0.01  -0.04
    11   1    -0.03   0.03   0.10    -0.03   0.01  -0.11     0.33   0.01  -0.05
    12   6     0.05  -0.04  -0.12    -0.01   0.02  -0.11     0.11   0.01   0.00
    13   8     0.00   0.02  -0.12     0.01   0.02  -0.08     0.08  -0.11  -0.04
    14   6     0.17   0.02   0.47     0.02   0.04  -0.04    -0.02  -0.13  -0.04
    15   8     0.02  -0.05  -0.02     0.01   0.01  -0.07     0.01  -0.22   0.02
    16   6    -0.03  -0.04  -0.11     0.00  -0.01  -0.08    -0.02  -0.09   0.01
    17   6    -0.03   0.00   0.01     0.00   0.01   0.02    -0.11  -0.05   0.01
    18   8    -0.03  -0.05  -0.06    -0.01  -0.01   0.09    -0.13  -0.09   0.04
    19   1    -0.07  -0.11   0.01    -0.01   0.01   0.06    -0.13  -0.11   0.05
    20   6    -0.04  -0.01   0.03    -0.02  -0.02   0.09    -0.13   0.03   0.02
    21   8    -0.02  -0.01   0.09     0.00  -0.02   0.19    -0.21   0.04   0.03
    22   1     0.00  -0.01   0.12     0.00  -0.04   0.20    -0.24  -0.01   0.02
    23   6     0.08   0.00   0.24     0.02  -0.02  -0.05     0.15  -0.03  -0.07
    24   8    -0.13   0.00  -0.02    -0.08  -0.01  -0.20     0.20   0.02  -0.09
    25   1     0.32   0.49  -0.07     0.16   0.27  -0.24     0.15   0.01  -0.10
    26   6    -0.03   0.03  -0.12    -0.01   0.03  -0.13     0.06  -0.01  -0.01
    27   8     0.00   0.00  -0.20    -0.02  -0.02  -0.04     0.01   0.07   0.01
    28   6    -0.02   0.02   0.01    -0.01  -0.01   0.04    -0.07   0.10   0.02
    29   8    -0.04   0.03   0.01    -0.01  -0.02   0.09    -0.09   0.17   0.02
    30   1     0.05   0.04   0.06     0.05  -0.18  -0.13     0.03   0.20   0.04
    31   1    -0.02   0.05   0.00     0.01  -0.06   0.13    -0.06   0.18   0.05
                     7                      8                      9
                     A                      A                      A
 Frequencies --   102.9208               121.2858               129.8345
 Red. masses --     9.8983                 7.4671                 8.6080
 Frc consts  --     0.0618                 0.0647                 0.0855
 IR Inten    --    13.6265                 1.2984                 2.1681
 Raman Activ --    87.9796                38.1734                30.4739
 Depolar (P) --     0.4022                 0.6188                 0.6912
 Depolar (U) --     0.5736                 0.7645                 0.8174
  Atom  AN      X      Y      Z        X      Y      Z        X      Y      Z
     1   8     0.10  -0.03   0.18     0.13   0.03   0.40    -0.06  -0.02  -0.08
     2   6     0.06  -0.01   0.06     0.03  -0.01   0.17    -0.02  -0.03   0.03
     3   6     0.09   0.00  -0.01     0.02  -0.02   0.05    -0.05  -0.03   0.06
     4   8     0.08  -0.03   0.15     0.01   0.01  -0.13    -0.04  -0.01  -0.09
     5   1     0.08  -0.03   0.19     0.01   0.03  -0.22    -0.05  -0.01  -0.12
     6   6     0.04   0.00  -0.13     0.02   0.01  -0.02    -0.01  -0.04   0.12
     7   8     0.03  -0.01  -0.17     0.04   0.01  -0.04    -0.01  -0.04   0.18
     8   1     0.05  -0.01  -0.15     0.05   0.01  -0.03    -0.02  -0.03   0.18
     9   6     0.06   0.03   0.15    -0.03  -0.07  -0.17     0.05  -0.04   0.04
    10   8     0.09   0.02   0.15    -0.02  -0.08  -0.34     0.10  -0.07   0.01
    11   1     0.08   0.03   0.18    -0.02  -0.11  -0.41     0.12  -0.06   0.00
    12   6     0.06   0.01   0.06     0.01  -0.01   0.01    -0.01  -0.04   0.07
    13   8     0.03   0.00  -0.12    -0.01   0.01  -0.03     0.01  -0.05   0.13
    14   6     0.05   0.00  -0.18    -0.01   0.01  -0.07    -0.02  -0.04   0.10
    15   8     0.01   0.03  -0.27     0.00   0.02  -0.02    -0.02  -0.04   0.08
    16   6    -0.07   0.01  -0.15     0.00   0.02  -0.02     0.03   0.07  -0.07
    17   6    -0.05   0.00  -0.13     0.00   0.03   0.02     0.03   0.08  -0.19
    18   8    -0.05   0.01  -0.33    -0.01   0.02   0.08     0.03   0.10  -0.26
    19   1    -0.06  -0.04  -0.30     0.00   0.04   0.05     0.03   0.07  -0.23
    20   6    -0.08  -0.01   0.03    -0.01   0.00   0.05     0.02   0.05  -0.08
    21   8    -0.05   0.00   0.03     0.01   0.00   0.08     0.08   0.04  -0.10
    22   1    -0.01   0.01   0.06     0.00   0.00   0.08     0.09   0.07  -0.11
    23   6    -0.08   0.02   0.13    -0.04   0.00  -0.05    -0.06   0.04  -0.18
    24   8    -0.08   0.00   0.20    -0.09  -0.01  -0.11    -0.12   0.01  -0.25
    25   1    -0.05  -0.02   0.21     0.00   0.10  -0.12    -0.11   0.06  -0.26
    26   6    -0.06  -0.02  -0.03    -0.02   0.03  -0.03     0.00   0.07  -0.04
    27   8    -0.06  -0.01  -0.01    -0.03  -0.01   0.05    -0.02   0.02   0.09
    28   6    -0.07  -0.01   0.16     0.00  -0.01   0.04     0.05   0.01   0.09
    29   8    -0.08   0.00   0.20    -0.01  -0.02   0.08     0.02  -0.02   0.32
    30   1     0.06  -0.02   0.23    -0.03   0.22   0.46    -0.01   0.00  -0.16
    31   1    -0.05   0.12   0.15     0.00  -0.05   0.11     0.12  -0.03   0.42
                    10                     11                     12
                     A                      A                      A
 Frequencies --   134.6497               160.0435               165.8636
 Red. masses --     8.1306                 9.1068                 8.0600
 Frc consts  --     0.0869                 0.1374                 0.1306
 IR Inten    --     6.7174                 0.5196                30.5482
 Raman Activ --    89.0647                 2.4100                36.5440
 Depolar (P) --     0.3207                 0.5839                 0.5092
 Depolar (U) --     0.4857                 0.7373                 0.6748
  Atom  AN      X      Y      Z        X      Y      Z        X      Y      Z
     1   8     0.05  -0.05  -0.09     0.08   0.01   0.00    -0.09  -0.05  -0.09
     2   6     0.07  -0.04  -0.04     0.07   0.02  -0.03    -0.02  -0.01   0.08
     3   6     0.07  -0.05  -0.02     0.09   0.03  -0.01    -0.02   0.02   0.08
     4   8     0.07  -0.05   0.00     0.13   0.02  -0.12     0.05   0.00  -0.18
     5   1     0.07  -0.06   0.02     0.12   0.00  -0.17     0.02  -0.04  -0.25
     6   6     0.06  -0.05   0.00     0.13   0.04   0.08     0.06   0.05   0.11
     7   8     0.07  -0.04  -0.03     0.25   0.06   0.27     0.13   0.06   0.28
     8   1     0.08  -0.05  -0.04     0.26   0.09   0.31     0.14   0.10   0.33
     9   6     0.17  -0.03  -0.01    -0.02   0.08   0.06     0.03   0.00   0.07
    10   8     0.26  -0.09  -0.01    -0.07   0.11   0.13     0.14  -0.04  -0.10
    11   1     0.32  -0.07  -0.02    -0.11   0.11   0.18     0.15  -0.05  -0.14
    12   6     0.08  -0.05   0.00     0.04   0.05  -0.06    -0.05   0.04   0.13
    13   8     0.07  -0.04   0.07     0.02   0.04  -0.19     0.00   0.03   0.10
    14   6     0.05  -0.04   0.03     0.02   0.07  -0.15    -0.07   0.06  -0.15
    15   8     0.02   0.00   0.02     0.01  -0.02  -0.06    -0.05   0.07  -0.10
    16   6    -0.03   0.09   0.04    -0.03  -0.06   0.03    -0.04  -0.02  -0.07
    17   6    -0.06   0.08   0.07    -0.07  -0.06   0.07    -0.02  -0.03  -0.04
    18   8    -0.04   0.09   0.17    -0.08  -0.08   0.13    -0.01  -0.02  -0.12
    19   1    -0.04   0.09   0.18    -0.08  -0.05   0.09    -0.02   0.00  -0.11
    20   6    -0.03   0.05   0.00    -0.09  -0.01  -0.05    -0.04  -0.05   0.10
    21   8    -0.03   0.05  -0.01    -0.15  -0.01  -0.23    -0.03  -0.04   0.29
    22   1    -0.03   0.05  -0.02    -0.16   0.00  -0.26    -0.03  -0.08   0.31
    23   6    -0.29   0.10  -0.02     0.00  -0.09  -0.04     0.00  -0.02  -0.01
    24   8    -0.35  -0.02   0.06    -0.05  -0.09  -0.13     0.11   0.03   0.09
    25   1    -0.44  -0.15   0.08     0.01   0.02  -0.15     0.02  -0.10   0.11
    26   6    -0.08   0.07   0.05    -0.03  -0.04   0.02    -0.04  -0.05  -0.08
    27   8    -0.05   0.02  -0.04    -0.08  -0.02   0.17    -0.02  -0.03  -0.17
    28   6    -0.06   0.04  -0.08    -0.08  -0.04   0.03    -0.05   0.00  -0.02
    29   8    -0.05   0.03  -0.16    -0.09  -0.01   0.05    -0.04  -0.01  -0.12
    30   1     0.08  -0.08  -0.11     0.06   0.06  -0.02    -0.02   0.02  -0.24
    31   1    -0.09   0.02  -0.19    -0.06  -0.01   0.07    -0.09   0.03  -0.19
                    13                     14                     15
                     A                      A                      A
 Frequencies --   190.9229               202.2506               208.5914
 Red. masses --     8.6461                 9.5587                 6.8285
 Frc consts  --     0.1857                 0.2304                 0.1751
 IR Inten    --    39.9682                 2.9236                14.7790
 Raman Activ --    53.9736                12.3354                22.2858
 Depolar (P) --     0.1930                 0.6945                 0.3342
 Depolar (U) --     0.3236                 0.8197                 0.5010
  Atom  AN      X      Y      Z        X      Y      Z        X      Y      Z
     1   8     0.06   0.07   0.10    -0.03   0.01   0.06    -0.06  -0.09   0.09
     2   6    -0.02  -0.02  -0.08    -0.06  -0.03  -0.03    -0.10  -0.03  -0.07
     3   6    -0.06  -0.02  -0.08    -0.07  -0.03  -0.01    -0.02  -0.03  -0.07
     4   8    -0.09   0.00   0.00    -0.08  -0.02  -0.02     0.01  -0.08   0.03
     5   1    -0.08   0.04  -0.02    -0.08   0.00  -0.04     0.01  -0.10   0.03
     6   6    -0.03  -0.10  -0.02    -0.05  -0.06   0.01    -0.03   0.02  -0.01
     7   8    -0.03  -0.12   0.21    -0.05  -0.07   0.17     0.01   0.05   0.00
     8   1    -0.04  -0.05   0.27    -0.08  -0.02   0.19     0.00   0.01  -0.04
     9   6    -0.02   0.00   0.00     0.03  -0.01   0.00     0.07   0.04  -0.01
    10   8    -0.11   0.04   0.16     0.09  -0.07   0.09     0.27  -0.10   0.03
    11   1    -0.13   0.06   0.21     0.14  -0.02   0.11     0.37  -0.03   0.05
    12   6     0.02  -0.05  -0.14    -0.03  -0.06  -0.07    -0.07  -0.03  -0.08
    13   8    -0.03  -0.10  -0.29    -0.07  -0.05  -0.16    -0.12   0.02  -0.14
    14   6    -0.04  -0.06  -0.15    -0.04  -0.01  -0.10    -0.01   0.07   0.08
    15   8     0.05  -0.10   0.07    -0.03   0.03  -0.12    -0.04   0.13   0.01
    16   6     0.05   0.06   0.04    -0.01   0.07  -0.17    -0.07   0.02   0.12
    17   6     0.05   0.06  -0.07     0.00   0.05   0.01    -0.01   0.03   0.09
    18   8     0.02   0.09  -0.12     0.03   0.03   0.34     0.00   0.05  -0.09
    19   1     0.06   0.08  -0.19     0.03   0.11   0.30     0.01   0.03  -0.11
    20   6     0.06   0.03   0.06     0.06  -0.02  -0.06     0.01   0.01   0.06
    21   8     0.09   0.03   0.28     0.13  -0.02  -0.14     0.07   0.00  -0.04
    22   1     0.06  -0.01   0.26     0.20   0.03  -0.08     0.13   0.06  -0.02
    23   6    -0.08   0.05  -0.08    -0.07   0.12  -0.04     0.12  -0.01   0.10
    24   8    -0.09  -0.01  -0.01     0.10   0.22   0.18     0.11   0.10  -0.14
    25   1    -0.24  -0.17   0.01     0.12   0.11   0.20     0.25   0.39  -0.19
    26   6     0.05   0.05   0.10    -0.03   0.06  -0.19    -0.08   0.02   0.07
    27   8     0.04   0.03   0.09     0.01  -0.02  -0.21    -0.09   0.01   0.16
    28   6     0.06   0.04  -0.08     0.05  -0.03   0.02    -0.05  -0.06   0.06
    29   8     0.08   0.03  -0.16     0.04  -0.10   0.21     0.00  -0.14  -0.13
    30   1    -0.05   0.12   0.22    -0.08   0.05   0.11    -0.10  -0.10   0.15
    31   1     0.02  -0.07  -0.16     0.10  -0.04   0.24    -0.13  -0.13  -0.25
                    16                     17                     18
                     A                      A                      A
 Frequencies --   229.6597               252.8613               280.9552
 Red. masses --     8.7306                 8.6491                 8.1540
 Frc consts  --     0.2713                 0.3258                 0.3792
 IR Inten    --    48.6726               130.0848                68.0041
 Raman Activ --    83.8802                92.3106               300.8513
 Depolar (P) --     0.5213                 0.2003                 0.7500
 Depolar (U) --     0.6853                 0.3337                 0.8571
  Atom  AN      X      Y      Z        X      Y      Z        X      Y      Z
     1   8     0.15   0.12  -0.11     0.00  -0.08   0.11    -0.02   0.13   0.00
     2   6     0.16   0.01   0.02    -0.05   0.01  -0.09    -0.03  -0.02   0.02
     3   6     0.07  -0.03   0.09     0.01   0.03  -0.16     0.00  -0.03   0.24
     4   8    -0.02   0.06  -0.02     0.13  -0.08   0.06    -0.01  -0.01  -0.03
     5   1     0.01   0.11   0.00     0.10  -0.14   0.04    -0.01   0.01  -0.10
     6   6     0.04  -0.07   0.04     0.03   0.07  -0.02    -0.01   0.05   0.11
     7   8     0.03  -0.07  -0.05     0.14   0.13  -0.07     0.02   0.11  -0.08
     8   1     0.05  -0.08  -0.05     0.19   0.05  -0.10     0.05   0.02  -0.15
     9   6     0.00  -0.06  -0.06     0.03   0.10  -0.03     0.04  -0.06  -0.19
    10   8    -0.17   0.03   0.03     0.06   0.09  -0.01     0.05  -0.17   0.17
    11   1    -0.22   0.00   0.02     0.07   0.10  -0.01     0.20  -0.08   0.17
    12   6     0.12  -0.03   0.00    -0.02   0.07  -0.05    -0.06  -0.11  -0.15
    13   8     0.11  -0.02   0.14    -0.01   0.05  -0.04    -0.09   0.03   0.03
    14   6     0.06  -0.09   0.02    -0.06   0.05   0.14     0.02   0.06   0.06
    15   8    -0.02  -0.10  -0.05    -0.03  -0.20   0.30    -0.04   0.11  -0.09
    16   6    -0.09   0.04  -0.05     0.03   0.01   0.00     0.07   0.00  -0.20
    17   6    -0.07   0.07  -0.05    -0.04   0.01  -0.16     0.07  -0.04  -0.13
    18   8    -0.04   0.12  -0.01    -0.06   0.04  -0.01     0.02  -0.06   0.05
    19   1    -0.05   0.10   0.04    -0.05   0.10  -0.06     0.04   0.02  -0.02
    20   6    -0.05  -0.02   0.01    -0.06  -0.04  -0.14     0.01   0.03  -0.10
    21   8     0.04  -0.03   0.04    -0.10  -0.06   0.12    -0.20   0.05   0.10
    22   1     0.06   0.00   0.05    -0.24  -0.16  -0.01    -0.39  -0.12  -0.04
    23   6    -0.07   0.06  -0.03    -0.13  -0.01  -0.13    -0.02  -0.04  -0.11
    24   8     0.17   0.29  -0.02     0.14   0.11   0.07     0.02  -0.07   0.10
    25   1     0.18   0.34  -0.02    -0.10  -0.19   0.11     0.03  -0.21   0.13
    26   6    -0.13   0.05   0.03    -0.02  -0.01   0.05     0.07  -0.02  -0.03
    27   8    -0.16  -0.02   0.14    -0.03  -0.07  -0.10    -0.04   0.04   0.22
    28   6    -0.10  -0.11   0.00     0.01  -0.04  -0.22     0.08   0.02  -0.13
    29   8    -0.05  -0.25  -0.10    -0.04  -0.08   0.13     0.10  -0.04  -0.02
    30   1     0.17   0.14  -0.14    -0.06  -0.10   0.21    -0.07   0.27  -0.05
    31   1    -0.17  -0.24  -0.22     0.10  -0.14   0.30     0.10  -0.12   0.04
                    19                     20                     21
                     A                      A                      A
 Frequencies --   290.6567               303.1732               314.1299
 Red. masses --     7.5802                 8.0349                 9.2566
 Frc consts  --     0.3773                 0.4351                 0.5382
 IR Inten    --    43.7302                16.3819                94.9498
 Raman Activ --    28.6350                68.3363                52.7264
 Depolar (P) --     0.7500                 0.7490                 0.5043
 Depolar (U) --     0.8571                 0.8565                 0.6705
  Atom  AN      X      Y      Z        X      Y      Z        X      Y      Z
     1   8     0.05   0.22  -0.06    -0.06  -0.07   0.00    -0.09  -0.02  -0.10
     2   6     0.02  -0.03   0.02    -0.01   0.00   0.07     0.04  -0.01   0.22
     3   6    -0.06  -0.08   0.14     0.05   0.04   0.18     0.05   0.03   0.36
     4   8    -0.18   0.03   0.04     0.18  -0.06  -0.08     0.13   0.00  -0.10
     5   1    -0.14   0.13   0.02     0.13  -0.15  -0.15     0.08  -0.07  -0.16
     6   6     0.00   0.01  -0.03    -0.01   0.07   0.11     0.00   0.09   0.09
     7   8     0.30   0.10  -0.11    -0.20   0.05  -0.04    -0.17   0.08  -0.13
     8   1     0.48  -0.01  -0.05    -0.29   0.06  -0.12    -0.20   0.08  -0.15
     9   6    -0.03  -0.12  -0.03     0.03   0.02  -0.07    -0.03  -0.05   0.09
    10   8     0.00  -0.17   0.08     0.01   0.02   0.04    -0.01  -0.07   0.00
    11   1     0.06  -0.13   0.10     0.03   0.04   0.05    -0.03  -0.06   0.03
    12   6    -0.03  -0.08  -0.07     0.00   0.00  -0.05     0.03  -0.01   0.02
    13   8    -0.01   0.02  -0.04     0.00   0.02  -0.07     0.02  -0.02  -0.29
    14   6    -0.10   0.04  -0.08     0.02   0.01   0.00    -0.03   0.04  -0.13
    15   8    -0.03   0.00   0.11     0.00  -0.11  -0.04     0.08  -0.13   0.11
    16   6    -0.04   0.00   0.15    -0.02  -0.02  -0.06     0.01   0.02   0.15
    17   6    -0.03   0.02   0.03    -0.05   0.04  -0.08    -0.01  -0.01   0.08
    18   8     0.00   0.07  -0.04    -0.02   0.06   0.07    -0.03   0.00  -0.06
    19   1     0.00   0.08  -0.04    -0.03   0.11   0.07    -0.02  -0.03  -0.09
    20   6    -0.02  -0.03  -0.02    -0.04  -0.08  -0.10     0.01   0.03   0.08
    21   8     0.15  -0.06  -0.03     0.31  -0.14   0.03    -0.13   0.05  -0.05
    22   1     0.24   0.04   0.03     0.43   0.02   0.08    -0.16   0.01  -0.06
[...]
 22,-0.00184861,0.00019767,-0.00049255,0.00013686,-0.00013347,-0.000025
 10,0.00053794,-0.00072627,0.00030091,0.00206778,0.00011095,-0.00078913
 ,-0.00019936,0.00003002,0.00003345,0.00009931,-0.01848305,-0.01203193,
 -0.02017622,-0.04936009,0.01048019,-0.01406617,0.06971302,-0.00792467,
 0.03389517,-0.00005979,-0.00035969,-0.00080931,0.00311402,0.00060989,0
 .00306709,-0.00761072,0.00131053,-0.00055170,0.00526703,0.00132720,-0.
 00334540,-0.00021667,0.00016157,0.00076355,0.00158379,-0.00653579,0.00
 265226,0.00147154,0.00184375,0.00042014,-0.00041235,-0.00027397,-0.000
 07696,0.00163751,0.00629676,-0.00417027,-0.00162627,-0.00403528,0.0048
 7562,-0.00007074,0.00097527,-0.00010157,-0.00363202,-0.00424941,-0.006
 24815,0.00268389,-0.00401271,0.01041796,-0.00651935,0.00819309,-0.0228
 2583,-0.00287105,0.01932269,0.03494621,-0.06013927,-0.04366237,-0.0107
 4000,-0.01538627,-0.01359404,-0.01023910,-0.00109823,-0.00309854,0.000
 88909,0.00055911,0.00060320,-0.00437440,0.00039259,-0.00246443,-0.0049
 2532,0.00199161,0.00777343,0.00117264,0.00019994,-0.00059297,-0.001678
 43,-0.05243283,-0.01868901,-0.02838904,0.00058972,-0.02327065,0.005167
 06,0.00286830,0.00122403,0.00226246,0.20351220,-0.00006700,0.00008774,
 -0.00057541,0.00120886,-0.00115006,0.00218701,-0.00336271,0.00160266,0
 .00233124,0.00330700,0.00086206,-0.00259378,-0.00008997,0.00013216,0.0
 0048753,-0.00087460,-0.00611749,-0.00217204,0.00141562,0.00335620,0.00
 195997,-0.00029399,-0.00031619,-0.00039896,0.00057452,0.00314096,-0.00
 233379,-0.00069053,-0.00202647,0.00257989,-0.00003999,0.00052554,-0.00
 004033,-0.00132583,-0.00216405,-0.00423749,0.00007661,-0.00168369,0.00
 423022,-0.00104838,0.00010354,-0.00693482,0.00164402,0.01125052,-0.000
 66650,-0.00688686,-0.06062619,-0.00063791,-0.04261444,-0.03643277,-0.0
 0591080,-0.00394466,-0.00022120,-0.00004412,0.00000501,0.00059712,-0.0
 0083816,0.00141297,-0.00195029,-0.01394711,-0.00010768,0.00113374,0.00
 105391,-0.00001895,0.00012540,-0.00017028,-0.03100682,-0.03570922,0.00
 665981,-0.00599689,-0.04228410,-0.02936591,0.00531332,-0.00466483,0.01
 355342,0.10675715,0.22538754,0.00007319,0.00015112,0.00025222,-0.00080
 589,-0.00051501,-0.00063974,0.00139902,0.00008291,0.00002244,-0.000927
 81,-0.00026951,0.00068566,-0.00000524,0.00002865,-0.00015780,-0.000608
 84,-0.00002129,-0.00104645,0.00004687,0.00064681,0.00037356,0.00003314
 ,0.00009826,0.00009134,-0.00026125,-0.00262732,-0.00007907,0.00067084,
 0.00133530,-0.00081641,-0.00003329,-0.00016303,-0.00005894,0.00171947,
 0.00109171,0.00125264,-0.00181859,0.00173343,-0.00218037,0.00074650,-0
 .00392003,-0.00107301,-0.00399337,-0.01058774,-0.03219240,-0.02985446,
 -0.01969767,-0.09255202,-0.00710886,-0.00715115,0.02466062,0.00491510,
 0.00507048,-0.00295162,-0.00078665,-0.00008752,0.00027954,-0.00137118,
 -0.00555141,-0.01082712,-0.00273229,-0.00810916,-0.00074219,-0.0004747
 7,0.00065962,0.00215404,-0.00420303,0.03381144,-0.04782431,-0.01176283
 ,-0.03432501,-0.01158990,0.00433958,-0.00264201,0.00145789,-0.01561357
 ,0.02400239,0.31859029,0.00038902,0.00001032,0.00134383,-0.00232970,0.
 00114842,-0.00317400,0.00521054,-0.00170637,-0.00120987,-0.00451611,-0
 .00110538,0.00362887,0.00013035,-0.00006290,-0.00067533,0.00021907,0.0
 0521359,-0.00046044,-0.00152928,-0.00220074,-0.00059256,0.00034795,0.0
 0052236,0.00003907,-0.00179448,-0.00563219,0.00462601,0.00194540,0.003
 91326,-0.00498477,0.00000079,-0.00105445,0.00013889,0.00305895,0.00285
 932,0.00543182,-0.00391696,0.00588395,-0.00737415,0.01008655,-0.010142
 19,0.00913409,0.00161434,-0.00259546,-0.01592418,-0.00028438,0.0133708
 1,0.00666826,-0.00495036,-0.00237340,0.01506753,-0.00058122,-0.0003457
 7,-0.00924516,-0.00231081,-0.00135491,0.00599639,-0.01582020,-0.037543
 49,-0.00881276,-0.00213907,-0.00761845,-0.00480262,0.00083868,-0.00101
 680,0.00091264,0.00108423,-0.00719334,0.02318933,-0.00254091,0.0032702
 8,-0.00063327,-0.00116346,-0.00097834,0.00009028,-0.06567984,-0.017461
 53,0.04474126,0.12981444,-0.00015374,0.00002378,-0.00029953,-0.0000644
 2,0.00026453,-0.00025117,0.00023008,-0.00038530,-0.00118218,-0.0003157
 4,-0.00021685,0.00030014,0.00004123,-0.00014207,-0.00004493,-0.0003650
 2,0.00213378,0.00199434,-0.00016682,-0.00083015,-0.00080763,-0.0000115
 3,0.00003317,0.00015364,0.00034343,-0.00093482,-0.00082252,-0.00005309
 ,0.00025338,0.00027402,0.00001907,0.00008567,-0.00005260,0.00019977,0.
 00083247,0.00118488,0.00257015,-0.00086910,0.00044758,-0.00983978,0.00
 553909,0.00193862,0.00591348,-0.00979462,0.00640317,0.00237167,0.00245
 489,-0.01984951,0.00045841,0.00371845,0.00458647,0.00486803,0.00074096
 ,0.00526102,0.00066610,0.00111961,-0.00146079,-0.01815035,-0.03654155,
 0.00246160,-0.00321325,-0.00949655,-0.00478311,-0.00124828,0.00009769,
 0.00293200,-0.01840054,-0.02538651,0.01070448,0.00481101,0.00560096,0.
 01968937,-0.00108727,0.00325271,-0.00355226,-0.00313039,-0.04593177,-0
 .02071958,0.08911085,0.21161881,-0.00031022,0.00008245,-0.00103422,0.0
 0152781,-0.00117439,0.00233189,-0.00343684,0.00142334,0.00193223,0.003
 13448,0.00088295,-0.00274588,-0.00010820,0.00007862,0.00047355,-0.0001
 9895,-0.00425231,-0.00170629,0.00109837,0.00193772,0.00078875,-0.00021
 881,-0.00042039,-0.00008914,0.00106716,0.00427188,-0.00262660,-0.00139
 223,-0.00278108,0.00307786,0.00001454,0.00068994,-0.00004228,-0.002009
 40,-0.00244454,-0.00396911,0.00026567,-0.00358388,0.00231321,0.0030173
 9,-0.00059958,-0.00355649,-0.01170244,0.00485231,-0.00576588,0.0294940
 2,-0.01062948,-0.03590919,0.00025254,0.00362702,-0.00721120,-0.0025843
 0,0.00004766,0.00161083,0.00131628,-0.00012445,-0.00257988,0.00238784,
 -0.00924693,0.01992615,-0.00136935,0.01018439,-0.00220742,-0.00000165,
 -0.00210133,-0.00202645,0.01126865,0.02427903,-0.01772093,0.00109873,-
 0.00309767,-0.00256032,0.00103965,-0.00001658,0.00115585,0.02517203,-0
 .02019476,-0.11546886,-0.08704942,0.00295807,0.26374155,-0.00043123,0.
 00005801,-0.00112857,0.00129668,-0.00028083,0.00157017,-0.00255744,0.0
 0059002,0.00009829,0.00220534,0.00052684,-0.00193342,-0.00003318,-0.00
 009566,0.00032367,-0.00116029,-0.00192057,0.00094029,0.00084048,0.0013
 7239,0.00004193,-0.00024654,-0.00037208,0.00008579,0.00120288,0.002834
 75,-0.00273293,-0.00116365,-0.00212859,0.00274760,0.00000715,0.0006527
 2,-0.00007331,-0.00156104,-0.00138466,-0.00222600,0.00226911,-0.003135
 10,0.00361698,-0.00562060,0.00694291,0.00252188,0.00770739,-0.00786734
 ,0.00245851,-0.00856389,-0.00919469,-0.01675363,0.01715512,0.02129336,
 -0.00735948,0.00046741,-0.00062988,0.01330604,0.00314679,0.00123777,-0
 .00267189,-0.06649425,-0.00220730,0.00190992,-0.01077511,-0.02270082,-
 0.00589266,-0.00248320,0.00195068,0.00635093,-0.00019340,-0.00875866,-
 0.00114306,0.00100445,0.00287695,0.00523873,-0.00050552,0.00128213,-0.
 00219373,-0.00889108,-0.00298196,0.01883751,-0.03724484,-0.05909515,0.
 01205818,0.17547568,0.00023024,-0.00008840,0.00050600,-0.00011232,-0.0
 0016364,-0.00000869,0.00022063,0.00009262,0.00087540,-0.00014495,0.000
 16688,0.00015009,-0.00008765,0.00020591,-0.00001656,0.00110720,-0.0012
 7870,-0.00208903,-0.00012030,0.00000464,0.00035832,0.00008161,0.000028
 84,-0.00012205,-0.00025280,0.00020098,0.00055942,0.00017646,0.00008032
 ,-0.00030613,-0.00004480,-0.00012040,0.00001688,0.00005939,-0.00071189
 ,-0.00101631,-0.00297970,0.00069008,-0.00059886,0.00909706,-0.00605675
 ,-0.00580060,-0.01469314,0.01209523,-0.00670669,0.01334302,-0.00789339
 ,0.01025074,0.00448455,0.00634622,-0.02364448,-0.00612730,0.00001352,-
 0.00097028,0.00021072,-0.00067415,0.00087632,-0.02144742,-0.08877581,0
 .00292363,-0.02185981,0.00517790,-0.02246514,-0.00167010,-0.00594353,-
 0.00072072,0.00222350,0.00201571,0.01199407,-0.00281902,-0.00139949,-0
 .01324505,0.00020913,-0.00113609,0.00133284,-0.03217099,-0.00598788,0.
 05049980,-0.00949241,-0.10017158,-0.03683769,0.09546168,0.25264097,0.0
 0037178,-0.00005405,0.00117734,-0.00168410,0.00039193,-0.00199957,0.00
 371692,-0.00078804,-0.00063388,-0.00296971,-0.00080060,0.00234210,0.00
 011352,0.00002220,-0.00045768,0.00007603,0.00321686,-0.00055436,-0.000
 99775,-0.00151445,-0.00024170,0.00027864,0.00030461,-0.00001476,-0.001
 03451,-0.00340354,0.00258702,0.00121157,0.00235324,-0.00274400,-0.0000
 5797,-0.00066826,0.00003209,0.00173165,0.00187061,0.00263363,-0.002163
 67,0.00267230,-0.00296039,0.00441794,-0.00352825,0.00580866,0.00324811
 ,-0.00147121,-0.00729960,-0.01078113,0.00103081,-0.00325002,-0.0104632
 9,-0.00040687,-0.03974989,0.00350417,-0.00005132,-0.00230468,-0.000804
 19,-0.00091992,0.00100434,-0.02518826,-0.02366784,-0.09844925,0.006232
 76,0.00455951,0.00819028,0.00047631,0.00347585,0.00088314,0.00236114,-
 0.00316405,0.00278803,-0.00242169,-0.00090418,-0.00223638,0.00034025,-
 0.00001501,0.00014930,0.02293872,0.02811083,-0.03092612,0.00089972,-0.
 02413536,-0.06295623,-0.01572929,0.04849839,0.40801369,0.00017378,-0.0
 0000700,0.00042470,-0.00048539,-0.00028771,-0.00035902,0.00079894,0.00
 009813,0.00019324,-0.00054895,-0.00019021,0.00048456,0.00001096,0.0000
 5645,-0.00008057,0.00046382,0.00051027,-0.00041315,-0.00022409,-0.0004
 8257,0.00002224,0.00010324,0.00008211,-0.00006169,-0.00036863,-0.00089
 619,0.00063645,0.00037025,0.00063444,-0.00069270,-0.00002199,-0.000188
 18,0.00000339,0.00046137,0.00061705,0.00035649,-0.00012328,0.00025450,
 -0.00055833,-0.00049164,-0.00071198,-0.00212442,-0.00297778,0.00329892
 ,0.00209186,0.00286280,-0.00300419,0.00304964,-0.00547107,-0.00538522,
 -0.00344800,0.00073086,0.00011044,-0.00285743,-0.00076020,-0.00041893,
 0.00007501,0.00970185,-0.01081634,-0.02194163,-0.00040738,0.00951820,-
 0.00101216,0.00028784,-0.00120601,-0.00152286,0.00141331,0.00011193,0.
 00085083,-0.00125137,-0.00046517,-0.00155138,-0.00001568,-0.00009382,0
 .00006580,0.00115699,-0.00219810,0.00475634,-0.00623250,0.00385990,0.0
 1528039,-0.07794001,-0.01441433,0.00710673,0.43386056,-0.00013957,0.00
 003569,-0.00032650,0.00024394,0.00014856,0.00018008,-0.00043210,-0.000
 06477,-0.00027530,0.00031011,0.00006354,-0.00027690,0.00001312,-0.0000
 7714,0.00004684,-0.00044942,0.00008095,0.00069878,0.00015337,0.0002181
 0,-0.00011354,-0.00006685,-0.00006292,0.00005203,0.00021685,0.00028547
 ,-0.00042808,-0.00018649,-0.00026993,0.00035343,0.00002017,0.00010983,
 -0.00000261,-0.00020593,-0.00004772,0.00010712,0.00094106,-0.00035071,
 0.00044911,-0.00267314,0.00201568,0.00206297,0.00492255,-0.00452889,0.
 00169364,-0.00485213,0.00321587,-0.00528803,-0.00293370,0.00194076,0.0
 0226312,0.00164821,0.00017856,0.00051746,0.00008263,0.00017342,-0.0003
 0667,0.00572941,0.00494870,-0.01082268,0.00108898,-0.00293221,0.001777
 10,0.00019355,0.00083961,0.00056966,-0.00051027,-0.00220235,-0.0040972
 6,0.00091469,0.00127068,0.00460964,-0.00019517,0.00034508,-0.00070925,
 0.00579983,-0.00017960,-0.00453719,-0.01565075,-0.00923045,0.04362422,
 -0.01470456,-0.05357971,-0.02478746,0.03561687,0.05028479,-0.00047934,
 0.00009960,-0.00132036,0.00154944,-0.00009242,0.00165694,-0.00310370,0
 .00048777,0.00028746,0.00246741,0.00066629,-0.00209307,-0.00005753,-0.
 00011422,0.00037290,-0.00090095,-0.00248679,0.00084790,0.00094035,0.00
 167524,0.00016079,-0.00029781,-0.00032315,0.00008343,0.00103239,0.0031
 2339,-0.00227738,-0.00120264,-0.00218966,0.00245848,0.00007423,0.00063
 431,-0.00003044,-0.00144831,-0.00164682,-0.00178623,0.00178923,-0.0018
 0528,0.00195350,-0.00258431,0.00335207,0.00095447,0.00433893,-0.004187
 87,0.00075442,-0.00144289,0.00439564,-0.00426723,-0.00515790,-0.002960
 74,0.00419990,0.00165164,-0.00020281,-0.00076428,-0.00016039,0.0005309
 5,-0.00124338,0.01082562,0.00009489,-0.04546076,-0.00124883,-0.0060057
 3,0.00460120,0.00043917,0.00089933,0.00047460,-0.00204865,-0.00096100,
 -0.00426245,0.00212771,0.00114777,0.00380295,-0.00012480,0.00013600,-0
 .00043953,-0.00163445,0.00390851,0.00066923,0.02428186,0.01356442,-0.0
 2838245,0.01274163,-0.00676033,-0.15039077,0.22775815,0.00321179,0.437
 75629,-0.28797201,-0.00740334,0.27680872,0.01346652,0.00186370,-0.0204
 0176,-0.00013419,-0.00068980,-0.00191449,-0.00181511,0.00010479,0.0005
 4594,0.00131098,-0.00279393,-0.00047107,-0.00073676,0.00011666,-0.0000
 3565,-0.00002902,-0.00024213,-0.00015964,0.00000721,-0.00003523,-0.000
 07837,-0.00015359,-0.00063151,0.00000240,0.00011603,0.00013555,0.00017
 492,-0.00002140,0.00005136,-0.00003815,-0.00089593,-0.00097213,-0.0011
 9615,0.00017400,0.00018375,-0.00151172,-0.00005479,0.00047004,0.000449
 91,0.00003705,-0.00011639,-0.00008294,-0.00003371,0.00000703,0.0000086
 5,0.00006755,0.00003815,0.00004345,0.00000462,-0.00000828,-0.00014347,
 -0.00008714,-0.00004418,0.00015608,0.00000683,0.00003195,-0.00000369,-
 0.00001504,-0.00003229,-0.00000299,0.00000444,0.00000249,0.00000822,-0
 .00000188,-0.00004189,-0.00003178,0.00000277,0.00001303,0.00003025,-0.
 00000116,-0.00000008,-0.00000920,0.00004079,0.00002284,-0.00002292,-0.
 00004274,-0.00000846,0.00003078,0.00002408,0.00000183,-0.00002578,-0.0
 0000865,0.00000373,0.00002365,0.27674021,-0.00727931,0.01326514,0.0042
 0343,0.00185536,-0.00157897,0.01052706,0.00218912,-0.00262094,-0.00634
 929,-0.00235140,0.00015493,0.00357296,-0.00463937,-0.00398858,-0.00218
 799,-0.00078179,0.00127414,0.00096627,0.00001556,-0.00046271,0.0000712
 4,0.00004295,-0.00008152,-0.00028231,-0.00035563,-0.00122761,-0.000207
 62,0.00025153,0.00013183,-0.00028939,-0.00008808,-0.00006656,0.0000610
 7,0.00214910,0.00195524,0.00244783,-0.00120207,-0.00171817,0.00037418,
 0.00058505,0.00044097,-0.00015014,-0.00029263,0.00002168,-0.00043864,-
 0.00025818,0.00003878,0.00029389,0.00019630,0.00008767,0.00006539,-0.0
 0016195,-0.00009901,-0.00015868,0.00005757,0.00002043,0.00006467,0.000
 02356,0.00014000,0.00003586,-0.00004037,-0.00012534,-0.00001472,0.0000
 0941,0.00002260,0.00002387,0.00000840,-0.00021992,-0.00014744,0.000016
 14,0.00005895,0.00013579,-0.00001964,0.00001128,-0.00003691,0.00024818
 ,0.00013011,-0.00007544,-0.00021160,-0.00003528,0.00014827,0.00007353,
 0.00002491,-0.00011691,-0.00000856,-0.00000581,0.00007899,0.00997456,-
 0.00555071,0.23417121,0.01280289,-0.28170189,0.02130787,0.00459393,-0.
 02810992,0.00182280,-0.00031870,-0.00193428,-0.00072915,0.00061519,0.0
 0205120,-0.00189941,-0.00379440,0.00103132,-0.00051987,0.00004154,-0.0
 0045481,0.00018710,0.00005953,0.00014254,-0.00005680,-0.00015299,-0.00
 006239,0.00112454,0.00193588,-0.00021544,-0.00025848,-0.00064183,0.000
 31526,-0.00003600,0.00013901,0.00006113,-0.00297656,-0.00446413,-0.003
 29149,0.00032771,0.00250262,0.00004313,-0.00035467,-0.00067537,0.00049
 423,0.00014997,-0.00000444,-0.00003913,-0.00022453,-0.00005357,0.00009
 311,0.00029202,0.00010410,0.00006638,-0.00020953,-0.00015717,-0.000312
 49,-0.00012568,0.00000537,0.00018081,0.00009302,0.00035771,0.00004885,
 -0.00013404,-0.00029055,0.00001574,0.00006250,0.00003858,0.00000781,-0
 .00013138,-0.00055575,-0.00060386,0.00020891,0.00025706,0.00055635,-0.
 00007858,-0.00000458,-0.00007315,0.00043007,0.00026871,-0.00011481,-0.
 00049461,0.00004347,0.00035599,0.00034164,-0.00010518,-0.00038284,-0.0
 0011837,0.00008177,0.00038781,-0.25214800,-0.01260440,0.31152271,0.000
 02926,-0.00000811,0.00008166,-0.00009152,0.00002299,-0.00010679,0.0001
 9503,-0.00004549,-0.00002411,-0.00016591,-0.00003793,0.00013871,0.0000
 0469,0.00000688,-0.00002411,0.00007744,0.00016840,-0.00006152,-0.00007
 788,-0.00011907,-0.00001355,0.00002454,0.00002132,-0.00000642,-0.00006
 324,-0.00018151,0.00014652,0.00006672,0.00013041,-0.00015280,0.0000002
 0,-0.00004001,0.00000306,0.00009108,0.00008213,0.00011576,-0.00017496,
 0.00015257,-0.00014494,0.00036238,-0.00033786,-0.00007973,-0.00044486,
 0.00041229,-0.00020597,0.00029809,-0.00010841,0.00049658,0.00059464,0.
 00001852,0.00030203,-0.00017898,0.00007872,0.00013633,0.00001243,-0.00
 001815,0.00011959,-0.00035663,-0.00035531,0.00267744,0.00011868,0.0004
 9168,-0.00009074,-0.00004931,0.00001213,-0.00000853,0.00017329,0.00045
 428,0.00061344,-0.00020986,-0.00015593,-0.00063246,-0.00000463,-0.0001
 1735,0.00020279,-0.00042253,-0.00072707,0.00010601,-0.00166344,-0.0001
 5937,0.00085733,0.01306270,0.00153002,0.01529539,-0.35506797,-0.014899
 03,-0.27014890,0.00000004,-0.00000573,-0.00002369,0.34386052,0.0000390
 7,-0.00001734,0.00009240,-0.00007403,0.00001634,-0.00008291,0.00015588
 ,-0.00003612,0.00004238,-0.00012417,-0.00001575,0.00011172,-0.00000782
 ,0.00002440,-0.00001786,0.00013381,0.00002726,-0.00020075,-0.00005666,
 -0.00009934,0.00001347,0.00001886,0.00002873,-0.00000516,-0.00003884,-
 0.00009426,0.00011220,0.00005389,0.00006711,-0.00009648,-0.00001068,-0
 .00002193,-0.00000837,0.00008630,-0.00000831,0.00001477,-0.00029613,0.
 00019121,-0.00016188,0.00085448,-0.00064941,-0.00058287,-0.00131685,0.
 00124584,-0.00045913,0.00121089,-0.00124615,0.00143354,-0.00117089,-0.
 00014821,-0.00146558,-0.00012517,-0.00017888,-0.00096075,-0.00017231,-
 0.00017515,0.00011535,0.00269631,0.00126608,0.00070025,0.00007374,0.00
 126982,-0.00033992,-0.00000155,-0.00019878,-0.00013631,0.00020152,0.00
 123308,0.00184142,-0.00027998,-0.00044120,-0.00191721,-0.00002221,-0.0
 0013037,0.00037729,-0.00230635,-0.00098952,0.00178815,0.00043729,0.002
 19666,-0.00158280,0.00030411,-0.00580335,-0.00610981,-0.01399469,0.007
 37694,-0.00827015,-0.00000184,0.00000246,-0.00002430,0.01373401,-0.004
 69183,0.00010152,-0.00001221,0.00026665,-0.00031281,-0.00007883,-0.000
 28935,0.00058601,-0.00001511,0.00001897,-0.00043398,-0.00013304,0.0003
 6548,0.00001456,0.00002638,-0.00006638,0.00019151,0.00042712,-0.000205
 82,-0.00016431,-0.00030671,-0.00000350,0.00006509,0.00005690,-0.000029
 26,-0.00020700,-0.00056819,0.00042104,0.00022092,0.00039925,-0.0004459
 8,-0.00001323,-0.00012038,0.00000056,0.00027460,0.00036015,0.00029797,
 -0.00018532,0.00024198,-0.00038105,0.00008212,-0.00049478,-0.00045918,
 -0.00096168,0.00118991,0.00033481,0.00058683,-0.00110240,0.00124265,-0
 .00163258,-0.00116209,-0.00143836,0.00020359,0.00002358,-0.00075593,-0
 .00026150,-0.00017821,0.00012994,0.00326156,-0.00092863,-0.00355731,-0
 .00000676,0.00209779,-0.00008488,0.00000946,-0.00037405,-0.00033308,0.
 00066237,0.00006843,0.00037228,-0.00056779,-0.00024411,-0.00057841,0.0
 0003428,0.00002155,0.00002083,0.00054861,-0.00027125,0.00075166,-0.000
 75673,0.00306389,0.00085097,-0.02535171,-0.00742809,-0.02805749,-0.226
 41411,-0.01032726,-0.21870395,-0.00000520,-0.00001089,-0.00007786,0.25
 043166,0.01577931,0.25039399\\-0.02184310,0.01976702,-0.03262997,0.102
 51973,-0.05835994,-0.05844378,-0.11266753,0.06623244,0.00966857,0.0372
 4150,-0.00731237,0.02420668,-0.01327793,-0.02015083,-0.02044996,0.0851
 6787,-0.08198234,-0.04884589,0.01391390,0.02755809,0.03525894,-0.00511
 126,0.02616333,-0.00904980,0.05215623,0.00285337,-0.04962272,-0.036134
 66,-0.00648434,0.04051033,-0.00221273,-0.02564578,-0.01091066,-0.06780
 555,0.04291780,0.05421023,0.03230317,-0.01281406,0.02960156,-0.0768787
 7,0.03503388,0.00907360,0.02388693,-0.04539545,0.02510898,-0.06171642,
 0.09947953,-0.04809936,0.10645827,-0.08277088,0.02862812,-0.05968725,-
 0.00099964,-0.02647185,0.01542469,0.00489566,-0.00495012,-0.09404153,0
 .06864766,-0.01342446,0.01334238,-0.05287425,0.01423063,-0.01727654,0.
 00608751,-0.01714875,-0.03054430,0.00586339,-0.03694008,0.00262282,0.0
 3535817,0.04053833,0.02643256,-0.00012331,-0.00326513,0.04825527,-0.07
 769089,0.02977445,-0.03636567,0.05314217,-0.00383959,0.10850869,-0.035
 01483,-0.00955474,-0.01858335,0.01177922,0.04906713,-0.00572456,0.0049
 1575,0.00895014,-0.00836286,-0.00307606,-0.00518082\\\@


 THE RARE EARTHS PERPLEX US IN OUR RESEARCHES,
 BAFFLE US IN OUR SPECULATIONS, AND HAUNT US IN OUR
 VERY DREAMS.  THEY STRETCH LIKE AN UNKNOWN BEFORE US,
 MOCKING, MYSTIFYING, AND MURMURING STRANGE REVELATIONS
 AND POSSIBILITIES.  -- SIR WILLIAM CROOKE, 1832-1919
 Job cpu time:  0 days  6 hours 51 minutes  2.0 seconds.
 File lengths (MBytes):  RWF=    792 Int=      0 D2E=      0 Chk=     14 Scr=      1
 Normal termination of Gaussian 09 at Sun Oct 18 04:41:33 2015.
Gaussian '09 finished on node031 at Sun Oct 18 04:41:33 EDT 2015.
