Gaussian '09 started on node013 at Mon Feb  8 13:54:04 EST 2016.
 Entering Gaussian System, Link 0=/usr/local/gaussian/g09/g09
 Initial command:
 /usr/local/gaussian/g09/l1.exe /home/srmcgrat/thesis/gaussian/cellobiose/320/10000/1/2dfp/gaussian2754/Gau-2835.inp -scrdir=/home/srmcgrat/thesis/gaussian/cellobiose/320/10000/1/2dfp/gaussian2754/
 Entering Link 1 = /usr/local/gaussian/g09/l1.exe PID=      2837.
  
 Copyright (c) 1988,1990,1992,1993,1995,1998,2003,2009,2010,
            Gaussian, Inc.  All Rights Reserved.
  
 This is part of the Gaussian(R) 09 program.  It is based on
 the Gaussian(R) 03 system (copyright 2003, Gaussian, Inc.),
 the Gaussian(R) 98 system (copyright 1998, Gaussian, Inc.),
 the Gaussian(R) 94 system (copyright 1995, Gaussian, Inc.),
 the Gaussian 92(TM) system (copyright 1992, Gaussian, Inc.),
 the Gaussian 90(TM) system (copyright 1990, Gaussian, Inc.),
 the Gaussian 88(TM) system (copyright 1988, Gaussian, Inc.),
 the Gaussian 86(TM) system (copyright 1986, Carnegie Mellon
 University), and the Gaussian 82(TM) system (copyright 1983,
 Carnegie Mellon University). Gaussian is a federally registered
 trademark of Gaussian, Inc.
  
 This software contains proprietary and confidential information,
 including trade secrets, belonging to Gaussian, Inc.
  
 This software is provided under written license and may be
 used, copied, transmitted, or stored only in accord with that
 written license.
  
 The following legend is applicable only to US Government
 contracts under FAR:
  
                    RESTRICTED RIGHTS LEGEND
  
 Use, reproduction and disclosure by the US Government is
 subject to restrictions as set forth in subparagraphs (a)
 and (c) of the Commercial Computer Software - Restricted
 Rights clause in FAR 52.227-19.
  
 Gaussian, Inc.
 340 Quinnipiac St., Bldg. 40, Wallingford CT 06492
  
  
 ---------------------------------------------------------------
 Warning -- This program may not be used in any manner that
 competes with the business of Gaussian, Inc. or will provide
 assistance to any competitor of Gaussian, Inc.  The licensee
 of this program is prohibited from giving any competitor of
 Gaussian, Inc. access to this program.  By using this program,
 the user acknowledges that Gaussian, Inc. is engaged in the
 business of creating and licensing software in the field of
 computational chemistry and represents and warrants to the
 licensee that it is not a competitor of Gaussian, Inc. and that
 it will not use this program in any manner prohibited above.
 ---------------------------------------------------------------
  

 Cite this work as:
 Gaussian 09, Revision B.01,
 M. J. Frisch, G. W. Trucks, H. B. Schlegel, G. E. Scuseria, 
 M. A. Robb, J. R. Cheeseman, G. Scalmani, V. Barone, B. Mennucci, 
 G. A. Petersson, H. Nakatsuji, M. Caricato, X. Li, H. P. Hratchian, 
 A. F. Izmaylov, J. Bloino, G. Zheng, J. L. Sonnenberg, M. Hada, 
 M. Ehara, K. Toyota, R. Fukuda, J. Hasegawa, M. Ishida, T. Nakajima, 
 Y. Honda, O. Kitao, H. Nakai, T. Vreven, J. A. Montgomery, Jr., 
 J. E. Peralta, F. Ogliaro, M. Bearpark, J. J. Heyd, E. Brothers, 
 K. N. Kudin, V. N. Staroverov, T. Keith, R. Kobayashi, J. Normand, 
 K. Raghavachari, A. Rendell, J. C. Burant, S. S. Iyengar, J. Tomasi, 
 M. Cossi, N. Rega, J. M. Millam, M. Klene, J. E. Knox, J. B. Cross, 
 V. Bakken, C. Adamo, J. Jaramillo, R. Gomperts, R. E. Stratmann, 
 O. Yazyev, A. J. Austin, R. Cammi, C. Pomelli, J. W. Ochterski, 
 R. L. Martin, K. Morokuma, V. G. Zakrzewski, G. A. Voth, 
 P. Salvador, J. J. Dannenberg, S. Dapprich, A. D. Daniels, 
 O. Farkas, J. B. Foresman, J. V. Ortiz, J. Cioslowski, 
 and D. J. Fox, Gaussian, Inc., Wallingford CT, 2010.
 
 ******************************************
 Gaussian 09:  EM64L-G09RevB.01 12-Aug-2010
                 8-Feb-2016 
 ******************************************
 --------------------------------------------------
 # freq=raman b3lyp/6-31+g(2df,p) geom=connectivity
 --------------------------------------------------
 1/10=4,30=1,38=1,57=2/1,3;
 2/12=2,17=6,18=5,40=1/2;
 3/5=1,6=6,7=114,11=2,16=1,25=1,30=1,71=2,74=-5/1,2,3;
 4//1;
 5/5=2,38=5,98=1/2;
 8/6=4,10=90,11=11/1;
 10/13=10,15=4/2;
 11/6=3,8=1,9=11,15=111,16=1/1,2,10;
 10/6=1/2;
 6/7=2,8=2,9=2,10=2,18=1,28=1/1;
 7/8=1,10=1,25=1/1,2,3,16;
 1/10=4,30=1/3;
 99//99;
 -------------
 320 10000.com
 -------------
 Symbolic Z-matrix:
 Charge =  0 Multiplicity = 1
 O                     8.008     7.574     12.205 
 C                     8.512     7.993     13.482 
 C                     7.822     9.22      14.056 
 O                     7.746     10.331    13.151 
 H                     7.365     9.833     12.372 
 C                     8.391     9.634     15.403 
 O                     7.735     10.8      15.921 
 H                     8.147     10.94     16.821 
 C                     8.621     5.55      14.325 
 O                     8.153     4.816     13.184 
 H                     8.202     3.82      13.255 
 C                     8.044     6.948     14.481 
 O                     8.615     7.272     15.757 
 C                     8.222     8.496     16.396 
 O                     9.072     8.747     17.525 
 C                     8.454     8.403     18.773 
 C                     8.897     7.051     19.308 
 O                     8.72      6.006     18.34 
 H                     8.992     6.429     17.476 
 C                     8.197     6.694     20.609 
 O                     8.773     5.444     21.017 
 H                     8.288     5.124     21.831 
 C                     8.448     10.848    19.734 
 O                     8.404     11.474    18.443 
 H                     8.257     12.454    18.579 
 C                     8.851     9.388     19.86 
 O                     8.279     9.113     21.147 
 C                     8.572     7.783     21.6 
 O                     7.712     7.59      22.732 
 H                     8.24463   7.45577   23.51933 
 H                     8.74311   7.38151   11.61834 
 H                     8.38282   4.9893    15.20465 
 H                     9.68558   5.63281   14.25633 
 H                     6.97595   6.91869   14.53847 
 H                     9.57727   8.09345   13.48366 
 H                     6.81049   8.9252    14.24263 
 H                     9.43402   9.84406   15.28947 
 H                     7.20159   8.4336    16.71187 
 H                     9.12528   11.41569   20.33725 
 H                     7.47358   10.94493   20.16528 
 H                     9.91587   9.34944   19.95729 
 H                     7.39027   8.40937   18.65755 
 H                     9.94421   7.11864   19.51701 
 H                     7.13728   6.62041   20.48067 
 H                     9.59903   7.69756   21.88778 
 

 GradGradGradGradGradGradGradGradGradGradGradGradGradGradGradGradGradGrad
 Berny optimization.
 Initialization pass.
 Trust Radius=3.00D-01 FncErr=1.00D-07 GrdErr=1.00D-07
 Number of steps in this run=      2 maximum allowed number of steps=      2.
 GradGradGradGradGradGradGradGradGradGradGradGradGradGradGradGradGradGrad

                          Input orientation:                          
 ---------------------------------------------------------------------
 Center     Atomic      Atomic             Coordinates (Angstroms)
 Number     Number       Type             X           Y           Z
 ---------------------------------------------------------------------
      1          8           0        8.008000    7.574000   12.205000
      2          6           0        8.512000    7.993000   13.482000
      3          6           0        7.822000    9.220000   14.056000
      4          8           0        7.746000   10.331000   13.151000
      5          1           0        7.365000    9.833000   12.372000
      6          6           0        8.391000    9.634000   15.403000
      7          8           0        7.735000   10.800000   15.921000
      8          1           0        8.147000   10.940000   16.821000
      9          6           0        8.621000    5.550000   14.325000
     10          8           0        8.153000    4.816000   13.184000
     11          1           0        8.202000    3.820000   13.255000
     12          6           0        8.044000    6.948000   14.481000
     13          8           0        8.615000    7.272000   15.757000
     14          6           0        8.222000    8.496000   16.396000
     15          8           0        9.072000    8.747000   17.525000
     16          6           0        8.454000    8.403000   18.773000
     17          6           0        8.897000    7.051000   19.308000
     18          8           0        8.720000    6.006000   18.340000
     19          1           0        8.992000    6.429000   17.476000
     20          6           0        8.197000    6.694000   20.609000
     21          8           0        8.773000    5.444000   21.017000
     22          1           0        8.288000    5.124000   21.831000
     23          6           0        8.448000   10.848000   19.734000
     24          8           0        8.404000   11.474000   18.443000
     25          1           0        8.257000   12.454000   18.579000
     26          6           0        8.851000    9.388000   19.860000
     27          8           0        8.279000    9.113000   21.147000
     28          6           0        8.572000    7.783000   21.600000
     29          8           0        7.712000    7.590000   22.732000
     30          1           0        8.244635    7.455765   23.519325
     31          1           0        8.743106    7.381510   11.618343
     32          1           0        8.382822    4.989295   15.204649
     33          1           0        9.685579    5.632806   14.256334
     34          1           0        6.975947    6.918686   14.538470
     35          1           0        9.577273    8.093451   13.483658
     36          1           0        6.810485    8.925200   14.242631
     37          1           0        9.434018    9.844058   15.289471
     38          1           0        7.201593    8.433603   16.711874
     39          1           0        9.125284   11.415690   20.337254
     40          1           0        7.473576   10.944931   20.165279
     41          1           0        9.915870    9.349442   19.957294
     42          1           0        7.390266    8.409373   18.657550
     43          1           0        9.944205    7.118640   19.517012
     44          1           0        7.137275    6.620408   20.480671
     45          1           0        9.599028    7.697564   21.887776
 ---------------------------------------------------------------------
                    Distance matrix (angstroms):
                    1          2          3          4          5
     1  O    0.000000
     2  C    1.435377   0.000000
     3  C    2.483971   1.520232   0.000000
     4  O    2.926535   2.482451   1.434964   0.000000
     5  H    2.354659   2.435838   1.849452   1.000003   0.000000
     6  C    3.823283   2.529380   1.519726   2.444041   3.206125
     7  O    4.928515   3.798908   2.445852   2.809445   3.696943
     8  H    5.714607   4.468440   3.272499   3.741735   4.650868
     9  C    2.994452   2.586654   3.765589   5.000186   4.871944
    10  O    2.930193   3.211077   4.501684   5.530096   5.143012
    11  H    3.902903   4.190651   5.472294   6.527777   6.134853
    12  C    2.360794   1.519556   2.322045   3.647245   3.637602
    13  O    3.616125   2.388739   2.704987   4.111433   4.424867
    14  C    4.296552   2.971280   2.481890   3.758168   4.326037
    15  O    5.550714   4.150658   3.717552   4.837273   5.535942
    16  C    6.635117   5.307179   4.828768   5.985427   6.648580
    17  C    7.177497   5.914209   5.783052   7.070491   7.628541
    18  O    6.372111   5.252770   5.430364   6.824956   7.217962
    19  H    5.482948   4.316078   4.566725   5.956823   6.347059
    20  C    8.452061   7.251259   7.033001   8.309810   8.854022
    21  O    9.097993   7.958753   7.976095   9.317266   9.797031
    22  H    9.936839   8.831033   8.800284  10.136519  10.606568
    23  C    8.221832   6.873327   5.939861   6.640481   7.510137
    24  O    7.367460   6.061398   4.966388   5.453868   6.374123
    25  H    8.031455   6.778271   5.577231   5.850764   6.796481
    26  C    7.912033   6.537571   5.896904   6.864470   7.646984
    27  O    9.077518   7.749898   7.106517   8.105778   8.851803
    28  C    9.414234   8.120937   7.716178   8.863418   9.529708
    29  O   10.531173   9.293272   8.828475   9.965430  10.605709
    30  H   11.317417  10.055248   9.635646  10.771155  11.431879
    31  H    0.960000   1.974980   3.189146   3.470266   2.911525
    32  H    3.977321   3.465032   4.419590   5.758196   5.702748
    33  H    3.284886   2.747253   4.047348   5.201611   5.155330
    34  H    2.634322   2.151683   2.498926   3.763235   3.652147
    35  H    2.089836   1.070000   2.162792   2.910472   3.025883
    36  H    2.722448   2.083917   1.070000   2.010751   2.151940
    37  H    4.086644   2.746541   2.123559   2.767594   3.576674
    38  H    4.658446   3.513315   2.838484   4.071402   4.562841
    39  H    9.063137   7.686704   6.780394   7.397379   8.309559
    40  H    8.661110   7.379596   6.357678   7.046363   7.872952
    41  H    8.178644   6.763151   6.263092   7.210924   8.017322
    42  H    6.535659   5.312059   4.692310   5.843055   6.444803
    43  H    7.577715   6.263951   6.224317   7.461734   8.066675
    44  H    8.375813   7.263283   6.964419   8.237907   8.724858
    45  H    9.813398   8.480919   8.173882   9.311281  10.005047
                    6          7          8          9         10
     6  C    0.000000
     7  O    1.434648   0.000000
     8  H    1.943166   0.999672   0.000000
     9  C    4.230135   5.558301   5.958758   0.000000
    10  O    5.309777   6.593493   7.122582   1.435152   0.000000
    11  H    6.200985   7.486391   7.963277   2.076863   0.999729
    12  C    2.860959   4.123953   4.628420   1.520417   2.497902
    13  O    2.398861   3.639791   3.847771   2.239630   3.586880
    14  C    1.519755   2.402334   2.481811   3.623142   4.885090
    15  O    2.398628   2.928343   2.482033   4.545790   5.928035
    16  C    3.588346   3.794269   3.215730   5.286984   6.647864
    17  C    4.709241   5.184305   4.676750   5.211474   6.561413
    18  O    4.679380   5.459324   5.194232   4.042024   5.321835
    19  H    3.864008   4.806632   4.635965   3.292276   4.661218
    20  C    5.981946   6.249002   5.690339   6.401341   7.658945
    21  O    7.015627   7.465480   6.942932   6.694565   7.882555
    22  H    7.853018   8.212849   7.677619   7.525450   8.653537
    23  C    4.498289   3.879387   2.929955   7.573375   8.909240
    24  O    3.553501   2.694869   1.726873   7.217949   8.488171
    25  H    4.249392   3.173825   2.322684   8.117526   9.351785
    26  C    4.487423   4.330695   3.484227   6.739389   8.121537
    27  O    5.768667   5.518422   4.697832   7.704000   9.049279
    28  C    6.470067   6.484898   5.743354   7.610146   8.933516
    29  O    7.638928   7.529565   6.808204   8.698594   9.952581
    30  H    8.404812   8.317342   7.550959   9.397298  10.667507
    31  H    4.418293   5.587057   6.331337   3.270372   3.062899
    32  H    4.648945   5.890426   6.170826   1.070000   2.041046
    33  H    4.358937   5.768515   6.091884   1.070000   2.041046
    34  H    3.181622   4.189528   4.769934   2.150598   2.764296
    35  H    2.732107   4.081668   4.613716   2.844549   3.586089
    36  H    2.084917   2.680769   3.534639   3.831022   4.450682
    37  H    1.070000   2.049223   2.281027   4.475505   5.599588
    38  H    2.137474   2.551439   2.680994   4.003379   5.141801
    39  H    5.297211   4.670681   3.680674   8.414738   9.781118
    40  H    5.023894   4.254791   3.411411   8.033102   9.314702
    41  H    4.811216   4.811650   3.936383   6.916298   8.338904
    42  H    3.618463   3.650020   3.217085   5.334952   6.591953
    43  H    5.066022   5.600384   5.010112   5.582875   6.972633
    44  H    6.036249   6.214247   5.750792   6.421799   7.584787
    45  H    6.874695   6.978691   6.188214   7.922383   9.281709
                   11         12         13         14         15
    11  H    0.000000
    12  C    3.363395   0.000000
    13  O    4.283325   1.434989   0.000000
    14  C    5.633050   2.468849   1.435600   0.000000
    15  O    6.577623   3.682271   2.347402   1.435319   0.000000
    16  C    7.177445   4.550427   3.225111   2.390105   1.434491
    17  C    6.896462   4.902871   3.569029   3.320150   2.467008
    18  O    5.559150   4.029419   2.878484   3.198006   2.881182
    19  H    5.024721   3.184037   1.951343   2.455970   2.319898
    20  C    7.895645   6.135170   4.904153   4.582270   3.806769
    21  O    7.950601   6.746314   5.570830   5.565244   4.815940
    22  H    8.674998   7.576873   6.450915   6.396403   5.681762
    23  C    9.561942   6.554939   5.350906   4.089648   3.111793
    24  O    9.248776   6.025921   4.991585   3.618262   2.953892
    25  H   10.143666   6.866950   5.911427   4.520230   3.939161
    26  C    8.663132   5.961417   4.622528   3.631887   2.431450
    27  O    9.502918   7.012703   5.705636   4.791236   3.725814
    28  C    9.245609   7.187223   5.865460   5.264265   4.217217
    29  O   10.211098   8.282596   7.040395   6.420735   5.504643
    30  H   10.889306   9.054800   7.773328   7.198914   6.187387
    31  H    3.956741   2.978504   4.142087   4.933523   6.071353
    32  H    2.280587   2.115418   2.360029   3.707042   4.469826
    33  H    2.547536   2.115418   2.466798   3.862397   4.556189
    34  H    3.571044   1.070000   2.072714   2.736967   4.081119
    35  H    4.495114   2.158165   2.601699   3.237367   4.124909
    36  H    5.382825   2.342584   2.877961   2.610284   3.990006
    37  H    6.476590   3.312541   2.739500   2.123830   2.516383
    38  H    5.851164   2.809531   2.063692   1.070000   2.063447
    39  H   10.426182   7.444806   6.197522   4.987383   3.877308
    40  H    9.952246   6.972221   5.850316   4.556848   3.789055
    41  H    8.856231   6.265829   4.863178   4.034894   2.644070
    42  H    7.135040   4.472868   3.347653   2.411202   2.055454
    43  H    7.288971   5.385287   3.990989   3.821495   2.716691
    44  H    7.822164   6.076637   4.992125   4.623744   4.123293
    45  H    9.566191   7.605280   6.223811   5.717806   4.518062
                   16         17         18         19         20
    16  C    0.000000
    17  C    1.519993   0.000000
    18  O    2.450276   1.435402   0.000000
    19  H    2.422463   1.937042   0.999704   0.000000
    20  C    2.521433   1.519885   2.428010   3.243137   0.000000
    21  O    3.727329   2.349150   2.735870   3.681965   1.435528
    22  H    4.486732   3.232606   3.626517   4.600507   1.991599
    23  C    2.627086   3.847114   5.046007   4.992200   4.252569
    24  O    3.089084   4.533674   5.478092   5.170383   5.251933
    25  H    4.060424   5.489394   6.469018   6.169073   6.107545
    26  C    1.519672   2.401747   3.710187   3.802502   2.871646
    27  O    2.484069   2.831199   4.210366   4.603093   2.479461
    28  C    2.896593   2.427903   3.715809   4.360859   1.519417
    29  O    4.109162   3.663130   4.776482   5.532798   2.354818
    30  H    4.844450   4.280733   5.399371   6.175321   3.008745
    31  H    7.232990   7.698295   6.860994   5.939812   9.033428
    32  H    4.938783   4.620876   3.313277   2.757333   5.669882
    33  H    5.439764   5.305889   4.212831   3.388396   6.610474
    34  H    4.724307   5.143576   4.280929   3.596296   6.196192
    35  H    5.416152   5.955874   5.355038   4.364830   7.391489
    36  H    4.847481   5.790003   5.381116   4.630842   6.887041
    37  H    3.895132   4.923224   4.954416   4.079082   6.304797
    38  H    2.411991   3.394977   3.293875   2.794258   4.382311
    39  H    3.460320   4.490211   5.780832   5.750792   4.819742
    40  H    3.059589   4.233647   5.410939   5.470966   4.334818
    41  H    2.106031   2.596635   3.901839   3.941997   3.229645
    42  H    1.070000   2.130378   2.765001   2.807755   2.720566
    43  H    2.103294   1.070000   2.030272   2.355425   2.103683
    44  H    2.797774   2.158054   2.732213   3.536197   1.070000
    45  H    3.392721   2.750660   4.027505   4.630497   2.146646
                   21         22         23         24         25
    21  O    0.000000
    22  H    1.000110   0.000000
    23  C    5.563715   6.098130   0.000000
    24  O    6.566775   7.198229   1.435442   0.000000
    25  H    7.439772   8.019063   1.987396   1.000252   0.000000
    26  C    4.110945   4.731121   1.519831   2.561073   3.375523
    27  O    3.704389   4.047228   2.243960   3.591874   4.213952
    28  C    2.418928   2.684082   3.590481   4.859872   5.571706
    29  O    2.944870   2.687886   4.488236   5.827507   6.418951
    30  H    3.253921   2.879141   5.086974   6.476163   7.027754
    31  H    9.596332  10.469090   8.829922   7.964886   8.626540
    32  H    5.843152   6.628399   7.405653   7.248363   8.192917
    33  H    6.824592   7.719305   7.663855   7.300011   8.200913
    34  H    6.882983   7.623869   6.678322   6.167299   6.971849
    35  H    8.026063   8.953099   6.923119   6.115534   6.835204
    36  H    7.865259   8.614843   6.044315   5.165149   5.774853
    37  H    7.252727   8.147632   4.661970   3.696267   4.360982
    38  H    5.471851   6.191866   4.063999   3.699540   4.556714
    39  H    6.020568   6.520559   1.070000   2.027769   2.218887
    40  H    5.716133   6.109105   1.070000   2.027769   2.325365
    41  H    4.204950   4.900520   2.109544   3.015391   3.780188
    42  H    4.033906   4.655146   2.867830   3.235062   4.137198
    43  H    2.534976   3.475075   4.024157   4.742878   5.673852
    44  H    2.084989   2.320946   4.488658   5.414245   6.237061
    45  H    2.553258   2.888815   3.986083   5.249385   5.947497
                   26         27         28         29         30
    26  C    0.000000
    27  O    1.434984   0.000000
    28  C    2.383583   1.435255   0.000000
    29  O    3.574704   2.270076   1.434668   0.000000
    30  H    4.182329   2.894052   1.974351   0.960000   0.000000
    31  H    8.483074   9.695811   9.991193  11.163334  11.911648
    32  H    6.421845   7.233758   6.981482   7.992164   8.673893
    33  H    6.796990   7.846750   7.732582   8.919783   9.550000
    34  H    6.158897   7.084182   7.291065   8.253870   9.085912
    35  H    6.546836   7.839120   8.184251   9.447991  10.143825
    36  H    5.994390   7.061311   7.651041   8.640884   9.501215
    37  H    4.630079   6.014911   6.694312   7.964757   8.651536
    38  H    3.679961   4.614405   5.118113   6.100336   6.955969
    39  H    2.101078   2.583460   3.885497   4.729491   5.155786
    40  H    2.101078   2.229004   3.641809   4.230895   4.900861
    41  H    1.070000   2.037314   2.637842   3.956219   4.366590
    42  H    2.130104   2.735380   3.232159   4.168456   5.027542
    43  H    2.542191   3.067123   2.581310   3.942216   4.361274
    44  H    3.313857   2.821443   2.159387   2.517717   3.340282
    45  H    2.743901   2.072361   1.070000   2.070062   2.134198
                   31         32         33         34         35
    31  H    0.000000
    32  H    4.325978   0.000000
    33  H    3.302305   1.735103   0.000000
    34  H    3.444445   2.479041   3.012507   0.000000
    35  H    2.163815   3.744904   2.581382   3.042959   0.000000
    36  H    3.606230   4.346156   4.371065   2.034944   2.987133
    37  H    4.474225   4.967991   4.343421   3.894088   2.519148
    38  H    5.424686   3.940848   4.477089   2.658867   4.022553
    39  H    9.614576   8.257931   8.410307   7.646475   7.629766
    40  H    9.346646   7.804113   8.247864   6.936805   7.563104
    41  H    8.647903   6.629386   6.809358   6.626868   6.603039
    42  H    7.241347   4.960305   5.687573   4.400071   5.626008
    43  H    7.993792   5.056531   5.472597   5.799691   6.122602
    44  H    9.038741   5.661125   6.797910   5.951870   7.555239
    45  H   10.309886   7.312870   7.906303   7.842162   8.413465
                   36         37         38         39         40
    36  H    0.000000
    37  H    2.970370   0.000000
    38  H    2.547900   2.999389   0.000000
    39  H    6.978915   5.295795   5.073146   0.000000
    40  H    6.292595   5.369241   4.278639   1.726073   0.000000
    41  H    6.517727   4.718622   4.328835   2.244722   2.924661
    42  H    4.482603   4.192756   1.954953   3.856116   2.951143
    43  H    6.395542   5.055719   4.137614   4.450625   4.600518
    44  H    6.658228   6.528055   4.182780   5.193021   4.349031
    45  H    8.229903   6.940626   5.751470   4.056231   4.246167
                   41         42         43         44         45
    41  H    0.000000
    42  H    2.991946   0.000000
    43  H    2.274012   2.987854   0.000000
    44  H    3.929648   2.566743   3.009274   0.000000
    45  H    2.560439   3.977394   2.464716   3.033221   0.000000
 Stoichiometry    C12H22O11
 Framework group  C1[X(C12H22O11)]
 Deg. of freedom   129
 Full point group                 C1      NOp   1
 Largest Abelian subgroup         C1      NOp   1
 Largest concise Abelian subgroup C1      NOp   1
                         Standard orientation:                         
 ---------------------------------------------------------------------
 Center     Atomic      Atomic             Coordinates (Angstroms)
 Number     Number       Type             X           Y           Z
 ---------------------------------------------------------------------
      1          8           0        5.094513   -0.358036   -0.181571
      2          6           0        3.785329   -0.013649    0.295653
      3          6           0        3.192841    1.231743   -0.343925
      4          8           0        4.058903    2.375634   -0.320011
      5          1           0        4.869095    1.928082   -0.698551
      6          6           0        1.811533    1.564890    0.195119
      7          8           0        1.275938    2.749326   -0.411894
      8          1           0        0.356823    2.833737   -0.027907
      9          6           0        3.028551   -2.486246    0.229856
     10          8           0        4.212078   -3.151687   -0.235026
     11          1           0        4.175693   -4.150686   -0.246659
     12          6           0        2.843086   -1.062644   -0.270772
     13          8           0        1.535892   -0.816973    0.267819
     14          6           0        0.867627    0.405582   -0.078196
     15          8           0       -0.300412    0.566908    0.740219
     16          6           0       -1.511347    0.217637    0.055083
     17          6           0       -2.012677   -1.175787    0.397739
     18          8           0       -1.001325   -2.174684    0.198365
     19          1           0       -0.163970   -1.739225    0.527941
     20          6           0       -3.273036   -1.534978   -0.372018
     21          8           0       -3.656173   -2.830183    0.114183
     22          1           0       -4.439483   -3.148536   -0.419949
     23          6           0       -2.560014    2.624341    0.153343
     24          8           0       -1.291963    3.295692    0.196124
     25          1           0       -1.458096    4.277453    0.100992
     26          6           0       -2.647478    1.139549    0.465797
     27          8           0       -3.901577    0.855053   -0.170973
     28          6           0       -4.316278   -0.504717    0.026526
     29          8           0       -5.407936   -0.685014   -0.886737
     30          1           0       -6.208983   -0.877492   -0.393912
     31          1           0        5.660239   -0.573590    0.563473
     32          1           0        2.179342   -3.061629   -0.074575
     33          1           0        3.054770   -2.464434    1.299312
     34          1           0        2.826226   -1.030500   -1.340156
     35          1           0        3.740650    0.023318    1.364081
     36          1           0        3.054589    0.991248   -1.377341
     37          1           0        1.878709    1.716471    1.252195
     38          1           0        0.592157    0.393045   -1.112052
     39          1           0       -3.208185    3.129863    0.838341
     40          1           0       -2.958243    2.764079   -0.829910
     41          1           0       -2.782579    1.034582    1.522031
     42          1           0       -1.356982    0.291050   -1.001176
     43          1           0       -2.262566   -1.177584    1.438149
     44          1           0       -3.103042   -1.541139   -1.428410
     45          1           0       -4.638496   -0.660731    1.034859
 ---------------------------------------------------------------------
 Rotational constants (GHZ):      0.4086339      0.1465363      0.1108275
 Standard basis: 6-31+G(2df,p) (6D, 7F)
 There are   846 symmetry adapted basis functions of A   symmetry.
 Integral buffers will be    131072 words long.
 Raffenetti 2 integral format.
 Two-electron integral symmetry is turned on.
   846 basis functions,  1258 primitive gaussians,   915 cartesian basis functions
    91 alpha electrons       91 beta electrons
       nuclear repulsion energy      2290.9168901503 Hartrees.
 NAtoms=   45 NActive=   45 NUniq=   45 SFac= 1.00D+00 NAtFMM=   50 NAOKFM=F Big=F
 One-electron integrals computed using PRISM.
 NBasis=   846 RedAO= T  NBF=   846
 NBsUse=   846 1.00D-06 NBFU=   846
 Harris functional with IExCor=  402 diagonalized for initial guess.
 ExpMin= 4.38D-02 ExpMax= 5.48D+03 ExpMxC= 8.25D+02 IAcc=2 IRadAn=         0 AccDes= 0.00D+00
 HarFok:  IExCor=  402 AccDes= 0.00D+00 IRadAn=         0 IDoV= 1
 ScaDFX=  1.000000  1.000000  1.000000  1.000000
 FoFCou: FMM=F IPFlag=           0 FMFlag=      100000 FMFlg1=           0
         NFxFlg=           0 DoJE=T BraDBF=F KetDBF=T FulRan=T
         Omega=  0.000000  0.000000  1.000000  0.000000  0.000000 ICntrl=     500 IOpCl=  0
         NMat0=    1 NMatS0=    1 NMatT0=    0 NMatD0=    1 NMtDS0=    0 NMtDT0=    0
         I1Cent=           4 NGrid=           0.
 Petite list used in FoFCou.
 Initial guess orbital symmetries:
       Occupied  (A) (A) (A) (A) (A) (A) (A) (A) (A) (A) (A) (A)
                 (A) (A) (A) (A) (A) (A) (A) (A) (A) (A) (A) (A)
                 (A) (A) (A) (A) (A) (A) (A) (A) (A) (A) (A) (A)
                 (A) (A) (A) (A) (A) (A) (A) (A) (A) (A) (A) (A)
                 (A) (A) (A) (A) (A) (A) (A) (A) (A) (A) (A) (A)
                 (A) (A) (A) (A) (A) (A) (A) (A) (A) (A) (A) (A)
                 (A) (A) (A) (A) (A) (A) (A) (A) (A) (A) (A) (A)
                 (A) (A) (A) (A) (A) (A) (A)
       Virtual   (A) (A) (A) (A) (A) (A) (A) (A) (A) (A) (A) (A)
                 (A) (A) (A) (A) (A) (A) (A) (A) (A) (A) (A) (A)
                 (A) (A) (A) (A) (A) (A) (A) (A) (A) (A) (A) (A)
                 (A) (A) (A) (A) (A) (A) (A) (A) (A) (A) (A) (A)
                 (A) (A) (A) (A) (A) (A) (A) (A) (A) (A) (A) (A)
                 (A) (A) (A) (A) (A) (A) (A) (A) (A) (A) (A) (A)
                 (A) (A) (A) (A) (A) (A) (A) (A) (A) (A) (A) (A)
                 (A) (A) (A) (A) (A) (A) (A) (A) (A) (A) (A) (A)
                 (A) (A) (A) (A) (A) (A) (A) (A) (A) (A) (A) (A)
                 (A) (A) (A) (A) (A) (A) (A) (A) (A) (A) (A) (A)
                 (A) (A) (A) (A) (A) (A) (A) (A) (A) (A) (A) (A)
                 (A) (A) (A) (A) (A) (A) (A) (A) (A) (A) (A) (A)
                 (A) (A) (A) (A) (A) (A) (A) (A) (A) (A) (A) (A)
                 (A) (A) (A) (A) (A) (A) (A) (A) (A) (A) (A) (A)
                 (A) (A) (A) (A) (A) (A) (A) (A) (A) (A) (A) (A)
                 (A) (A) (A) (A) (A) (A) (A) (A) (A) (A) (A) (A)
                 (A) (A) (A) (A) (A) (A) (A) (A) (A) (A) (A) (A)
                 (A) (A) (A) (A) (A) (A) (A) (A) (A) (A) (A) (A)
                 (A) (A) (A) (A) (A) (A) (A) (A) (A) (A) (A) (A)
                 (A) (A) (A) (A) (A) (A) (A) (A) (A) (A) (A) (A)
                 (A) (A) (A) (A) (A) (A) (A) (A) (A) (A) (A) (A)
                 (A) (A) (A) (A) (A) (A) (A) (A) (A) (A) (A) (A)
                 (A) (A) (A) (A) (A) (A) (A) (A) (A) (A) (A) (A)
                 (A) (A) (A) (A) (A) (A) (A) (A) (A) (A) (A) (A)
                 (A) (A) (A) (A) (A) (A) (A) (A) (A) (A) (A) (A)
                 (A) (A) (A) (A) (A) (A) (A) (A) (A) (A) (A) (A)
                 (A) (A) (A) (A) (A) (A) (A) (A) (A) (A) (A) (A)
                 (A) (A) (A) (A) (A) (A) (A) (A) (A) (A) (A) (A)
                 (A) (A) (A) (A) (A) (A) (A) (A) (A) (A) (A) (A)
                 (A) (A) (A) (A) (A) (A) (A) (A) (A) (A) (A) (A)
                 (A) (A) (A) (A) (A) (A) (A) (A) (A) (A) (A) (A)
                 (A) (A) (A) (A) (A) (A) (A) (A) (A) (A) (A) (A)
                 (A) (A) (A) (A) (A) (A) (A) (A) (A) (A) (A) (A)
                 (A) (A) (A) (A) (A) (A) (A) (A) (A) (A) (A) (A)
                 (A) (A) (A) (A) (A) (A) (A) (A) (A) (A) (A) (A)
                 (A) (A) (A) (A) (A) (A) (A) (A) (A) (A) (A) (A)
                 (A) (A) (A) (A) (A) (A) (A) (A) (A) (A) (A) (A)
                 (A) (A) (A) (A) (A) (A) (A) (A) (A) (A) (A) (A)
                 (A) (A) (A) (A) (A) (A) (A) (A) (A) (A) (A) (A)
                 (A) (A) (A) (A) (A) (A) (A) (A) (A) (A) (A) (A)
                 (A) (A) (A) (A) (A) (A) (A) (A) (A) (A) (A) (A)
                 (A) (A) (A) (A) (A) (A) (A) (A) (A) (A) (A) (A)
                 (A) (A) (A) (A) (A) (A) (A) (A) (A) (A) (A) (A)
                 (A) (A) (A) (A) (A) (A) (A) (A) (A) (A) (A) (A)
                 (A) (A) (A) (A) (A) (A) (A) (A) (A) (A) (A) (A)
                 (A) (A) (A) (A) (A) (A) (A) (A) (A) (A) (A) (A)
                 (A) (A) (A) (A) (A) (A) (A) (A) (A) (A) (A) (A)
                 (A) (A) (A) (A) (A) (A) (A) (A) (A) (A) (A) (A)
                 (A) (A) (A) (A) (A) (A) (A) (A) (A) (A) (A) (A)
                 (A) (A) (A) (A) (A) (A) (A) (A) (A) (A) (A) (A)
                 (A) (A) (A) (A) (A) (A) (A) (A) (A) (A) (A) (A)
                 (A) (A) (A) (A) (A) (A) (A) (A) (A) (A) (A) (A)
                 (A) (A) (A) (A) (A) (A) (A) (A) (A) (A) (A) (A)
                 (A) (A) (A) (A) (A) (A) (A) (A) (A) (A) (A) (A)
                 (A) (A) (A) (A) (A) (A) (A) (A) (A) (A) (A) (A)
                 (A) (A) (A) (A) (A) (A) (A) (A) (A) (A) (A) (A)
                 (A) (A) (A) (A) (A) (A) (A) (A) (A) (A) (A) (A)
                 (A) (A) (A) (A) (A) (A) (A) (A) (A) (A) (A) (A)
                 (A) (A) (A) (A) (A) (A) (A) (A) (A) (A) (A) (A)
                 (A) (A) (A) (A) (A) (A) (A) (A) (A) (A) (A) (A)
                 (A) (A) (A) (A) (A) (A) (A) (A) (A) (A) (A) (A)
                 (A) (A) (A) (A) (A) (A) (A) (A) (A) (A) (A) (A)
                 (A) (A) (A) (A) (A) (A) (A) (A) (A) (A) (A)
 The electronic state of the initial guess is 1-A.
 Requested convergence on RMS density matrix=1.00D-08 within 128 cycles.
 Requested convergence on MAX density matrix=1.00D-06.
 Requested convergence on             energy=1.00D-06.
 No special actions if energy rises.
 SCF Done:  E(RB3LYP) =  -1298.01834174     A.U. after   14 cycles
             Convg  =    0.1553D-08             -V/T =  2.0065
 Range of M.O.s used for correlation:     1   846
 NBasis=   846 NAE=    91 NBE=    91 NFC=     0 NFV=     0
 NROrb=    846 NOA=    91 NOB=    91 NVA=   755 NVB=   755

 **** Warning!!: The largest alpha MO coefficient is  0.71778917D+02

          Differentiating once with respect to electric field.
                with respect to dipole field.
          Electric field/nuclear overlap derivatives assumed to be zero.
          There are     3 degrees of freedom in the 1st order CPHF.  IDoFFX=0.
      3 vectors produced by pass  0 Test12= 2.29D-12 3.33D-08 XBig12= 1.21D+02 1.17D+00.
 AX will form     3 AO Fock derivatives at one time.
      3 vectors produced by pass  1 Test12= 2.29D-12 3.33D-08 XBig12= 2.30D+01 3.92D-01.
      3 vectors produced by pass  2 Test12= 2.29D-12 3.33D-08 XBig12= 9.51D+00 1.84D-01.
      3 vectors produced by pass  3 Test12= 2.29D-12 3.33D-08 XBig12= 1.08D+00 8.91D-02.
      3 vectors produced by pass  4 Test12= 2.29D-12 3.33D-08 XBig12= 2.93D-01 3.74D-02.
      3 vectors produced by pass  5 Test12= 2.29D-12 3.33D-08 XBig12= 6.13D-02 2.38D-02.
      3 vectors produced by pass  6 Test12= 2.29D-12 3.33D-08 XBig12= 2.17D-02 1.84D-02.
      3 vectors produced by pass  7 Test12= 2.29D-12 3.33D-08 XBig12= 2.95D-03 8.79D-03.
      3 vectors produced by pass  8 Test12= 2.29D-12 3.33D-08 XBig12= 6.34D-04 2.47D-03.
      3 vectors produced by pass  9 Test12= 2.29D-12 3.33D-08 XBig12= 1.73D-04 1.36D-03.
      3 vectors produced by pass 10 Test12= 2.29D-12 3.33D-08 XBig12= 4.28D-05 5.54D-04.
      3 vectors produced by pass 11 Test12= 2.29D-12 3.33D-08 XBig12= 1.17D-05 3.16D-04.
      3 vectors produced by pass 12 Test12= 2.29D-12 3.33D-08 XBig12= 1.51D-06 9.32D-05.
      3 vectors produced by pass 13 Test12= 2.29D-12 3.33D-08 XBig12= 5.29D-07 5.50D-05.
      3 vectors produced by pass 14 Test12= 2.29D-12 3.33D-08 XBig12= 5.55D-08 1.84D-05.
      3 vectors produced by pass 15 Test12= 2.29D-12 3.33D-08 XBig12= 1.06D-08 6.63D-06.
      3 vectors produced by pass 16 Test12= 2.29D-12 3.33D-08 XBig12= 1.33D-09 2.14D-06.
      3 vectors produced by pass 17 Test12= 2.29D-12 3.33D-08 XBig12= 1.17D-10 7.33D-07.
      3 vectors produced by pass 18 Test12= 2.29D-12 3.33D-08 XBig12= 4.79D-11 4.27D-07.
      3 vectors produced by pass 19 Test12= 2.29D-12 3.33D-08 XBig12= 8.70D-12 2.06D-07.
      3 vectors produced by pass 20 Test12= 2.29D-12 3.33D-08 XBig12= 3.72D-12 1.22D-07.
      2 vectors produced by pass 21 Test12= 2.29D-12 3.33D-08 XBig12= 1.03D-12 7.54D-08.
 Inverted reduced A of dimension    65 with in-core refinement.
 End of Minotr Frequency-dependent properties file   721 does not exist.
 End of Minotr Frequency-dependent properties file   722 does not exist.
 Symmetrizing basis deriv contribution to polar:
 IMax=3 JMax=2 DiffMx= 0.00D+00
 G2DrvN: will do     8 centers at a time, making    6 passes doing MaxLOS=3.
 Calling FoFCou, ICntrl=  3107 FMM=F I1Cent=   0 AccDes= 0.00D+00.
 Calling FoFCou, ICntrl=  3107 FMM=F I1Cent=   0 AccDes= 0.00D+00.
 Calling FoFCou, ICntrl=  3107 FMM=F I1Cent=   0 AccDes= 0.00D+00.
 Calling FoFCou, ICntrl=  3107 FMM=F I1Cent=   0 AccDes= 0.00D+00.
 Calling FoFCou, ICntrl=  3107 FMM=F I1Cent=   0 AccDes= 0.00D+00.
 Calling FoFCou, ICntrl=  3107 FMM=F I1Cent=   0 AccDes= 0.00D+00.
 FoFDir/FoFCou used for L=0 through L=3.
 End of G2Drv Frequency-dependent properties file   721 does not exist.
 End of G2Drv Frequency-dependent properties file   722 does not exist.
          IDoAtm=111111111111111111111111111111111111111111111
          Differentiating once with respect to electric field.
                with respect to dipole field.
          Differentiating once with respect to nuclear coordinates.
          There are   138 degrees of freedom in the 1st order CPHF.  IDoFFX=5.
 Will reuse    3 saved solutions.
    135 vectors produced by pass  0 Test12= 6.87D-14 1.00D-09 XBig12= 1.70D-01 8.67D-02.
 AX will form    27 AO Fock derivatives at one time.
    135 vectors produced by pass  1 Test12= 6.87D-14 1.00D-09 XBig12= 2.26D-02 1.22D-02.
    132 vectors produced by pass  2 Test12= 6.87D-14 1.00D-09 XBig12= 1.71D-04 1.76D-03.
    132 vectors produced by pass  3 Test12= 6.87D-14 1.00D-09 XBig12= 1.01D-06 9.12D-05.
    132 vectors produced by pass  4 Test12= 6.87D-14 1.00D-09 XBig12= 2.62D-09 3.06D-06.
    132 vectors produced by pass  5 Test12= 6.87D-14 1.00D-09 XBig12= 6.87D-12 1.19D-07.
     89 vectors produced by pass  6 Test12= 6.87D-14 1.00D-09 XBig12= 1.89D-13 2.38D-08.
      1 vectors produced by pass  7 Test12= 6.87D-14 1.00D-09 XBig12= 4.75D-16 1.14D-09.
 Inverted reduced A of dimension   888 with in-core refinement.
 Isotropic polarizability for W=    0.000000      190.80 Bohr**3.
 End of Minotr Frequency-dependent properties file   721 does not exist.
 End of Minotr Frequency-dependent properties file   722 does not exist.

 **********************************************************************

            Population analysis using the SCF density.

 **********************************************************************

 Orbital symmetries:
       Occupied  (A) (A) (A) (A) (A) (A) (A) (A) (A) (A) (A) (A)
                 (A) (A) (A) (A) (A) (A) (A) (A) (A) (A) (A) (A)
                 (A) (A) (A) (A) (A) (A) (A) (A) (A) (A) (A) (A)
                 (A) (A) (A) (A) (A) (A) (A) (A) (A) (A) (A) (A)
                 (A) (A) (A) (A) (A) (A) (A) (A) (A) (A) (A) (A)
                 (A) (A) (A) (A) (A) (A) (A) (A) (A) (A) (A) (A)
                 (A) (A) (A) (A) (A) (A) (A) (A) (A) (A) (A) (A)
                 (A) (A) (A) (A) (A) (A) (A)
       Virtual   (A) (A) (A) (A) (A) (A) (A) (A) (A) (A) (A) (A)
                 (A) (A) (A) (A) (A) (A) (A) (A) (A) (A) (A) (A)
                 (A) (A) (A) (A) (A) (A) (A) (A) (A) (A) (A) (A)
                 (A) (A) (A) (A) (A) (A) (A) (A) (A) (A) (A) (A)
                 (A) (A) (A) (A) (A) (A) (A) (A) (A) (A) (A) (A)
                 (A) (A) (A) (A) (A) (A) (A) (A) (A) (A) (A) (A)
                 (A) (A) (A) (A) (A) (A) (A) (A) (A) (A) (A) (A)
                 (A) (A) (A) (A) (A) (A) (A) (A) (A) (A) (A) (A)
                 (A) (A) (A) (A) (A) (A) (A) (A) (A) (A) (A) (A)
                 (A) (A) (A) (A) (A) (A) (A) (A) (A) (A) (A) (A)
                 (A) (A) (A) (A) (A) (A) (A) (A) (A) (A) (A) (A)
                 (A) (A) (A) (A) (A) (A) (A) (A) (A) (A) (A) (A)
                 (A) (A) (A) (A) (A) (A) (A) (A) (A) (A) (A) (A)
                 (A) (A) (A) (A) (A) (A) (A) (A) (A) (A) (A) (A)
                 (A) (A) (A) (A) (A) (A) (A) (A) (A) (A) (A) (A)
                 (A) (A) (A) (A) (A) (A) (A) (A) (A) (A) (A) (A)
                 (A) (A) (A) (A) (A) (A) (A) (A) (A) (A) (A) (A)
                 (A) (A) (A) (A) (A) (A) (A) (A) (A) (A) (A) (A)
                 (A) (A) (A) (A) (A) (A) (A) (A) (A) (A) (A) (A)
                 (A) (A) (A) (A) (A) (A) (A) (A) (A) (A) (A) (A)
                 (A) (A) (A) (A) (A) (A) (A) (A) (A) (A) (A) (A)
                 (A) (A) (A) (A) (A) (A) (A) (A) (A) (A) (A) (A)
                 (A) (A) (A) (A) (A) (A) (A) (A) (A) (A) (A) (A)
                 (A) (A) (A) (A) (A) (A) (A) (A) (A) (A) (A) (A)
                 (A) (A) (A) (A) (A) (A) (A) (A) (A) (A) (A) (A)
                 (A) (A) (A) (A) (A) (A) (A) (A) (A) (A) (A) (A)
                 (A) (A) (A) (A) (A) (A) (A) (A) (A) (A) (A) (A)
                 (A) (A) (A) (A) (A) (A) (A) (A) (A) (A) (A) (A)
                 (A) (A) (A) (A) (A) (A) (A) (A) (A) (A) (A) (A)
                 (A) (A) (A) (A) (A) (A) (A) (A) (A) (A) (A) (A)
                 (A) (A) (A) (A) (A) (A) (A) (A) (A) (A) (A) (A)
                 (A) (A) (A) (A) (A) (A) (A) (A) (A) (A) (A) (A)
                 (A) (A) (A) (A) (A) (A) (A) (A) (A) (A) (A) (A)
                 (A) (A) (A) (A) (A) (A) (A) (A) (A) (A) (A) (A)
                 (A) (A) (A) (A) (A) (A) (A) (A) (A) (A) (A) (A)
                 (A) (A) (A) (A) (A) (A) (A) (A) (A) (A) (A) (A)
                 (A) (A) (A) (A) (A) (A) (A) (A) (A) (A) (A) (A)
                 (A) (A) (A) (A) (A) (A) (A) (A) (A) (A) (A) (A)
                 (A) (A) (A) (A) (A) (A) (A) (A) (A) (A) (A) (A)
                 (A) (A) (A) (A) (A) (A) (A) (A) (A) (A) (A) (A)
                 (A) (A) (A) (A) (A) (A) (A) (A) (A) (A) (A) (A)
                 (A) (A) (A) (A) (A) (A) (A) (A) (A) (A) (A) (A)
                 (A) (A) (A) (A) (A) (A) (A) (A) (A) (A) (A) (A)
                 (A) (A) (A) (A) (A) (A) (A) (A) (A) (A) (A) (A)
                 (A) (A) (A) (A) (A) (A) (A) (A) (A) (A) (A) (A)
                 (A) (A) (A) (A) (A) (A) (A) (A) (A) (A) (A) (A)
                 (A) (A) (A) (A) (A) (A) (A) (A) (A) (A) (A) (A)
                 (A) (A) (A) (A) (A) (A) (A) (A) (A) (A) (A) (A)
                 (A) (A) (A) (A) (A) (A) (A) (A) (A) (A) (A) (A)
                 (A) (A) (A) (A) (A) (A) (A) (A) (A) (A) (A) (A)
                 (A) (A) (A) (A) (A) (A) (A) (A) (A) (A) (A) (A)
                 (A) (A) (A) (A) (A) (A) (A) (A) (A) (A) (A) (A)
                 (A) (A) (A) (A) (A) (A) (A) (A) (A) (A) (A) (A)
                 (A) (A) (A) (A) (A) (A) (A) (A) (A) (A) (A) (A)
                 (A) (A) (A) (A) (A) (A) (A) (A) (A) (A) (A) (A)
                 (A) (A) (A) (A) (A) (A) (A) (A) (A) (A) (A) (A)
                 (A) (A) (A) (A) (A) (A) (A) (A) (A) (A) (A) (A)
                 (A) (A) (A) (A) (A) (A) (A) (A) (A) (A) (A) (A)
                 (A) (A) (A) (A) (A) (A) (A) (A) (A) (A) (A) (A)
                 (A) (A) (A) (A) (A) (A) (A) (A) (A) (A) (A) (A)
                 (A) (A) (A) (A) (A) (A) (A) (A) (A) (A) (A) (A)
                 (A) (A) (A) (A) (A) (A) (A) (A) (A) (A) (A) (A)
                 (A) (A) (A) (A) (A) (A) (A) (A) (A) (A) (A)
 The electronic state is 1-A.
 Alpha  occ. eigenvalues --  -19.19085 -19.18352 -19.18289 -19.17796 -19.17556
 Alpha  occ. eigenvalues --  -19.16887 -19.16591 -19.15262 -19.14736 -19.14168
 Alpha  occ. eigenvalues --  -19.13052 -10.30390 -10.30088 -10.26207 -10.25808
 Alpha  occ. eigenvalues --  -10.25125 -10.24993 -10.24961 -10.24876 -10.24093
 Alpha  occ. eigenvalues --  -10.23723 -10.23653 -10.23524  -1.09782  -1.09113
 Alpha  occ. eigenvalues --   -1.05404  -1.04903  -1.04028  -1.03747  -1.02902
 Alpha  occ. eigenvalues --   -1.01968  -1.01396  -1.00696  -0.99789  -0.82262
 Alpha  occ. eigenvalues --   -0.80321  -0.79607  -0.78244  -0.71730  -0.69612
 Alpha  occ. eigenvalues --   -0.66903  -0.64621  -0.62926  -0.61894  -0.61644
 Alpha  occ. eigenvalues --   -0.60339  -0.56495  -0.55577  -0.54932  -0.54598
 Alpha  occ. eigenvalues --   -0.53538  -0.53235  -0.52398  -0.51997  -0.50757
 Alpha  occ. eigenvalues --   -0.50585  -0.49273  -0.48742  -0.48173  -0.46660
 Alpha  occ. eigenvalues --   -0.45318  -0.45204  -0.43914  -0.43457  -0.43098
 Alpha  occ. eigenvalues --   -0.42231  -0.41638  -0.40838  -0.40232  -0.39321
 Alpha  occ. eigenvalues --   -0.38632  -0.38211  -0.37624  -0.36768  -0.36246
 Alpha  occ. eigenvalues --   -0.35711  -0.35229  -0.34349  -0.34202  -0.33384
 Alpha  occ. eigenvalues --   -0.32827  -0.31336  -0.30751  -0.30509  -0.30102
 Alpha  occ. eigenvalues --   -0.29054  -0.28767  -0.28241  -0.27025  -0.26691
 Alpha  occ. eigenvalues --   -0.26174
 Alpha virt. eigenvalues --   -0.01848  -0.01787  -0.01413  -0.00086   0.00452
 Alpha virt. eigenvalues --    0.00928   0.01861   0.02161   0.02853   0.03677
 Alpha virt. eigenvalues --    0.04062   0.04225   0.04866   0.05604   0.05647
 Alpha virt. eigenvalues --    0.06081   0.06728   0.07441   0.07806   0.08119
 Alpha virt. eigenvalues --    0.08552   0.08652   0.09316   0.09689   0.10080
 Alpha virt. eigenvalues --    0.10741   0.10962   0.11329   0.12000   0.12105
 Alpha virt. eigenvalues --    0.12398   0.12661   0.13409   0.13496   0.13709
 Alpha virt. eigenvalues --    0.14047   0.14228   0.14486   0.14950   0.15171
 Alpha virt. eigenvalues --    0.15720   0.16257   0.16688   0.16798   0.17063
 Alpha virt. eigenvalues --    0.17600   0.17642   0.18149   0.18406   0.18461
 Alpha virt. eigenvalues --    0.18940   0.19105   0.19428   0.19828   0.20475
 Alpha virt. eigenvalues --    0.20784   0.20909   0.21182   0.21376   0.21570
 Alpha virt. eigenvalues --    0.22057   0.22303   0.22710   0.23145   0.23295
 Alpha virt. eigenvalues --    0.23775   0.23858   0.24061   0.24372   0.24579
 Alpha virt. eigenvalues --    0.25017   0.25319   0.25504   0.25662   0.26069
 Alpha virt. eigenvalues --    0.26412   0.26638   0.26957   0.27028   0.27392
 Alpha virt. eigenvalues --    0.27544   0.27688   0.28191   0.28769   0.28957
 Alpha virt. eigenvalues --    0.29038   0.29485   0.29880   0.30315   0.30810
 Alpha virt. eigenvalues --    0.31135   0.31309   0.31571   0.32106   0.32205
 Alpha virt. eigenvalues --    0.32679   0.32987   0.33239   0.33623   0.33931
 Alpha virt. eigenvalues --    0.34197   0.34444   0.35195   0.35473   0.35824
 Alpha virt. eigenvalues --    0.35955   0.36369   0.36624   0.36800   0.37518
 Alpha virt. eigenvalues --    0.37841   0.38165   0.38574   0.38901   0.39351
 Alpha virt. eigenvalues --    0.39853   0.40270   0.40716   0.41294   0.41920
 Alpha virt. eigenvalues --    0.42341   0.42924   0.43381   0.43596   0.43943
 Alpha virt. eigenvalues --    0.44252   0.45629   0.46029   0.46090   0.47004
 Alpha virt. eigenvalues --    0.47497   0.48253   0.48905   0.49488   0.50476
 Alpha virt. eigenvalues --    0.51163   0.51344   0.52661   0.57154   0.58126
 Alpha virt. eigenvalues --    0.59081   0.59741   0.60356   0.61103   0.61721
 Alpha virt. eigenvalues --    0.62176   0.63258   0.64431   0.65247   0.66345
 Alpha virt. eigenvalues --    0.66925   0.67161   0.68464   0.68608   0.69390
 Alpha virt. eigenvalues --    0.69896   0.71410   0.72414   0.72773   0.73634
 Alpha virt. eigenvalues --    0.73882   0.74646   0.75342   0.75699   0.76579
 Alpha virt. eigenvalues --    0.77327   0.78341   0.78633   0.78835   0.80660
 Alpha virt. eigenvalues --    0.81053   0.81934   0.82257   0.83308   0.84430
 Alpha virt. eigenvalues --    0.86344   0.87109   0.87980   0.88409   0.88949
 Alpha virt. eigenvalues --    0.89397   0.90338   0.90395   0.90905   0.91134
 Alpha virt. eigenvalues --    0.91549   0.91828   0.92685   0.93370   0.93919
 Alpha virt. eigenvalues --    0.94157   0.94567   0.95176   0.95607   0.95988
 Alpha virt. eigenvalues --    0.96747   0.97307   0.97995   0.98627   0.98872
 Alpha virt. eigenvalues --    0.99397   0.99801   1.00433   1.00883   1.02392
 Alpha virt. eigenvalues --    1.03092   1.03284   1.04004   1.04838   1.05002
 Alpha virt. eigenvalues --    1.06005   1.06129   1.07202   1.07583   1.08043
 Alpha virt. eigenvalues --    1.08349   1.09120   1.10539   1.11021   1.11954
 Alpha virt. eigenvalues --    1.12121   1.12378   1.12680   1.13193   1.13978
 Alpha virt. eigenvalues --    1.14264   1.15198   1.15973   1.16119   1.17336
 Alpha virt. eigenvalues --    1.17810   1.18087   1.18663   1.18952   1.19502
 Alpha virt. eigenvalues --    1.19921   1.20505   1.21347   1.21520   1.22266
 Alpha virt. eigenvalues --    1.22599   1.22687   1.24122   1.24294   1.24547
 Alpha virt. eigenvalues --    1.25369   1.25835   1.26112   1.26979   1.27492
 Alpha virt. eigenvalues --    1.27787   1.28573   1.28818   1.29783   1.30170
 Alpha virt. eigenvalues --    1.30690   1.31901   1.32271   1.32611   1.33689
 Alpha virt. eigenvalues --    1.34356   1.34835   1.35659   1.36581   1.37604
 Alpha virt. eigenvalues --    1.38175   1.38584   1.39887   1.40071   1.40653
 Alpha virt. eigenvalues --    1.41989   1.42454   1.42893   1.43327   1.43908
 Alpha virt. eigenvalues --    1.45105   1.45372   1.46174   1.46888   1.46933
 Alpha virt. eigenvalues --    1.47827   1.49298   1.49665   1.50145   1.50965
 Alpha virt. eigenvalues --    1.51432   1.53363   1.54076   1.54491   1.55205
 Alpha virt. eigenvalues --    1.55860   1.56978   1.58306   1.58931   1.59504
 Alpha virt. eigenvalues --    1.60946   1.62104   1.62787   1.63347   1.63708
 Alpha virt. eigenvalues --    1.64543   1.65363   1.65944   1.66208   1.67938
 Alpha virt. eigenvalues --    1.68131   1.68367   1.68847   1.70234   1.70740
 Alpha virt. eigenvalues --    1.71480   1.72518   1.73132   1.75226   1.76106
 Alpha virt. eigenvalues --    1.77302   1.77823   1.79284   1.80009   1.81294
 Alpha virt. eigenvalues --    1.81779   1.83053   1.84249   1.84571   1.85474
 Alpha virt. eigenvalues --    1.86819   1.88366   1.89419   1.90015   1.90644
 Alpha virt. eigenvalues --    1.91319   1.92377   1.93814   1.94999   1.95693
 Alpha virt. eigenvalues --    1.96175   1.97378   1.97908   1.98669   2.00589
 Alpha virt. eigenvalues --    2.02145   2.02450   2.03768   2.04847   2.05578
 Alpha virt. eigenvalues --    2.06829   2.08691   2.10029   2.11174   2.14128
 Alpha virt. eigenvalues --    2.14615   2.14943   2.17848   2.18202   2.19915
 Alpha virt. eigenvalues --    2.20991   2.21916   2.22825   2.23588   2.24611
 Alpha virt. eigenvalues --    2.26839   2.27843   2.29432   2.30349   2.31289
 Alpha virt. eigenvalues --    2.33716   2.35676   2.36640   2.38447   2.41173
 Alpha virt. eigenvalues --    2.42945   2.44686   2.48545   2.49469   2.50319
 Alpha virt. eigenvalues --    2.51633   2.52212   2.53751   2.53885   2.55933
 Alpha virt. eigenvalues --    2.56291   2.57473   2.57632   2.59684   2.60484
 Alpha virt. eigenvalues --    2.60864   2.61295   2.62789   2.63793   2.65146
 Alpha virt. eigenvalues --    2.66705   2.67531   2.69566   2.71341   2.72143
 Alpha virt. eigenvalues --    2.72359   2.74048   2.75974   2.76736   2.78101
 Alpha virt. eigenvalues --    2.78399   2.79407   2.80676   2.81109   2.82597
 Alpha virt. eigenvalues --    2.84600   2.85364   2.85834   2.87550   2.88305
 Alpha virt. eigenvalues --    2.89678   2.90403   2.91038   2.92144   2.93130
 Alpha virt. eigenvalues --    2.94711   2.95183   2.96396   2.97501   2.99096
 Alpha virt. eigenvalues --    2.99889   3.00233   3.00998   3.01844   3.03154
 Alpha virt. eigenvalues --    3.04113   3.04500   3.06084   3.07060   3.07375
 Alpha virt. eigenvalues --    3.07510   3.08679   3.09400   3.10919   3.12507
 Alpha virt. eigenvalues --    3.12663   3.12955   3.13565   3.15667   3.17550
 Alpha virt. eigenvalues --    3.19948   3.20395   3.21676   3.22092   3.24080
 Alpha virt. eigenvalues --    3.24516   3.25435   3.25687   3.26641   3.27322
 Alpha virt. eigenvalues --    3.28670   3.30003   3.31211   3.31960   3.33228
 Alpha virt. eigenvalues --    3.35110   3.35650   3.36305   3.37805   3.39554
 Alpha virt. eigenvalues --    3.39582   3.41599   3.42015   3.44231   3.45093
 Alpha virt. eigenvalues --    3.45888   3.48216   3.48667   3.50398   3.50931
 Alpha virt. eigenvalues --    3.54696   3.55377   3.58043   3.59514   3.59998
 Alpha virt. eigenvalues --    3.63075   3.63567   3.64540   3.66330   3.67833
 Alpha virt. eigenvalues --    3.69255   3.70522   3.71106   3.72772   3.74067
 Alpha virt. eigenvalues --    3.74714   3.75505   3.76577   3.77730   3.79673
 Alpha virt. eigenvalues --    3.81848   3.83183   3.83921   3.85229   3.86782
 Alpha virt. eigenvalues --    3.87899   3.89366   3.89960   3.92247   3.93619
 Alpha virt. eigenvalues --    3.95232   3.97593   4.00413   4.02836   4.04776
 Alpha virt. eigenvalues --    4.06879   4.07988   4.10596   4.12612   4.13645
 Alpha virt. eigenvalues --    4.15087   4.15412   4.16746   4.17735   4.19380
 Alpha virt. eigenvalues --    4.20189   4.21365   4.23631   4.24180   4.25927
 Alpha virt. eigenvalues --    4.27287   4.27635   4.28981   4.30358   4.31055
 Alpha virt. eigenvalues --    4.32612   4.32938   4.33627   4.34285   4.35279
 Alpha virt. eigenvalues --    4.35813   4.37637   4.37825   4.38547   4.39883
 Alpha virt. eigenvalues --    4.40698   4.41767   4.42699   4.42709   4.43464
 Alpha virt. eigenvalues --    4.44067   4.46170   4.46375   4.46813   4.48126
 Alpha virt. eigenvalues --    4.48812   4.49129   4.49675   4.50712   4.51525
 Alpha virt. eigenvalues --    4.52237   4.53154   4.53666   4.54249   4.55049
 Alpha virt. eigenvalues --    4.55794   4.56156   4.57225   4.58147   4.58429
 Alpha virt. eigenvalues --    4.58964   4.60035   4.60145   4.60766   4.61331
 Alpha virt. eigenvalues --    4.62846   4.63373   4.63614   4.64097   4.64913
 Alpha virt. eigenvalues --    4.65400   4.65739   4.66759   4.67649   4.67788
 Alpha virt. eigenvalues --    4.68509   4.68599   4.70317   4.70816   4.71347
 Alpha virt. eigenvalues --    4.72304   4.73843   4.74295   4.74915   4.75802
 Alpha virt. eigenvalues --    4.76947   4.77537   4.78460   4.79182   4.80252
 Alpha virt. eigenvalues --    4.80544   4.80609   4.81424   4.81867   4.82682
 Alpha virt. eigenvalues --    4.83144   4.83689   4.85062   4.85675   4.86666
 Alpha virt. eigenvalues --    4.87035   4.88554   4.88961   4.90317   4.91979
 Alpha virt. eigenvalues --    4.92902   4.94087   4.94568   4.96227   4.96689
 Alpha virt. eigenvalues --    4.98282   4.98905   5.00390   5.01467   5.03470
 Alpha virt. eigenvalues --    5.03744   5.06428   5.08492   5.09890   5.11905
 Alpha virt. eigenvalues --    5.14039   5.15721   5.16306   5.18449   5.19616
 Alpha virt. eigenvalues --    5.20026   5.20872   5.21197   5.21981   5.23319
 Alpha virt. eigenvalues --    5.23891   5.26622   5.27679   5.27833   5.29174
 Alpha virt. eigenvalues --    5.31573   5.32858   5.33643   5.35666   5.36490
 Alpha virt. eigenvalues --    5.37682   5.38431   5.38684   5.40486   5.40882
 Alpha virt. eigenvalues --    5.41633   5.42344   5.42789   5.43378   5.44093
 Alpha virt. eigenvalues --    5.44406   5.45051   5.46529   5.46770   5.48137
 Alpha virt. eigenvalues --    5.48625   5.49848   5.51260   5.52449   5.53398
 Alpha virt. eigenvalues --    5.54763   5.55156   5.57030   5.59032   5.59468
 Alpha virt. eigenvalues --    5.61231   5.61794   5.62299   5.64507   5.66792
 Alpha virt. eigenvalues --    5.67889   5.69217   5.71287   5.74003   5.76707
 Alpha virt. eigenvalues --    5.77820   5.78655   5.79094   5.81360   5.84321
 Alpha virt. eigenvalues --    5.85652   5.87723   5.88364   5.88898   5.91275
 Alpha virt. eigenvalues --    5.91708   5.92542   5.93466   5.93773   5.94877
 Alpha virt. eigenvalues --    5.95403   5.96384   5.97366   5.97629   6.00446
 Alpha virt. eigenvalues --    6.01111   6.03150   6.03631   6.05065   6.05907
 Alpha virt. eigenvalues --    6.07300   6.09870   6.11066   6.11079   6.13406
 Alpha virt. eigenvalues --    6.14819   6.17478   6.21012   6.23726   6.25111
 Alpha virt. eigenvalues --    6.27350   6.27902   6.29629   6.35330   6.39508
 Alpha virt. eigenvalues --    6.63480   6.72643   7.04631   7.07590   7.12180
 Alpha virt. eigenvalues --    7.12730   7.15969   7.23216   7.26611   7.29214
 Alpha virt. eigenvalues --    7.33377   7.36616   7.50509   7.63177   7.77447
 Alpha virt. eigenvalues --    7.97525   8.18145  12.09234  12.16330  12.23365
 Alpha virt. eigenvalues --   12.36513  12.51716  12.61934  12.84310  12.89972
 Alpha virt. eigenvalues --   13.05665  13.12355  13.27765  13.38603  13.43912
 Alpha virt. eigenvalues --   13.48494  13.51576  13.59053  13.63254  13.64996
 Alpha virt. eigenvalues --   13.68127  13.77002  13.95400  14.13520  14.28425
          Condensed to atoms (all electrons):
              1          2          3          4          5          6
     1  O    8.065252   0.277383  -0.070796  -0.009480   0.017517   0.005467
     2  C    0.277383   6.294126   0.202329  -0.028755  -0.073704  -0.729937
     3  C   -0.070796   0.202329   6.906674   0.186476   0.013986  -0.157841
     4  O   -0.009480  -0.028755   0.186476   8.104617   0.241993  -0.095949
     5  H    0.017517  -0.073704   0.013986   0.241993   0.424366   0.024311
     6  C    0.005467  -0.729937  -0.157841  -0.095949   0.024311   7.978844
     7  O   -0.000066   0.018997  -0.129605   0.003095  -0.000077   0.256300
     8  H    0.000005  -0.003709   0.009999  -0.000163   0.000011   0.025330
     9  C    0.013901   0.080961  -0.600216   0.018473  -0.004303   0.361421
    10  O   -0.018565   0.008400   0.006950  -0.000102   0.000005  -0.001200
    11  H    0.001710  -0.009371  -0.000081  -0.000001   0.000000   0.000341
    12  C   -0.134176  -0.585349  -0.330667   0.020957   0.006951   0.419631
    13  O    0.000887  -0.030315  -0.047295   0.000396  -0.000285  -0.007349
    14  C    0.007544   0.299161   0.225269   0.010412   0.011929  -1.903363
    15  O   -0.000161  -0.018629  -0.002420   0.000199   0.000002   0.004318
    16  C    0.002240   0.001744  -0.119629  -0.002460   0.001206  -0.144002
    17  C    0.000106  -0.012637   0.001916   0.000660  -0.000011  -0.079512
    18  O    0.000015   0.004922  -0.001068  -0.000008   0.000000   0.002799
    19  H   -0.000024  -0.004446   0.002931   0.000004   0.000000   0.007881
    20  C    0.000051  -0.000131  -0.000458  -0.000076   0.000003   0.068905
    21  O    0.000000  -0.000043  -0.000010   0.000000   0.000000   0.000799
    22  H    0.000000   0.000001   0.000001   0.000000   0.000000  -0.000061
    23  C    0.000005   0.007599  -0.001652   0.000009  -0.000002  -0.056608
    24  O    0.000002  -0.000113  -0.004502  -0.000204  -0.000001   0.009419
    25  H    0.000000  -0.000027   0.000828   0.000005   0.000000   0.004259
    26  C    0.000063   0.003575  -0.054037   0.000259   0.000032  -0.111934
    27  O    0.000000  -0.000093  -0.000078   0.000001   0.000000   0.002959
    28  C    0.000002  -0.000667  -0.000746   0.000010   0.000000  -0.014761
    29  O    0.000000   0.000008   0.000009   0.000000   0.000000  -0.000374
    30  H    0.000000   0.000000   0.000000   0.000000   0.000000   0.000011
    31  H    0.277264   0.034312  -0.018904   0.000324  -0.001011  -0.001565
    32  H   -0.000347  -0.011765   0.001761   0.000018   0.000000   0.000342
    33  H    0.001998   0.021612  -0.020896   0.000068  -0.000001   0.010611
    34  H    0.007848   0.046649  -0.045834   0.001704   0.000037  -0.015760
    35  H   -0.007266   0.291232  -0.003012   0.004836   0.000212  -0.030030
    36  H    0.003239  -0.055389   0.202997  -0.017640  -0.005270  -0.051815
    37  H    0.000029   0.036254  -0.125941   0.002528  -0.000169   0.354339
    38  H    0.000104  -0.005908  -0.035064   0.000081   0.000006   0.059832
    39  H    0.000000  -0.000014  -0.000155   0.000000   0.000000   0.000063
    40  H    0.000000   0.000059   0.000377   0.000000   0.000000  -0.002845
    41  H    0.000000  -0.000039   0.000796   0.000000   0.000000   0.000910
    42  H   -0.000001  -0.001824   0.003907   0.000007   0.000000   0.018755
    43  H    0.000000   0.000152   0.000359   0.000000   0.000000   0.007919
    44  H    0.000000   0.000022  -0.000016   0.000000   0.000000   0.000981
    45  H    0.000000   0.000000  -0.000005   0.000000   0.000000  -0.000128
              7          8          9         10         11         12
     1  O   -0.000066   0.000005   0.013901  -0.018565   0.001710  -0.134176
     2  C    0.018997  -0.003709   0.080961   0.008400  -0.009371  -0.585349
     3  C   -0.129605   0.009999  -0.600216   0.006950  -0.000081  -0.330667
     4  O    0.003095  -0.000163   0.018473  -0.000102  -0.000001   0.020957
     5  H   -0.000077   0.000011  -0.004303   0.000005   0.000000   0.006951
     6  C    0.256300   0.025330   0.361421  -0.001200   0.000341   0.419631
     7  O    8.111165   0.247353   0.001384  -0.000002   0.000000   0.004709
     8  H    0.247353   0.340058   0.000148   0.000000   0.000000   0.001365
     9  C    0.001384   0.000148   7.491425   0.143937  -0.030578  -1.748234
    10  O   -0.000002   0.000000   0.143937   8.183509   0.240904  -0.021148
    11  H    0.000000   0.000000  -0.030578   0.240904   0.418160   0.034976
    12  C    0.004709   0.001365  -1.748234  -0.021148   0.034976   9.206193
    13  O    0.001926   0.000168   0.009556   0.003443  -0.000784  -0.069915
    14  C    0.000921  -0.067574  -0.465544   0.010396  -0.001778  -0.601105
    15  O    0.000423   0.010218  -0.003161   0.000072  -0.000001   0.011367
    16  C    0.000970   0.023830  -0.081534  -0.000763  -0.000293  -0.042843
    17  C    0.000487  -0.000911  -0.001065   0.000368   0.000054  -0.046200
    18  O   -0.000063  -0.000026  -0.000623  -0.000209  -0.000005  -0.005014
    19  H   -0.000032  -0.000004   0.008821   0.000050  -0.000001  -0.013451
    20  C    0.000622   0.001113   0.004343   0.000033   0.000009  -0.008610
    21  O   -0.000006   0.000000   0.000128   0.000000   0.000000  -0.000104
    22  H    0.000000   0.000000   0.000000   0.000000   0.000000   0.000017
    23  C    0.002191   0.009766  -0.000096  -0.000002   0.000000  -0.004214
    24  O   -0.040002  -0.005440  -0.000010   0.000000   0.000000   0.001685
    25  H    0.003830  -0.001319  -0.000011   0.000000   0.000000  -0.000282
    26  C    0.011536  -0.020733   0.004967   0.000003  -0.000002  -0.002166
    27  O    0.000208  -0.000053   0.000025   0.000000   0.000000  -0.000136
    28  C    0.000371  -0.000108  -0.000635  -0.000005   0.000000   0.000222
    29  O   -0.000003  -0.000001  -0.000006   0.000000   0.000000   0.000024
    30  H    0.000000   0.000000   0.000000   0.000000   0.000000  -0.000001
    31  H   -0.000006   0.000000  -0.005740  -0.000297  -0.000069  -0.018201
    32  H   -0.000012   0.000000   0.382152  -0.018654  -0.009525  -0.001617
    33  H    0.000015   0.000000   0.633890  -0.050730   0.000745  -0.287171
    34  H    0.000124   0.000004   0.071969   0.003498  -0.000247   0.071728
    35  H    0.000649   0.000001  -0.022163  -0.000527  -0.000008  -0.036604
    36  H    0.007218  -0.000106   0.032089  -0.000312   0.000000   0.079191
    37  H   -0.024885  -0.004292   0.013817   0.000004   0.000000   0.035113
    38  H   -0.003629  -0.000130   0.012600   0.000048   0.000000   0.031386
    39  H   -0.000425   0.000069   0.000001   0.000000   0.000000   0.000086
    40  H   -0.000068   0.000189  -0.000008   0.000000   0.000000  -0.000170
    41  H   -0.000081   0.000031   0.000021   0.000000   0.000000   0.000277
    42  H   -0.001668  -0.000235   0.000294   0.000001   0.000000   0.001778
    43  H    0.000002  -0.000002   0.000048   0.000000   0.000000  -0.001130
    44  H    0.000005   0.000000   0.000047   0.000000   0.000000  -0.000096
    45  H    0.000001   0.000000   0.000006   0.000000   0.000000   0.000018
             13         14         15         16         17         18
     1  O    0.000887   0.007544  -0.000161   0.002240   0.000106   0.000015
     2  C   -0.030315   0.299161  -0.018629   0.001744  -0.012637   0.004922
     3  C   -0.047295   0.225269  -0.002420  -0.119629   0.001916  -0.001068
     4  O    0.000396   0.010412   0.000199  -0.002460   0.000660  -0.000008
     5  H   -0.000285   0.011929   0.000002   0.001206  -0.000011   0.000000
     6  C   -0.007349  -1.903363   0.004318  -0.144002  -0.079512   0.002799
     7  O    0.001926   0.000921   0.000423   0.000970   0.000487  -0.000063
     8  H    0.000168  -0.067574   0.010218   0.023830  -0.000911  -0.000026
     9  C    0.009556  -0.465544  -0.003161  -0.081534  -0.001065  -0.000623
    10  O    0.003443   0.010396   0.000072  -0.000763   0.000368  -0.000209
    11  H   -0.000784  -0.001778  -0.000001  -0.000293   0.000054  -0.000005
    12  C   -0.069915  -0.601105   0.011367  -0.042843  -0.046200  -0.005014
    13  O    8.027023   0.174215  -0.005310   0.062270   0.005551  -0.017466
    14  C    0.174215   9.640678   0.300726  -1.089735  -0.158678   0.001857
    15  O   -0.005310   0.300726   7.740447   0.198026  -0.020771  -0.011343
    16  C    0.062270  -1.089735   0.198026  11.967971  -1.546741   0.013662
    17  C    0.005551  -0.158678  -0.020771  -1.546741   7.228688   0.244425
    18  O   -0.017466   0.001857  -0.011343   0.013662   0.244425   8.092084
    19  H    0.015268   0.003854   0.023299  -0.105602   0.046329   0.233942
    20  C   -0.014130  -0.131267   0.011047  -1.360185   0.359310  -0.107401
    21  O   -0.000327   0.010329   0.000068   0.049032  -0.067483  -0.000875
    22  H    0.000004  -0.001210  -0.000008  -0.014584   0.005819   0.000060
    23  C    0.002803  -0.040062  -0.050749  -0.043784  -0.179743   0.014333
    24  O    0.000199   0.059536  -0.008274  -0.018548   0.008830   0.000106
    25  H   -0.000027  -0.014329   0.001425  -0.000758  -0.001268  -0.000002
    26  C   -0.008159  -0.779506  -0.083626  -2.968797   0.221385  -0.007321
    27  O    0.000163   0.007547   0.002207   0.106722   0.006209  -0.000680
    28  C    0.001587  -0.025965   0.003039   0.783427  -0.018645  -0.001634
    29  O    0.000034  -0.002352  -0.000195  -0.035072  -0.023539   0.000541
    30  H    0.000000   0.000146  -0.000001   0.005515   0.008921  -0.000026
    31  H   -0.000745   0.002887  -0.000003   0.000103  -0.000019   0.000000
    32  H   -0.008214  -0.007804  -0.000379   0.005082  -0.001295   0.000200
    33  H   -0.005517   0.000705  -0.000408  -0.002666   0.001562  -0.000086
    34  H   -0.009550   0.109748  -0.001267   0.007312   0.003926  -0.000271
    35  H    0.004590   0.070348   0.000304  -0.003536   0.001300   0.000014
    36  H    0.005268   0.020743   0.001357  -0.015996   0.001590   0.000095
    37  H    0.005951  -0.008035  -0.009470  -0.031289   0.001284   0.000130
    38  H   -0.030957   0.227513  -0.037875  -0.000867   0.005461  -0.001635
    39  H    0.000002   0.013965   0.000719   0.044812   0.002546   0.000015
    40  H    0.000025  -0.008288  -0.000064   0.023420  -0.004922   0.000049
    41  H   -0.000085   0.027886  -0.003718   0.046372  -0.037029   0.001082
    42  H   -0.001121  -0.037860  -0.028842   0.093435  -0.002127   0.000045
    43  H   -0.000784   0.005775  -0.004797  -0.069961   0.239067  -0.018495
    44  H    0.000024  -0.005747   0.000284   0.081979  -0.123819   0.008296
    45  H    0.000007   0.001657   0.000291   0.049461  -0.010914   0.000731
             19         20         21         22         23         24
     1  O   -0.000024   0.000051   0.000000   0.000000   0.000005   0.000002
     2  C   -0.004446  -0.000131  -0.000043   0.000001   0.007599  -0.000113
     3  C    0.002931  -0.000458  -0.000010   0.000001  -0.001652  -0.004502
     4  O    0.000004  -0.000076   0.000000   0.000000   0.000009  -0.000204
     5  H    0.000000   0.000003   0.000000   0.000000  -0.000002  -0.000001
     6  C    0.007881   0.068905   0.000799  -0.000061  -0.056608   0.009419
     7  O   -0.000032   0.000622  -0.000006   0.000000   0.002191  -0.040002
     8  H   -0.000004   0.001113   0.000000   0.000000   0.009766  -0.005440
     9  C    0.008821   0.004343   0.000128   0.000000  -0.000096  -0.000010
    10  O    0.000050   0.000033   0.000000   0.000000  -0.000002   0.000000
    11  H   -0.000001   0.000009   0.000000   0.000000   0.000000   0.000000
    12  C   -0.013451  -0.008610  -0.000104   0.000017  -0.004214   0.001685
    13  O    0.015268  -0.014130  -0.000327   0.000004   0.002803   0.000199
    14  C    0.003854  -0.131267   0.010329  -0.001210  -0.040062   0.059536
    15  O    0.023299   0.011047   0.000068  -0.000008  -0.050749  -0.008274
    16  C   -0.105602  -1.360185   0.049032  -0.014584  -0.043784  -0.018548
    17  C    0.046329   0.359310  -0.067483   0.005819  -0.179743   0.008830
    18  O    0.233942  -0.107401  -0.000875   0.000060   0.014333   0.000106
    19  H    0.378292   0.014784  -0.000353   0.000019  -0.004768  -0.000021
    20  C    0.014784   6.949934   0.161403   0.005173   0.068123  -0.005007
    21  O   -0.000353   0.161403   8.085519   0.238193  -0.001123   0.000018
    22  H    0.000019   0.005173   0.238193   0.427112   0.000079   0.000000
    23  C   -0.004768   0.068123  -0.001123   0.000079   6.476355   0.163358
    24  O   -0.000021  -0.005007   0.000018   0.000000   0.163358   8.205900
    25  H    0.000000   0.000372   0.000000   0.000000  -0.066796   0.257242
    26  C    0.006335   0.647370  -0.040982   0.009825  -0.708814  -0.066905
    27  O    0.000035  -0.104350   0.001482  -0.000480  -0.132931   0.005481
    28  C    0.004290  -0.728233   0.010016  -0.011655  -0.172557   0.003714
    29  O   -0.000007  -0.036446   0.001367   0.008691   0.015538   0.000020
    30  H    0.000000  -0.022132  -0.001667  -0.001069  -0.000544  -0.000001
    31  H    0.000000   0.000000   0.000000   0.000000   0.000001   0.000000
    32  H    0.000434  -0.000795  -0.000002   0.000000   0.000014   0.000000
    33  H    0.000096   0.000253   0.000000   0.000000  -0.000008   0.000000
    34  H    0.000111   0.000322  -0.000001   0.000000  -0.000016  -0.000001
    35  H    0.000002  -0.000012   0.000000   0.000000  -0.000050   0.000006
    36  H    0.000002  -0.000079   0.000000   0.000000   0.000090   0.000061
    37  H   -0.000027   0.000160   0.000000   0.000000   0.002582  -0.000041
    38  H   -0.000112   0.013203   0.000009   0.000000   0.000865  -0.000064
    39  H    0.000000  -0.004583   0.000001   0.000000   0.382841  -0.030411
    40  H    0.000000   0.003298  -0.000007   0.000000   0.619255  -0.049243
    41  H    0.000030  -0.022704  -0.000117   0.000004   0.040465   0.004009
    42  H    0.000452   0.072427  -0.000145   0.000010  -0.002178   0.002069
    43  H   -0.002470   0.007862   0.000592  -0.000150   0.020940  -0.000015
    44  H   -0.000099   0.287547  -0.012926  -0.006276   0.007053   0.000010
    45  H    0.000003  -0.108304   0.000865  -0.000295  -0.001170   0.000036
             25         26         27         28         29         30
     1  O    0.000000   0.000063   0.000000   0.000002   0.000000   0.000000
     2  C   -0.000027   0.003575  -0.000093  -0.000667   0.000008   0.000000
     3  C    0.000828  -0.054037  -0.000078  -0.000746   0.000009   0.000000
     4  O    0.000005   0.000259   0.000001   0.000010   0.000000   0.000000
     5  H    0.000000   0.000032   0.000000   0.000000   0.000000   0.000000
     6  C    0.004259  -0.111934   0.002959  -0.014761  -0.000374   0.000011
     7  O    0.003830   0.011536   0.000208   0.000371  -0.000003   0.000000
     8  H   -0.001319  -0.020733  -0.000053  -0.000108  -0.000001   0.000000
     9  C   -0.000011   0.004967   0.000025  -0.000635  -0.000006   0.000000
    10  O    0.000000   0.000003   0.000000  -0.000005   0.000000   0.000000
    11  H    0.000000  -0.000002   0.000000   0.000000   0.000000   0.000000
    12  C   -0.000282  -0.002166  -0.000136   0.000222   0.000024  -0.000001
    13  O   -0.000027  -0.008159   0.000163   0.001587   0.000034   0.000000
    14  C   -0.014329  -0.779506   0.007547  -0.025965  -0.002352   0.000146
    15  O    0.001425  -0.083626   0.002207   0.003039  -0.000195  -0.000001
    16  C   -0.000758  -2.968797   0.106722   0.783427  -0.035072   0.005515
    17  C   -0.001268   0.221385   0.006209  -0.018645  -0.023539   0.008921
    18  O   -0.000002  -0.007321  -0.000680  -0.001634   0.000541  -0.000026
    19  H    0.000000   0.006335   0.000035   0.004290  -0.000007   0.000000
    20  C    0.000372   0.647370  -0.104350  -0.728233  -0.036446  -0.022132
    21  O    0.000000  -0.040982   0.001482   0.010016   0.001367  -0.001667
    22  H    0.000000   0.009825  -0.000480  -0.011655   0.008691  -0.001069
    23  C   -0.066796  -0.708814  -0.132931  -0.172557   0.015538  -0.000544
    24  O    0.257242  -0.066905   0.005481   0.003714   0.000020  -0.000001
    25  H    0.400750   0.057951  -0.000789  -0.000435  -0.000003   0.000000
    26  C    0.057951  10.744034   0.058989  -0.740838   0.007048  -0.005819
    27  O   -0.000789   0.058989   7.936295   0.247778  -0.037456   0.001195
    28  C   -0.000435  -0.740838   0.247778   5.929013   0.299110   0.000026
    29  O   -0.000003   0.007048  -0.037456   0.299110   8.031625   0.269074
    30  H    0.000000  -0.005819   0.001195   0.000026   0.269074   0.410826
    31  H    0.000000  -0.000002   0.000000   0.000000   0.000000   0.000000
    32  H    0.000000   0.000091   0.000000   0.000048   0.000000   0.000000
    33  H    0.000000  -0.000098   0.000000  -0.000012   0.000000   0.000000
    34  H    0.000000   0.000010   0.000001  -0.000014   0.000000   0.000000
    35  H    0.000000  -0.000314   0.000000  -0.000001   0.000000   0.000000
    36  H    0.000000  -0.001685  -0.000001  -0.000006   0.000000   0.000000
    37  H   -0.000003  -0.007688   0.000001  -0.000027   0.000000   0.000000
    38  H    0.000010   0.024194   0.000372  -0.001301  -0.000003   0.000000
    39  H   -0.006893  -0.086343  -0.000979   0.007600  -0.000039  -0.000001
    40  H   -0.002922  -0.247191  -0.009623  -0.005640  -0.000360   0.000002
    41  H   -0.000199   0.170162  -0.034983   0.050030  -0.001365   0.000018
    42  H   -0.000032   0.129597   0.003310  -0.007705  -0.000464   0.000003
    43  H    0.000000   0.085685   0.000306  -0.041703   0.000966   0.000011
    44  H    0.000000   0.006593  -0.001073   0.016950   0.001998  -0.000041
    45  H    0.000000  -0.025596  -0.044301   0.433742  -0.019576  -0.009006
             31         32         33         34         35         36
     1  O    0.277264  -0.000347   0.001998   0.007848  -0.007266   0.003239
     2  C    0.034312  -0.011765   0.021612   0.046649   0.291232  -0.055389
     3  C   -0.018904   0.001761  -0.020896  -0.045834  -0.003012   0.202997
     4  O    0.000324   0.000018   0.000068   0.001704   0.004836  -0.017640
     5  H   -0.001011   0.000000  -0.000001   0.000037   0.000212  -0.005270
     6  C   -0.001565   0.000342   0.010611  -0.015760  -0.030030  -0.051815
     7  O   -0.000006  -0.000012   0.000015   0.000124   0.000649   0.007218
     8  H    0.000000   0.000000   0.000000   0.000004   0.000001  -0.000106
     9  C   -0.005740   0.382152   0.633890   0.071969  -0.022163   0.032089
    10  O   -0.000297  -0.018654  -0.050730   0.003498  -0.000527  -0.000312
    11  H   -0.000069  -0.009525   0.000745  -0.000247  -0.000008   0.000000
    12  C   -0.018201  -0.001617  -0.287171   0.071728  -0.036604   0.079191
    13  O   -0.000745  -0.008214  -0.005517  -0.009550   0.004590   0.005268
    14  C    0.002887  -0.007804   0.000705   0.109748   0.070348   0.020743
    15  O   -0.000003  -0.000379  -0.000408  -0.001267   0.000304   0.001357
    16  C    0.000103   0.005082  -0.002666   0.007312  -0.003536  -0.015996
    17  C   -0.000019  -0.001295   0.001562   0.003926   0.001300   0.001590
    18  O    0.000000   0.000200  -0.000086  -0.000271   0.000014   0.000095
    19  H    0.000000   0.000434   0.000096   0.000111   0.000002   0.000002
    20  C    0.000000  -0.000795   0.000253   0.000322  -0.000012  -0.000079
    21  O    0.000000  -0.000002   0.000000  -0.000001   0.000000   0.000000
    22  H    0.000000   0.000000   0.000000   0.000000   0.000000   0.000000
    23  C    0.000001   0.000014  -0.000008  -0.000016  -0.000050   0.000090
    24  O    0.000000   0.000000   0.000000  -0.000001   0.000006   0.000061
    25  H    0.000000   0.000000   0.000000   0.000000   0.000000   0.000000
    26  C   -0.000002   0.000091  -0.000098   0.000010  -0.000314  -0.001685
    27  O    0.000000   0.000000   0.000000   0.000001   0.000000  -0.000001
    28  C    0.000000   0.000048  -0.000012  -0.000014  -0.000001  -0.000006
    29  O    0.000000   0.000000   0.000000   0.000000   0.000000   0.000000
    30  H    0.000000   0.000000   0.000000   0.000000   0.000000   0.000000
    31  H    0.394330   0.000019  -0.000177  -0.000216  -0.011156  -0.000150
    32  H    0.000019   0.564720  -0.046099  -0.004056   0.000040   0.000012
    33  H   -0.000177  -0.046099   0.588895   0.005739   0.002544  -0.000014
    34  H   -0.000216  -0.004056   0.005739   0.611313   0.005165   0.003596
    35  H   -0.011156   0.000040   0.002544   0.005165   0.591618   0.006576
    36  H   -0.000150   0.000012  -0.000014   0.003596   0.006576   0.663989
    37  H    0.000013   0.000001  -0.000023  -0.000110   0.003015   0.007456
    38  H    0.000001  -0.000026  -0.000021   0.002731  -0.000041   0.002741
    39  H    0.000000   0.000000   0.000000   0.000000   0.000000   0.000000
    40  H    0.000000   0.000000   0.000000   0.000000   0.000000   0.000000
    41  H    0.000000   0.000000   0.000000   0.000000   0.000000   0.000000
    42  H    0.000000  -0.000001   0.000000   0.000000   0.000000  -0.000009
    43  H    0.000000   0.000000   0.000000   0.000000   0.000000   0.000000
    44  H    0.000000   0.000000   0.000000   0.000000   0.000000   0.000000
    45  H    0.000000   0.000000   0.000000   0.000000   0.000000   0.000000
             37         38         39         40         41         42
     1  O    0.000029   0.000104   0.000000   0.000000   0.000000  -0.000001
[...]
 0.00003672,0.00001704,-0.00001162,-0.00000061,0.00000725,-0.00004089,0
 .00005162,0.00000922,0.00028161,0.00004098,0.00019391,-0.00043827,-0.0
 0048741,-0.00625219,-0.01818503,-0.00305801,0.01071139,-0.34646371,0.0
 0482858,-0.03811233,-0.01112050,-0.00011965,-0.00455203,0.00170892,-0.
 00037516,0.00095523,-0.00040787,-0.00013068,0.00008334,-0.00044565,-0.
 00009764,0.00069456,0.00049509,-0.00008698,0.00012538,-0.00000121,0.00
 007364,-0.00010497,0.00033905,0.00012493,-0.00020098,0.00029452,-0.000
 02129,0.00005850,0.00003540,-0.00003980,0.00003155,-0.00884468,-0.0000
 7633,-0.00172848,0.00172680,0.00055624,-0.00057826,-0.00013992,-0.0001
 3069,-0.00010253,0.00006051,0.00000192,-0.00008362,0.00000606,-0.00000
 459,-0.00000888,-0.00000243,-0.00000347,-0.00000203,-0.00000669,0.0000
 0977,-0.00000152,0.00001390,0.00000179,-0.00001391,0.00002439,0.000010
 64,0.00003356,0.00000880,-0.00000066,-0.00001339,0.00001227,-0.0000021
 6,0.00002680,0.00003744,0.00025522,-0.00036120,0.00220736,0.00035476,0
 .00040168,0.00010893,0.00005067,0.00001748,0.00009753,-0.00058028,-0.0
 0015939,0.00051444,-0.00060976,-0.00045118,0.37622113,0.00000736,-0.00
 002064,0.00003449,-0.00001149,0.00003132,-0.00002845,0.00003480,0.0000
 4563,-0.00003284,0.00000712,-0.00004470,0.00000757,-0.00000643,0.00000
 778,-0.00000338,-0.00021253,0.00017373,0.00004406,0.00019723,-0.000131
 59,-0.00028130,-0.00026876,-0.00013695,0.00020027,0.00001193,-0.000030
 55,-0.00001477,-0.00000642,0.00002874,0.00003167,0.00000459,-0.0000037
 1,-0.00000318,-0.00003446,0.00001018,-0.00009871,0.00022882,-0.0000014
 9,0.00025638,-0.00066271,0.00111954,-0.00122464,-0.01026758,0.00047694
 ,0.00360993,0.00610843,-0.04398770,-0.00063963,0.03366631,-0.00171837,
 0.00780388,-0.00247617,0.00293876,-0.00015195,0.00032553,-0.00004641,-
 0.00023730,0.00121513,0.00110340,-0.00096769,-0.00047225,-0.00013107,-
 0.00012429,-0.00013471,-0.00002318,0.00004008,-0.00026952,0.00127707,0
 .00072226,0.00024649,-0.00014909,0.00011525,0.00004737,-0.00002434,0.0
 0006483,-0.02714739,-0.00012961,-0.00525700,0.00169122,0.00102579,0.00
 156341,0.00023634,-0.00051421,0.00003531,-0.00005433,0.00011391,0.0000
 5865,-0.00001079,0.00002034,-0.00000586,0.00000121,-0.00000051,-0.0000
 0512,0.00000861,-0.00001370,0.00000042,-0.00000598,-0.00000147,0.00000
 547,-0.00000548,0.00001026,-0.00000157,0.00000117,-0.00000483,0.000000
 35,-0.00000043,0.00000948,0.00001100,0.00007119,-0.00001980,-0.0000314
 8,0.00010645,0.00053427,0.00011012,0.00026347,0.00029590,0.00003361,0.
 00038107,-0.00016366,-0.00012036,-0.00152134,-0.00247578,-0.00359433,-
 0.00212613,0.04588959,-0.00000327,-0.00001405,-0.00002681,-0.00000571,
 0.00000477,0.00003110,0.00000641,0.00004646,0.00002815,-0.00002420,-0.
 00001152,-0.00000986,0.00000141,0.00000234,-0.00000301,0.00037763,0.00
 008660,-0.00037880,-0.00025662,-0.00001207,0.00012693,0.00020008,-0.00
 008332,-0.00006384,-0.00002728,0.00002703,-0.00002278,-0.00000077,-0.0
 0003035,-0.00000810,0.00000281,-0.00000074,-0.00000605,-0.00000352,-0.
 00008658,-0.00006439,-0.00113016,-0.00032575,-0.00022840,0.00943825,0.
 00151385,0.00116847,0.03375779,0.00435620,-0.01570636,-0.04641771,-0.0
 0149855,-0.04536924,-0.01129951,-0.00049241,-0.00108852,0.00111414,0.0
 0001203,0.00086363,0.00008327,0.00029107,-0.00010101,-0.00130461,0.000
 12362,0.00027202,0.00035319,-0.00002457,0.00000633,-0.00000697,-0.0000
 1601,-0.00002963,0.00034905,0.00080120,0.00067203,0.00004155,-0.000299
 36,0.00022154,-0.00001546,-0.00000536,0.00007227,-0.02423335,-0.000139
 76,-0.00305377,0.00123028,0.00047075,0.00196901,-0.00040307,0.00015234
 ,-0.00027671,0.00011276,0.00002414,-0.00016340,0.00001611,0.00000429,0
 .00000686,-0.00000062,0.00000480,0.00000246,-0.00000158,-0.00001079,-0
 .00000382,-0.00000110,0.00000595,0.00000563,-0.00001455,-0.00002067,-0
 .00006051,-0.00000878,0.00001210,0.00001559,-0.00006335,-0.00002238,-0
 .00005878,-0.00029887,-0.00005597,-0.00000136,-0.00093188,0.00007299,-
 0.00167541,0.00014463,0.00020488,0.00001204,0.00037225,-0.00026593,-0.
 00005476,-0.00122802,-0.00251166,-0.00320794,0.04021861,-0.00453808,0.
 06661846,0.00000114,0.00001962,-0.00006918,-0.00002487,-0.00002060,0.0
 0004267,0.00000654,-0.00004576,0.00004252,-0.00000385,0.00005517,-0.00
 003989,0.00000132,-0.00000995,0.00000895,0.00009439,-0.00007238,0.0000
 0675,0.00003800,0.00013886,0.00005905,-0.00006717,-0.00008815,-0.00012
 538,-0.00001947,0.00000134,0.00011865,0.00000238,-0.00003750,-0.000097
 65,-0.00001023,0.00001345,0.00002117,0.00003113,0.00006092,0.00012352,
 -0.00003418,0.00022976,-0.00025376,0.00002835,-0.00034728,-0.00010607,
 0.00165962,0.00005644,-0.00036459,-0.01402989,0.00113383,-0.00114037,-
 0.34004981,-0.00989695,-0.04952234,0.00170226,-0.00763260,-0.00905627,
 -0.00013685,-0.00082095,0.00039690,-0.01999761,0.00071087,-0.00078896,
 0.00197578,0.00059517,-0.00085864,0.00038105,0.00013453,-0.00015046,0.
 00074042,0.00026677,-0.00005704,0.00007908,-0.00014852,0.00019531,-0.0
 0001337,0.00000307,0.00001588,-0.00098775,-0.00176206,-0.00083459,0.00
 049322,0.00059006,0.00038311,-0.00185236,-0.00103387,-0.00137037,0.000
 93869,0.00004421,0.00006828,-0.00003025,0.00004598,0.00020878,-0.00000
 821,-0.00000386,0.00001151,0.00001529,0.00004614,-0.00000076,0.0000057
 9,0.00000212,-0.00000927,-0.00000007,-0.00000712,0.00000070,0.00000300
 ,-0.00000140,-0.00000646,0.00001404,0.00000099,0.00000232,0.00000205,0
 .00002684,-0.00003796,0.00012465,0.00000549,0.00020428,-0.00003325,0.0
 0013694,0.00003337,0.00008889,-0.00030669,-0.00003079,0.00154183,0.000
 24837,0.00071862,0.00029075,0.00163977,-0.00067833,0.36624154,-0.00000
 312,0.00003037,-0.00006061,-0.00002853,-0.00004376,0.00002975,0.000016
 04,-0.00001851,-0.00001221,-0.00001415,0.00004371,-0.00001495,0.000008
 27,-0.00001074,0.00000208,-0.00011660,-0.00007619,-0.00007146,-0.00006
 083,0.00006351,0.00009994,0.00005685,0.00002226,-0.00008107,-0.0000217
 5,-0.00002205,0.00016340,0.00000380,-0.00003285,-0.00011361,-0.0000140
 6,0.00001524,0.00002445,0.00004869,0.00009802,0.00009744,-0.00005634,0
 .00048705,-0.00030841,0.00029256,-0.00021207,-0.00017186,-0.00149981,0
 .00168028,-0.00140564,0.03258462,-0.00460624,0.00553062,-0.01196199,-0
 .03738493,0.00349751,-0.02785941,-0.01292131,-0.02087713,-0.00059336,-
 0.00044565,0.00108638,-0.01004550,0.00074686,0.00017680,-0.00018345,0.
 00070620,-0.00064845,0.00017651,0.00007337,-0.00025211,-0.00014877,0.0
 0014050,0.00017865,-0.00003754,-0.00000864,-0.00004650,-0.00001540,0.0
 0000742,-0.00002009,0.00291311,0.00083562,0.00134799,-0.00042843,-0.00
 007186,-0.00006228,0.00068724,-0.00001687,-0.00088261,0.00015490,-0.00
 011102,0.00011336,0.00001186,0.00006545,0.00006034,-0.00000530,-0.0000
 0261,0.00000771,0.00000424,0.00006839,0.00001034,0.00001087,0.00001558
 ,-0.00002273,-0.00000400,-0.00001967,-0.00000324,-0.00000093,-0.000000
 22,-0.00000178,0.00000250,-0.00000216,-0.00000186,-0.00001521,-0.00001
 683,0.00003173,-0.00024856,-0.00004569,-0.00005057,-0.00004498,-0.0000
 7568,0.00002187,-0.00012572,0.00009546,0.00002666,-0.00067143,-0.00081
 299,-0.00042293,0.00147346,-0.00509429,0.00193380,0.01613695,0.0567749
 8,0.00000564,0.00002046,-0.00006280,-0.00004010,-0.00002846,0.00003123
 ,0.00001179,-0.00005778,0.00002985,-0.00000178,0.00004588,-0.00001908,
 0.00000282,-0.00001036,0.00000833,0.00003077,-0.00000656,0.00007530,0.
 00003697,0.00008378,0.00000679,-0.00005399,-0.00002568,-0.00002676,-0.
 00004556,-0.00002876,0.00014688,0.00001764,-0.00002644,-0.00009858,-0.
 00001449,0.00001197,0.00002373,0.00003243,0.00009021,0.00010648,0.0000
 9256,0.00033732,-0.00037579,-0.00034374,-0.00059099,-0.00045797,0.0006
 7848,-0.00118068,0.00164255,-0.01588856,0.00341167,-0.00117946,-0.0515
 1863,0.00437698,-0.04970467,-0.02568054,-0.01761544,-0.01530242,-0.001
 32530,-0.00056774,0.00053247,0.03204945,0.00191817,0.00175937,-0.00123
 418,-0.00138130,0.00180409,-0.00009830,-0.00044828,0.00036010,0.000328
 73,0.00014723,-0.00005895,0.00003688,-0.00005654,0.00006505,0.00000154
 ,-0.00000814,0.00000986,0.00025969,-0.00187577,-0.00017763,-0.00024994
 ,-0.00007663,-0.00007881,0.00163449,0.00026984,0.00055232,-0.00040069,
 -0.00002684,0.00005319,-0.00008638,-0.00008271,-0.00001799,-0.00000863
 ,-0.00000301,0.00000598,0.00000309,0.00006227,0.00000737,0.00002160,0.
 00001047,-0.00003216,0.00000713,-0.00001332,0.00000522,0.00000498,-0.0
 0000025,-0.00000936,0.00001314,0.00000088,0.00000474,0.00001620,0.0000
 3241,-0.00003170,0.00019811,0.00001952,0.00002719,-0.00000252,0.000089
 61,0.00000199,0.00003140,-0.00012690,-0.00004041,0.00059671,-0.0001403
 1,0.00035537,-0.00072600,0.00219869,-0.00042822,0.05974527,0.00971495,
 0.06579611,0.00000319,-0.00000591,-0.00002166,-0.00000208,0.00000417,0
 .00001559,-0.00000579,-0.00001376,0.00002043,0.00000476,0.00000933,-0.
 00001891,-0.00000290,-0.00000025,0.00000460,0.00002262,-0.00000718,0.0
 0001817,0.00002043,0.00001319,-0.00001542,-0.00001662,-0.00001418,0.00
 000177,-0.00001176,0.00001002,0.00001068,0.00001241,-0.00001326,-0.000
 01212,-0.00000742,0.00000245,0.00000162,-0.00000605,0.00000899,0.00003
 685,0.00003693,-0.00003133,-0.00005643,-0.00012150,0.00000188,0.000114
 80,0.00052232,-0.00000985,0.00002285,-0.00065709,0.00089722,-0.0004756
 9,-0.01416818,-0.00350997,-0.00196662,0.00174465,0.00057351,-0.0002806
 5,0.00012902,0.00002615,-0.00007172,-0.35286316,-0.03116436,-0.0355909
 0,-0.00989941,0.00850143,-0.00478630,0.00058781,0.00058468,0.00040558,
 -0.00002114,-0.00000425,0.00000364,0.00003013,0.00001192,-0.00000257,-
 0.00001191,-0.00000692,0.00000402,-0.00007830,-0.00005727,-0.00017216,
 0.00106357,-0.00108891,0.00033128,-0.00785641,0.00030041,0.00116433,0.
 00155954,0.00033096,0.00068103,0.00033476,0.00030967,0.00031089,-0.000
 00342,0.00000153,0.00000336,-0.00000882,0.00000382,-0.00000122,0.00000
 751,0.00000176,-0.00000717,0.00000620,-0.00000300,0.00000441,0.0000029
 1,0.00000084,-0.00000350,0.00000657,0.00000167,0.00000067,0.00000494,0
 .00000884,-0.00001131,0.00004188,-0.00001575,0.00003029,0.00001585,0.0
 0000361,0.00000516,0.00001643,-0.00004945,-0.00000467,0.00009651,0.000
 16314,0.00004477,0.00076000,-0.00064224,0.00036468,-0.00028066,-0.0006
 1058,0.00195585,0.37861472,0.00000192,-0.00000194,0.00001613,0.0000017
 9,0.00000242,-0.00001042,-0.00000680,0.00000528,-0.00000770,0.00000548
 ,-0.00000993,0.00001015,-0.00000219,0.00000210,-0.00000139,0.00000539,
 0.00001536,0.00000573,0.00001699,-0.00000899,0.00000055,-0.00001432,-0
 .00000262,-0.00001169,0.00000196,-0.00000168,-0.00002419,-0.00000301,0
 .00000979,0.00002096,0.00000521,-0.00000337,-0.00000498,-0.00000566,-0
 .00001013,-0.00002331,0.00002501,-0.00002819,0.00004871,-0.00006509,0.
 00004198,-0.00003216,0.00023933,-0.00004242,0.00003153,-0.00104978,0.0
 0045770,-0.00023865,-0.00800188,-0.00038309,-0.00183752,0.00085991,0.0
 0054308,0.00031347,-0.00004239,-0.00002404,-0.00010794,-0.03300983,-0.
 04397157,-0.00447353,0.03805512,-0.01150693,0.00853454,0.00051676,0.00
 150520,-0.00109457,-0.00007072,0.00003666,-0.00001704,0.00002467,-0.00
 004472,0.00002613,-0.00000838,0.00000312,0.00000584,-0.00013744,-0.000
 16235,-0.00005831,0.00146630,0.00147226,0.00049938,-0.02510841,-0.0009
 2499,-0.00275740,0.00118755,0.00112373,0.00209364,0.00005454,0.0000723
 9,0.00038148,0.00000120,-0.00000007,-0.00000287,0.00000282,-0.00000823
 ,0.00000042,-0.00000137,-0.00000323,0.00000315,0.00000120,0.00000409,0
 .00000147,0.00000094,-0.00000051,-0.00000015,0.00000004,0.00000108,0.0
 0000081,0.00000271,0.00000154,-0.00000534,0.00001898,0.00000551,0.0000
 2216,0.00001281,-0.00001808,-0.00000363,0.00001388,-0.00005280,-0.0000
 0319,0.00014864,0.00007788,0.00000455,0.00013575,-0.00013197,0.0003480
 1,-0.00054202,-0.00014344,0.00175160,0.02588020,0.05483999,-0.00000065
 ,-0.00000668,0.00000544,0.00000018,0.00000575,-0.00000457,0.00000948,0
 .00002227,-0.00000285,-0.00000283,-0.00001102,-0.00000249,-0.00000004,
 0.00000342,-0.00000265,-0.00002412,-0.00001308,-0.00001894,-0.00001071
 ,-0.00001036,-0.00000706,0.00000973,-0.00000546,0.00000763,0.00000806,
 0.00000978,-0.00002294,-0.00000844,-0.00000357,0.00001384,0.00000494,-
 0.00000185,-0.00000749,0.00001616,-0.00000522,-0.00000196,-0.00000943,
 -0.00008749,0.00002220,0.00011952,0.00016588,0.00011440,-0.00055651,-0
 .00004856,-0.00030415,0.00098345,-0.00139251,0.00127121,0.03089114,0.0
 0456812,0.00336466,-0.00215976,-0.00011913,0.00243534,-0.00018216,0.00
 021281,0.00021047,-0.03300337,-0.00489021,-0.04725905,-0.01170369,0.00
 590152,-0.00032084,-0.00103604,-0.00026318,0.00050171,0.00001001,-0.00
 000779,0.00008009,-0.00000496,-0.00002753,0.00001429,-0.00000415,-0.00
 000272,0.00000716,0.00046706,0.00016012,-0.00047457,0.00141811,0.00001
 047,0.00089403,-0.02451181,-0.00428292,-0.00418507,0.00022143,0.000932
 22,0.00240553,0.00000307,0.00019366,0.00049369,0.00000101,0.00000172,-
 0.00000192,0.00000238,-0.00000898,0.00000213,-0.00000475,-0.00000137,0
 .00000587,-0.00000644,0.00000390,-0.00000780,-0.00000189,-0.00000074,0
 .00000316,-0.00000564,-0.00000010,-0.00000235,-0.00000118,-0.00000830,
 0.00000999,-0.00003587,0.00001119,-0.00004333,-0.00000591,0.00002095,0
 .00000189,-0.00002332,0.00002170,0.00001153,-0.00018722,0.00000610,-0.
 00012576,-0.00047708,0.00041957,-0.00013041,0.00259804,0.00139937,-0.0
 0477178,0.03816236,-0.00039673,0.04866117,0.00000397,-0.00000892,-0.00
 001192,-0.00000462,0.00000819,0.00000637,0.00000003,-0.00000133,0.0000
 0975,0.00000490,-0.00000207,-0.00001307,-0.00000306,0.00000187,0.00000
 271,-0.00002435,0.00002160,0.00001293,0.00001303,-0.00003086,-0.000057
 63,0.00000064,0.00001916,0.00007262,-0.00000923,0.00000791,-0.00000351
 ,0.00000828,-0.00000752,-0.00000012,-0.00000422,0.00000032,-0.00000116
 ,-0.00000003,0.00000045,0.00001231,0.00001905,-0.00005325,-0.00002851,
 -0.00000457,0.00006800,0.00006196,0.00001651,-0.00007102,-0.00017426,0
 .00014123,0.00039359,0.00016953,-0.00096820,-0.00039176,0.00050794,0.0
 0052340,0.00015936,0.00020608,-0.00000839,0.00000247,-0.00010937,-0.00
 867755,0.00246570,-0.00308214,0.00218428,0.00019812,0.00168394,-0.0003
 2187,-0.00011777,-0.00009838,0.00037797,-0.00025737,-0.00016111,0.0000
 1220,0.00020499,-0.00014099,-0.00000734,-0.00000803,-0.00002552,0.0000
 4566,-0.00000593,0.00016600,-0.00034300,0.00912489,-0.00378419,-0.3311
 3406,0.01229133,-0.08439314,-0.02014385,-0.00203840,0.00519130,0.00035
 054,0.00012550,0.00021535,-0.00000282,0.00000153,0.00000145,-0.0000041
 8,-0.00000207,0.,0.00000436,0.00000065,-0.00000293,0.00000287,-0.00000
 059,0.00000069,0.00000207,0.00000045,-0.00000162,0.00000245,0.00000167
 ,0.00000009,0.00000689,-0.00000144,-0.00000229,0.00000735,-0.00000190,
 -0.00000299,-0.00000739,0.00001423,-0.00000584,0.00001975,-0.00025387,
 0.00006060,0.00022024,0.00044954,-0.00107721,0.00001404,-0.00016446,0.
 00017443,0.00107866,0.00023328,-0.00009402,0.00037697,-0.00061781,-0.0
 0095816,0.35623139,-0.00000078,0.00001637,0.00001710,0.00000512,-0.000
 01626,-0.00000698,-0.00001221,-0.00000198,-0.00001303,0.00000077,0.000
 00721,0.00001753,0.00000037,-0.00000251,-0.00000285,0.00003801,-0.0000
 5199,-0.00002257,0.00000281,0.00007439,0.00011646,-0.00002440,-0.00005
 784,-0.00016744,-0.00000004,-0.00001842,0.00001263,0.00000495,0.000014
 87,-0.00000263,-0.00000377,0.,0.00000477,-0.00001536,0.00000505,-0.000
 01479,-0.00000021,0.00012067,0.00004189,-0.00011181,-0.00010847,-0.000
 11926,0.00008116,0.00034465,0.00033244,-0.00042276,-0.00078897,0.00012
 896,-0.00105369,-0.00014115,0.00114302,0.00047489,-0.00002237,-0.00048
 200,0.00013474,-0.00013055,0.00005697,-0.02129573,0.00114938,-0.008765
 95,0.00031417,0.00274693,0.00081758,-0.00034256,-0.00013671,-0.0000220
 2,0.00012212,-0.00011055,-0.00019132,-0.00020168,-0.00032761,0.0004403
 0,0.00000969,0.00003828,0.00002363,0.00376071,0.00133010,-0.00401272,0
 .03366736,-0.01929127,0.01845789,0.01362199,-0.04071766,0.00197584,-0.
 00490188,0.00382074,0.00170298,-0.00039459,0.00042006,-0.00051887,0.00
 000155,-0.00000252,-0.00000190,0.00000144,0.00000793,-0.00000007,0.000
 00084,0.00000168,-0.00000074,0.00000215,-0.00000274,0.00000278,0.00000
 031,0.00000005,-0.00000014,0.00000271,-0.00000081,0.00000161,-0.000005
 67,0.00000687,-0.00000277,0.00000745,-0.00000480,0.00000683,-0.0001026
 8,-0.00007206,0.00002532,-0.00032200,0.00010679,0.00019507,-0.00132004
 ,0.00030070,0.00013442,0.00000402,-0.00011299,-0.00003335,0.00043395,0
 .00022596,-0.00021500,-0.00040297,-0.00273585,-0.00247502,-0.02175844,
 0.05411743,0.00000010,-0.00000672,-0.00003421,-0.00000793,0.00000661,0
 .00002075,0.00000902,-0.00000615,0.00002463,-0.00000413,0.00001189,-0.
 00003033,0.00000070,-0.00000035,0.00000425,-0.00001998,-0.00000996,-0.
 00000119,0.00000388,-0.00000135,-0.00004695,0.00000150,0.00000107,0.00
 005731,-0.00000563,0.00001761,0.00002065,0.00000076,-0.00002235,-0.000
 02379,-0.00000239,0.00000369,0.00000289,0.00001682,0.00001575,0.000049
 15,0.00000162,-0.00004545,-0.00010065,0.00005737,0.00005865,0.00013312
 ,0.00004710,0.00002071,-0.00033795,0.00008848,-0.00018028,-0.00003849,
 -0.00205944,0.00005000,0.00105519,0.00069538,-0.00009604,-0.00012216,0
 .00003142,-0.00000398,0.00003447,-0.02471192,0.00042895,-0.00472851,0.
 00209198,0.00151311,0.00172775,0.00010530,-0.00019784,-0.00007929,0.00
 006944,0.00010266,0.00018720,0.00006659,0.00012589,-0.00019483,-0.0000
 1114,-0.00002558,-0.00000180,-0.00189868,-0.00049738,0.00268894,-0.010
 49107,0.01013367,-0.00246388,-0.09137987,-0.00038315,-0.07279361,0.038
 31600,0.00094033,-0.00487260,0.00181058,-0.00013713,0.00391416,-0.0000
 0349,0.00000126,0.00000489,-0.00000136,0.00000472,-0.00000095,0.000002
 04,0.00000011,-0.00000297,-0.00000065,-0.00000152,-0.00000228,0.000000
 78,-0.00000042,-0.00000178,0.00000257,0.00000097,0.00000002,0.00000376
 ,0.00000091,-0.00000263,0.00000572,-0.00000818,0.00000570,0.00003119,0
 .00001923,-0.00004157,0.00017202,-0.00008558,-0.00008663,0.00075107,-0
 .00012771,-0.00009391,0.00016758,-0.00000533,0.00012941,0.00059347,-0.
 00002303,-0.00053702,-0.00022061,-0.00300770,-0.00283945,0.08567403,-0
 .00858462,0.07941893\\0.00170189,-0.02059283,-0.00284785,0.02559846,0.
 01691976,-0.00641601,0.00546623,-0.03247893,0.01298975,0.00435928,0.03
 099217,0.02004058,-0.01160636,-0.02608017,-0.01207364,0.01196001,-0.01
 684403,-0.00666580,-0.01329632,0.01337116,-0.00649854,0.01293030,-0.00
 237861,0.01728772,0.00752105,0.02574829,0.01972279,0.00750400,0.016998
 26,0.01031045,-0.00279019,-0.03686343,-0.00918862,-0.03342354,0.020484
 67,-0.01106784,-0.00422751,-0.00723721,-0.02478814,-0.02857408,-0.0022
 3151,0.01592155,0.01922011,0.01406823,0.00738959,-0.00394732,-0.000180
 71,-0.01353042,0.01055493,0.02550475,0.02644871,-0.00394744,-0.0233209
 0,0.01404882,0.00815917,0.01924617,-0.01729226,-0.03516304,0.00441492,
 0.01213792,0.02147442,0.00242100,-0.02819155,-0.01355892,-0.01125838,0
 .02573111,0.00681501,-0.01828637,0.01098395,-0.00417793,-0.02192127,-0
 .00175416,-0.00449524,0.03367766,0.00457042,0.00490992,-0.02475399,0.0
 0148400,-0.00373580,0.02907539,0.00871319,0.04528022,-0.00807627,-0.02
 269928,-0.01167869,0.00018383,0.00574988,-0.00081285,-0.00345093,-0.00
 249026,-0.00012639,0.00068595,0.00013299,0.00333185,0.00491502,-0.0169
 5494,-0.01974696,-0.00298401,-0.00128047,0.01758632,0.00095296,0.00190
 942,-0.01645759,-0.00024674,0.00137587,0.02200676,0.00401578,-0.002557
 28,-0.02086317,-0.00216918,0.00131251,0.01698792,0.00183926,-0.0057377
 4,-0.01116862,-0.00744927,-0.01283926,0.01657265,0.00133449,-0.0083707
 2,-0.02124646,0.00263864,0.00092111,0.01809528,-0.00078913,0.00276505,
 -0.02152254,-0.00091208,-0.00524367,0.01713826,-0.00003274,0.00000459,
 -0.01860708,0.00105034,-0.00346350\\\@


 VIRTUE IS LEARNED AT YOUR MOTHER'S KNEE,
 VICES ARE PICKED UP AT SOME OTHER JOINT.
 Job cpu time:  3 days 20 hours 35 minutes 14.7 seconds.
 File lengths (MBytes):  RWF=   2348 Int=      0 D2E=      0 Chk=     43 Scr=      1
 Normal termination of Gaussian 09 at Fri Feb 12 10:31:15 2016.
Gaussian '09 finished on node013 at Fri Feb 12 10:31:15 EST 2016.
