Gaussian '09 started on node026 at Wed Mar 23 18:49:23 EDT 2016.
 Entering Gaussian System, Link 0=/usr/local/gaussian/g09/g09
 Initial command:
 /usr/local/gaussian/g09/l1.exe /home/srmcgrat/thesis/gaussian/cellobiose/320K/8249ps/1/2dp/gaussian838/Gau-874.inp -scrdir=/home/srmcgrat/thesis/gaussian/cellobiose/320K/8249ps/1/2dp/gaussian838/
 Entering Link 1 = /usr/local/gaussian/g09/l1.exe PID=       876.
  
 Copyright (c) 1988,1990,1992,1993,1995,1998,2003,2009,2010,
            Gaussian, Inc.  All Rights Reserved.
  
 This is part of the Gaussian(R) 09 program.  It is based on
 the Gaussian(R) 03 system (copyright 2003, Gaussian, Inc.),
 the Gaussian(R) 98 system (copyright 1998, Gaussian, Inc.),
 the Gaussian(R) 94 system (copyright 1995, Gaussian, Inc.),
 the Gaussian 92(TM) system (copyright 1992, Gaussian, Inc.),
 the Gaussian 90(TM) system (copyright 1990, Gaussian, Inc.),
 the Gaussian 88(TM) system (copyright 1988, Gaussian, Inc.),
 the Gaussian 86(TM) system (copyright 1986, Carnegie Mellon
 University), and the Gaussian 82(TM) system (copyright 1983,
 Carnegie Mellon University). Gaussian is a federally registered
 trademark of Gaussian, Inc.
  
 This software contains proprietary and confidential information,
 including trade secrets, belonging to Gaussian, Inc.
  
 This software is provided under written license and may be
 used, copied, transmitted, or stored only in accord with that
 written license.
  
 The following legend is applicable only to US Government
 contracts under FAR:
  
                    RESTRICTED RIGHTS LEGEND
  
 Use, reproduction and disclosure by the US Government is
 subject to restrictions as set forth in subparagraphs (a)
 and (c) of the Commercial Computer Software - Restricted
 Rights clause in FAR 52.227-19.
  
 Gaussian, Inc.
 340 Quinnipiac St., Bldg. 40, Wallingford CT 06492
  
  
 ---------------------------------------------------------------
 Warning -- This program may not be used in any manner that
 competes with the business of Gaussian, Inc. or will provide
 assistance to any competitor of Gaussian, Inc.  The licensee
 of this program is prohibited from giving any competitor of
 Gaussian, Inc. access to this program.  By using this program,
 the user acknowledges that Gaussian, Inc. is engaged in the
 business of creating and licensing software in the field of
 computational chemistry and represents and warrants to the
 licensee that it is not a competitor of Gaussian, Inc. and that
 it will not use this program in any manner prohibited above.
 ---------------------------------------------------------------
  

 Cite this work as:
 Gaussian 09, Revision B.01,
 M. J. Frisch, G. W. Trucks, H. B. Schlegel, G. E. Scuseria, 
 M. A. Robb, J. R. Cheeseman, G. Scalmani, V. Barone, B. Mennucci, 
 G. A. Petersson, H. Nakatsuji, M. Caricato, X. Li, H. P. Hratchian, 
 A. F. Izmaylov, J. Bloino, G. Zheng, J. L. Sonnenberg, M. Hada, 
 M. Ehara, K. Toyota, R. Fukuda, J. Hasegawa, M. Ishida, T. Nakajima, 
 Y. Honda, O. Kitao, H. Nakai, T. Vreven, J. A. Montgomery, Jr., 
 J. E. Peralta, F. Ogliaro, M. Bearpark, J. J. Heyd, E. Brothers, 
 K. N. Kudin, V. N. Staroverov, T. Keith, R. Kobayashi, J. Normand, 
 K. Raghavachari, A. Rendell, J. C. Burant, S. S. Iyengar, J. Tomasi, 
 M. Cossi, N. Rega, J. M. Millam, M. Klene, J. E. Knox, J. B. Cross, 
 V. Bakken, C. Adamo, J. Jaramillo, R. Gomperts, R. E. Stratmann, 
 O. Yazyev, A. J. Austin, R. Cammi, C. Pomelli, J. W. Ochterski, 
 R. L. Martin, K. Morokuma, V. G. Zakrzewski, G. A. Voth, 
 P. Salvador, J. J. Dannenberg, S. Dapprich, A. D. Daniels, 
 O. Farkas, J. B. Foresman, J. V. Ortiz, J. Cioslowski, 
 and D. J. Fox, Gaussian, Inc., Wallingford CT, 2010.
 
 ******************************************
 Gaussian 09:  EM64L-G09RevB.01 12-Aug-2010
                23-Mar-2016 
 ******************************************
 -------------------------------------------------
 # freq=raman b3lyp/6-31+g(2d,p) geom=connectivity
 -------------------------------------------------
 1/10=4,30=1,38=1,57=2/1,3;
 2/12=2,17=6,18=5,40=1/2;
 3/5=1,6=6,7=112,11=2,16=1,25=1,30=1,71=2,74=-5/1,2,3;
 4//1;
 5/5=2,38=5,98=1/2;
 8/6=4,10=90,11=11/1;
 10/13=10,15=4/2;
 11/6=3,8=1,9=11,15=111,16=1/1,2,10;
 10/6=1/2;
 6/7=2,8=2,9=2,10=2,18=1,28=1/1;
 7/8=1,10=1,25=1/1,2,3,16;
 1/10=4,30=1/3;
 99//99;
 -----------------
 320 8249/8249.com
 -----------------
 Symbolic Z-matrix:
 Charge =  0 Multiplicity = 1
 O                     7.792     7.763     12.312 
 C                     8.322     8.088     13.606 
 C                     7.718     9.39      14.105 
 O                     7.937     10.463    13.178 
 H                     7.86      9.898     12.357 
 C                     8.262     9.884     15.435 
 O                     7.524     11.02     15.908 
 H                     7.756     11.173    16.868 
 C                     8.524     5.655     14.432 
 O                     8.058     5.021     13.232 
 H                     8.269     4.045     13.18 
 C                     8.059     7.075     14.708 
 O                     8.699     7.489     15.924 
 C                     8.182     8.731     16.423 
 O                     8.863     9.104     17.629 
 C                     8.287     8.544     18.819 
 C                     8.856     7.234     19.337 
 O                     8.693     6.237     18.318 
 H                     8.781     6.636     17.405 
 C                     8.416     6.776     20.718 
 O                     9.369     5.771     21.094 
 H                     9.272     5.643     22.081 
 C                     7.751     10.927    19.654 
 O                     8.22      11.717    18.551 
 H                     8.235     12.664    18.874 
 C                     8.462     9.606     19.893 
 O                     7.801     9.088     21.056 
 C                     8.511     7.984     21.636 
 O                     7.907     7.669     22.898 
 H                     8.59313   7.5064    23.54944 
 H                     7.83984   11.51553   20.54318 
 H                     6.71355   10.71954   19.49416 
 H                     9.49995   9.76905   20.09543 
 H                     7.23942   8.40727   18.64938 
 H                     9.91093   7.39386   19.41737 
 H                     7.42202   6.38049   20.69618 
 H                     9.53738   8.24916   21.78141 
 H                     8.2225    5.0472    15.25939 
 H                     9.59354   5.66287   14.40168 
 H                     8.51502   7.60916   11.69948 
 H                     7.00369   7.04723   14.88248 
 H                     9.37993   8.2187    13.5132 
 H                     6.66257   9.24783   14.20869 
 H                     9.28712   10.16361   15.30913 
 H                     7.15041   8.58      16.66365 
 

 GradGradGradGradGradGradGradGradGradGradGradGradGradGradGradGradGradGrad
 Berny optimization.
 Initialization pass.
 Trust Radius=3.00D-01 FncErr=1.00D-07 GrdErr=1.00D-07
 Number of steps in this run=      2 maximum allowed number of steps=      2.
 GradGradGradGradGradGradGradGradGradGradGradGradGradGradGradGradGradGrad

                          Input orientation:                          
 ---------------------------------------------------------------------
 Center     Atomic      Atomic             Coordinates (Angstroms)
 Number     Number       Type             X           Y           Z
 ---------------------------------------------------------------------
      1          8           0        7.792000    7.763000   12.312000
      2          6           0        8.322000    8.088000   13.606000
      3          6           0        7.718000    9.390000   14.105000
      4          8           0        7.937000   10.463000   13.178000
      5          1           0        7.860000    9.898000   12.357000
      6          6           0        8.262000    9.884000   15.435000
      7          8           0        7.524000   11.020000   15.908000
      8          1           0        7.756000   11.173000   16.868000
      9          6           0        8.524000    5.655000   14.432000
     10          8           0        8.058000    5.021000   13.232000
     11          1           0        8.269000    4.045000   13.180000
     12          6           0        8.059000    7.075000   14.708000
     13          8           0        8.699000    7.489000   15.924000
     14          6           0        8.182000    8.731000   16.423000
     15          8           0        8.863000    9.104000   17.629000
     16          6           0        8.287000    8.544000   18.819000
     17          6           0        8.856000    7.234000   19.337000
     18          8           0        8.693000    6.237000   18.318000
     19          1           0        8.781000    6.636000   17.405000
     20          6           0        8.416000    6.776000   20.718000
     21          8           0        9.369000    5.771000   21.094000
     22          1           0        9.272000    5.643000   22.081000
     23          6           0        7.751000   10.927000   19.654000
     24          8           0        8.220000   11.717000   18.551000
     25          1           0        8.235000   12.664000   18.874000
     26          6           0        8.462000    9.606000   19.893000
     27          8           0        7.801000    9.088000   21.056000
     28          6           0        8.511000    7.984000   21.636000
     29          8           0        7.907000    7.669000   22.898000
     30          1           0        8.593135    7.506397   23.549444
     31          1           0        7.839836   11.515532   20.543179
     32          1           0        6.713546   10.719538   19.494162
     33          1           0        9.499948    9.769053   20.095428
     34          1           0        7.239416    8.407268   18.649376
     35          1           0        9.910934    7.393858   19.417369
     36          1           0        7.422019    6.380493   20.696180
     37          1           0        9.537376    8.249161   21.781406
     38          1           0        8.222497    5.047197   15.259388
     39          1           0        9.593541    5.662874   14.401682
     40          1           0        8.515020    7.609161   11.699484
     41          1           0        7.003688    7.047228   14.882485
     42          1           0        9.379925    8.218700   13.513202
     43          1           0        6.662568    9.247832   14.208690
     44          1           0        9.287121   10.163613   15.309128
     45          1           0        7.150406    8.579998   16.663650
 ---------------------------------------------------------------------
                    Distance matrix (angstroms):
                    1          2          3          4          5
     1  O    0.000000
     2  C    1.435605   0.000000
     3  C    2.422283   1.519546   0.000000
     4  O    2.839187   2.443775   1.434789   0.000000
     5  H    2.136557   2.247119   1.825851   0.999597   0.000000
     6  C    3.804296   2.564070   1.519497   2.352640   3.104172
     7  O    4.859124   3.812169   2.438308   2.816686   3.739168
     8  H    5.690917   4.525287   3.288571   3.762042   4.688876
     9  C    3.077968   2.577318   3.834943   5.003394   4.769651
    10  O    2.904431   3.100977   4.468321   5.443613   4.958826
    11  H    3.847659   4.065727   5.452362   6.426582   5.924713
    12  C    2.507080   1.519784   2.416426   3.719453   3.679148
    13  O    3.734203   2.423645   2.808011   4.118961   4.385281
    14  C    4.241397   2.892843   2.454119   3.686445   4.242397
    15  O    5.587111   4.184431   3.716369   4.745077   5.424982
    16  C    6.572369   5.233023   4.822994   5.968747   6.616123
    17  C    7.124785   5.818834   5.772106   7.014576   7.537195
    18  O    6.261990   5.076099   5.351766   6.697030   7.044880
    19  H    5.309134   4.092846   4.427695   5.764182   6.080394
    20  C    8.486718   7.232615   7.145066   8.406843   8.942166
    21  O    9.142129   7.907897   8.041709   9.312816   9.779794
    22  H   10.105353   8.871649   8.948268  10.211662  10.707705
    23  C    7.994845   6.705540   5.758026   6.495265   7.370002
    24  O    7.398812   6.134580   5.043198   5.524648   6.465601
    25  H    8.202188   6.978479   5.807730   6.113724   7.089617
    26  C    7.830524   6.469180   5.839618   6.789794   7.565644
    27  O    8.843825   7.534848   6.958052   7.998250   8.736829
    28  C    9.354292   8.032897   7.702055   8.832479   9.496686
    29  O   10.587042   9.310695   8.961831  10.113641  10.774197
    30  H   11.268887   9.964128   9.670126  10.804576  11.468568
    31  H    9.046330   7.752735   6.781067   7.440640   8.344479
    32  H    7.841405   6.646998   5.640893   6.438677   7.275189
    33  H    8.217243   6.806334   6.261330   7.125670   7.911342
    34  H    6.393963   5.168129   4.673987   5.886307   6.496260
    35  H    7.423774   6.064533   6.083980   7.228124   7.766973
    36  H    8.505450   7.348211   7.251785   8.570595   9.061270
    37  H    9.641179   8.266823   7.971126   9.026676   9.713480
    38  H    4.030882   3.462669   4.521844   5.809011   5.664411
    39  H    3.467398   2.851519   4.182958   5.223288   5.012203
    40  H    0.960000   1.975183   3.097279   3.265657   2.469851
    41  H    2.782294   2.109637   2.569690   3.929865   3.903619
    42  H    2.042561   1.070000   2.117584   2.689103   2.543034
    43  H    2.660409   2.112382   1.070000   2.040375   2.298982
    44  H    4.120814   2.853116   2.123803   2.540504   3.289724
    45  H    4.473923   3.311181   2.743165   4.039082   4.559374
                    6          7          8          9         10
     6  C    0.000000
     7  O    1.434876   0.000000
     8  H    1.992748   0.999416   0.000000
     9  C    4.354204   5.653477   6.080481   0.000000
    10  O    5.342621   6.590458   7.152538   1.434961   0.000000
    11  H    6.259313   7.526462   8.041946   2.055390   0.999900
    12  C    2.908646   4.158034   4.642307   1.519474   2.529327
    13  O    2.483166   3.721403   3.918194   2.370706   3.707933
    14  C    1.520511   2.436742   2.518505   3.680057   4.895095
    15  O    2.404836   2.902726   2.466846   4.715011   6.054133
    16  C    3.639736   3.897007   3.316625   5.258161   6.608974
    17  C    4.754045   5.278831   4.777204   5.163573   6.542568
    18  O    4.668839   5.481948   5.229203   3.932974   5.267758
    19  H    3.834027   4.800054   4.682239   3.141200   4.532646
    20  C    6.131351   6.476365   5.881472   6.386087   7.697297
    21  O    7.082831   7.605960   7.045740   6.716377   8.005764
    22  H    7.948302   8.370995   7.749485   7.685496   8.953518
    23  C    4.375949   3.754024   2.796844   7.460616   8.730244
    24  O    3.615399   2.820580   1.828584   7.335286   8.553036
    25  H    4.422200   3.464883   2.544908   8.303070   9.501523
    26  C    4.471135   4.331220   3.479159   6.740680   8.096565
    27  O    5.695768   5.505566   4.678525   7.495705   8.821650
    28  C    6.490331   6.557549   5.785635   7.571131   8.922544
    29  O    7.792857   7.761185   6.975795   8.724107  10.023286
    30  H    8.462083   8.478214   7.667233   9.303775  10.626063
    31  H    5.378997   4.672278   3.692058   8.494729   9.781609
    32  H    4.424097   3.688858   2.861655   7.385986   8.572956
    33  H    4.823413   4.796227   3.927940   7.067696   8.469349
    34  H    3.682204   3.797697   3.330080   5.197248   6.440873
    35  H    4.977857   5.582297   5.042315   5.459040   6.879144
    36  H    6.376531   6.667990   6.142852   6.401613   7.613585
    37  H    6.676537   6.799127   5.988630   7.859412   9.257533
    38  H    4.840152   6.048386   6.350647   1.070000   2.034219
    39  H    4.545179   5.937238   6.310370   1.070000   2.034219
    40  H    4.380981   5.507046   6.323814   3.359386   3.042376
    41  H    3.152126   4.135858   4.640069   2.110115   2.818027
    42  H    2.777821   4.126354   4.756016   2.854708   3.471577
    43  H    2.113464   2.601980   3.460318   4.052559   4.557111
    44  H    1.070000   2.049547   2.406922   4.656104   5.680816
    45  H    2.108470   2.581509   2.670611   3.927166   5.026571
                   11         12         13         14         15
    11  H    0.000000
    12  C    3.399968   0.000000
    13  O    4.424429   1.435149   0.000000
    14  C    5.699405   2.387193   1.434871   0.000000
    15  O    6.763129   3.646299   2.354176   1.434338   0.000000
    16  C    7.213851   4.371529   3.108664   2.405579   1.435784
    17  C    6.958659   4.699801   3.426112   3.344650   2.532630
    18  O    5.602114   3.759827   2.701625   3.173670   2.953525
    19  H    4.982575   2.826272   1.711051   2.390010   2.479501
    20  C    8.018816   6.028014   4.854987   4.724808   3.893753
    21  O    8.174379   6.648121   5.489018   5.655865   4.834372
    22  H    9.098759   7.608096   6.453270   6.537340   5.653858
    23  C    9.462712   6.276598   5.160567   3.930336   2.942872
    24  O    9.365342   6.028494   5.000655   3.666882   2.844521
    25  H   10.330051   6.973052   5.974816   4.634512   3.823350
    26  C    8.719308   5.783822   4.504533   3.589558   2.353402
    27  O    9.363880   6.664521   5.449828   4.662328   3.587817
    28  C    9.331571   7.001983   5.736490   5.276516   4.175446
    29  O   10.378051   8.212919   7.021135   6.567274   5.543963
    30  H   10.936713   8.868063   7.626199   7.242575   6.138145
    31  H   10.498068   7.335916   6.187724   4.984633   3.918518
    32  H    9.318667   6.164435   5.208115   3.942421   3.272453
    33  H    9.061080   6.193435   4.820889   4.037483   2.632730
    34  H    7.071315   4.240412   3.225100   2.439265   2.040252
    35  H    7.267433   5.070453   3.698847   3.707211   2.687195
    36  H    7.916114   6.061880   5.062921   4.935841   4.347587
    37  H    9.657532   7.321019   5.965729   5.548128   4.292785
    38  H    2.308769   2.107782   2.575106   3.863424   4.741620
    39  H    2.421660   2.107782   2.540156   3.935933   4.773952
    40  H    3.867260   3.089410   4.230228   4.866316   6.124933
    41  H    3.675982   1.070000   2.038136   2.568403   3.902653
    42  H    4.331853   2.116704   2.609228   3.188166   4.241552
    43  H    5.541506   2.630690   3.191055   2.734769   4.069535
    44  H    6.557986   3.377746   2.806690   2.124708   2.585434
    45  H    5.826944   2.629663   2.033593   1.070000   2.034565
                   16         17         18         19         20
    16  C    0.000000
    17  C    1.519271   0.000000
    18  O    2.395430   1.434900   0.000000
    19  H    2.425674   2.023821   1.000257   0.000000
    20  C    2.597819   1.520041   2.475328   3.335985   0.000000
    21  O    3.746449   2.343200   2.894876   3.834409   1.435134
    22  H    4.475117   3.199043   3.853342   4.805425   1.968297
    23  C    2.581319   3.867785   4.966725   4.952937   4.336487
    24  O    3.185003   4.595605   5.505308   5.238759   5.398869
    25  H    4.120695   5.484971   6.467243   6.228392   6.172653
    26  C    1.520508   2.467946   3.726144   3.887519   2.948159
    27  O    2.352935   2.739581   4.052223   4.505830   2.416157
    28  C    2.880844   2.442729   3.754232   4.448749   1.520202
    29  O    4.189065   3.710869   4.862594   5.657209   2.410172
    30  H    4.852570   4.229419   5.384176   6.208629   2.929493
    31  H    3.464498   4.562781   5.791563   5.877396   4.777624
    32  H    2.768496   4.094361   5.039320   5.031327   4.466276
    33  H    2.145057   2.723303   4.035569   4.191815   3.243595
    34  H    1.070000   2.112517   2.633017   2.657506   2.885237
    35  H    2.077988   1.070000   2.007560   2.429142   2.075624
    36  H    2.992116   2.152242   2.700319   3.569871   1.070000
    37  H    3.228965   2.733120   4.093524   4.725179   2.135068
    38  H    4.990254   4.670156   3.315436   2.727613   5.729106
    39  H    5.433289   5.231612   4.059327   3.259925   6.520853
    40  H    7.184249   7.654324   6.761602   5.794023   9.057461
    41  H    4.402655   4.827903   3.913184   3.113042   6.010111
    42  H    5.426951   5.929651   5.242622   4.243789   7.410780
    43  H    4.938534   5.930112   5.483994   4.639593   7.180223
    44  H    3.992818   4.999226   4.982428   4.134356   6.441326
    45  H    2.436940   3.444933   3.256702   2.643400   4.614530
                   21         22         23         24         25
    21  O    0.000000
    22  H    0.999981   0.000000
    23  C    5.592482   6.010360   0.000000
    24  O    6.568254   7.103596   1.435503   0.000000
    25  H    7.329925   7.788110   1.964644   1.000681   0.000000
    26  C    4.119742   4.598784   1.519106   2.513135   3.231293
    27  O    3.669136   3.883618   2.313012   3.655438   4.211562
    28  C    2.434604   2.501485   3.628660   4.851515   5.441252
    29  O    2.999044   2.575925   4.600265   5.948166   6.422631
    30  H    3.105282   2.467678   5.252066   6.546209   6.970574
    31  H    5.970041   6.237196   1.070000   2.038109   2.064289
    32  H    5.839431   6.245691   1.070000   2.038109   2.545654
    33  H    4.122951   4.584624   2.143483   2.796072   3.387137
    34  H    4.178663   4.852692   2.760442   3.453339   4.377375
    35  H    2.395506   3.250949   4.147819   4.722225   5.556834
    36  H    2.078576   2.425707   4.676012   5.806623   6.592703
    37  H    2.577238   2.636713   3.858473   4.919036   5.444263
    38  H    5.990080   6.927542   7.355747   7.437809   8.430971
    39  H    6.696956   7.686072   7.661124   7.466987   8.418018
    40  H    9.610674  10.593144   8.652521   7.994039   8.780860
    41  H    6.768041   7.676960   6.195035   6.061699   6.999746
    42  H    7.966170   8.947237   6.906351   6.242030   7.057599
    43  H    8.174389   9.043076   5.801353   5.232403   5.992317
    44  H    7.264056   8.142139   4.671225   3.749866   4.479644
    45  H    5.695667   6.517269   3.848549   3.814040   4.768759
                   26         27         28         29         30
    26  C    0.000000
    27  O    1.434508   0.000000
    28  C    2.381456   1.435032   0.000000
    29  O    3.618013   2.327608   1.434115   0.000000
    30  H    4.218425   3.057157   1.973859   0.960000   0.000000
    31  H    2.110955   2.481412   3.757185   4.510599   5.067371
    32  H    2.110955   2.506753   3.911711   4.724006   5.504765
    33  H    1.070000   2.067113   2.556911   3.847352   4.227547
    34  H    2.116193   2.563321   3.273531   4.363659   5.162828
    35  H    2.686858   3.163392   2.688941   4.025698   4.338583
    36  H    3.482894   2.757479   2.154153   2.596819   3.283335
    37  H    2.561937   2.060307   1.070000   2.059489   2.137580
    38  H    6.504645   7.078592   7.026324   8.082190   8.655060
    39  H    6.854429   7.695754   7.674299   8.891365   9.385144
    40  H    8.433498   9.499536   9.943585  11.215170  11.850663
    41  H    5.811992   6.550782   6.982800   8.090183   8.823455
    42  H    6.593103   7.755159   8.172513   9.515572  10.092204
    43  H    5.973075   6.943143   7.757507   8.918825   9.695843
    44  H    4.690804   6.032582   6.736646   8.106714   8.685921
    45  H    3.633409   4.469237   5.189479   6.345823   7.116758
                   31         32         33         34         35
    31  H    0.000000
    32  H    1.732793   0.000000
    33  H    2.450845   3.004826   0.000000
    34  H    3.688943   2.517300   3.009241   0.000000
    35  H    4.748167   4.614037   2.504042   2.958686   0.000000
    36  H    5.154280   4.557861   4.020079   2.886272   2.976065
    37  H    3.883816   4.394117   2.270241   3.887831   2.541605
    38  H    8.360875   7.237797   6.878597   4.873248   5.064233
    39  H    8.662971   7.732890   7.020556   5.578216   5.315464
    40  H    9.691571   8.583518   8.725085   7.110917   7.846062
    41  H    7.260051   5.902340   6.388617   4.011825   5.397908
    42  H    7.915905   7.009683   6.763409   5.567551   5.985109
    43  H    6.830386   5.486779   6.555615   4.556204   6.412445
    44  H    5.596214   4.944376   4.807249   4.293612   4.993830
    45  H    4.913595   3.574952   4.325656   1.995211   4.075587
                   36         37         38         39         40
    36  H    0.000000
    37  H    3.023965   0.000000
    38  H    5.654835   7.383644   0.000000
    39  H    6.697103   7.819997   1.730457   0.000000
    40  H    9.145754  10.153815   4.395697   3.500445   0.000000
    41  H    5.866736   7.447102   2.372273   2.975726   3.568107
    42  H    7.668610   8.269759   3.800953   2.714273   2.099803
    43  H    7.133437   8.161366   4.602465   4.634627   3.523199
    44  H    6.841852   6.754120   5.226243   4.601522   4.488975
    45  H    4.601401   5.656722   3.949938   4.426626   5.239050
                   41         42         43         44         45
    41  H    0.000000
    42  H    2.982245   0.000000
    43  H    2.326590   2.987783   0.000000
    44  H    3.886894   2.648896   2.989631   0.000000
    45  H    2.354455   3.876418   2.590525   2.984647   0.000000
 Stoichiometry    C12H22O11
 Framework group  C1[X(C12H22O11)]
 Deg. of freedom   129
 Full point group                 C1      NOp   1
 Largest Abelian subgroup         C1      NOp   1
 Largest concise Abelian subgroup C1      NOp   1
                         Standard orientation:                         
 ---------------------------------------------------------------------
 Center     Atomic      Atomic             Coordinates (Angstroms)
 Number     Number       Type             X           Y           Z
 ---------------------------------------------------------------------
      1          8           0        5.047828   -0.380269   -0.310208
      2          6           0        3.723957   -0.151008    0.195525
      3          6           0        3.219708    1.208101   -0.260081
      4          8           0        4.108998    2.261544    0.137461
      5          1           0        4.946474    1.726972    0.027636
      6          6           0        1.855037    1.602434    0.279407
      7          8           0        1.386825    2.814696   -0.328925
      8          1           0        0.413988    2.918162   -0.124679
      9          6           0        2.950963   -2.605136    0.046175
     10          8           0        4.185858   -3.150806   -0.440025
     11          1           0        4.252886   -4.144668   -0.353156
     12          6           0        2.660334   -1.142649   -0.246174
     13          8           0        1.407278   -0.837807    0.383567
     14          6           0        0.900687    0.450616    0.006491
     15          8           0       -0.343168    0.709721    0.672085
     16          6           0       -1.492184    0.205825   -0.026002
     17          6           0       -2.001878   -1.176181    0.346097
     18          8           0       -0.952051   -2.124223    0.105223
     19          1           0       -0.054096   -1.722461    0.286270
     20          6           0       -3.350206   -1.600102   -0.213211
     21          8           0       -3.742673   -2.726399    0.584934
     22          1           0       -4.720915   -2.859723    0.426092
     23          6           0       -2.362045    2.621562   -0.292017
     24          8           0       -1.300944    3.365607    0.325342
     25          1           0       -1.647880    4.296444    0.445928
     26          6           0       -2.599095    1.215717    0.232474
     27          8           0       -3.718443    0.764919   -0.543192
     28          6           0       -4.301438   -0.432169   -0.008017
     29          8           0       -5.527253   -0.690923   -0.705948
     30          1           0       -6.204095   -0.952913   -0.077580
     31          1           0       -3.268724    3.176637   -0.170667
     32          1           0       -2.151402    2.552433   -1.338798
     33          1           0       -2.851186    1.239937    1.272071
     34          1           0       -1.273088    0.208314   -1.073328
     35          1           0       -2.132737   -1.154979    1.407853
     36          1           0       -3.274618   -1.863915   -1.247421
     37          1           0       -4.498622   -0.304130    1.035833
     38          1           0        2.153163   -3.184812   -0.369025
     39          1           0        2.933804   -2.734386    1.108201
     40          1           0        5.631469   -0.614119    0.415242
     41          1           0        2.533381   -1.037718   -1.303422
     42          1           0        3.766639   -0.155786    1.264663
     43          1           0        3.166325    1.200979   -1.328725
     44          1           0        1.928475    1.750158    1.336613
     45          1           0        0.709688    0.429045   -1.046103
 ---------------------------------------------------------------------
 Rotational constants (GHZ):      0.4057142      0.1477942      0.1113061
 Standard basis: 6-31+G(2d,p) (6D, 7F)
 There are   685 symmetry adapted basis functions of A   symmetry.
 Integral buffers will be    131072 words long.
 Raffenetti 2 integral format.
 Two-electron integral symmetry is turned on.
   685 basis functions,  1028 primitive gaussians,   685 cartesian basis functions
    91 alpha electrons       91 beta electrons
       nuclear repulsion energy      2292.7864924021 Hartrees.
 NAtoms=   45 NActive=   45 NUniq=   45 SFac= 1.00D+00 NAtFMM=   50 NAOKFM=F Big=F
 One-electron integrals computed using PRISM.
 NBasis=   685 RedAO= T  NBF=   685
 NBsUse=   685 1.00D-06 NBFU=   685
 Harris functional with IExCor=  402 diagonalized for initial guess.
 ExpMin= 4.38D-02 ExpMax= 5.48D+03 ExpMxC= 8.25D+02 IAcc=2 IRadAn=         0 AccDes= 0.00D+00
 HarFok:  IExCor=  402 AccDes= 0.00D+00 IRadAn=         0 IDoV= 1
 ScaDFX=  1.000000  1.000000  1.000000  1.000000
 FoFCou: FMM=F IPFlag=           0 FMFlag=      100000 FMFlg1=           0
         NFxFlg=           0 DoJE=T BraDBF=F KetDBF=T FulRan=T
         Omega=  0.000000  0.000000  1.000000  0.000000  0.000000 ICntrl=     500 IOpCl=  0
         NMat0=    1 NMatS0=    1 NMatT0=    0 NMatD0=    1 NMtDS0=    0 NMtDT0=    0
         I1Cent=           4 NGrid=           0.
 Petite list used in FoFCou.
 Initial guess orbital symmetries:
       Occupied  (A) (A) (A) (A) (A) (A) (A) (A) (A) (A) (A) (A)
                 (A) (A) (A) (A) (A) (A) (A) (A) (A) (A) (A) (A)
                 (A) (A) (A) (A) (A) (A) (A) (A) (A) (A) (A) (A)
                 (A) (A) (A) (A) (A) (A) (A) (A) (A) (A) (A) (A)
                 (A) (A) (A) (A) (A) (A) (A) (A) (A) (A) (A) (A)
                 (A) (A) (A) (A) (A) (A) (A) (A) (A) (A) (A) (A)
                 (A) (A) (A) (A) (A) (A) (A) (A) (A) (A) (A) (A)
                 (A) (A) (A) (A) (A) (A) (A)
       Virtual   (A) (A) (A) (A) (A) (A) (A) (A) (A) (A) (A) (A)
                 (A) (A) (A) (A) (A) (A) (A) (A) (A) (A) (A) (A)
                 (A) (A) (A) (A) (A) (A) (A) (A) (A) (A) (A) (A)
                 (A) (A) (A) (A) (A) (A) (A) (A) (A) (A) (A) (A)
                 (A) (A) (A) (A) (A) (A) (A) (A) (A) (A) (A) (A)
                 (A) (A) (A) (A) (A) (A) (A) (A) (A) (A) (A) (A)
                 (A) (A) (A) (A) (A) (A) (A) (A) (A) (A) (A) (A)
                 (A) (A) (A) (A) (A) (A) (A) (A) (A) (A) (A) (A)
                 (A) (A) (A) (A) (A) (A) (A) (A) (A) (A) (A) (A)
                 (A) (A) (A) (A) (A) (A) (A) (A) (A) (A) (A) (A)
                 (A) (A) (A) (A) (A) (A) (A) (A) (A) (A) (A) (A)
                 (A) (A) (A) (A) (A) (A) (A) (A) (A) (A) (A) (A)
                 (A) (A) (A) (A) (A) (A) (A) (A) (A) (A) (A) (A)
                 (A) (A) (A) (A) (A) (A) (A) (A) (A) (A) (A) (A)
                 (A) (A) (A) (A) (A) (A) (A) (A) (A) (A) (A) (A)
                 (A) (A) (A) (A) (A) (A) (A) (A) (A) (A) (A) (A)
                 (A) (A) (A) (A) (A) (A) (A) (A) (A) (A) (A) (A)
                 (A) (A) (A) (A) (A) (A) (A) (A) (A) (A) (A) (A)
                 (A) (A) (A) (A) (A) (A) (A) (A) (A) (A) (A) (A)
                 (A) (A) (A) (A) (A) (A) (A) (A) (A) (A) (A) (A)
                 (A) (A) (A) (A) (A) (A) (A) (A) (A) (A) (A) (A)
                 (A) (A) (A) (A) (A) (A) (A) (A) (A) (A) (A) (A)
                 (A) (A) (A) (A) (A) (A) (A) (A) (A) (A) (A) (A)
                 (A) (A) (A) (A) (A) (A) (A) (A) (A) (A) (A) (A)
                 (A) (A) (A) (A) (A) (A) (A) (A) (A) (A) (A) (A)
                 (A) (A) (A) (A) (A) (A) (A) (A) (A) (A) (A) (A)
                 (A) (A) (A) (A) (A) (A) (A) (A) (A) (A) (A) (A)
                 (A) (A) (A) (A) (A) (A) (A) (A) (A) (A) (A) (A)
                 (A) (A) (A) (A) (A) (A) (A) (A) (A) (A) (A) (A)
                 (A) (A) (A) (A) (A) (A) (A) (A) (A) (A) (A) (A)
                 (A) (A) (A) (A) (A) (A) (A) (A) (A) (A) (A) (A)
                 (A) (A) (A) (A) (A) (A) (A) (A) (A) (A) (A) (A)
                 (A) (A) (A) (A) (A) (A) (A) (A) (A) (A) (A) (A)
                 (A) (A) (A) (A) (A) (A) (A) (A) (A) (A) (A) (A)
                 (A) (A) (A) (A) (A) (A) (A) (A) (A) (A) (A) (A)
                 (A) (A) (A) (A) (A) (A) (A) (A) (A) (A) (A) (A)
                 (A) (A) (A) (A) (A) (A) (A) (A) (A) (A) (A) (A)
                 (A) (A) (A) (A) (A) (A) (A) (A) (A) (A) (A) (A)
                 (A) (A) (A) (A) (A) (A) (A) (A) (A) (A) (A) (A)
                 (A) (A) (A) (A) (A) (A) (A) (A) (A) (A) (A) (A)
                 (A) (A) (A) (A) (A) (A) (A) (A) (A) (A) (A) (A)
                 (A) (A) (A) (A) (A) (A) (A) (A) (A) (A) (A) (A)
                 (A) (A) (A) (A) (A) (A) (A) (A) (A) (A) (A) (A)
                 (A) (A) (A) (A) (A) (A) (A) (A) (A) (A) (A) (A)
                 (A) (A) (A) (A) (A) (A) (A) (A) (A) (A) (A) (A)
                 (A) (A) (A) (A) (A) (A) (A) (A) (A) (A) (A) (A)
                 (A) (A) (A) (A) (A) (A) (A) (A) (A) (A) (A) (A)
                 (A) (A) (A) (A) (A) (A) (A) (A) (A) (A) (A) (A)
                 (A) (A) (A) (A) (A) (A) (A) (A) (A) (A) (A) (A)
                 (A) (A) (A) (A) (A) (A)
 The electronic state of the initial guess is 1-A.
 Requested convergence on RMS density matrix=1.00D-08 within 128 cycles.
 Requested convergence on MAX density matrix=1.00D-06.
 Requested convergence on             energy=1.00D-06.
 No special actions if energy rises.
 SCF Done:  E(RB3LYP) =  -1297.99750392     A.U. after   13 cycles
             Convg  =    0.6595D-08             -V/T =  2.0064
 Range of M.O.s used for correlation:     1   685
 NBasis=   685 NAE=    91 NBE=    91 NFC=     0 NFV=     0
 NROrb=    685 NOA=    91 NOB=    91 NVA=   594 NVB=   594

 **** Warning!!: The largest alpha MO coefficient is  0.91846463D+02

          Differentiating once with respect to electric field.
                with respect to dipole field.
          Electric field/nuclear overlap derivatives assumed to be zero.
          There are     3 degrees of freedom in the 1st order CPHF.  IDoFFX=0.
      3 vectors produced by pass  0 Test12= 1.80D-12 3.33D-08 XBig12= 1.21D+02 1.21D+00.
 AX will form     3 AO Fock derivatives at one time.
      3 vectors produced by pass  1 Test12= 1.80D-12 3.33D-08 XBig12= 2.43D+01 3.85D-01.
      3 vectors produced by pass  2 Test12= 1.80D-12 3.33D-08 XBig12= 1.04D+01 2.24D-01.
      3 vectors produced by pass  3 Test12= 1.80D-12 3.33D-08 XBig12= 1.10D+00 9.38D-02.
      3 vectors produced by pass  4 Test12= 1.80D-12 3.33D-08 XBig12= 2.96D-01 4.16D-02.
      3 vectors produced by pass  5 Test12= 1.80D-12 3.33D-08 XBig12= 6.25D-02 2.36D-02.
      3 vectors produced by pass  6 Test12= 1.80D-12 3.33D-08 XBig12= 1.98D-02 1.72D-02.
      3 vectors produced by pass  7 Test12= 1.80D-12 3.33D-08 XBig12= 2.85D-03 8.38D-03.
      3 vectors produced by pass  8 Test12= 1.80D-12 3.33D-08 XBig12= 5.68D-04 2.29D-03.
      3 vectors produced by pass  9 Test12= 1.80D-12 3.33D-08 XBig12= 1.71D-04 1.40D-03.
      3 vectors produced by pass 10 Test12= 1.80D-12 3.33D-08 XBig12= 3.39D-05 4.60D-04.
      3 vectors produced by pass 11 Test12= 1.80D-12 3.33D-08 XBig12= 9.28D-06 2.25D-04.
      3 vectors produced by pass 12 Test12= 1.80D-12 3.33D-08 XBig12= 1.25D-06 1.13D-04.
      3 vectors produced by pass 13 Test12= 1.80D-12 3.33D-08 XBig12= 4.10D-07 4.98D-05.
      3 vectors produced by pass 14 Test12= 1.80D-12 3.33D-08 XBig12= 5.17D-08 2.69D-05.
      3 vectors produced by pass 15 Test12= 1.80D-12 3.33D-08 XBig12= 1.17D-08 9.69D-06.
      3 vectors produced by pass 16 Test12= 1.80D-12 3.33D-08 XBig12= 2.01D-09 5.95D-06.
      3 vectors produced by pass 17 Test12= 1.80D-12 3.33D-08 XBig12= 1.28D-10 1.24D-06.
      3 vectors produced by pass 18 Test12= 1.80D-12 3.33D-08 XBig12= 2.24D-11 2.82D-07.
      3 vectors produced by pass 19 Test12= 1.80D-12 3.33D-08 XBig12= 1.68D-11 2.90D-07.
      3 vectors produced by pass 20 Test12= 1.80D-12 3.33D-08 XBig12= 6.08D-12 2.11D-07.
      2 vectors produced by pass 21 Test12= 1.80D-12 3.33D-08 XBig12= 3.35D-12 1.37D-07.
      2 vectors produced by pass 22 Test12= 1.80D-12 3.33D-08 XBig12= 6.31D-13 5.20D-08.
 Inverted reduced A of dimension    67 with in-core refinement.
 End of Minotr Frequency-dependent properties file   721 does not exist.
 End of Minotr Frequency-dependent properties file   722 does not exist.
 Symmetrizing basis deriv contribution to polar:
 IMax=3 JMax=2 DiffMx= 0.00D+00
 G2DrvN: will do    16 centers at a time, making    3 passes doing MaxLOS=2.
 Calling FoFCou, ICntrl=  3107 FMM=F I1Cent=   0 AccDes= 0.00D+00.
 Calling FoFCou, ICntrl=  3107 FMM=F I1Cent=   0 AccDes= 0.00D+00.
 Calling FoFCou, ICntrl=  3107 FMM=F I1Cent=   0 AccDes= 0.00D+00.
 FoFDir/FoFCou used for L=0 through L=2.
 End of G2Drv Frequency-dependent properties file   721 does not exist.
 End of G2Drv Frequency-dependent properties file   722 does not exist.
          IDoAtm=111111111111111111111111111111111111111111111
          Differentiating once with respect to electric field.
                with respect to dipole field.
          Differentiating once with respect to nuclear coordinates.
          There are   138 degrees of freedom in the 1st order CPHF.  IDoFFX=5.
 Will reuse    3 saved solutions.
    135 vectors produced by pass  0 Test12= 5.41D-14 1.00D-09 XBig12= 1.73D-01 6.99D-02.
 AX will form    45 AO Fock derivatives at one time.
    135 vectors produced by pass  1 Test12= 5.41D-14 1.00D-09 XBig12= 1.76D-02 1.00D-02.
    132 vectors produced by pass  2 Test12= 5.41D-14 1.00D-09 XBig12= 1.13D-04 1.37D-03.
    132 vectors produced by pass  3 Test12= 5.41D-14 1.00D-09 XBig12= 4.52D-07 6.03D-05.
    132 vectors produced by pass  4 Test12= 5.41D-14 1.00D-09 XBig12= 9.38D-10 2.22D-06.
    132 vectors produced by pass  5 Test12= 5.41D-14 1.00D-09 XBig12= 2.69D-12 1.08D-07.
     80 vectors produced by pass  6 Test12= 5.41D-14 1.00D-09 XBig12= 9.42D-14 2.04D-08.
 Inverted reduced A of dimension   878 with in-core refinement.
 Isotropic polarizability for W=    0.000000      190.75 Bohr**3.
 End of Minotr Frequency-dependent properties file   721 does not exist.
 End of Minotr Frequency-dependent properties file   722 does not exist.

 **********************************************************************

            Population analysis using the SCF density.

 **********************************************************************

 Orbital symmetries:
       Occupied  (A) (A) (A) (A) (A) (A) (A) (A) (A) (A) (A) (A)
                 (A) (A) (A) (A) (A) (A) (A) (A) (A) (A) (A) (A)
                 (A) (A) (A) (A) (A) (A) (A) (A) (A) (A) (A) (A)
                 (A) (A) (A) (A) (A) (A) (A) (A) (A) (A) (A) (A)
                 (A) (A) (A) (A) (A) (A) (A) (A) (A) (A) (A) (A)
                 (A) (A) (A) (A) (A) (A) (A) (A) (A) (A) (A) (A)
                 (A) (A) (A) (A) (A) (A) (A) (A) (A) (A) (A) (A)
                 (A) (A) (A) (A) (A) (A) (A)
       Virtual   (A) (A) (A) (A) (A) (A) (A) (A) (A) (A) (A) (A)
                 (A) (A) (A) (A) (A) (A) (A) (A) (A) (A) (A) (A)
                 (A) (A) (A) (A) (A) (A) (A) (A) (A) (A) (A) (A)
                 (A) (A) (A) (A) (A) (A) (A) (A) (A) (A) (A) (A)
                 (A) (A) (A) (A) (A) (A) (A) (A) (A) (A) (A) (A)
                 (A) (A) (A) (A) (A) (A) (A) (A) (A) (A) (A) (A)
                 (A) (A) (A) (A) (A) (A) (A) (A) (A) (A) (A) (A)
                 (A) (A) (A) (A) (A) (A) (A) (A) (A) (A) (A) (A)
                 (A) (A) (A) (A) (A) (A) (A) (A) (A) (A) (A) (A)
                 (A) (A) (A) (A) (A) (A) (A) (A) (A) (A) (A) (A)
                 (A) (A) (A) (A) (A) (A) (A) (A) (A) (A) (A) (A)
                 (A) (A) (A) (A) (A) (A) (A) (A) (A) (A) (A) (A)
                 (A) (A) (A) (A) (A) (A) (A) (A) (A) (A) (A) (A)
                 (A) (A) (A) (A) (A) (A) (A) (A) (A) (A) (A) (A)
                 (A) (A) (A) (A) (A) (A) (A) (A) (A) (A) (A) (A)
                 (A) (A) (A) (A) (A) (A) (A) (A) (A) (A) (A) (A)
                 (A) (A) (A) (A) (A) (A) (A) (A) (A) (A) (A) (A)
                 (A) (A) (A) (A) (A) (A) (A) (A) (A) (A) (A) (A)
                 (A) (A) (A) (A) (A) (A) (A) (A) (A) (A) (A) (A)
                 (A) (A) (A) (A) (A) (A) (A) (A) (A) (A) (A) (A)
                 (A) (A) (A) (A) (A) (A) (A) (A) (A) (A) (A) (A)
                 (A) (A) (A) (A) (A) (A) (A) (A) (A) (A) (A) (A)
                 (A) (A) (A) (A) (A) (A) (A) (A) (A) (A) (A) (A)
                 (A) (A) (A) (A) (A) (A) (A) (A) (A) (A) (A) (A)
                 (A) (A) (A) (A) (A) (A) (A) (A) (A) (A) (A) (A)
                 (A) (A) (A) (A) (A) (A) (A) (A) (A) (A) (A) (A)
                 (A) (A) (A) (A) (A) (A) (A) (A) (A) (A) (A) (A)
                 (A) (A) (A) (A) (A) (A) (A) (A) (A) (A) (A) (A)
                 (A) (A) (A) (A) (A) (A) (A) (A) (A) (A) (A) (A)
                 (A) (A) (A) (A) (A) (A) (A) (A) (A) (A) (A) (A)
                 (A) (A) (A) (A) (A) (A) (A) (A) (A) (A) (A) (A)
                 (A) (A) (A) (A) (A) (A) (A) (A) (A) (A) (A) (A)
                 (A) (A) (A) (A) (A) (A) (A) (A) (A) (A) (A) (A)
                 (A) (A) (A) (A) (A) (A) (A) (A) (A) (A) (A) (A)
                 (A) (A) (A) (A) (A) (A) (A) (A) (A) (A) (A) (A)
                 (A) (A) (A) (A) (A) (A) (A) (A) (A) (A) (A) (A)
                 (A) (A) (A) (A) (A) (A) (A) (A) (A) (A) (A) (A)
                 (A) (A) (A) (A) (A) (A) (A) (A) (A) (A) (A) (A)
                 (A) (A) (A) (A) (A) (A) (A) (A) (A) (A) (A) (A)
                 (A) (A) (A) (A) (A) (A) (A) (A) (A) (A) (A) (A)
                 (A) (A) (A) (A) (A) (A) (A) (A) (A) (A) (A) (A)
                 (A) (A) (A) (A) (A) (A) (A) (A) (A) (A) (A) (A)
                 (A) (A) (A) (A) (A) (A) (A) (A) (A) (A) (A) (A)
                 (A) (A) (A) (A) (A) (A) (A) (A) (A) (A) (A) (A)
                 (A) (A) (A) (A) (A) (A) (A) (A) (A) (A) (A) (A)
                 (A) (A) (A) (A) (A) (A) (A) (A) (A) (A) (A) (A)
                 (A) (A) (A) (A) (A) (A) (A) (A) (A) (A) (A) (A)
                 (A) (A) (A) (A) (A) (A) (A) (A) (A) (A) (A) (A)
                 (A) (A) (A) (A) (A) (A) (A) (A) (A) (A) (A) (A)
                 (A) (A) (A) (A) (A) (A)
 The electronic state is 1-A.
 Alpha  occ. eigenvalues --  -19.19615 -19.18550 -19.18506 -19.18461 -19.17901
 Alpha  occ. eigenvalues --  -19.17843 -19.16680 -19.16252 -19.14609 -19.13759
 Alpha  occ. eigenvalues --  -19.13043 -10.30891 -10.30354 -10.26316 -10.25851
 Alpha  occ. eigenvalues --  -10.25694 -10.25155 -10.25140 -10.24850 -10.24496
 Alpha  occ. eigenvalues --  -10.24044 -10.23869 -10.23771  -1.10476  -1.09258
 Alpha  occ. eigenvalues --   -1.06017  -1.05406  -1.04652  -1.03997  -1.03288
 Alpha  occ. eigenvalues --   -1.02590  -1.02200  -1.00308  -0.99921  -0.81950
 Alpha  occ. eigenvalues --   -0.80664  -0.79379  -0.78213  -0.71969  -0.70363
 Alpha  occ. eigenvalues --   -0.67438  -0.64819  -0.63201  -0.62910  -0.61536
 Alpha  occ. eigenvalues --   -0.60424  -0.56730  -0.56048  -0.55336  -0.55052
 Alpha  occ. eigenvalues --   -0.54570  -0.53224  -0.52821  -0.51859  -0.51238
 Alpha  occ. eigenvalues --   -0.50763  -0.50093  -0.49132  -0.48659  -0.46619
 Alpha  occ. eigenvalues --   -0.46015  -0.45409  -0.44613  -0.43705  -0.43348
 Alpha  occ. eigenvalues --   -0.42681  -0.42009  -0.40827  -0.39836  -0.39627
 Alpha  occ. eigenvalues --   -0.39286  -0.38512  -0.37775  -0.36498  -0.36146
 Alpha  occ. eigenvalues --   -0.35964  -0.35504  -0.34983  -0.33946  -0.33673
 Alpha  occ. eigenvalues --   -0.32977  -0.31436  -0.30969  -0.30800  -0.30450
 Alpha  occ. eigenvalues --   -0.29764  -0.28819  -0.28157  -0.27608  -0.26640
 Alpha  occ. eigenvalues --   -0.26062
 Alpha virt. eigenvalues --   -0.02636  -0.02087  -0.01954  -0.00186   0.00422
 Alpha virt. eigenvalues --    0.01040   0.02004   0.02464   0.03591   0.03709
 Alpha virt. eigenvalues --    0.04216   0.04393   0.05059   0.05465   0.05527
 Alpha virt. eigenvalues --    0.06230   0.06539   0.07458   0.07596   0.08018
 Alpha virt. eigenvalues --    0.08405   0.08810   0.08935   0.09687   0.10155
 Alpha virt. eigenvalues --    0.10475   0.11323   0.11682   0.11883   0.12039
 Alpha virt. eigenvalues --    0.12419   0.13064   0.13239   0.13490   0.13624
 Alpha virt. eigenvalues --    0.14184   0.14396   0.14704   0.14912   0.15046
 Alpha virt. eigenvalues --    0.15595   0.16250   0.16638   0.16739   0.17044
 Alpha virt. eigenvalues --    0.17134   0.17470   0.17720   0.17971   0.18443
 Alpha virt. eigenvalues --    0.18798   0.18859   0.19361   0.19609   0.20203
 Alpha virt. eigenvalues --    0.20707   0.20843   0.21181   0.21500   0.21565
 Alpha virt. eigenvalues --    0.21833   0.22440   0.22488   0.22847   0.23328
 Alpha virt. eigenvalues --    0.23769   0.23804   0.24077   0.24398   0.24468
 Alpha virt. eigenvalues --    0.24877   0.25027   0.25505   0.25829   0.26008
 Alpha virt. eigenvalues --    0.26323   0.26566   0.26619   0.26921   0.27119
 Alpha virt. eigenvalues --    0.27517   0.27768   0.28149   0.28492   0.28683
 Alpha virt. eigenvalues --    0.28875   0.29461   0.29763   0.29920   0.30579
 Alpha virt. eigenvalues --    0.30750   0.31387   0.32045   0.32072   0.32204
 Alpha virt. eigenvalues --    0.32760   0.33204   0.33507   0.33737   0.34044
 Alpha virt. eigenvalues --    0.34432   0.34725   0.35132   0.35326   0.35594
 Alpha virt. eigenvalues --    0.35989   0.36785   0.36876   0.37370   0.37537
 Alpha virt. eigenvalues --    0.37820   0.37974   0.38574   0.38959   0.39107
 Alpha virt. eigenvalues --    0.39951   0.40279   0.40605   0.40880   0.41211
 Alpha virt. eigenvalues --    0.41839   0.42471   0.43019   0.43677   0.44016
 Alpha virt. eigenvalues --    0.44498   0.44844   0.45564   0.45731   0.46118
 Alpha virt. eigenvalues --    0.47273   0.47909   0.48412   0.48830   0.49795
 Alpha virt. eigenvalues --    0.50515   0.51488   0.53339   0.57471   0.58071
 Alpha virt. eigenvalues --    0.59207   0.60084   0.60399   0.61765   0.62720
 Alpha virt. eigenvalues --    0.63194   0.63690   0.64920   0.65536   0.67054
 Alpha virt. eigenvalues --    0.67618   0.67703   0.68811   0.69344   0.69595
 Alpha virt. eigenvalues --    0.70597   0.71534   0.72846   0.73468   0.74219
 Alpha virt. eigenvalues --    0.74527   0.75174   0.75677   0.76713   0.77698
 Alpha virt. eigenvalues --    0.78014   0.78921   0.79788   0.80391   0.81901
 Alpha virt. eigenvalues --    0.82529   0.83031   0.84180   0.84804   0.85349
 Alpha virt. eigenvalues --    0.86185   0.86754   0.88055   0.88625   0.89187
 Alpha virt. eigenvalues --    0.90208   0.90437   0.91081   0.91633   0.92150
 Alpha virt. eigenvalues --    0.92739   0.92990   0.93045   0.93352   0.93982
 Alpha virt. eigenvalues --    0.95116   0.95813   0.96433   0.96764   0.97035
 Alpha virt. eigenvalues --    0.97870   0.98024   0.98092   0.99028   0.99690
 Alpha virt. eigenvalues --    1.00511   1.00926   1.01605   1.02306   1.03033
 Alpha virt. eigenvalues --    1.03311   1.04013   1.04820   1.05255   1.06039
 Alpha virt. eigenvalues --    1.07027   1.07722   1.08550   1.08760   1.09429
 Alpha virt. eigenvalues --    1.09753   1.10274   1.10730   1.10936   1.11941
 Alpha virt. eigenvalues --    1.12770   1.13167   1.13368   1.13698   1.14995
 Alpha virt. eigenvalues --    1.15585   1.15650   1.16003   1.16872   1.17239
 Alpha virt. eigenvalues --    1.17832   1.18211   1.19166   1.19940   1.20078
 Alpha virt. eigenvalues --    1.20563   1.21209   1.21503   1.22306   1.22924
 Alpha virt. eigenvalues --    1.23279   1.24048   1.25167   1.25551   1.26013
 Alpha virt. eigenvalues --    1.26421   1.26977   1.27330   1.28061   1.28392
 Alpha virt. eigenvalues --    1.29004   1.29281   1.29767   1.30099   1.31041
 Alpha virt. eigenvalues --    1.32011   1.32474   1.32847   1.33784   1.34187
 Alpha virt. eigenvalues --    1.34985   1.35590   1.36996   1.37260   1.37669
 Alpha virt. eigenvalues --    1.38146   1.38892   1.40071   1.40293   1.40750
 Alpha virt. eigenvalues --    1.41755   1.42020   1.42217   1.43248   1.43837
 Alpha virt. eigenvalues --    1.44256   1.45548   1.45945   1.46297   1.47961
 Alpha virt. eigenvalues --    1.48562   1.49846   1.50496   1.50991   1.52285
 Alpha virt. eigenvalues --    1.53406   1.54234   1.54809   1.55836   1.56458
 Alpha virt. eigenvalues --    1.57326   1.57750   1.59342   1.60668   1.61525
 Alpha virt. eigenvalues --    1.62258   1.63148   1.64166   1.64886   1.64994
 Alpha virt. eigenvalues --    1.65999   1.67142   1.68063   1.68398   1.69495
 Alpha virt. eigenvalues --    1.69910   1.71239   1.71961   1.72708   1.73452
 Alpha virt. eigenvalues --    1.74320   1.75815   1.77543   1.77818   1.79125
 Alpha virt. eigenvalues --    1.79940   1.80547   1.81699   1.82279   1.83325
 Alpha virt. eigenvalues --    1.85083   1.86344   1.86937   1.87553   1.88008
 Alpha virt. eigenvalues --    1.89453   1.90236   1.90637   1.93431   1.93829
 Alpha virt. eigenvalues --    1.95849   1.96162   1.96429   1.98592   1.99661
 Alpha virt. eigenvalues --    1.99872   2.00914   2.01718   2.03124   2.03833
 Alpha virt. eigenvalues --    2.04760   2.07002   2.07334   2.07381   2.08390
 Alpha virt. eigenvalues --    2.10742   2.11882   2.14733   2.15729   2.18211
 Alpha virt. eigenvalues --    2.19647   2.22286   2.23541   2.24622   2.25879
 Alpha virt. eigenvalues --    2.26225   2.28316   2.28975   2.31651   2.33034
 Alpha virt. eigenvalues --    2.33657   2.34156   2.35570   2.37845   2.38765
 Alpha virt. eigenvalues --    2.40308   2.41312   2.45356   2.49666   2.51648
 Alpha virt. eigenvalues --    2.53078   2.53252   2.56319   2.56400   2.56695
 Alpha virt. eigenvalues --    2.60846   2.62845   2.64699   2.65810   2.67473
 Alpha virt. eigenvalues --    2.68257   2.69691   2.70308   2.72316   2.73518
 Alpha virt. eigenvalues --    2.75040   2.76055   2.78049   2.78570   2.79591
 Alpha virt. eigenvalues --    2.81093   2.81487   2.82786   2.83868   2.84401
 Alpha virt. eigenvalues --    2.87095   2.89646   2.90712   2.91507   2.91664
 Alpha virt. eigenvalues --    2.94206   2.95290   2.95634   2.96176   2.97616
 Alpha virt. eigenvalues --    2.97919   2.98335   2.99196   3.00571   3.00808
 Alpha virt. eigenvalues --    3.01934   3.02992   3.03077   3.04052   3.04546
 Alpha virt. eigenvalues --    3.05453   3.07499   3.07849   3.08430   3.09104
 Alpha virt. eigenvalues --    3.09568   3.10353   3.11797   3.12762   3.15161
 Alpha virt. eigenvalues --    3.16001   3.18687   3.20389   3.21408   3.23658
 Alpha virt. eigenvalues --    3.25156   3.31747   3.33161   3.77123   3.82512
 Alpha virt. eigenvalues --    3.95143   4.02489   4.06454   4.08593   4.09933
 Alpha virt. eigenvalues --    4.10544   4.13536   4.14118   4.16283   4.16538
 Alpha virt. eigenvalues --    4.17264   4.17856   4.19544   4.20757   4.20898
 Alpha virt. eigenvalues --    4.22523   4.23976   4.25690   4.26470   4.26889
 Alpha virt. eigenvalues --    4.27786   4.29445   4.29527   4.29802   4.30921
 Alpha virt. eigenvalues --    4.31164   4.31780   4.31868   4.32352   4.33202
 Alpha virt. eigenvalues --    4.33404   4.34502   4.35195   4.35595   4.36084
 Alpha virt. eigenvalues --    4.36796   4.37211   4.37432   4.38424   4.38911
 Alpha virt. eigenvalues --    4.40098   4.41394   4.41908   4.42567   4.43033
 Alpha virt. eigenvalues --    4.44414   4.45396   4.46208   4.48819   4.50532
 Alpha virt. eigenvalues --    4.51432   4.52872   4.53795   4.54671   4.55532
 Alpha virt. eigenvalues --    4.56355   4.57398   4.57745   4.59645   4.59992
 Alpha virt. eigenvalues --    4.60725   4.61769   4.62327   4.62950   4.63996
 Alpha virt. eigenvalues --    4.64811   4.65238   4.66034   4.66608   4.67374
 Alpha virt. eigenvalues --    4.68510   4.68710   4.69338   4.69974   4.71946
 Alpha virt. eigenvalues --    4.72377   4.72753   4.73366   4.73894   4.74790
 Alpha virt. eigenvalues --    4.75004   4.75983   4.76945   4.77221   4.77418
 Alpha virt. eigenvalues --    4.77862   4.78255   4.78949   4.80066   4.80257
 Alpha virt. eigenvalues --    4.81497   4.82035   4.82757   4.83802   4.85950
 Alpha virt. eigenvalues --    4.87644   4.89017   4.89111   4.89263   4.91466
 Alpha virt. eigenvalues --    4.92722   4.93956   4.94948   4.95462   4.97299
 Alpha virt. eigenvalues --    4.98607   4.99307   5.00615   5.02607   5.05176
 Alpha virt. eigenvalues --    5.05792   5.08917   5.10574   5.11336   5.18104
 Alpha virt. eigenvalues --    5.22573   5.24695   5.26968   5.29281   5.43292
 Alpha virt. eigenvalues --    5.50060   5.83675   6.09229   6.22209   6.47288
 Alpha virt. eigenvalues --    6.72578   6.75121   6.77387   6.79125   6.81582
 Alpha virt. eigenvalues --    6.88160   6.91231   6.95162   6.98171   7.05116
 Alpha virt. eigenvalues --    7.10366  11.84676  11.97432  12.09150  12.12743
 Alpha virt. eigenvalues --   12.27199  12.41197  12.62051  12.76063  12.85530
 Alpha virt. eigenvalues --   12.97971  13.14494  13.16166  13.25120  13.25951
 Alpha virt. eigenvalues --   13.27820  13.36182  13.37556  13.43373  13.54462
 Alpha virt. eigenvalues --   13.57959  13.63338  13.68762  13.82737
          Condensed to atoms (all electrons):
              1          2          3          4          5          6
     1  O    8.200989   0.243623  -0.058964  -0.023563   0.025987   0.018935
     2  C    0.243623   7.174161  -0.545274   0.103335  -0.068011  -1.567940
     3  C   -0.058964  -0.545274   6.454937   0.084009   0.026001   0.354670
     4  O   -0.023563   0.103335   0.084009   8.238502   0.228532  -0.078056
     5  H    0.025987  -0.068011   0.026001   0.228532   0.433439  -0.010373
     6  C    0.018935  -1.567940   0.354670  -0.078056  -0.010373  10.109708
     7  O   -0.000115   0.021038  -0.081398   0.007208   0.000171   0.176036
     8  H    0.000007  -0.003683   0.001374  -0.000299   0.000014   0.026407
     9  C   -0.029330  -0.023716  -0.407454   0.010153  -0.003006   0.294001
    10  O   -0.028637  -0.009915   0.027751  -0.000296  -0.000011  -0.008075
    11  H    0.001618  -0.006359  -0.002694   0.000002   0.000000   0.000702
    12  C   -0.069012  -0.408846  -0.186446  -0.002923   0.010246   0.595439
    13  O    0.001106  -0.053381  -0.006401  -0.001933  -0.000209   0.041731
    14  C    0.003573   0.727052   0.070075   0.003951   0.015317  -3.091396
    15  O    0.000073   0.003357  -0.019905   0.000700  -0.000001  -0.029618
    16  C    0.001489   0.073170   0.033880  -0.003804   0.000856  -0.639538
    17  C   -0.000112  -0.021820   0.003057   0.000698   0.000021   0.096719
    18  O    0.000009   0.004554   0.000720  -0.000012   0.000000  -0.003514
    19  H   -0.000031  -0.004821   0.005021  -0.000002   0.000000   0.012662
    20  C    0.000023   0.009070  -0.005338   0.000039   0.000000  -0.047092
    21  O    0.000000   0.000016  -0.000012   0.000000   0.000000  -0.000004
    22  H    0.000000   0.000001   0.000001   0.000000   0.000000  -0.000060
    23  C    0.000012   0.006077   0.004880   0.000217  -0.000014  -0.137779
    24  O    0.000000   0.000741  -0.012955  -0.000079  -0.000001   0.042357
    25  H    0.000000  -0.000006   0.001643   0.000003   0.000000  -0.003342
    26  C    0.000036  -0.015949  -0.028580  -0.000571   0.000039  -0.162921
    27  O    0.000000   0.000036  -0.000069   0.000001   0.000000   0.003258
    28  C    0.000004   0.000300  -0.001018   0.000006   0.000000  -0.002050
    29  O    0.000000   0.000001   0.000017   0.000000   0.000000  -0.000168
    30  H    0.000000   0.000000   0.000000   0.000000   0.000000   0.000000
    31  H    0.000000   0.000001  -0.000064   0.000000   0.000000   0.003123
    32  H    0.000000   0.000016   0.000405   0.000000   0.000000  -0.007785
    33  H    0.000000  -0.000026   0.000190   0.000000   0.000000  -0.003601
    34  H   -0.000001  -0.003144   0.003303   0.000005   0.000000   0.011394
    35  H    0.000000  -0.000052   0.000522   0.000000   0.000000   0.006414
    36  H    0.000000   0.000104  -0.000042   0.000000   0.000000  -0.000428
    37  H    0.000000   0.000008   0.000000   0.000000   0.000000  -0.000320
    38  H   -0.000700  -0.010593   0.003464   0.000001   0.000001  -0.006622
    39  H    0.001788  -0.009193  -0.005949   0.000010  -0.000001   0.014302
    40  H    0.268619   0.037790  -0.032410   0.002326  -0.003458   0.000126
    41  H    0.004247   0.049915  -0.031433   0.000763   0.000000  -0.045901
    42  H   -0.017544   0.362212  -0.038099   0.001662  -0.000336  -0.029623
    43  H   -0.000695   0.055586   0.265299  -0.018739  -0.001197  -0.209389
    44  H   -0.000109   0.037993  -0.164353   0.004707  -0.000202   0.402131
    45  H    0.000064  -0.010659  -0.057908   0.000422   0.000001   0.014839
              7          8          9         10         11         12
     1  O   -0.000115   0.000007  -0.029330  -0.028637   0.001618  -0.069012
     2  C    0.021038  -0.003683  -0.023716  -0.009915  -0.006359  -0.408846
     3  C   -0.081398   0.001374  -0.407454   0.027751  -0.002694  -0.186446
     4  O    0.007208  -0.000299   0.010153  -0.000296   0.000002  -0.002923
     5  H    0.000171   0.000014  -0.003006  -0.000011   0.000000   0.010246
     6  C    0.176036   0.026407   0.294001  -0.008075   0.000702   0.595439
     7  O    8.230622   0.239696  -0.000327  -0.000008   0.000000   0.008728
     8  H    0.239696   0.346163   0.000290   0.000000   0.000000   0.001653
     9  C   -0.000327   0.000290   6.924704   0.009579  -0.008496  -0.815090
    10  O   -0.000008   0.000000   0.009579   8.280280   0.229914   0.097721
    11  H    0.000000   0.000000  -0.008496   0.229914   0.432601   0.019253
    12  C    0.008728   0.001653  -0.815090   0.097721   0.019253   7.813250
    13  O    0.002195  -0.000199  -0.068252  -0.001011  -0.000358   0.005195
    14  C    0.027924  -0.052881  -0.672827   0.018551  -0.003026  -0.957920
    15  O   -0.001977   0.009226   0.002743   0.000022   0.000000  -0.006332
    16  C   -0.004726   0.016321  -0.120952  -0.000736  -0.000204  -0.078217
    17  C   -0.002460  -0.001254   0.034113   0.000546   0.000016  -0.131406
    18  O    0.000003  -0.000040  -0.003846  -0.000169   0.000002  -0.005639
    19  H   -0.000035  -0.000006   0.001389   0.000037  -0.000002  -0.002847
    20  C    0.000255   0.000292   0.000120  -0.000011  -0.000004  -0.002348
    21  O    0.000001   0.000000   0.000180   0.000000   0.000000  -0.000318
    22  H    0.000000   0.000000  -0.000004   0.000000   0.000000   0.000022
    23  C    0.034366   0.004050  -0.000588  -0.000003   0.000000  -0.000289
    24  O   -0.040022   0.018005  -0.000072   0.000000   0.000000   0.000776
    25  H    0.003001  -0.001777  -0.000009   0.000000   0.000000  -0.000272
    26  C   -0.023040  -0.012253   0.009830  -0.000071  -0.000003   0.031196
    27  O    0.000121  -0.000099   0.000115   0.000000   0.000000   0.000572
    28  C    0.000200   0.000136  -0.001428   0.000000   0.000000   0.000089
    29  O   -0.000001   0.000000  -0.000006   0.000000   0.000000   0.000064
    30  H    0.000000   0.000000   0.000000   0.000000   0.000000   0.000001
    31  H   -0.000419   0.000329  -0.000002   0.000000   0.000000   0.000041
    32  H    0.001324  -0.000601   0.000002   0.000000   0.000000   0.000019
    33  H   -0.000031  -0.000010   0.000076   0.000000   0.000000   0.001032
    34  H   -0.001053  -0.000160   0.000597   0.000002   0.000000   0.007346
    35  H   -0.000009  -0.000001  -0.000428   0.000000   0.000000   0.000452
    36  H    0.000001   0.000000  -0.000202   0.000000   0.000000   0.000794
    37  H    0.000001   0.000000  -0.000007   0.000000   0.000000   0.000034
    38  H   -0.000007   0.000000   0.393118  -0.027009  -0.007106  -0.019583
    39  H    0.000004   0.000000   0.595619  -0.050366  -0.002530  -0.228435
    40  H   -0.000005   0.000000   0.002184   0.000951  -0.000039  -0.020126
    41  H    0.000258   0.000005   0.019781   0.000396  -0.000228   0.098336
    42  H    0.000686  -0.000002  -0.051570  -0.001253  -0.000010  -0.068333
    43  H    0.008422  -0.000254   0.016302  -0.000292   0.000000   0.018778
    44  H   -0.034452  -0.001599   0.017148   0.000014   0.000000   0.047618
    45  H   -0.001051  -0.000055   0.029540   0.000114   0.000000   0.064942
             13         14         15         16         17         18
     1  O    0.001106   0.003573   0.000073   0.001489  -0.000112   0.000009
     2  C   -0.053381   0.727052   0.003357   0.073170  -0.021820   0.004554
     3  C   -0.006401   0.070075  -0.019905   0.033880   0.003057   0.000720
     4  O   -0.001933   0.003951   0.000700  -0.003804   0.000698  -0.000012
     5  H   -0.000209   0.015317  -0.000001   0.000856   0.000021   0.000000
     6  C    0.041731  -3.091396  -0.029618  -0.639538   0.096719  -0.003514
     7  O    0.002195   0.027924  -0.001977  -0.004726  -0.002460   0.000003
     8  H   -0.000199  -0.052881   0.009226   0.016321  -0.001254  -0.000040
     9  C   -0.068252  -0.672827   0.002743  -0.120952   0.034113  -0.003846
    10  O   -0.001011   0.018551   0.000022  -0.000736   0.000546  -0.000169
    11  H   -0.000358  -0.003026   0.000000  -0.000204   0.000016   0.000002
    12  C    0.005195  -0.957920  -0.006332  -0.078217  -0.131406  -0.005639
    13  O    8.170822   0.292987   0.020758  -0.040013   0.013051  -0.011219
    14  C    0.292987  10.039385   0.168242  -1.040942   0.416758  -0.016426
    15  O    0.020758   0.168242   8.092396   0.214090  -0.093851  -0.002945
    16  C   -0.040013  -1.040942   0.214090  11.302374  -2.151664   0.002277
    17  C    0.013051   0.416758  -0.093851  -2.151664   8.606005   0.165481
    18  O   -0.011219  -0.016426  -0.002945   0.002277   0.165481   8.276999
    19  H    0.019922   0.008747   0.007625  -0.068885   0.035614   0.227631
    20  C    0.002460  -0.428084   0.019543  -0.534205  -0.390229  -0.029770
    21  O    0.000124  -0.000978  -0.000118   0.097107   0.007308   0.014448
    22  H    0.000003  -0.001027  -0.000002  -0.016602  -0.044128  -0.000541
    23  C    0.001895   0.129135  -0.006556   0.280965  -0.289754   0.011311
    24  O    0.000072   0.015754  -0.027725   0.100372   0.006651   0.000061
    25  H   -0.000018  -0.008239   0.002691  -0.017522  -0.001653  -0.000001
    26  C   -0.020292  -0.473115  -0.026230  -2.475761  -0.097436   0.025373
    27  O    0.000225   0.010759   0.001796   0.149879  -0.109039  -0.002454
    28  C    0.000691  -0.050883   0.004032   0.595957  -0.383769  -0.015786
    29  O    0.000018   0.000758   0.000053  -0.021644  -0.020471  -0.000077
    30  H    0.000000   0.000008  -0.000001  -0.001882   0.007515  -0.000018
    31  H    0.000022   0.005705   0.000793   0.029415   0.009820   0.000014
    32  H   -0.000043   0.006258   0.002322   0.066314  -0.004305   0.000021
    33  H   -0.000072   0.051514   0.002237  -0.016541  -0.032429  -0.000033
    34  H   -0.000245   0.006487  -0.049722   0.079881   0.064335  -0.002806
    35  H   -0.001222   0.028818  -0.006906  -0.125154   0.362030  -0.032556
    36  H    0.000221  -0.015867  -0.000056   0.086982  -0.234637   0.007411
    37  H    0.000032  -0.002274   0.000646   0.024542  -0.022664   0.000434
    38  H    0.000378  -0.001198  -0.000074   0.008324  -0.000571  -0.000164
    39  H   -0.003736  -0.001030  -0.000133  -0.005922   0.002791  -0.000040
    40  H   -0.000590   0.002999  -0.000002   0.000259  -0.000036   0.000000
    41  H   -0.032016   0.170857   0.000111   0.002399   0.009836  -0.000233
    42  H    0.005578   0.101100   0.000031  -0.004838   0.001806   0.000056
    43  H    0.003430   0.108160   0.000481  -0.008081   0.002010   0.000058
    44  H    0.006901  -0.033086  -0.011464  -0.021351   0.002770   0.000137
    45  H   -0.043567   0.243580  -0.046582   0.001766   0.027473  -0.001751
             19         20         21         22         23         24
     1  O   -0.000031   0.000023   0.000000   0.000000   0.000012   0.000000
     2  C   -0.004821   0.009070   0.000016   0.000001   0.006077   0.000741
     3  C    0.005021  -0.005338  -0.000012   0.000001   0.004880  -0.012955
     4  O   -0.000002   0.000039   0.000000   0.000000   0.000217  -0.000079
     5  H    0.000000   0.000000   0.000000   0.000000  -0.000014  -0.000001
     6  C    0.012662  -0.047092  -0.000004  -0.000060  -0.137779   0.042357
     7  O   -0.000035   0.000255   0.000001   0.000000   0.034366  -0.040022
     8  H   -0.000006   0.000292   0.000000   0.000000   0.004050   0.018005
     9  C    0.001389   0.000120   0.000180  -0.000004  -0.000588  -0.000072
    10  O    0.000037  -0.000011   0.000000   0.000000  -0.000003   0.000000
    11  H   -0.000002  -0.000004   0.000000   0.000000   0.000000   0.000000
    12  C   -0.002847  -0.002348  -0.000318   0.000022  -0.000289   0.000776
    13  O    0.019922   0.002460   0.000124   0.000003   0.001895   0.000072
    14  C    0.008747  -0.428084  -0.000978  -0.001027   0.129135   0.015754
    15  O    0.007625   0.019543  -0.000118  -0.000002  -0.006556  -0.027725
    16  C   -0.068885  -0.534205   0.097107  -0.016602   0.280965   0.100372
    17  C    0.035614  -0.390229   0.007308  -0.044128  -0.289754   0.006651
    18  O    0.227631  -0.029770   0.014448  -0.000541   0.011311   0.000061
    19  H    0.362050   0.000604  -0.000438   0.000014  -0.004104  -0.000010
    20  C    0.000604   6.495735  -0.053314   0.064649   0.011079  -0.006479
    21  O   -0.000438  -0.053314   8.254105   0.205329   0.000838   0.000008
    22  H    0.000014   0.064649   0.205329   0.465918   0.000121   0.000000
    23  C   -0.004104   0.011079   0.000838   0.000121   6.453070  -0.004701
    24  O   -0.000010  -0.006479   0.000008   0.000000  -0.004701   8.321281
    25  H    0.000000   0.001046   0.000000   0.000000   0.009280   0.233210
    26  C   -0.007744   0.573323  -0.029426   0.006367  -1.258932  -0.045296
    27  O   -0.000044  -0.046014   0.005371  -0.000361  -0.041565   0.003801
    28  C    0.003283  -0.000385   0.062831  -0.006448  -0.039463   0.006406
    29  O    0.000000   0.022200  -0.014109   0.014178   0.009795   0.000007
    30  H    0.000000  -0.037263   0.000620  -0.001370  -0.000832  -0.000001
    31  H    0.000000  -0.003859  -0.000006   0.000000   0.372027  -0.010235
    32  H    0.000001  -0.000661   0.000000   0.000000   0.616566  -0.058125
    33  H    0.000023  -0.009779  -0.000066   0.000009   0.072700   0.004218
    34  H    0.000120   0.042296  -0.000472   0.000006  -0.004481   0.000520
    35  H   -0.001679  -0.048495  -0.004206  -0.000255   0.013592  -0.000004
    36  H   -0.000160   0.386565  -0.024821  -0.002782   0.006787   0.000011
    37  H    0.000001  -0.115288   0.001442  -0.000426  -0.001051   0.000056
    38  H    0.000483  -0.000203   0.000000   0.000000   0.000017   0.000000
    39  H   -0.000018   0.000154   0.000001   0.000000  -0.000016   0.000000
    40  H    0.000000   0.000001   0.000000   0.000000   0.000001   0.000000
    41  H   -0.000182   0.000588   0.000000   0.000000  -0.000068   0.000003
    42  H   -0.000028   0.000036   0.000000   0.000000   0.000023   0.000007
    43  H   -0.000001   0.000033   0.000000   0.000000   0.000495   0.000059
    44  H   -0.000026   0.000223   0.000000   0.000000   0.003904  -0.000262
    45  H   -0.000796   0.009955   0.000001   0.000000   0.001687   0.000181
             25         26         27         28         29         30
     1  O    0.000000   0.000036   0.000000   0.000004   0.000000   0.000000
     2  C   -0.000006  -0.015949   0.000036   0.000300   0.000001   0.000000
     3  C    0.001643  -0.028580  -0.000069  -0.001018   0.000017   0.000000
     4  O    0.000003  -0.000571   0.000001   0.000006   0.000000   0.000000
     5  H    0.000000   0.000039   0.000000   0.000000   0.000000   0.000000
     6  C   -0.003342  -0.162921   0.003258  -0.002050  -0.000168   0.000000
     7  O    0.003001  -0.023040   0.000121   0.000200  -0.000001   0.000000
     8  H   -0.001777  -0.012253  -0.000099   0.000136   0.000000   0.000000
     9  C   -0.000009   0.009830   0.000115  -0.001428  -0.000006   0.000000
    10  O    0.000000  -0.000071   0.000000   0.000000   0.000000   0.000000
    11  H    0.000000  -0.000003   0.000000   0.000000   0.000000   0.000000
    12  C   -0.000272   0.031196   0.000572   0.000089   0.000064   0.000001
    13  O   -0.000018  -0.020292   0.000225   0.000691   0.000018   0.000000
    14  C   -0.008239  -0.473115   0.010759  -0.050883   0.000758   0.000008
    15  O    0.002691  -0.026230   0.001796   0.004032   0.000053  -0.000001
    16  C   -0.017522  -2.475761   0.149879   0.595957  -0.021644  -0.001882
    17  C   -0.001653  -0.097436  -0.109039  -0.383769  -0.020471   0.007515
    18  O   -0.000001   0.025373  -0.002454  -0.015786  -0.000077  -0.000018
    19  H    0.000000  -0.007744  -0.000044   0.003283   0.000000   0.000000
    20  C    0.001046   0.573323  -0.046014  -0.000385   0.022200  -0.037263
    21  O    0.000000  -0.029426   0.005371   0.062831  -0.014109   0.000620
    22  H    0.000000   0.006367  -0.000361  -0.006448   0.014178  -0.001370
    23  C    0.009280  -1.258932  -0.041565  -0.039463   0.009795  -0.000832
    24  O    0.233210  -0.045296   0.003801   0.006406   0.000007  -0.000001
    25  H    0.422750   0.017232  -0.000741  -0.001046  -0.000002   0.000000
    26  C    0.017232  10.901725  -0.053620  -0.700537  -0.026988   0.006528
    27  O   -0.000741  -0.053620   8.157520   0.230425  -0.012948   0.003932
    28  C   -0.001046  -0.700537   0.230425   5.511440   0.211715   0.012395
    29  O   -0.000002  -0.026988  -0.012948   0.211715   8.140158   0.263947
    30  H    0.000000   0.006528   0.003932   0.012395   0.263947   0.420922
    31  H   -0.016313  -0.063137  -0.001962   0.000728   0.000038   0.000000
    32  H    0.001979  -0.323433   0.002637   0.007158  -0.000079   0.000000
    33  H   -0.000314   0.154011  -0.015166   0.044431   0.000223  -0.000004
    34  H   -0.000022   0.089437   0.003758  -0.007947  -0.000193   0.000001
    35  H    0.000000   0.077492  -0.000178  -0.035351   0.000540   0.000016
    36  H    0.000000   0.024109   0.002532   0.034059  -0.001677   0.000041
    37  H    0.000000  -0.003929  -0.035215   0.448062  -0.024654  -0.009315
    38  H    0.000000   0.000346   0.000001   0.000069   0.000000   0.000000
    39  H    0.000000  -0.000056   0.000000  -0.000013   0.000000   0.000000
    40  H    0.000000  -0.000002   0.000000   0.000000   0.000000   0.000000
    41  H    0.000000  -0.000491   0.000000   0.000015   0.000000   0.000000
    42  H    0.000000  -0.000229   0.000000  -0.000003   0.000000   0.000000
    43  H    0.000000  -0.000823   0.000000  -0.000011   0.000000   0.000000
    44  H    0.000002  -0.004441   0.000003  -0.000055   0.000000   0.000000
    45  H    0.000004   0.013478   0.000415  -0.000256  -0.000004   0.000000
             31         32         33         34         35         36
     1  O    0.000000   0.000000   0.000000  -0.000001   0.000000   0.000000
     2  C    0.000001   0.000016  -0.000026  -0.003144  -0.000052   0.000104
     3  C   -0.000064   0.000405   0.000190   0.003303   0.000522  -0.000042
     4  O    0.000000   0.000000   0.000000   0.000005   0.000000   0.000000
     5  H    0.000000   0.000000   0.000000   0.000000   0.000000   0.000000
     6  C    0.003123  -0.007785  -0.003601   0.011394   0.006414  -0.000428
     7  O   -0.000419   0.001324  -0.000031  -0.001053  -0.000009   0.000001
     8  H    0.000329  -0.000601  -0.000010  -0.000160  -0.000001   0.000000
     9  C   -0.000002   0.000002   0.000076   0.000597  -0.000428  -0.000202
    10  O    0.000000   0.000000   0.000000   0.000002   0.000000   0.000000
    11  H    0.000000   0.000000   0.000000   0.000000   0.000000   0.000000
    12  C    0.000041   0.000019   0.001032   0.007346   0.000452   0.000794
    13  O    0.000022  -0.000043  -0.000072  -0.000245  -0.001222   0.000221
    14  C    0.005705   0.006258   0.051514   0.006487   0.028818  -0.015867
    15  O    0.000793   0.002322   0.002237  -0.049722  -0.006906  -0.000056
    16  C    0.029415   0.066314  -0.016541   0.079881  -0.125154   0.086982
    17  C    0.009820  -0.004305  -0.032429   0.064335   0.362030  -0.234637
    18  O    0.000014   0.000021  -0.000033  -0.002806  -0.032556   0.007411
    19  H    0.000000   0.000001   0.000023   0.000120  -0.001679  -0.000160
    20  C   -0.003859  -0.000661  -0.009779   0.042296  -0.048495   0.386565
    21  O   -0.000006   0.000000  -0.000066  -0.000472  -0.004206  -0.024821
    22  H    0.000000   0.000000   0.000009   0.000006  -0.000255  -0.002782
    23  C    0.372027   0.616566   0.072700  -0.004481   0.013592   0.006787
    24  O   -0.010235  -0.058125   0.004218   0.000520  -0.000004   0.000011
    25  H   -0.016313   0.001979  -0.000314  -0.000022   0.000000   0.000000
    26  C   -0.063137  -0.323433   0.154011   0.089437   0.077492   0.024109
    27  O   -0.001962   0.002637  -0.015166   0.003758  -0.000178   0.002532
    28  C    0.000728   0.007158   0.044431  -0.007947  -0.035351   0.034059
    29  O    0.000038  -0.000079   0.000223  -0.000193   0.000540  -0.001677
    30  H    0.000000   0.000000  -0.000004   0.000001   0.000016   0.000041
    31  H    0.572458  -0.039010  -0.004180   0.000078   0.000004   0.000000
    32  H   -0.039010   0.560125   0.005853   0.003088  -0.000006  -0.000010
    33  H   -0.004180   0.005853   0.613327   0.005884   0.002520  -0.000053
    34  H    0.000078   0.003088   0.005884   0.622917   0.007001   0.000696
    35  H    0.000004  -0.000006   0.002520   0.007001   0.630344   0.005955
    36  H    0.000000  -0.000010  -0.000053   0.000696   0.005955   0.581650
    37  H   -0.000017  -0.000013   0.004195  -0.000060   0.001839   0.004878
    38  H    0.000000   0.000000   0.000000  -0.000001   0.000000   0.000000
    39  H    0.000000   0.000000   0.000000   0.000000   0.000000   0.000000
    40  H    0.000000   0.000000   0.000000   0.000000   0.000000   0.000000
    41  H    0.000000   0.000000   0.000000  -0.000008  -0.000001   0.000000
    42  H    0.000000   0.000000   0.000000   0.000000   0.000000   0.000000
    43  H    0.000000   0.000000   0.000000  -0.000002   0.000000   0.000000
    44  H    0.000000  -0.000001   0.000000  -0.000011  -0.000003   0.000000
    45  H    0.000001   0.000001  -0.000011   0.010316  -0.000023  -0.000005
             37         38         39         40         41         42
     1  O    0.000000  -0.000700   0.001788   0.268619   0.004247  -0.017544
     2  C    0.000008  -0.010593  -0.009193   0.037790   0.049915   0.362212
     3  C    0.000000   0.003464  -0.005949  -0.032410  -0.031433  -0.038099
     4  O    0.000000   0.000001   0.000010   0.002326   0.000763   0.001662
     5  H    0.000000   0.000001  -0.000001  -0.003458   0.000000  -0.000336
     6  C   -0.000320  -0.006622   0.014302   0.000126  -0.045901  -0.029623
     7  O    0.000001  -0.000007   0.000004  -0.000005   0.000258   0.000686
     8  H    0.000000   0.000000   0.000000   0.000000   0.000005  -0.000002
     9  C   -0.000007   0.393118   0.595619   0.002184   0.019781  -0.051570
    10  O    0.000000  -0.027009  -0.050366   0.000951   0.000396  -0.001253
    11  H    0.000000  -0.007106  -0.002530  -0.000039  -0.000228  -0.000010
    12  C    0.000034  -0.019583  -0.228435  -0.020126   0.098336  -0.068333
    13  O    0.000032   0.000378  -0.003736  -0.000590  -0.032016   0.005578
    14  C   -0.002274  -0.001198  -0.001030   0.002999   0.170857   0.101100
    15  O    0.000646  -0.000074  -0.000133  -0.000002   0.000111   0.000031
    16  C    0.024542   0.008324  -0.005922   0.000259   0.002399  -0.004838
    17  C   -0.022664  -0.000571   0.002791  -0.000036   0.009836   0.001806
    18  O    0.000434  -0.000164  -0.000040   0.000000  -0.000233   0.000056
    19  H    0.000001   0.000483  -0.000018   0.000000  -0.000182  -0.000028
    20  C   -0.115288  -0.000203   0.000154   0.000001   0.000588   0.000036
    21  O    0.001442   0.000000   0.000001   0.000000   0.000000   0.000000
    22  H   -0.000426   0.000000   0.000000   0.000000   0.000000   0.000000
    23  C   -0.001051   0.000017  -0.000016   0.000001  -0.000068   0.000023
    24  O    0.000056   0.000000   0.000000   0.000000   0.000003   0.000007
    25  H    0.000000   0.000000   0.000000   0.000000   0.000000   0.000000
    26  C   -0.003929   0.000346  -0.000056  -0.000002  -0.000491  -0.000229
    27  O   -0.035215   0.000001   0.000000   0.000000   0.000000   0.000000
    28  C    0.448062   0.000069  -0.000013   0.000000   0.000015  -0.000003
    29  O   -0.024654   0.000000   0.000000   0.000000   0.000000   0.000000
    30  H   -0.009315   0.000000   0.000000   0.000000   0.000000   0.000000
    31  H   -0.000017   0.000000   0.000000   0.000000   0.000000   0.000000
    32  H   -0.000013   0.000000   0.000000   0.000000   0.000000   0.000000
    33  H    0.004195   0.000000   0.000000   0.000000   0.000000   0.000000
    34  H   -0.000060  -0.000001   0.000000   0.000000  -0.000008   0.000000
    35  H    0.001839   0.000000   0.000000   0.000000  -0.000001   0.000000
    36  H    0.004878   0.000000   0.000000   0.000000   0.000000   0.000000
    37  H    0.597709   0.000000   0.000000   0.000000   0.000000   0.000000
    38  H    0.000000   0.568178  -0.048299   0.000015  -0.007150  -0.000054
    39  H    0.000000  -0.048299   0.589239  -0.000161   0.006480   0.002364
    40  H    0.000000   0.000015  -0.000161   0.406316  -0.000220  -0.012933
    41  H    0.000000  -0.007150   0.006480  -0.000220   0.624139   0.006536
    42  H    0.000000  -0.000054   0.002364  -0.012933   0.006536   0.610692
    43  H    0.000000   0.000005  -0.000003  -0.000172   0.003428   0.006082
    44  H    0.000000   0.000000  -0.000009   0.000015  -0.000053   0.002086
    45  H    0.000000   0.000001  -0.000014   0.000002   0.004056  -0.000013
             43         44         45
     1  O   -0.000695  -0.000109   0.000064
     2  C    0.055586   0.037993  -0.010659
     3  C    0.265299  -0.164353  -0.057908
     4  O   -0.018739   0.004707   0.000422
     5  H   -0.001197  -0.000202   0.000001
     6  C   -0.209389   0.402131   0.014839
     7  O    0.008422  -0.034452  -0.001051
     8  H   -0.000254  -0.001599  -0.000055
     9  C    0.016302   0.017148   0.029540
    10  O   -0.000292   0.000014   0.000114
    11  H    0.000000   0.000000   0.000000
    12  C    0.018778   0.047618   0.064942
    13  O    0.003430   0.006901  -0.043567
    14  C    0.108160  -0.033086   0.243580
    15  O    0.000481  -0.011464  -0.046582
    16  C   -0.008081  -0.021351   0.001766
    17  C    0.002010   0.002770   0.027473
    18  O    0.000058   0.000137  -0.001751
    19  H   -0.000001  -0.000026  -0.000796
    20  C    0.000033   0.000223   0.009955
    21  O    0.000000   0.000000   0.000001
    22  H    0.000000   0.000000   0.000000
    23  C    0.000495   0.003904   0.001687
    24  O    0.000059  -0.000262   0.000181
[...]
 15,0.00120952,0.00205670,0.00091737,0.00019638,-0.00021549,0.00004613,
 0.00017547,0.00009394,-0.00002514,0.00010890,-0.00001168,0.00001393,0.
 00000568,-0.00001765,0.00001665,0.00000793,0.00002955,-0.00001479,-0.0
 0002925,-0.00001062,0.00000617,0.00004136,-0.00000911,-0.00000205,0.00
 000010,0.00001155,-0.00000283,0.00000133,-0.00000271,-0.00000042,-0.00
 000090,-0.00001308,-0.00000178,0.00000209,0.00002436,0.00000926,0.0000
 1660,-0.00000980,-0.00000109,0.00000422,-0.00001260,-0.00000746,-0.000
 00031,0.00001285,-0.00000252,0.00000455,-0.00001156,0.00000765,-0.0000
 0125,0.00000533,-0.00000104,-0.00000310,-0.00000144,-0.00000019,0.0000
 0053,0.00000058,-0.00000057,0.00000125,0.00000469,0.00000113,-0.000002
 42,0.00000529,0.00000048,0.00000560,0.00001134,0.00000149,-0.00000622,
 0.00000568,-0.00000032,0.00000742,0.00000298,0.00000186,-0.00000256,0.
 00000304,0.00000071,0.00000110,0.00019553,-0.00002289,0.00000516,0.000
 37821,-0.00080601,0.00005308,0.00143273,0.00015943,-0.00069373,0.00061
 079,-0.00067475,0.00058179,0.37409747,-0.00986515,-0.00027436,-0.00519
 169,-0.03433035,-0.04875004,0.00586173,0.03295613,0.00171551,-0.005218
 29,-0.00223471,0.00293454,-0.00041972,0.00054862,0.00005480,0.00040106
 ,0.00060563,0.00128793,0.00077201,-0.00040609,-0.00021874,0.00004836,-
 0.00009977,0.00001444,0.00003668,-0.00124081,0.00164441,-0.00070154,0.
 00027014,-0.00008056,0.00000171,-0.00001413,-0.00006320,-0.00001518,-0
 .02857010,-0.00397680,0.00622917,0.00149452,0.00141694,-0.00217248,0.0
 0018314,-0.00036998,-0.00007244,0.00002362,0.00010773,-0.00001185,-0.0
 0003471,0.00001670,-0.00002404,0.00000664,0.00001499,-0.00000343,0.000
 03272,0.00000753,-0.00006164,-0.00003363,-0.00003055,0.00006418,-0.000
 00898,0.00000027,-0.00000384,0.00000609,-0.00000312,0.00000073,-0.0000
 0087,0.00000011,-0.00000034,0.00000183,-0.00000413,0.00000101,-0.00001
 043,-0.00000546,-0.00001824,0.00000424,0.00000159,-0.00000475,0.000003
 40,-0.00000344,-0.00000161,0.00000077,-0.00000113,0.00000155,-0.000001
 51,0.00000328,-0.00000080,0.00000156,-0.00000119,-0.00000155,-0.000000
 20,0.00000049,0.00000034,0.00000009,0.00000137,-0.00000190,-0.00000077
 ,-0.00000107,0.00000227,-0.00000025,0.00000181,0.00000063,0.00000558,-
 0.00000641,0.00000614,0.00000206,0.00000192,0.00000360,0.00000153,-0.0
 0000018,-0.00000164,0.00000045,0.00000063,0.00000045,0.00043263,0.0002
 3729,-0.00004557,0.00082912,-0.00022458,-0.00006365,-0.00075318,0.0013
 4167,0.00010778,-0.00070143,-0.00276299,0.00375479,0.03921804,0.051091
 63,-0.04087150,-0.00886684,-0.01700095,0.03973417,0.00508596,-0.045229
 17,0.01226604,0.00169386,-0.00127823,-0.00131162,0.00018477,0.00074624
 ,-0.00040092,-0.00050841,-0.00021367,0.00091121,0.00029004,0.00034918,
 -0.00035657,-0.00003395,-0.00003621,0.00001034,0.00002982,0.00002241,0
 .00003666,-0.00118707,0.00042608,-0.00005638,0.00006863,0.00019769,0.0
 0001846,-0.00003241,0.00005854,0.02424619,0.00400667,-0.00377408,-0.00
 066253,-0.00024371,0.00278831,0.00050659,-0.00025908,-0.00034236,-0.00
 011478,0.00001814,-0.00013992,0.00002651,-0.00003488,0.,0.00001355,-0.
 00000282,0.00001861,-0.00006117,-0.00002820,0.00003287,0.00006653,0.00
 005566,-0.00007509,0.00000940,-0.00000484,0.00000661,-0.00001324,0.000
 00832,-0.00000837,0.00000242,-0.00000069,0.00000093,0.00000940,0.00000
 616,-0.00000256,-0.00001598,-0.00001202,-0.00000985,0.00000575,0.00000
 244,-0.00000257,0.00001054,0.00001232,0.00000948,-0.00000945,0.0000037
 3,-0.00001911,0.00000892,-0.00000710,0.00001797,-0.00000029,0.00000076
 ,-0.00001210,0.00000094,0.00000065,0.00000253,-0.00000131,-0.00000244,
 -0.00000184,-0.00000404,0.00000050,0.00000304,-0.00000468,-0.00000203,
 -0.00000672,-0.00001342,0.00000157,0.00000978,-0.00000911,-0.00000523,
 -0.00001442,-0.00000355,-0.00000096,0.00000433,-0.00000261,-0.00000096
 ,-0.00000215,-0.00016627,-0.00012579,0.00002879,-0.00054557,0.00031362
 ,0.00015165,-0.00320484,0.00042879,0.00304571,0.00051708,0.00272888,-0
 .00343622,-0.03081675,-0.00124681,0.06405242,0.00175068,0.00016986,0.0
 0015832,-0.01757029,-0.00012644,0.00023152,-0.34696265,-0.03112182,0.0
 2087936,0.00115239,-0.00797007,0.00784758,-0.00043229,-0.00078857,-0.0
 0014812,-0.01559047,-0.00090191,-0.00022275,0.00220721,0.00055766,0.00
 071910,0.00022305,0.00012486,0.00005013,0.00064654,0.00031467,-0.00017
 156,0.00004271,-0.00003941,-0.00006349,-0.00000720,0.00000536,0.000007
 82,-0.00101719,-0.00161622,0.00087693,0.00061980,0.00047967,-0.0000947
 0,-0.00146961,-0.00130059,0.00096339,0.00064337,0.00023846,-0.00015347
 ,-0.00010807,0.00004914,-0.00011000,0.00000910,-0.00001732,-0.00006389
 ,0.00005197,0.00001125,0.00003892,-0.00004337,-0.00000070,0.00000573,-
 0.00001928,0.00001218,-0.00000331,0.00001721,-0.00000232,0.00000679,-0
 .00000524,0.00000010,-0.00000196,-0.00004395,-0.00003721,0.00003874,0.
 00004084,0.00004122,-0.00000241,-0.00001642,-0.00000759,0.00001373,0.0
 0000157,0.00000102,-0.00001446,0.00001639,0.00000820,-0.00000473,-0.00
 000774,-0.00000684,-0.00001308,0.00000196,0.00000420,0.00001054,-0.000
 00135,-0.00000178,-0.00000308,0.00000583,0.00000491,-0.00000052,0.0000
 1489,0.00000342,-0.00001059,0.00000797,0.00000108,0.00001283,0.0000259
 5,0.00000704,-0.00004533,0.00001295,-0.00000024,0.00001079,0.00000474,
 0.00000165,-0.00000442,0.00000369,0.00000148,0.00000229,-0.00002588,0.
 00014221,0.00000711,0.00015072,-0.00033813,-0.00001011,0.00036811,-0.0
 0029598,-0.00023524,0.00120568,0.00056469,-0.00073507,-0.00011237,0.00
 217673,0.00069354,0.37355322,-0.00213361,0.00199737,0.00126065,0.03205
 358,-0.00111123,-0.00230048,-0.03184338,-0.04152953,-0.00277807,-0.029
 15108,-0.01507809,0.01711312,-0.00011005,-0.00094637,-0.00064490,-0.01
 183096,0.00011518,-0.00179691,0.00023502,0.00088365,0.00124445,0.00008
 126,0.00000808,-0.00001502,0.00001232,0.00000253,-0.00001120,-0.000053
 63,-0.00002625,-0.00002240,-0.00000012,0.00001804,0.00000263,0.0020965
 7,0.00182671,-0.00137250,-0.00026180,-0.00013675,0.00033438,0.00019458
 ,-0.00067127,0.00044719,0.00018189,0.00008972,-0.00028907,-0.00005250,
 0.00001652,-0.00002671,0.00001436,-0.00002480,-0.00004631,-0.00000806,
 0.00000376,0.00005510,0.00001082,0.00001340,-0.00005798,-0.00000639,0.
 00000781,0.00000751,0.00000217,0.00000283,-0.00000504,-0.00000224,0.00
 000114,-0.00000067,-0.00001562,0.00001804,-0.00001188,0.00005375,0.000
 01353,0.00007886,-0.00001629,-0.00000300,0.00001044,-0.00000987,0.0000
 3308,0.00000578,0.00001108,-0.00001508,-0.00001637,-0.00000246,0.00000
 107,0.00000087,0.00000072,-0.00000046,0.00000070,-0.00000022,-0.000000
 04,-0.00000033,0.00000203,-0.00000478,0.00000490,0.00000564,0.00000405
 ,-0.00000862,0.00000406,-0.00000550,0.00000276,0.00000761,0.00000936,-
 0.00001683,0.00000247,-0.00000005,0.00000270,0.00000110,0.00000056,-0.
 00000134,0.00000102,-0.00000023,0.00000024,-0.00008268,-0.00005721,-0.
 00001252,-0.00021252,0.00003520,0.00002986,-0.00004211,0.00021996,0.00
 043414,-0.00024952,-0.00077449,0.00036388,0.00220979,-0.00481764,-0.00
 208560,0.03943173,0.05993577,-0.00065847,0.00093430,0.00161657,0.01403
 683,-0.00208795,0.00036538,0.02141762,-0.00345247,-0.04359944,0.026034
 46,0.01718900,-0.01037342,0.00119338,0.00071820,0.00023093,-0.03336991
 ,-0.00472700,-0.00009352,0.00165220,0.00180168,0.00269040,-0.00002019,
 0.00031382,0.00000862,-0.00017800,-0.00014407,0.00008356,-0.00002007,0
 .00000033,0.00000125,0.00000094,0.00001007,-0.00000158,-0.00062626,0.0
 0110512,-0.00051791,0.00008866,0.00032309,-0.00023849,-0.00123389,-0.0
 0114349,0.00150600,0.00049037,0.00010502,-0.00017573,0.00000740,0.0000
 3774,0.00003242,0.00002396,-0.00001943,-0.00004182,0.00001317,0.000018
 95,0.00000319,-0.00001774,-0.00001764,0.00001500,-0.00000973,0.0000011
 9,0.00001401,-0.00000273,0.00001122,-0.00001341,-0.00000112,0.00000022
 ,-0.00000070,-0.00001851,0.00000839,0.00001034,0.00005571,0.00001085,0
 .00008131,-0.00000348,0.00000635,0.00000428,-0.00001110,0.00002904,0.0
 0002674,0.00000874,0.00000012,-0.00003941,0.00000320,-0.00001154,0.000
 02121,0.00000470,0.00000307,-0.00001521,0.00000016,0.00000044,0.000002
 63,0.00000296,-0.00000557,0.00000166,0.00000711,0.00000198,-0.00000817
 ,0.00000450,-0.00000382,0.00000643,0.00002733,0.00001731,-0.00005453,0
 .00000258,-0.00000288,0.00000593,0.00000093,0.00000048,-0.00000260,0.0
 0000003,0.00000086,0.00000039,-0.00001937,-0.00008752,-0.00001104,-0.0
 0005316,0.00011051,-0.00003061,-0.00010603,0.00038995,0.00014693,-0.00
 043692,0.00024941,0.00039076,0.00103349,-0.00176189,-0.00051000,-0.027
 82449,-0.00840744,0.05405465,0.00053851,0.00007566,-0.00013590,-0.0009
 1200,0.00088879,0.00023325,-0.01328606,-0.00690442,0.00061741,0.002021
 58,0.00066770,0.00127900,0.00023401,-0.00000214,0.00019523,-0.32317229
 ,-0.08981447,0.03085016,-0.01955422,0.01141899,0.00952940,-0.00080572,
 -0.00002854,-0.00141597,-0.00002438,-0.00001331,-0.00001043,0.00004129
 ,0.00002629,0.00000636,-0.00001115,-0.00000647,0.00000247,0.00001282,0
 .00005272,0.00018570,0.00109023,-0.00163923,-0.00018731,-0.00228685,-0
 .00059572,-0.00050810,0.00084680,0.00005825,0.00009934,0.00033801,0.00
 007339,0.00020728,-0.00001644,0.00002708,0.00002383,0.00003050,0.00000
 054,-0.00003912,-0.00002366,-0.00003634,-0.00002271,-0.00001352,0.0000
 0750,0.00001857,0.00001631,-0.00001482,-0.00001308,-0.00000456,0.00000
 519,-0.00000019,0.00000542,0.00018262,-0.00013515,0.00025396,-0.000009
 61,0.00052919,-0.00003860,-0.00001884,0.00002236,-0.00007040,0.0000945
 2,0.00003041,0.00004275,-0.00009854,0.00000703,-0.00003843,0.00005317,
 -0.00001178,0.00000871,-0.00001672,-0.00000048,-0.00000242,0.00000127,
 0.00000052,0.00000639,-0.00003413,0.00004267,0.00001694,0.00000253,-0.
 00004462,0.00001426,-0.00001641,0.00001013,-0.00001029,0.00005773,-0.0
 0028033,0.00000164,-0.00000470,0.00001193,0.00000391,0.00000310,-0.000
 00349,0.00000678,-0.00000180,0.00000308,0.00000539,0.00000837,-0.00001
 040,0.00003093,-0.00003183,-0.00000304,-0.00003317,-0.00015377,-0.0001
 1092,0.00004384,0.00014510,-0.00005921,0.00074619,-0.00043583,-0.00022
 146,-0.00001554,-0.00075381,-0.00174466,0.35344932,0.00027975,0.000055
 21,-0.00001278,-0.00099955,0.00036552,0.00042213,-0.01066640,-0.002760
 75,0.00123404,0.00151530,0.00066973,0.00062431,0.00004761,-0.00010445,
 0.00014891,-0.09042319,-0.06562077,0.01198538,0.03778902,-0.00457426,-
 0.01069519,0.00103551,0.00094920,0.00103943,-0.00005966,0.00004090,0.0
 0004842,0.00002115,-0.00002098,-0.00001630,-0.00000693,0.00000076,0.00
 000235,-0.00009410,-0.00018903,0.00004374,0.00140946,0.00167267,-0.000
 64954,-0.02796210,-0.00817387,0.00429785,0.00124091,0.00128012,-0.0017
 5307,-0.00021538,0.00010163,0.00005228,0.00006961,0.00001627,-0.000133
 41,0.00012221,-0.00002900,0.00003782,-0.00012013,0.00005897,0.00001831
 ,-0.00001991,0.00003145,-0.00000332,0.00001063,0.00000404,0.00000472,-
 0.00000342,-0.00000132,-0.00000077,-0.00003583,-0.00012929,0.00013667,
 -0.00025110,-0.00011705,-0.00035650,0.00004718,0.00001992,-0.00008009,
 0.00010186,-0.00005887,-0.00001413,-0.00001264,0.00005245,-0.00003288,
 0.00001361,-0.00003974,-0.00000029,-0.00000137,0.00001275,0.00000524,-
 0.00000028,-0.00000071,-0.00000108,0.00000072,0.00002481,-0.00002502,-
 0.00000074,-0.00001314,0.00003552,-0.00000071,0.00003442,0.00003416,0.
 00026049,0.00004388,-0.00008439,0.00002853,-0.00002555,0.00003308,0.00
 000565,0.00000273,-0.00000762,-0.00000084,0.00000355,0.00000069,0.0000
 1125,-0.00001887,-0.00000579,0.00003893,-0.00004677,-0.00001374,-0.000
 00024,-0.00001564,-0.00003915,0.00015986,0.00014682,-0.00000673,0.0002
 8002,-0.00012170,-0.00026254,-0.00029627,-0.00031016,-0.00188725,0.086
 39448,0.07989738,0.00055607,0.00015179,-0.00038551,-0.00124308,0.00124
 265,0.00119547,-0.03119092,-0.01154572,0.00020050,0.00146253,-0.000059
 59,0.00314566,0.00000838,-0.00033314,0.00049655,0.03069919,0.01273274,
 -0.04690328,0.01513445,-0.00503871,-0.00070059,0.00100804,0.00026056,0
 .00045657,-0.00003809,-0.00001243,0.00007171,0.00000557,0.00001102,0.0
 0002105,0.00000718,0.00000086,0.00000437,-0.00040609,-0.00016410,-0.00
 053923,-0.00138036,-0.00022016,0.00078316,0.02557578,0.01067265,-0.004
 52230,-0.00043149,-0.00109998,0.00269073,0.00052740,-0.00007404,-0.000
 23437,-0.00010115,0.00000337,0.00020041,-0.00011011,0.00001035,-0.0000
 7869,0.00011251,-0.00005120,0.00009897,0.00002698,-0.00005123,-0.00001
 774,-0.00001143,-0.00000896,0.00001493,0.00000611,-0.00000239,0.000001
 75,0.00008334,0.00005306,-0.00003641,-0.00024321,-0.00011455,-0.000110
 34,0.00003055,-0.00000928,-0.00001335,-0.00004420,-0.00003518,-0.00001
 948,-0.00004396,-0.00000386,0.00008392,0.00000448,0.00002941,-0.000013
 56,-0.00000604,-0.00000803,0.00000433,0.00000138,0.,-0.00000123,-0.000
 01622,-0.00000979,0.00000380,-0.00003907,-0.00001213,0.00003823,-0.000
 02736,-0.00001717,-0.00006930,-0.00037755,-0.00009001,-0.00001602,-0.0
 0004238,0.00003912,-0.00003241,-0.00000745,-0.00000501,0.00001010,-0.0
 0000293,-0.00000144,-0.00000307,0.00000918,-0.00003962,0.00000771,0.00
 001202,-0.00001141,0.00000093,0.00006912,-0.00014196,-0.00008642,0.000
 11651,0.00004168,-0.00014004,0.00051597,-0.00022958,-0.00001594,-0.001
 95252,-0.00149003,-0.00509503,-0.03860823,-0.00730266,0.05224580,0.000
 08023,-0.00010690,0.00025013,0.00010828,0.00050170,-0.00006387,-0.0004
 6141,-0.00030521,-0.00018207,0.00037076,0.00010223,-0.00016846,-0.0000
 2923,0.00003836,0.00006916,-0.00418241,-0.00035695,0.00217326,0.002115
 13,-0.00005672,-0.00135912,-0.00039239,-0.00040237,-0.00001112,0.00060
 678,-0.00017336,0.00015639,0.00002869,0.00028168,0.00011895,0.00000495
 ,-0.00000724,0.00003732,-0.00047179,-0.00078241,-0.00124801,-0.0128096
 1,0.01131066,0.00843684,-0.32244694,-0.04992095,0.06824426,-0.02179508
 ,-0.00837493,-0.00957338,0.00000912,-0.00110792,0.00497611,0.00032314,
 0.00029822,-0.00028804,0.00062674,-0.00010067,-0.00049482,-0.00075592,
 -0.00022600,0.00104482,-0.00007469,0.00009052,0.00002743,0.00003512,0.
 00000229,-0.00002844,-0.00001512,0.00000578,-0.00000498,-0.00032303,-0
 .00001319,0.00008120,0.00015474,-0.00003286,-0.00002411,0.00000666,-0.
 00002597,-0.00001444,0.00079900,0.00017326,0.00011963,0.00009461,-0.00
 007531,-0.00035563,-0.00000814,-0.00002631,0.00000857,0.00001064,0.000
 00462,-0.00002695,-0.00000051,0.00000339,0.00000105,0.00006190,0.00001
 542,0.00000238,0.00011757,-0.00000055,-0.00002411,0.00008590,0.0002044
 3,0.00036278,0.00169763,0.00069226,-0.00125825,0.00009377,-0.00025835,
 0.00018712,0.00002394,0.00002173,-0.00003883,0.00000591,0.00000607,0.0
 0000391,-0.00002690,0.00000555,-0.00000431,0.00010673,-0.00028254,-0.0
 0011140,0.00000551,-0.00000006,-0.00000960,0.00072016,0.00051926,0.001
 13050,0.00003941,-0.00006237,-0.00022619,0.00067039,0.00022535,0.00024
 540,0.00051317,0.00028706,0.00035106,0.35427657,-0.00005758,0.00032822
 ,-0.00024167,-0.00030515,-0.00051701,-0.00012622,-0.00083195,-0.000080
 49,-0.00106376,0.00051398,0.00007563,0.00031573,0.00012588,-0.00008330
 ,0.00002413,-0.02508697,-0.00489331,0.00928461,0.00077972,0.00331191,-
 0.00106246,-0.00060604,-0.00054503,-0.00019780,0.00017536,0.00008107,0
 .00002690,-0.00019374,-0.00027523,-0.00017973,-0.00001416,0.00003114,-
 0.00002062,0.00454688,0.00182082,0.00402400,0.03812721,-0.01380266,-0.
 01912992,-0.05341909,-0.04889664,0.01696942,-0.01269526,0.00144193,-0.
 00490417,0.00049923,-0.00066058,0.00203489,0.00025652,-0.00010199,-0.0
 0006876,-0.00035667,0.00009771,0.00048048,0.00065141,0.00011432,-0.001
 20676,0.00001871,0.00003647,0.00011261,-0.00003648,0.00006068,-0.00007
 475,-0.00000338,0.00000021,0.00000006,-0.00015883,0.00004798,-0.000083
 81,0.00008679,-0.00004832,0.00006074,-0.00000307,-0.00000534,0.0000008
 6,0.00004218,0.00017510,0.00007899,0.00003018,-0.00003906,-0.00023991,
 0.00001723,-0.00005137,0.00011664,0.00001529,0.00001143,-0.00007227,0.
 00000176,0.00000171,0.00001285,0.00004639,-0.00001839,0.00001023,0.000
 05762,-0.00002163,-0.00006352,0.00002817,0.00000777,0.00007014,0.00063
 320,0.00039584,-0.00002455,0.00001834,-0.00008050,0.00003993,-0.000002
 69,0.00000304,-0.00000824,-0.00000250,0.00000092,-0.00000348,0.0000013
 6,-0.00003257,0.00001015,-0.00026605,0.00003470,-0.00003548,-0.0000165
 2,0.00000924,0.00002010,-0.00140131,0.00017295,0.00009078,-0.00002834,
 -0.00018032,0.00001314,0.00051661,0.00025557,0.00036128,0.00038646,-0.
 00311323,0.00293406,0.04790932,0.06493061,-0.00003956,-0.00006651,-0.0
 0023775,-0.00022614,0.00020145,-0.00018233,0.00161126,0.00003828,0.000
 89986,-0.00061681,-0.00009909,-0.00005423,-0.00002155,-0.00002076,0.00
 001340,0.02511856,0.00731001,-0.00469027,-0.00189766,-0.00204217,0.001
 49227,-0.00005980,0.00025938,0.00002583,-0.00005734,-0.00009513,0.0000
 3857,-0.00009961,-0.00012455,-0.00008916,0.00001129,0.00001674,-0.0000
 1043,0.00300059,0.00044548,0.00252952,0.01345814,-0.00844001,-0.002884
 44,0.07643615,0.01907833,-0.06096936,-0.03493584,-0.00891248,-0.013511
 99,-0.00808716,-0.00292439,0.00287283,0.00036544,0.00023644,-0.0006403
 1,0.00001922,0.00004168,0.00043119,-0.00013797,0.00017269,-0.00054660,
 -0.00001784,0.00010999,0.00005810,-0.00000090,0.00003122,-0.00003007,-
 0.00000681,0.00000521,-0.00000345,-0.00010598,0.00006494,0.00008688,0.
 00006273,-0.00010308,0.00001443,0.00003744,-0.00000760,-0.00003085,-0.
 00058761,-0.00025534,-0.00001109,0.00018045,0.00013092,-0.00007615,0.0
 0001515,-0.00007419,0.00004777,0.00000912,0.00001982,-0.00002408,-0.00
 000067,0.00000048,0.00000468,0.00002528,0.00000633,0.00000243,0.000048
 64,-0.00005815,-0.00002978,0.00022246,0.00004450,-0.00004473,0.0007329
 8,0.00029939,-0.00108083,0.00027743,-0.00009653,0.00004677,0.00001666,
 0.00001787,-0.00004118,0.00000253,-0.00000553,0.00000986,0.00000378,0.
 00000336,-0.00001229,-0.00017572,0.00007627,-0.00001021,-0.00001906,-0
 .00000162,0.00000265,-0.00084912,-0.00017622,-0.00007371,-0.00017538,-
 0.00001970,0.00015837,-0.00068587,0.00001804,-0.00049793,-0.00033874,0
 .00317914,-0.00274232,-0.07251214,-0.00828487,0.07979015\\0.00755360,-
 0.00891627,-0.01217532,-0.00414723,-0.00604968,-0.00558011,-0.00743338
 ,-0.03652024,0.00278331,0.00281698,0.03845496,0.02896101,-0.00063186,-
 0.03045802,-0.00699748,0.00669236,0.00473933,-0.01124395,-0.00401530,0
 .01600220,-0.01062743,0.00055933,0.00020779,0.02084126,-0.00832369,0.0
 2212897,0.00518281,0.00635295,0.00901265,0.01097981,0.00269090,-0.0346
 3126,-0.01289190,0.00660537,0.01612111,0.01668161,-0.00956823,-0.00885
 405,0.00938809,-0.01343976,-0.01260642,-0.01967926,0.00569905,0.028845
 00,0.02150458,-0.00085831,-0.02164582,-0.01472570,-0.01252331,0.007778
 53,0.04667735,0.00829678,0.00277451,0.00047991,-0.00088922,0.00805544,
 -0.02350354,-0.02079284,-0.00360888,0.01607123,0.00904498,-0.00109754,
 -0.03555631,-0.00121391,0.00088916,0.03043141,-0.00224139,-0.00469920,
 0.00843716,-0.00755070,-0.02763083,-0.01517850,0.00004926,0.03115191,0
 .01636152,0.02038215,0.00527674,-0.00109484,-0.00785961,0.00734502,-0.
 01999432,0.02970290,0.00247727,-0.00725070,-0.00107968,-0.00508959,0.0
 1634121,-0.00226670,-0.00492116,-0.00225504,-0.00066201,-0.00529568,-0
 .01631890,0.01864295,0.00405084,0.00095853,-0.01965935,-0.00337938,-0.
 00265521,0.01950000,0.00081594,0.00228555,-0.02298108,-0.00361941,-0.0
 0530979,0.01701577,0.00546088,-0.00250939,-0.01875862,-0.00610611,-0.0
 0273158,0.00341645,0.00725746,-0.01770636,-0.02099685,-0.00172158,-0.0
 0251676,-0.00148409,0.00472964,-0.00102655,0.02123022,0.00084423,-0.00
 280240,-0.01955700,-0.00168547,0.00048676,0.02181438,0.00327055,-0.001
 87185,-0.01919269,-0.00359873,0.00375206,0.02006041,0.00444523,-0.0044
 0202\\\@


 SIC AS THE CAWSE OF EWERY THING IS, SIC WILBE THE EFFECT.
 -- PROVERBS AND REASONS OF THE YEAR 1585
           AS REPRINTED IN PAISLEY MAGAZINE 1828.
 Job cpu time:  1 days  8 hours 25 minutes 33.9 seconds.
 File lengths (MBytes):  RWF=   1769 Int=      0 D2E=      0 Chk=     28 Scr=      1
 Normal termination of Gaussian 09 at Fri Mar 25 03:15:51 2016.
Gaussian '09 finished on node026 at Fri Mar 25 03:15:51 EDT 2016.
