Gaussian '09 started on node028 at Mon Feb  8 13:53:38 EST 2016.
 Entering Gaussian System, Link 0=/usr/local/gaussian/g09/g09
 Initial command:
 /usr/local/gaussian/g09/l1.exe /home/srmcgrat/thesis/gaussian/cellobiose/290/7000/1/2dfp/gaussian20985/Gau-21021.inp -scrdir=/home/srmcgrat/thesis/gaussian/cellobiose/290/7000/1/2dfp/gaussian20985/
 Entering Link 1 = /usr/local/gaussian/g09/l1.exe PID=     21023.
  
 Copyright (c) 1988,1990,1992,1993,1995,1998,2003,2009,2010,
            Gaussian, Inc.  All Rights Reserved.
  
 This is part of the Gaussian(R) 09 program.  It is based on
 the Gaussian(R) 03 system (copyright 2003, Gaussian, Inc.),
 the Gaussian(R) 98 system (copyright 1998, Gaussian, Inc.),
 the Gaussian(R) 94 system (copyright 1995, Gaussian, Inc.),
 the Gaussian 92(TM) system (copyright 1992, Gaussian, Inc.),
 the Gaussian 90(TM) system (copyright 1990, Gaussian, Inc.),
 the Gaussian 88(TM) system (copyright 1988, Gaussian, Inc.),
 the Gaussian 86(TM) system (copyright 1986, Carnegie Mellon
 University), and the Gaussian 82(TM) system (copyright 1983,
 Carnegie Mellon University). Gaussian is a federally registered
 trademark of Gaussian, Inc.
  
 This software contains proprietary and confidential information,
 including trade secrets, belonging to Gaussian, Inc.
  
 This software is provided under written license and may be
 used, copied, transmitted, or stored only in accord with that
 written license.
  
 The following legend is applicable only to US Government
 contracts under FAR:
  
                    RESTRICTED RIGHTS LEGEND
  
 Use, reproduction and disclosure by the US Government is
 subject to restrictions as set forth in subparagraphs (a)
 and (c) of the Commercial Computer Software - Restricted
 Rights clause in FAR 52.227-19.
  
 Gaussian, Inc.
 340 Quinnipiac St., Bldg. 40, Wallingford CT 06492
  
  
 ---------------------------------------------------------------
 Warning -- This program may not be used in any manner that
 competes with the business of Gaussian, Inc. or will provide
 assistance to any competitor of Gaussian, Inc.  The licensee
 of this program is prohibited from giving any competitor of
 Gaussian, Inc. access to this program.  By using this program,
 the user acknowledges that Gaussian, Inc. is engaged in the
 business of creating and licensing software in the field of
 computational chemistry and represents and warrants to the
 licensee that it is not a competitor of Gaussian, Inc. and that
 it will not use this program in any manner prohibited above.
 ---------------------------------------------------------------
  

 Cite this work as:
 Gaussian 09, Revision B.01,
 M. J. Frisch, G. W. Trucks, H. B. Schlegel, G. E. Scuseria, 
 M. A. Robb, J. R. Cheeseman, G. Scalmani, V. Barone, B. Mennucci, 
 G. A. Petersson, H. Nakatsuji, M. Caricato, X. Li, H. P. Hratchian, 
 A. F. Izmaylov, J. Bloino, G. Zheng, J. L. Sonnenberg, M. Hada, 
 M. Ehara, K. Toyota, R. Fukuda, J. Hasegawa, M. Ishida, T. Nakajima, 
 Y. Honda, O. Kitao, H. Nakai, T. Vreven, J. A. Montgomery, Jr., 
 J. E. Peralta, F. Ogliaro, M. Bearpark, J. J. Heyd, E. Brothers, 
 K. N. Kudin, V. N. Staroverov, T. Keith, R. Kobayashi, J. Normand, 
 K. Raghavachari, A. Rendell, J. C. Burant, S. S. Iyengar, J. Tomasi, 
 M. Cossi, N. Rega, J. M. Millam, M. Klene, J. E. Knox, J. B. Cross, 
 V. Bakken, C. Adamo, J. Jaramillo, R. Gomperts, R. E. Stratmann, 
 O. Yazyev, A. J. Austin, R. Cammi, C. Pomelli, J. W. Ochterski, 
 R. L. Martin, K. Morokuma, V. G. Zakrzewski, G. A. Voth, 
 P. Salvador, J. J. Dannenberg, S. Dapprich, A. D. Daniels, 
 O. Farkas, J. B. Foresman, J. V. Ortiz, J. Cioslowski, 
 and D. J. Fox, Gaussian, Inc., Wallingford CT, 2010.
 
 ******************************************
 Gaussian 09:  EM64L-G09RevB.01 12-Aug-2010
                 8-Feb-2016 
 ******************************************
 --------------------------------------------------
 # freq=raman b3lyp/6-31+g(2df,p) geom=connectivity
 --------------------------------------------------
 1/10=4,30=1,38=1,57=2/1,3;
 2/12=2,17=6,18=5,40=1/2;
 3/5=1,6=6,7=114,11=2,16=1,25=1,30=1,71=2,74=-5/1,2,3;
 4//1;
 5/5=2,38=5,98=1/2;
 8/6=4,10=90,11=11/1;
 10/13=10,15=4/2;
 11/6=3,8=1,9=11,15=111,16=1/1,2,10;
 10/6=1/2;
 6/7=2,8=2,9=2,10=2,18=1,28=1/1;
 7/8=1,10=1,25=1/1,2,3,16;
 1/10=4,30=1/3;
 99//99;
 ------------
 290 7000.com
 ------------
 Symbolic Z-matrix:
 Charge =  0 Multiplicity = 1
 O                     7.556     7.411     12.34 
 C                     8.199     7.873     13.537 
 C                     7.651     9.236     13.927 
 O                     7.825     10.297    12.976 
 H                     7.57      9.9       12.094 
 C                     8.092     9.634     15.326 
 O                     7.329     10.753    15.8 
 H                     7.613     10.97     16.734 
 C                     8.306     5.393     14.404 
 O                     7.636     4.588     13.424 
 H                     7.973     3.649     13.493 
 C                     7.9       6.843     14.614 
 O                     8.569     7.244     15.819 
 C                     8.026     8.478     16.31 
 O                     8.737     8.782     17.519 
 C                     8.257     8.384     18.811 
 C                     8.772     7.045     19.315 
 O                     8.668     5.949     18.394 
 H                     8.708     6.351     17.479 
 C                     8.242     6.639     20.681 
 O                     8.845     5.462     21.238 
 H                     8.306     5.261     22.056 
 C                     8.016     10.798    19.564 
 O                     8.355     11.464    18.339 
 H                     8.027     12.406    18.414 
 C                     8.601     9.427     19.862 
 O                     8.061     9.053     21.137 
 C                     8.481     7.781     21.654 
 O                     7.63      7.668     22.804 
 H                     8.2218    7.16197   11.69479 
 H                     9.25541   7.93762   13.37975 
 H                     6.59208   9.09857   13.99555 
 H                     6.84627   6.86282   14.79885 
 H                     8.19897   4.89653   15.34579 
 H                     9.34674   5.39029   14.15549 
 H                     6.99858   8.31344   16.55947 
 H                     9.11403   9.94467   15.26408 
 H                     8.16903   7.59032   23.59458 
 H                     9.50866   7.8166    21.94989 
 H                     7.18774   6.47471   20.6007 
 H                     9.82266   7.19082   19.45557 
 H                     7.19052   8.3196    18.753 
 H                     9.66498   9.50843   19.94089 
 H                     8.30014   11.44582   20.36681 
 H                     6.9507    10.70081   19.58833 
 

 GradGradGradGradGradGradGradGradGradGradGradGradGradGradGradGradGradGrad
 Berny optimization.
 Initialization pass.
 Trust Radius=3.00D-01 FncErr=1.00D-07 GrdErr=1.00D-07
 Number of steps in this run=      2 maximum allowed number of steps=      2.
 GradGradGradGradGradGradGradGradGradGradGradGradGradGradGradGradGradGrad

                          Input orientation:                          
 ---------------------------------------------------------------------
 Center     Atomic      Atomic             Coordinates (Angstroms)
 Number     Number       Type             X           Y           Z
 ---------------------------------------------------------------------
      1          8           0        7.556000    7.411000   12.340000
      2          6           0        8.199000    7.873000   13.537000
      3          6           0        7.651000    9.236000   13.927000
      4          8           0        7.825000   10.297000   12.976000
      5          1           0        7.570000    9.900000   12.094000
      6          6           0        8.092000    9.634000   15.326000
      7          8           0        7.329000   10.753000   15.800000
      8          1           0        7.613000   10.970000   16.734000
      9          6           0        8.306000    5.393000   14.404000
     10          8           0        7.636000    4.588000   13.424000
     11          1           0        7.973000    3.649000   13.493000
     12          6           0        7.900000    6.843000   14.614000
     13          8           0        8.569000    7.244000   15.819000
     14          6           0        8.026000    8.478000   16.310000
     15          8           0        8.737000    8.782000   17.519000
     16          6           0        8.257000    8.384000   18.811000
     17          6           0        8.772000    7.045000   19.315000
     18          8           0        8.668000    5.949000   18.394000
     19          1           0        8.708000    6.351000   17.479000
     20          6           0        8.242000    6.639000   20.681000
     21          8           0        8.845000    5.462000   21.238000
     22          1           0        8.306000    5.261000   22.056000
     23          6           0        8.016000   10.798000   19.564000
     24          8           0        8.355000   11.464000   18.339000
     25          1           0        8.027000   12.406000   18.414000
     26          6           0        8.601000    9.427000   19.862000
     27          8           0        8.061000    9.053000   21.137000
     28          6           0        8.481000    7.781000   21.654000
     29          8           0        7.630000    7.668000   22.804000
     30          1           0        8.221802    7.161973   11.694793
     31          1           0        9.255408    7.937615   13.379752
     32          1           0        6.592079    9.098569   13.995550
     33          1           0        6.846275    6.862815   14.798853
     34          1           0        8.198966    4.896528   15.345785
     35          1           0        9.346738    5.390292   14.155492
     36          1           0        6.998583    8.313437   16.559467
     37          1           0        9.114032    9.944672   15.264076
     38          1           0        8.169030    7.590317   23.594577
     39          1           0        9.508657    7.816600   21.949894
     40          1           0        7.187742    6.474709   20.600700
     41          1           0        9.822656    7.190820   19.455567
     42          1           0        7.190516    8.319603   18.752997
     43          1           0        9.664977    9.508426   19.940890
     44          1           0        8.300138   11.445818   20.366806
     45          1           0        6.950701   10.700809   19.588329
 ---------------------------------------------------------------------
                    Distance matrix (angstroms):
                    1          2          3          4          5
     1  O    0.000000
     2  C    1.435166   0.000000
     3  C    2.420376   1.519925   0.000000
     4  O    2.967466   2.516023   1.435409   0.000000
     5  H    2.501166   2.566441   1.951242   1.000279   0.000000
     6  C    3.761013   2.512587   1.519897   2.456289   3.284671
     7  O    4.815817   3.764634   2.431687   2.903262   3.810528
     8  H    5.654818   4.489500   3.299613   3.823668   4.761969
     9  C    2.982435   2.629361   3.927493   5.130279   5.117699
    10  O    3.025026   3.334811   4.675162   5.729669   5.476367
    11  H    3.956759   4.230270   5.613075   6.669715   6.418303
    12  C    2.368974   1.519944   2.502083   3.823452   3.975494
    13  O    3.627327   2.395843   2.896628   4.237569   4.682730
    14  C    4.137667   2.843498   2.528612   3.803251   4.472659
    15  O    5.486023   4.119715   3.779944   4.875020   5.660604
    16  C    6.581183   5.299015   4.994657   6.155763   6.920138
    17  C    7.089657   5.865083   5.923484   7.187158   7.857396
    18  O    6.326524   5.245206   5.638506   6.997891   7.517048
    19  H    5.372153   4.256164   4.696507   6.052075   6.548944
    20  C    8.404693   7.249920   7.260179   8.539431   9.209901
    21  O    9.199702   8.095408   8.313810   9.626955  10.243740
    22  H    9.979261   8.911080   9.072502  10.394184  11.013785
    23  C    7.991842   6.701779   5.860788   6.609783   7.536990
    24  O    7.283764   5.998235   4.992529   5.514033   6.485549
    25  H    7.878156   6.660541   5.506673   5.836140   6.814051
    26  C    7.857275   6.525500   6.013585   6.983987   7.850383
    27  O    8.963169   7.692298   7.223966   8.258641   9.095842
    28  C    9.367130   8.122418   7.906482   9.059154   9.834311
    29  O   10.467417   9.286715   9.014444  10.175424  10.940271
    30  H    0.960000   1.974793   3.100025   3.409889   2.842711
    31  H    2.060679   1.070000   2.135277   2.788508   2.888722
    32  H    2.553014   2.072313   1.070000   1.998953   2.283531
    33  H    2.617284   2.107751   2.653246   4.009280   4.130920
    34  H    3.971236   3.482971   4.598286   5.909385   6.000370
    35  H    3.253616   2.804225   4.209181   5.270927   5.267259
    36  H    4.350748   3.281812   2.864726   4.178364   4.773269
    37  H    4.170992   2.848139   2.104863   2.649722   3.526388
    38  H   11.272687  10.061594   9.820319  10.963515  11.745499
    39  H    9.814655   8.514410   8.356579   9.461388  10.258538
    40  H    8.321744   7.271431   7.237237   8.552897   9.178381
    41  H    7.471111   6.175035   6.282030   7.458135   8.161298
    42  H    6.487347   5.331334   4.933769   6.138922   6.854481
    43  H    8.162139   6.770045   6.348007   7.246865   8.131171
    44  H    9.014606   7.708535   6.839282   7.494635   8.447602
    45  H    7.982950   6.795096   5.889544   6.682092   7.562393
                    6          7          8          9         10
     6  C    0.000000
     7  O    1.434924   0.000000
     8  H    1.999200   1.000050   0.000000
     9  C    4.345338   5.624317   6.083755   0.000000
    10  O    5.411807   6.614140   7.189336   1.434338   0.000000
    11  H    6.260533   7.496919   8.014407   1.995582   1.000025
    12  C    2.886778   4.125620   4.648537   1.520341   2.563361
    13  O    2.486499   3.721699   3.954015   2.344695   3.696059
    14  C    1.519522   2.433420   2.561330   3.637095   4.859341
    15  O    2.439504   2.970230   2.582043   4.623236   5.964131
    16  C    3.706069   3.942013   3.378766   5.326362   6.619292
    17  C    4.803899   5.309118   4.838436   5.202325   6.483149
    18  O    4.829454   5.621403   5.392501   4.044784   5.255306
    19  H    3.974035   4.909001   4.805123   3.245765   4.549767
    20  C    6.137471   6.448467   5.893387   6.399792   7.565572
    21  O    7.274911   7.737233   7.220935   6.855570   7.955134
    22  H    8.028812   8.381774   7.835599   7.653138   8.684080
    23  C    4.395602   3.826446   2.863720   7.478217   8.741173
    24  O    3.535002   2.829261   1.835926   7.234892   8.482545
    25  H    4.150175   3.170585   2.248531   8.083323   9.283001
    26  C    4.569160   4.458262   3.625104   6.793375   8.111411
    27  O    5.840055   5.648840   4.823070   7.667393   8.922288
    28  C    6.605188   6.665524   5.927018   7.635160   8.868042
    29  O    7.745908   7.659232   6.910021   8.728837   9.872732
    30  H    4.394705   5.526780   6.345496   3.236689   3.155734
    31  H    2.831805   4.182707   4.810804   2.902676   3.720802
    32  H    2.075222   2.556606   3.470395   4.103120   4.664941
    33  H    3.083696   4.045844   4.604522   2.108806   2.772845
    34  H    4.738721   5.938132   6.257600   1.070000   2.026173
    35  H    4.577501   5.961066   6.386525   1.070000   2.026173
    36  H    2.112082   2.576322   2.732270   3.858021   4.910838
    37  H    1.070000   2.031489   2.337749   4.702166   5.853579
    38  H    8.517743   8.453617   7.668047   9.450591  10.617847
    39  H    7.013261   7.155037   6.383024   8.016280   9.307071
    40  H    6.214601   6.431986   5.944733   6.389028   7.434085
    41  H    5.100747   5.680723   5.154775   5.572318   6.923578
    42  H    3.779500   3.828941   3.358488   5.359393   6.520853
    43  H    4.877216   4.914542   4.078106   7.031408   8.414107
    44  H    5.360572   4.720045   3.727713   8.496570   9.781273
    45  H    4.539613   3.807528   2.942498   7.542343   8.708330
                   11         12         13         14         15
    11  H    0.000000
    12  C    3.385795   0.000000
    13  O    4.323137   1.435405   0.000000
    14  C    5.590844   2.359135   1.434812   0.000000
    15  O    6.568109   3.591562   2.298623   1.435137   0.000000
    16  C    7.126149   4.485191   3.216987   2.513404   1.434597
    17  C    6.787260   4.785456   3.507538   3.411749   2.498802
    18  O    5.458280   3.959477   2.883999   3.339320   2.965851
    19  H    4.871265   3.017143   1.890071   2.521074   2.431502
    20  C    7.789724   6.080055   4.910397   4.747022   3.851716
    21  O    8.002023   6.832098   5.711152   5.835426   4.986484
    22  H    8.719771   7.619116   6.549933   6.591207   5.759129
    23  C    9.379077   6.337033   5.192471   3.996375   2.960764
    24  O    9.203470   5.952839   4.919817   3.625090   2.830450
    25  H   10.045109   6.738182   5.802933   4.456007   3.799803
    26  C    8.622287   5.891516   4.594819   3.721281   2.433962
    27  O    9.361714   6.889089   5.640183   4.861253   3.690575
    28  C    9.161518   7.125939   5.860319   5.408435   4.262131
    29  O   10.147154   8.235874   7.060575   6.556291   5.513408
    30  H    3.954292   2.954162   4.139609   4.803166   6.067233
    31  H    4.477680   2.135107   2.627202   3.223323   4.256184
    32  H    5.644227   2.679688   3.266896   2.792474   4.137100
    33  H    3.647379   1.070000   2.038083   2.506818   3.828487
    34  H    2.245039   2.100867   2.423114   3.713027   4.484332
    35  H    2.314768   2.100867   2.609285   3.990012   4.815460
    36  H    5.666540   2.599919   2.039165   1.070000   2.040183
    37  H    6.638836   3.393647   2.810450   2.104494   2.564886
    38  H   10.845011   9.015632   7.793556   7.339857   6.217341
    39  H    9.552287   7.573045   6.228859   5.868912   4.600030
    40  H    7.688996   6.040159   5.036302   4.808945   4.149779
    41  H    7.177598   5.220953   3.846960   3.844398   2.731445
    42  H    7.077739   4.451407   3.415477   2.586766   2.031791
    43  H    8.875300   6.212519   4.828951   4.114776   2.693397
    44  H   10.399356   7.378402   6.197588   5.033962   3.923872
    45  H    9.376894   6.366145   5.364351   4.104216   3.339882
                   16         17         18         19         20
    16  C    0.000000
    17  C    1.520579   0.000000
    18  O    2.504403   1.435365   0.000000
    19  H    2.471986   1.963830   1.000214   0.000000
    20  C    2.557763   1.520425   2.426509   3.248523   0.000000
    21  O    3.843717   2.491816   2.890819   3.865122   1.434987
    22  H    4.503949   3.303467   3.743612   4.722143   1.947718
    23  C    2.540174   3.836476   5.030587   4.960030   4.312313
    24  O    3.117497   4.544670   5.524149   5.196824   5.364546
    25  H    4.048085   5.486998   6.488770   6.164496   6.200307
    26  C    1.520127   2.449974   3.775711   3.892546   2.927898
    27  O    2.428220   2.803082   4.186564   4.593515   2.463350
    28  C    2.914864   2.469271   3.744168   4.418943   1.519215
    29  O    4.104855   3.723629   4.845669   5.590367   2.437317
    30  H    7.220457   7.640940   6.822740   5.860983   9.001435
    31  H    5.540264   6.021429   5.426078   4.429541   7.484759
    32  H    5.145010   6.104568   5.794445   4.915351   7.312110
    33  H    4.516799   4.912961   4.132653   3.303205   6.049611
    34  H    4.916660   4.549612   3.258727   2.631579   5.612716
    35  H    5.641239   5.448753   4.328717   3.518047   6.735130
    36  H    2.580309   3.513816   3.426810   2.760218   4.619184
    37  H    3.968737   4.993503   5.095170   4.240899   6.405542
    38  H    4.849771   4.356113   5.476212   6.263121   3.065821
    39  H    3.426550   2.842657   4.103537   4.772623   2.145054
    40  H    2.826965   2.118521   2.708700   3.474406   1.070000
    41  H    2.071334   1.070000   2.000568   2.419622   2.074768
    42  H    1.070000   2.107499   2.816310   2.793068   2.765365
    43  H    2.126825   2.693996   4.007037   4.116557   3.287283
    44  H    3.434694   4.549302   5.851691   5.870515   4.817426
    45  H    2.770968   4.093505   5.191842   5.143754   4.399963
                   21         22         23         24         25
    21  O    0.000000
    22  H    1.000023   0.000000
    23  C    5.653531   6.078860   0.000000
    24  O    6.683435   7.231577   1.434957   0.000000
    25  H    7.540772   8.024527   1.976938   1.000286   0.000000
    26  C    4.204062   4.717650   1.520089   2.555272   3.361640
    27  O    3.676974   3.909456   2.349761   3.705153   4.319548
    28  C    2.383970   2.557856   3.699542   4.956772   5.665187
    29  O    2.965639   2.609622   4.521448   5.905207   6.471349
    30  H    9.713449  10.534487   8.671071   7.916481   8.525580
    31  H    8.249192   9.129234   6.925522   6.151444   6.842448
    32  H    8.411502   9.090397   5.993601   5.250591   5.702701
    33  H    6.886203   7.573822   6.289719   5.998316   6.722373
    34  H    5.954436   6.720958   7.256320   7.219097   8.113919
    35  H    7.100620   7.969811   7.763126   7.441453   8.312446
    36  H    5.781749   6.421727   4.029319   3.864279   4.609339
    37  H    7.473586   8.289748   4.519202   3.512783   4.142680
    38  H    3.246556   2.794942   5.153465   6.531546   7.074557
    39  H    2.547818   2.826435   4.099910   5.260514   5.980004
    40  H    2.044073   2.200338   4.522345   5.600965   6.377007
    41  H    2.668651   3.575850   4.035779   4.654117   5.613140
    42  H    4.132609   4.637800   2.735251   3.378557   4.184885
    43  H    4.327634   4.935700   2.127010   2.847167   3.662007
    44  H    6.071403   6.411348   1.070000   2.028630   2.193173
    45  H    5.809897   6.125174   1.070000   2.028630   2.333483
                   26         27         28         29         30
    26  C    0.000000
    27  O    1.434260   0.000000
    28  C    2.436181   1.435853   0.000000
    29  O    3.562623   2.209723   1.435085   0.000000
    30  H    8.483951   9.631050   9.981793  11.136462   0.000000
    31  H    6.683267   7.927521   8.311884   9.567188   2.123453
    32  H    6.209578   7.291098   7.997241   8.984019   3.420510
    33  H    5.940502   6.815025   7.106928   8.083621   3.408337
    34  H    6.409602   7.129759   6.942139   7.976826   4.296802
    35  H    7.029607   7.988117   7.917867   9.106692   3.234096
    36  H    3.835947   4.757046   5.332477   6.309474   5.146571
    37  H    4.655329   6.032843   6.775938   8.014739   4.612946
    38  H    4.182360   2.861957   1.974721   0.960000  11.907608
    39  H    2.788643   2.070071   1.070000   2.069041  10.356237
    40  H    3.355443   2.774488   2.118574   2.544419   8.992041
    41  H    2.580336   3.065675   2.642245   4.030812   7.924215
    42  H    2.108478   2.641796   3.220444   4.126543   7.226473
    43  H    1.070000   2.052031   2.705651   3.965564   8.694062
    44  H    2.102611   2.525067   3.888505   4.545427   9.672708
    45  H    2.102611   2.519211   3.890257   4.472127   8.743396
                   31         32         33         34         35
    31  H    0.000000
    32  H    2.969906   0.000000
    33  H    2.995491   2.389248   0.000000
    34  H    3.772210   4.697059   2.448508   0.000000
    35  H    2.664389   4.622234   2.972298   1.725683   0.000000
    36  H    3.917280   2.712074   2.286321   3.819582   4.453954
    37  H    2.756617   2.947082   3.854477   5.131060   4.693132
    38  H   10.278301   9.843928   8.924332   8.677555   9.763372
    39  H    8.574737   8.568632   7.689952   7.338690   8.164919
    40  H    7.652282   7.132142   5.824830   5.579189   6.883163
    41  H    6.147764   6.624795   5.536372   4.979001   5.617757
    42  H    5.769008   4.857799   4.228000   4.933914   5.862356
    43  H    6.758973   6.705054   6.433108   6.673363   7.108526
    44  H    7.876481   7.001424   7.356611   8.253126   8.737574
    45  H    7.175886   5.828804   6.138418   7.297055   7.966072
                   36         37         38         39         40
    36  H    0.000000
    37  H    2.968853   0.000000
    38  H    7.168376   8.708230   0.000000
    39  H    5.966911   7.027417   2.133257   0.000000
    40  H    4.443902   6.650623   3.342276   3.001274   0.000000
    41  H    4.197981   5.065022   4.474984   2.590727   2.960898
    42  H    2.201920   4.302712   4.993020   3.980822   2.611063
    43  H    4.468968   4.729317   4.389354   2.631123   3.971836
    44  H    5.099185   5.380866   5.029968   4.139796   5.099417
    45  H    3.856921   4.893966   5.216274   4.520928   4.352127
                   41         42         43         44         45
    41  H    0.000000
    42  H    2.948884   0.000000
    43  H    2.373120   2.991211   0.000000
    44  H    4.610144   3.689019   2.407836   0.000000
    45  H    4.537155   2.534843   2.985527   1.726860   0.000000
 Stoichiometry    C12H22O11
 Framework group  C1[X(C12H22O11)]
 Deg. of freedom   129
 Full point group                 C1      NOp   1
 Largest Abelian subgroup         C1      NOp   1
 Largest concise Abelian subgroup C1      NOp   1
                         Standard orientation:                         
 ---------------------------------------------------------------------
 Center     Atomic      Atomic             Coordinates (Angstroms)
 Number     Number       Type             X           Y           Z
 ---------------------------------------------------------------------
      1          8           0       -4.990130   -0.511743    0.342576
      2          6           0       -3.744684   -0.122808   -0.255167
      3          6           0       -3.348622    1.263162    0.226905
      4          8           0       -4.256953    2.333689   -0.071933
      5          1           0       -5.163424    1.976291    0.154198
      6          6           0       -1.915305    1.596519   -0.153308
      7          8           0       -1.455042    2.751135    0.563649
      8          1           0       -0.500140    2.925783    0.323314
      9          6           0       -2.944355   -2.625212   -0.150349
     10          8           0       -3.984683   -3.359906    0.509397
     11          1           0       -3.922962   -4.320440    0.238075
     12          6           0       -2.717074   -1.157323    0.173815
     13          8           0       -1.463868   -0.831144   -0.445432
     14          6           0       -0.970426    0.423312    0.046036
     15          8           0        0.286458    0.649872   -0.608588
     16          6           0        1.536099    0.252359   -0.026825
     17          6           0        2.030875   -1.129668   -0.423512
     18          8           0        1.074315   -2.193294   -0.305342
     19          1           0        0.175145   -1.772229   -0.426279
     20          6           0        3.351193   -1.533712    0.213044
     21          8           0        3.908668   -2.761234   -0.278481
     22          1           0        4.687505   -2.946606    0.320765
     23          6           0        2.342545    2.657564    0.104014
     24          8           0        1.159165    3.330019   -0.350427
     25          1           0        1.241750    4.289384   -0.079556
     26          6           0        2.634955    1.244124   -0.372804
     27          8           0        3.864797    0.874915    0.266160
     28          6           0        4.368888   -0.434358   -0.039406
     29          8           0        5.463217   -0.519679    0.885059
     30          1           0       -5.602000   -0.787904   -0.343683
     31          1           0       -3.837708   -0.123862   -1.321115
     32          1           0       -3.346341    1.193944    1.294661
     33          1           0       -2.593926   -1.072908    1.233348
     34          1           0       -2.025101   -3.136776    0.045038
     35          1           0       -3.131294   -2.690130   -1.201890
     36          1           0       -0.786543    0.320474    1.095088
     37          1           0       -1.908173    1.840809   -1.195023
     38          1           0        6.281531   -0.652187    0.400905
     39          1           0        4.725518   -0.473701   -1.047457
     40          1           0        3.204445   -1.626339    1.268878
     41          1           0        2.237020   -1.056724   -1.470929
     42          1           0        1.413746    0.259629    1.036132
     43          1           0        2.778491    1.253488   -1.433092
     44          1           0        3.178893    3.265209   -0.172008
     45          1           0        2.301478    2.630002    1.172870
 ---------------------------------------------------------------------
 Rotational constants (GHZ):      0.3952596      0.1456044      0.1093930
 Standard basis: 6-31+G(2df,p) (6D, 7F)
 There are   846 symmetry adapted basis functions of A   symmetry.
 Integral buffers will be    131072 words long.
 Raffenetti 2 integral format.
 Two-electron integral symmetry is turned on.
   846 basis functions,  1258 primitive gaussians,   915 cartesian basis functions
    91 alpha electrons       91 beta electrons
       nuclear repulsion energy      2275.8548210911 Hartrees.
 NAtoms=   45 NActive=   45 NUniq=   45 SFac= 1.00D+00 NAtFMM=   50 NAOKFM=F Big=F
 One-electron integrals computed using PRISM.
 NBasis=   846 RedAO= T  NBF=   846
 NBsUse=   846 1.00D-06 NBFU=   846
 Harris functional with IExCor=  402 diagonalized for initial guess.
 ExpMin= 4.38D-02 ExpMax= 5.48D+03 ExpMxC= 8.25D+02 IAcc=2 IRadAn=         0 AccDes= 0.00D+00
 HarFok:  IExCor=  402 AccDes= 0.00D+00 IRadAn=         0 IDoV= 1
 ScaDFX=  1.000000  1.000000  1.000000  1.000000
 FoFCou: FMM=F IPFlag=           0 FMFlag=      100000 FMFlg1=           0
         NFxFlg=           0 DoJE=T BraDBF=F KetDBF=T FulRan=T
         Omega=  0.000000  0.000000  1.000000  0.000000  0.000000 ICntrl=     500 IOpCl=  0
         NMat0=    1 NMatS0=    1 NMatT0=    0 NMatD0=    1 NMtDS0=    0 NMtDT0=    0
         I1Cent=           4 NGrid=           0.
 Petite list used in FoFCou.
 Initial guess orbital symmetries:
       Occupied  (A) (A) (A) (A) (A) (A) (A) (A) (A) (A) (A) (A)
                 (A) (A) (A) (A) (A) (A) (A) (A) (A) (A) (A) (A)
                 (A) (A) (A) (A) (A) (A) (A) (A) (A) (A) (A) (A)
                 (A) (A) (A) (A) (A) (A) (A) (A) (A) (A) (A) (A)
                 (A) (A) (A) (A) (A) (A) (A) (A) (A) (A) (A) (A)
                 (A) (A) (A) (A) (A) (A) (A) (A) (A) (A) (A) (A)
                 (A) (A) (A) (A) (A) (A) (A) (A) (A) (A) (A) (A)
                 (A) (A) (A) (A) (A) (A) (A)
       Virtual   (A) (A) (A) (A) (A) (A) (A) (A) (A) (A) (A) (A)
                 (A) (A) (A) (A) (A) (A) (A) (A) (A) (A) (A) (A)
                 (A) (A) (A) (A) (A) (A) (A) (A) (A) (A) (A) (A)
                 (A) (A) (A) (A) (A) (A) (A) (A) (A) (A) (A) (A)
                 (A) (A) (A) (A) (A) (A) (A) (A) (A) (A) (A) (A)
                 (A) (A) (A) (A) (A) (A) (A) (A) (A) (A) (A) (A)
                 (A) (A) (A) (A) (A) (A) (A) (A) (A) (A) (A) (A)
                 (A) (A) (A) (A) (A) (A) (A) (A) (A) (A) (A) (A)
                 (A) (A) (A) (A) (A) (A) (A) (A) (A) (A) (A) (A)
                 (A) (A) (A) (A) (A) (A) (A) (A) (A) (A) (A) (A)
                 (A) (A) (A) (A) (A) (A) (A) (A) (A) (A) (A) (A)
                 (A) (A) (A) (A) (A) (A) (A) (A) (A) (A) (A) (A)
                 (A) (A) (A) (A) (A) (A) (A) (A) (A) (A) (A) (A)
                 (A) (A) (A) (A) (A) (A) (A) (A) (A) (A) (A) (A)
                 (A) (A) (A) (A) (A) (A) (A) (A) (A) (A) (A) (A)
                 (A) (A) (A) (A) (A) (A) (A) (A) (A) (A) (A) (A)
                 (A) (A) (A) (A) (A) (A) (A) (A) (A) (A) (A) (A)
                 (A) (A) (A) (A) (A) (A) (A) (A) (A) (A) (A) (A)
                 (A) (A) (A) (A) (A) (A) (A) (A) (A) (A) (A) (A)
                 (A) (A) (A) (A) (A) (A) (A) (A) (A) (A) (A) (A)
                 (A) (A) (A) (A) (A) (A) (A) (A) (A) (A) (A) (A)
                 (A) (A) (A) (A) (A) (A) (A) (A) (A) (A) (A) (A)
                 (A) (A) (A) (A) (A) (A) (A) (A) (A) (A) (A) (A)
                 (A) (A) (A) (A) (A) (A) (A) (A) (A) (A) (A) (A)
                 (A) (A) (A) (A) (A) (A) (A) (A) (A) (A) (A) (A)
                 (A) (A) (A) (A) (A) (A) (A) (A) (A) (A) (A) (A)
                 (A) (A) (A) (A) (A) (A) (A) (A) (A) (A) (A) (A)
                 (A) (A) (A) (A) (A) (A) (A) (A) (A) (A) (A) (A)
                 (A) (A) (A) (A) (A) (A) (A) (A) (A) (A) (A) (A)
                 (A) (A) (A) (A) (A) (A) (A) (A) (A) (A) (A) (A)
                 (A) (A) (A) (A) (A) (A) (A) (A) (A) (A) (A) (A)
                 (A) (A) (A) (A) (A) (A) (A) (A) (A) (A) (A) (A)
                 (A) (A) (A) (A) (A) (A) (A) (A) (A) (A) (A) (A)
                 (A) (A) (A) (A) (A) (A) (A) (A) (A) (A) (A) (A)
                 (A) (A) (A) (A) (A) (A) (A) (A) (A) (A) (A) (A)
                 (A) (A) (A) (A) (A) (A) (A) (A) (A) (A) (A) (A)
                 (A) (A) (A) (A) (A) (A) (A) (A) (A) (A) (A) (A)
                 (A) (A) (A) (A) (A) (A) (A) (A) (A) (A) (A) (A)
                 (A) (A) (A) (A) (A) (A) (A) (A) (A) (A) (A) (A)
                 (A) (A) (A) (A) (A) (A) (A) (A) (A) (A) (A) (A)
                 (A) (A) (A) (A) (A) (A) (A) (A) (A) (A) (A) (A)
                 (A) (A) (A) (A) (A) (A) (A) (A) (A) (A) (A) (A)
                 (A) (A) (A) (A) (A) (A) (A) (A) (A) (A) (A) (A)
                 (A) (A) (A) (A) (A) (A) (A) (A) (A) (A) (A) (A)
                 (A) (A) (A) (A) (A) (A) (A) (A) (A) (A) (A) (A)
                 (A) (A) (A) (A) (A) (A) (A) (A) (A) (A) (A) (A)
                 (A) (A) (A) (A) (A) (A) (A) (A) (A) (A) (A) (A)
                 (A) (A) (A) (A) (A) (A) (A) (A) (A) (A) (A) (A)
                 (A) (A) (A) (A) (A) (A) (A) (A) (A) (A) (A) (A)
                 (A) (A) (A) (A) (A) (A) (A) (A) (A) (A) (A) (A)
                 (A) (A) (A) (A) (A) (A) (A) (A) (A) (A) (A) (A)
                 (A) (A) (A) (A) (A) (A) (A) (A) (A) (A) (A) (A)
                 (A) (A) (A) (A) (A) (A) (A) (A) (A) (A) (A) (A)
                 (A) (A) (A) (A) (A) (A) (A) (A) (A) (A) (A) (A)
                 (A) (A) (A) (A) (A) (A) (A) (A) (A) (A) (A) (A)
                 (A) (A) (A) (A) (A) (A) (A) (A) (A) (A) (A) (A)
                 (A) (A) (A) (A) (A) (A) (A) (A) (A) (A) (A) (A)
                 (A) (A) (A) (A) (A) (A) (A) (A) (A) (A) (A) (A)
                 (A) (A) (A) (A) (A) (A) (A) (A) (A) (A) (A) (A)
                 (A) (A) (A) (A) (A) (A) (A) (A) (A) (A) (A) (A)
                 (A) (A) (A) (A) (A) (A) (A) (A) (A) (A) (A) (A)
                 (A) (A) (A) (A) (A) (A) (A) (A) (A) (A) (A) (A)
                 (A) (A) (A) (A) (A) (A) (A) (A) (A) (A) (A)
 The electronic state of the initial guess is 1-A.
 Requested convergence on RMS density matrix=1.00D-08 within 128 cycles.
 Requested convergence on MAX density matrix=1.00D-06.
 Requested convergence on             energy=1.00D-06.
 No special actions if energy rises.
 SCF Done:  E(RB3LYP) =  -1298.02842004     A.U. after   13 cycles
             Convg  =    0.4065D-08             -V/T =  2.0067
 Range of M.O.s used for correlation:     1   846
 NBasis=   846 NAE=    91 NBE=    91 NFC=     0 NFV=     0
 NROrb=    846 NOA=    91 NOB=    91 NVA=   755 NVB=   755

 **** Warning!!: The largest alpha MO coefficient is  0.76390261D+02

          Differentiating once with respect to electric field.
                with respect to dipole field.
          Electric field/nuclear overlap derivatives assumed to be zero.
          There are     3 degrees of freedom in the 1st order CPHF.  IDoFFX=0.
      3 vectors produced by pass  0 Test12= 2.29D-12 3.33D-08 XBig12= 1.22D+02 1.25D+00.
 AX will form     3 AO Fock derivatives at one time.
      3 vectors produced by pass  1 Test12= 2.29D-12 3.33D-08 XBig12= 2.41D+01 3.81D-01.
      3 vectors produced by pass  2 Test12= 2.29D-12 3.33D-08 XBig12= 1.01D+01 2.02D-01.
      3 vectors produced by pass  3 Test12= 2.29D-12 3.33D-08 XBig12= 1.03D+00 9.52D-02.
      3 vectors produced by pass  4 Test12= 2.29D-12 3.33D-08 XBig12= 2.71D-01 4.91D-02.
      3 vectors produced by pass  5 Test12= 2.29D-12 3.33D-08 XBig12= 5.81D-02 2.21D-02.
      3 vectors produced by pass  6 Test12= 2.29D-12 3.33D-08 XBig12= 1.92D-02 1.44D-02.
      3 vectors produced by pass  7 Test12= 2.29D-12 3.33D-08 XBig12= 3.03D-03 7.17D-03.
      3 vectors produced by pass  8 Test12= 2.29D-12 3.33D-08 XBig12= 5.52D-04 2.07D-03.
      3 vectors produced by pass  9 Test12= 2.29D-12 3.33D-08 XBig12= 2.01D-04 1.04D-03.
      3 vectors produced by pass 10 Test12= 2.29D-12 3.33D-08 XBig12= 3.65D-05 5.48D-04.
      3 vectors produced by pass 11 Test12= 2.29D-12 3.33D-08 XBig12= 8.69D-06 3.07D-04.
      3 vectors produced by pass 12 Test12= 2.29D-12 3.33D-08 XBig12= 1.03D-06 1.08D-04.
      3 vectors produced by pass 13 Test12= 2.29D-12 3.33D-08 XBig12= 2.25D-07 3.84D-05.
      3 vectors produced by pass 14 Test12= 2.29D-12 3.33D-08 XBig12= 4.89D-08 2.68D-05.
      3 vectors produced by pass 15 Test12= 2.29D-12 3.33D-08 XBig12= 1.29D-08 1.24D-05.
      3 vectors produced by pass 16 Test12= 2.29D-12 3.33D-08 XBig12= 2.43D-09 4.14D-06.
      3 vectors produced by pass 17 Test12= 2.29D-12 3.33D-08 XBig12= 2.71D-10 1.40D-06.
      3 vectors produced by pass 18 Test12= 2.29D-12 3.33D-08 XBig12= 3.47D-11 3.89D-07.
      3 vectors produced by pass 19 Test12= 2.29D-12 3.33D-08 XBig12= 9.85D-12 2.69D-07.
      3 vectors produced by pass 20 Test12= 2.29D-12 3.33D-08 XBig12= 5.45D-12 1.38D-07.
      3 vectors produced by pass 21 Test12= 2.29D-12 3.33D-08 XBig12= 1.31D-12 9.73D-08.
 Inverted reduced A of dimension    66 with in-core refinement.
 End of Minotr Frequency-dependent properties file   721 does not exist.
 End of Minotr Frequency-dependent properties file   722 does not exist.
 Symmetrizing basis deriv contribution to polar:
 IMax=3 JMax=2 DiffMx= 0.00D+00
 G2DrvN: will do     8 centers at a time, making    6 passes doing MaxLOS=3.
 Calling FoFCou, ICntrl=  3107 FMM=F I1Cent=   0 AccDes= 0.00D+00.
 Calling FoFCou, ICntrl=  3107 FMM=F I1Cent=   0 AccDes= 0.00D+00.
 Calling FoFCou, ICntrl=  3107 FMM=F I1Cent=   0 AccDes= 0.00D+00.
 Calling FoFCou, ICntrl=  3107 FMM=F I1Cent=   0 AccDes= 0.00D+00.
 Calling FoFCou, ICntrl=  3107 FMM=F I1Cent=   0 AccDes= 0.00D+00.
 Calling FoFCou, ICntrl=  3107 FMM=F I1Cent=   0 AccDes= 0.00D+00.
 FoFDir/FoFCou used for L=0 through L=3.
 End of G2Drv Frequency-dependent properties file   721 does not exist.
 End of G2Drv Frequency-dependent properties file   722 does not exist.
          IDoAtm=111111111111111111111111111111111111111111111
          Differentiating once with respect to electric field.
                with respect to dipole field.
          Differentiating once with respect to nuclear coordinates.
          There are   138 degrees of freedom in the 1st order CPHF.  IDoFFX=5.
 Will reuse    3 saved solutions.
    135 vectors produced by pass  0 Test12= 6.87D-14 1.00D-09 XBig12= 1.63D-01 5.96D-02.
 AX will form    27 AO Fock derivatives at one time.
    135 vectors produced by pass  1 Test12= 6.87D-14 1.00D-09 XBig12= 2.39D-02 1.10D-02.
    132 vectors produced by pass  2 Test12= 6.87D-14 1.00D-09 XBig12= 1.58D-04 1.29D-03.
    132 vectors produced by pass  3 Test12= 6.87D-14 1.00D-09 XBig12= 9.37D-07 6.79D-05.
    132 vectors produced by pass  4 Test12= 6.87D-14 1.00D-09 XBig12= 2.37D-09 2.81D-06.
    132 vectors produced by pass  5 Test12= 6.87D-14 1.00D-09 XBig12= 5.75D-12 1.39D-07.
     89 vectors produced by pass  6 Test12= 6.87D-14 1.00D-09 XBig12= 2.15D-13 2.85D-08.
      1 vectors produced by pass  7 Test12= 6.87D-14 1.00D-09 XBig12= 6.90D-16 1.18D-09.
 Inverted reduced A of dimension   888 with in-core refinement.
 Isotropic polarizability for W=    0.000000      192.68 Bohr**3.
 End of Minotr Frequency-dependent properties file   721 does not exist.
 End of Minotr Frequency-dependent properties file   722 does not exist.

 **********************************************************************

            Population analysis using the SCF density.

 **********************************************************************

 Orbital symmetries:
       Occupied  (A) (A) (A) (A) (A) (A) (A) (A) (A) (A) (A) (A)
                 (A) (A) (A) (A) (A) (A) (A) (A) (A) (A) (A) (A)
                 (A) (A) (A) (A) (A) (A) (A) (A) (A) (A) (A) (A)
                 (A) (A) (A) (A) (A) (A) (A) (A) (A) (A) (A) (A)
                 (A) (A) (A) (A) (A) (A) (A) (A) (A) (A) (A) (A)
                 (A) (A) (A) (A) (A) (A) (A) (A) (A) (A) (A) (A)
                 (A) (A) (A) (A) (A) (A) (A) (A) (A) (A) (A) (A)
                 (A) (A) (A) (A) (A) (A) (A)
       Virtual   (A) (A) (A) (A) (A) (A) (A) (A) (A) (A) (A) (A)
                 (A) (A) (A) (A) (A) (A) (A) (A) (A) (A) (A) (A)
                 (A) (A) (A) (A) (A) (A) (A) (A) (A) (A) (A) (A)
                 (A) (A) (A) (A) (A) (A) (A) (A) (A) (A) (A) (A)
                 (A) (A) (A) (A) (A) (A) (A) (A) (A) (A) (A) (A)
                 (A) (A) (A) (A) (A) (A) (A) (A) (A) (A) (A) (A)
                 (A) (A) (A) (A) (A) (A) (A) (A) (A) (A) (A) (A)
                 (A) (A) (A) (A) (A) (A) (A) (A) (A) (A) (A) (A)
                 (A) (A) (A) (A) (A) (A) (A) (A) (A) (A) (A) (A)
                 (A) (A) (A) (A) (A) (A) (A) (A) (A) (A) (A) (A)
                 (A) (A) (A) (A) (A) (A) (A) (A) (A) (A) (A) (A)
                 (A) (A) (A) (A) (A) (A) (A) (A) (A) (A) (A) (A)
                 (A) (A) (A) (A) (A) (A) (A) (A) (A) (A) (A) (A)
                 (A) (A) (A) (A) (A) (A) (A) (A) (A) (A) (A) (A)
                 (A) (A) (A) (A) (A) (A) (A) (A) (A) (A) (A) (A)
                 (A) (A) (A) (A) (A) (A) (A) (A) (A) (A) (A) (A)
                 (A) (A) (A) (A) (A) (A) (A) (A) (A) (A) (A) (A)
                 (A) (A) (A) (A) (A) (A) (A) (A) (A) (A) (A) (A)
                 (A) (A) (A) (A) (A) (A) (A) (A) (A) (A) (A) (A)
                 (A) (A) (A) (A) (A) (A) (A) (A) (A) (A) (A) (A)
                 (A) (A) (A) (A) (A) (A) (A) (A) (A) (A) (A) (A)
                 (A) (A) (A) (A) (A) (A) (A) (A) (A) (A) (A) (A)
                 (A) (A) (A) (A) (A) (A) (A) (A) (A) (A) (A) (A)
                 (A) (A) (A) (A) (A) (A) (A) (A) (A) (A) (A) (A)
                 (A) (A) (A) (A) (A) (A) (A) (A) (A) (A) (A) (A)
                 (A) (A) (A) (A) (A) (A) (A) (A) (A) (A) (A) (A)
                 (A) (A) (A) (A) (A) (A) (A) (A) (A) (A) (A) (A)
                 (A) (A) (A) (A) (A) (A) (A) (A) (A) (A) (A) (A)
                 (A) (A) (A) (A) (A) (A) (A) (A) (A) (A) (A) (A)
                 (A) (A) (A) (A) (A) (A) (A) (A) (A) (A) (A) (A)
                 (A) (A) (A) (A) (A) (A) (A) (A) (A) (A) (A) (A)
                 (A) (A) (A) (A) (A) (A) (A) (A) (A) (A) (A) (A)
                 (A) (A) (A) (A) (A) (A) (A) (A) (A) (A) (A) (A)
                 (A) (A) (A) (A) (A) (A) (A) (A) (A) (A) (A) (A)
                 (A) (A) (A) (A) (A) (A) (A) (A) (A) (A) (A) (A)
                 (A) (A) (A) (A) (A) (A) (A) (A) (A) (A) (A) (A)
                 (A) (A) (A) (A) (A) (A) (A) (A) (A) (A) (A) (A)
                 (A) (A) (A) (A) (A) (A) (A) (A) (A) (A) (A) (A)
                 (A) (A) (A) (A) (A) (A) (A) (A) (A) (A) (A) (A)
                 (A) (A) (A) (A) (A) (A) (A) (A) (A) (A) (A) (A)
                 (A) (A) (A) (A) (A) (A) (A) (A) (A) (A) (A) (A)
                 (A) (A) (A) (A) (A) (A) (A) (A) (A) (A) (A) (A)
                 (A) (A) (A) (A) (A) (A) (A) (A) (A) (A) (A) (A)
                 (A) (A) (A) (A) (A) (A) (A) (A) (A) (A) (A) (A)
                 (A) (A) (A) (A) (A) (A) (A) (A) (A) (A) (A) (A)
                 (A) (A) (A) (A) (A) (A) (A) (A) (A) (A) (A) (A)
                 (A) (A) (A) (A) (A) (A) (A) (A) (A) (A) (A) (A)
                 (A) (A) (A) (A) (A) (A) (A) (A) (A) (A) (A) (A)
                 (A) (A) (A) (A) (A) (A) (A) (A) (A) (A) (A) (A)
                 (A) (A) (A) (A) (A) (A) (A) (A) (A) (A) (A) (A)
                 (A) (A) (A) (A) (A) (A) (A) (A) (A) (A) (A) (A)
                 (A) (A) (A) (A) (A) (A) (A) (A) (A) (A) (A) (A)
                 (A) (A) (A) (A) (A) (A) (A) (A) (A) (A) (A) (A)
                 (A) (A) (A) (A) (A) (A) (A) (A) (A) (A) (A) (A)
                 (A) (A) (A) (A) (A) (A) (A) (A) (A) (A) (A) (A)
                 (A) (A) (A) (A) (A) (A) (A) (A) (A) (A) (A) (A)
                 (A) (A) (A) (A) (A) (A) (A) (A) (A) (A) (A) (A)
                 (A) (A) (A) (A) (A) (A) (A) (A) (A) (A) (A) (A)
                 (A) (A) (A) (A) (A) (A) (A) (A) (A) (A) (A) (A)
                 (A) (A) (A) (A) (A) (A) (A) (A) (A) (A) (A) (A)
                 (A) (A) (A) (A) (A) (A) (A) (A) (A) (A) (A) (A)
                 (A) (A) (A) (A) (A) (A) (A) (A) (A) (A) (A) (A)
                 (A) (A) (A) (A) (A) (A) (A) (A) (A) (A) (A)
 The electronic state is 1-A.
 Alpha  occ. eigenvalues --  -19.18752 -19.18682 -19.18167 -19.17870 -19.17815
 Alpha  occ. eigenvalues --  -19.16899 -19.16637 -19.16169 -19.15727 -19.14231
 Alpha  occ. eigenvalues --  -19.14011 -10.30765 -10.30440 -10.26253 -10.26065
 Alpha  occ. eigenvalues --  -10.25800 -10.25370 -10.25116 -10.24979 -10.24526
 Alpha  occ. eigenvalues --  -10.24398 -10.24394 -10.24300  -1.09881  -1.09046
 Alpha  occ. eigenvalues --   -1.05438  -1.05081  -1.04053  -1.03589  -1.02709
 Alpha  occ. eigenvalues --   -1.02456  -1.02258  -1.00846  -1.00388  -0.82349
 Alpha  occ. eigenvalues --   -0.80467  -0.79492  -0.78396  -0.72039  -0.70169
 Alpha  occ. eigenvalues --   -0.67578  -0.64754  -0.63063  -0.62614  -0.61269
 Alpha  occ. eigenvalues --   -0.60338  -0.56436  -0.55771  -0.55009  -0.54536
 Alpha  occ. eigenvalues --   -0.53919  -0.53446  -0.52882  -0.51351  -0.51081
 Alpha  occ. eigenvalues --   -0.50613  -0.50117  -0.49909  -0.48982  -0.46654
 Alpha  occ. eigenvalues --   -0.45943  -0.45165  -0.44661  -0.43890  -0.43291
 Alpha  occ. eigenvalues --   -0.42673  -0.41931  -0.41090  -0.40128  -0.39670
 Alpha  occ. eigenvalues --   -0.38824  -0.37936  -0.37643  -0.36336  -0.36065
 Alpha  occ. eigenvalues --   -0.35715  -0.35118  -0.34627  -0.34011  -0.33453
 Alpha  occ. eigenvalues --   -0.32933  -0.31680  -0.31210  -0.30696  -0.30012
 Alpha  occ. eigenvalues --   -0.29539  -0.28696  -0.28316  -0.27819  -0.27062
 Alpha  occ. eigenvalues --   -0.26758
 Alpha virt. eigenvalues --   -0.01949  -0.01875  -0.01647  -0.00207   0.00193
 Alpha virt. eigenvalues --    0.01074   0.01852   0.02098   0.02819   0.03469
 Alpha virt. eigenvalues --    0.03685   0.04268   0.04685   0.05259   0.05661
 Alpha virt. eigenvalues --    0.06086   0.06282   0.07494   0.07788   0.08082
 Alpha virt. eigenvalues --    0.08372   0.08659   0.09034   0.09763   0.10048
 Alpha virt. eigenvalues --    0.10738   0.11048   0.11541   0.11778   0.12021
 Alpha virt. eigenvalues --    0.12454   0.12728   0.13132   0.13589   0.13629
 Alpha virt. eigenvalues --    0.13837   0.14258   0.14430   0.14933   0.15071
 Alpha virt. eigenvalues --    0.15588   0.16301   0.16520   0.16831   0.16973
 Alpha virt. eigenvalues --    0.17239   0.17525   0.17767   0.17988   0.18313
 Alpha virt. eigenvalues --    0.18694   0.18829   0.19295   0.19526   0.19808
 Alpha virt. eigenvalues --    0.20548   0.20695   0.21020   0.21229   0.21348
 Alpha virt. eigenvalues --    0.21790   0.21956   0.22299   0.22750   0.22765
 Alpha virt. eigenvalues --    0.23618   0.23749   0.23912   0.24399   0.24577
 Alpha virt. eigenvalues --    0.24908   0.25081   0.25434   0.25792   0.26025
 Alpha virt. eigenvalues --    0.26084   0.26412   0.26640   0.26864   0.26965
 Alpha virt. eigenvalues --    0.27244   0.27508   0.27801   0.28291   0.28355
 Alpha virt. eigenvalues --    0.28580   0.29207   0.29518   0.29945   0.30323
 Alpha virt. eigenvalues --    0.30968   0.31187   0.31496   0.31678   0.31908
 Alpha virt. eigenvalues --    0.32530   0.32928   0.33160   0.33189   0.33601
 Alpha virt. eigenvalues --    0.33840   0.34252   0.34762   0.35274   0.35411
 Alpha virt. eigenvalues --    0.35641   0.36380   0.36576   0.37128   0.37238
 Alpha virt. eigenvalues --    0.37849   0.38295   0.38839   0.38923   0.39215
 Alpha virt. eigenvalues --    0.39525   0.39748   0.40075   0.40743   0.40997
 Alpha virt. eigenvalues --    0.41338   0.42199   0.42370   0.42772   0.43158
 Alpha virt. eigenvalues --    0.43439   0.44443   0.45004   0.46104   0.46144
 Alpha virt. eigenvalues --    0.46834   0.47441   0.47658   0.48627   0.49448
 Alpha virt. eigenvalues --    0.50141   0.50382   0.53194   0.57383   0.58197
 Alpha virt. eigenvalues --    0.58722   0.59516   0.60034   0.60222   0.60784
 Alpha virt. eigenvalues --    0.61117   0.62768   0.63349   0.64567   0.66055
 Alpha virt. eigenvalues --    0.66509   0.67133   0.68044   0.68623   0.69269
 Alpha virt. eigenvalues --    0.69622   0.69953   0.71609   0.73004   0.73217
 Alpha virt. eigenvalues --    0.73330   0.74921   0.74968   0.75766   0.76869
 Alpha virt. eigenvalues --    0.77393   0.78023   0.78100   0.79964   0.81139
 Alpha virt. eigenvalues --    0.82188   0.82233   0.83041   0.83616   0.84143
 Alpha virt. eigenvalues --    0.86628   0.87455   0.87555   0.88154   0.89117
 Alpha virt. eigenvalues --    0.89371   0.89907   0.90474   0.90920   0.91544
 Alpha virt. eigenvalues --    0.92004   0.92272   0.92460   0.92812   0.93074
 Alpha virt. eigenvalues --    0.93574   0.93906   0.94642   0.94881   0.95524
 Alpha virt. eigenvalues --    0.96023   0.96812   0.97047   0.97632   0.97948
 Alpha virt. eigenvalues --    0.98214   0.98662   0.99357   1.00695   1.01530
 Alpha virt. eigenvalues --    1.02054   1.03011   1.04256   1.04466   1.05323
 Alpha virt. eigenvalues --    1.05475   1.06252   1.06906   1.07315   1.07679
 Alpha virt. eigenvalues --    1.08410   1.08633   1.09030   1.09675   1.10515
 Alpha virt. eigenvalues --    1.11279   1.11968   1.13021   1.13197   1.13488
 Alpha virt. eigenvalues --    1.14238   1.14640   1.14803   1.15851   1.16212
 Alpha virt. eigenvalues --    1.16806   1.17412   1.17760   1.18083   1.18789
 Alpha virt. eigenvalues --    1.19254   1.20045   1.20403   1.20758   1.21557
 Alpha virt. eigenvalues --    1.21829   1.22959   1.23568   1.23967   1.24453
 Alpha virt. eigenvalues --    1.24698   1.25444   1.25681   1.26569   1.27099
 Alpha virt. eigenvalues --    1.27637   1.28250   1.28665   1.29753   1.30804
 Alpha virt. eigenvalues --    1.31303   1.31905   1.32490   1.32778   1.33244
 Alpha virt. eigenvalues --    1.33764   1.33870   1.34852   1.35348   1.36835
 Alpha virt. eigenvalues --    1.37736   1.37857   1.38327   1.39119   1.39848
 Alpha virt. eigenvalues --    1.40276   1.40771   1.41209   1.42128   1.42929
 Alpha virt. eigenvalues --    1.43454   1.45121   1.45277   1.46113   1.46641
 Alpha virt. eigenvalues --    1.46878   1.47808   1.49243   1.50062   1.51078
 Alpha virt. eigenvalues --    1.52244   1.53079   1.53715   1.53797   1.54695
 Alpha virt. eigenvalues --    1.55977   1.56241   1.56558   1.57653   1.59198
 Alpha virt. eigenvalues --    1.59997   1.60421   1.61352   1.62688   1.62908
 Alpha virt. eigenvalues --    1.63738   1.65135   1.65507   1.65896   1.66757
 Alpha virt. eigenvalues --    1.67120   1.68619   1.69996   1.70275   1.70910
 Alpha virt. eigenvalues --    1.71145   1.72843   1.73808   1.74479   1.75983
 Alpha virt. eigenvalues --    1.76874   1.77105   1.78163   1.78406   1.79721
 Alpha virt. eigenvalues --    1.80190   1.82594   1.83646   1.84031   1.84894
 Alpha virt. eigenvalues --    1.86347   1.87317   1.87854   1.89138   1.90284
 Alpha virt. eigenvalues --    1.90855   1.92065   1.93772   1.94553   1.95252
 Alpha virt. eigenvalues --    1.95547   1.96530   1.97398   1.98955   1.99687
 Alpha virt. eigenvalues --    2.00240   2.02292   2.03338   2.03877   2.04988
 Alpha virt. eigenvalues --    2.05658   2.07475   2.08853   2.09115   2.11586
 Alpha virt. eigenvalues --    2.13287   2.14502   2.16587   2.18059   2.18750
 Alpha virt. eigenvalues --    2.19094   2.19357   2.22555   2.22929   2.24733
 Alpha virt. eigenvalues --    2.25744   2.28215   2.29454   2.29855   2.32575
 Alpha virt. eigenvalues --    2.32849   2.34788   2.38162   2.40219   2.43600
 Alpha virt. eigenvalues --    2.45050   2.45719   2.48058   2.48533   2.50002
 Alpha virt. eigenvalues --    2.50870   2.51763   2.52698   2.53704   2.54136
 Alpha virt. eigenvalues --    2.55789   2.56861   2.57915   2.58659   2.60662
 Alpha virt. eigenvalues --    2.60877   2.61626   2.63074   2.63444   2.64157
 Alpha virt. eigenvalues --    2.65019   2.65940   2.67980   2.69255   2.71029
 Alpha virt. eigenvalues --    2.73310   2.74789   2.75039   2.76293   2.76889
 Alpha virt. eigenvalues --    2.78360   2.79804   2.81310   2.81519   2.82627
 Alpha virt. eigenvalues --    2.83053   2.84959   2.86165   2.87039   2.88172
 Alpha virt. eigenvalues --    2.89160   2.89625   2.90831   2.91124   2.91989
 Alpha virt. eigenvalues --    2.92416   2.93385   2.94558   2.96998   2.97603
 Alpha virt. eigenvalues --    2.97930   2.99523   2.99974   3.00873   3.01994
 Alpha virt. eigenvalues --    3.02852   3.03535   3.04488   3.06116   3.06461
 Alpha virt. eigenvalues --    3.07890   3.09033   3.09937   3.10614   3.11433
 Alpha virt. eigenvalues --    3.12541   3.13241   3.14769   3.16579   3.18014
 Alpha virt. eigenvalues --    3.19339   3.21234   3.21504   3.22792   3.24091
 Alpha virt. eigenvalues --    3.24443   3.25118   3.25218   3.25639   3.26831
 Alpha virt. eigenvalues --    3.28079   3.29360   3.30786   3.31588   3.32630
 Alpha virt. eigenvalues --    3.33761   3.35581   3.37632   3.38225   3.39350
 Alpha virt. eigenvalues --    3.40384   3.41685   3.42355   3.42887   3.44218
 Alpha virt. eigenvalues --    3.45625   3.46731   3.47703   3.48757   3.52942
 Alpha virt. eigenvalues --    3.53078   3.53351   3.55074   3.57972   3.58587
 Alpha virt. eigenvalues --    3.61006   3.61681   3.65393   3.65799   3.67540
 Alpha virt. eigenvalues --    3.68116   3.69315   3.70892   3.72581   3.73243
 Alpha virt. eigenvalues --    3.75341   3.76215   3.77326   3.77664   3.79021
 Alpha virt. eigenvalues --    3.81330   3.82356   3.83377   3.83865   3.84693
 Alpha virt. eigenvalues --    3.85470   3.86608   3.87782   3.89596   3.91286
 Alpha virt. eigenvalues --    3.92971   3.94534   3.97228   3.99753   4.00918
 Alpha virt. eigenvalues --    4.03119   4.05514   4.06330   4.09374   4.14543
 Alpha virt. eigenvalues --    4.14750   4.14985   4.16923   4.17954   4.18890
 Alpha virt. eigenvalues --    4.20725   4.22204   4.22951   4.24605   4.26077
 Alpha virt. eigenvalues --    4.26948   4.27397   4.27854   4.28815   4.30395
 Alpha virt. eigenvalues --    4.30735   4.31382   4.32429   4.33371   4.34590
 Alpha virt. eigenvalues --    4.35540   4.36632   4.36980   4.38003   4.38797
 Alpha virt. eigenvalues --    4.40237   4.40961   4.41451   4.42008   4.43491
 Alpha virt. eigenvalues --    4.43807   4.45425   4.46459   4.46960   4.47418
 Alpha virt. eigenvalues --    4.48519   4.48957   4.49459   4.50699   4.51081
 Alpha virt. eigenvalues --    4.51355   4.52125   4.52615   4.53889   4.54748
 Alpha virt. eigenvalues --    4.55156   4.56392   4.57113   4.57440   4.57570
 Alpha virt. eigenvalues --    4.58365   4.59077   4.59342   4.61034   4.61659
 Alpha virt. eigenvalues --    4.62408   4.62487   4.63270   4.63786   4.64797
 Alpha virt. eigenvalues --    4.65686   4.66021   4.66794   4.67376   4.67895
 Alpha virt. eigenvalues --    4.68973   4.69343   4.70405   4.71239   4.71549
 Alpha virt. eigenvalues --    4.71908   4.72182   4.73281   4.73918   4.74384
 Alpha virt. eigenvalues --    4.75365   4.76370   4.77519   4.77872   4.78546
 Alpha virt. eigenvalues --    4.79399   4.80095   4.80403   4.81462   4.81653
 Alpha virt. eigenvalues --    4.82288   4.83012   4.83237   4.84592   4.84820
 Alpha virt. eigenvalues --    4.85546   4.87255   4.87936   4.88833   4.89755
 Alpha virt. eigenvalues --    4.91434   4.91883   4.92949   4.93493   4.94946
 Alpha virt. eigenvalues --    4.95842   4.96398   4.97372   4.98434   4.99328
 Alpha virt. eigenvalues --    5.03284   5.04641   5.05794   5.06753   5.09627
 Alpha virt. eigenvalues --    5.11129   5.12390   5.15141   5.17826   5.19138
 Alpha virt. eigenvalues --    5.19808   5.20234   5.20571   5.21697   5.23285
 Alpha virt. eigenvalues --    5.24011   5.25003   5.26588   5.27599   5.29104
 Alpha virt. eigenvalues --    5.31182   5.32267   5.32611   5.33421   5.34826
 Alpha virt. eigenvalues --    5.35739   5.36520   5.37558   5.37996   5.38395
 Alpha virt. eigenvalues --    5.40677   5.41289   5.41476   5.42702   5.42878
 Alpha virt. eigenvalues --    5.43366   5.43976   5.44875   5.45136   5.46236
 Alpha virt. eigenvalues --    5.46645   5.49265   5.49590   5.50535   5.50915
 Alpha virt. eigenvalues --    5.52467   5.53505   5.54289   5.54518   5.55326
 Alpha virt. eigenvalues --    5.56521   5.57998   5.61154   5.63801   5.64493
 Alpha virt. eigenvalues --    5.66266   5.69109   5.70014   5.70524   5.75083
 Alpha virt. eigenvalues --    5.75204   5.77427   5.78976   5.81018   5.82934
 Alpha virt. eigenvalues --    5.84539   5.85532   5.86442   5.88964   5.89282
 Alpha virt. eigenvalues --    5.90582   5.91210   5.92619   5.92916   5.93241
 Alpha virt. eigenvalues --    5.94815   5.95965   5.96619   5.98414   5.99646
 Alpha virt. eigenvalues --    6.00400   6.01893   6.03824   6.05212   6.05559
 Alpha virt. eigenvalues --    6.07525   6.09227   6.10322   6.11435   6.11806
 Alpha virt. eigenvalues --    6.14151   6.17286   6.18844   6.21905   6.23932
 Alpha virt. eigenvalues --    6.25330   6.25558   6.26768   6.32972   6.34860
 Alpha virt. eigenvalues --    6.52326   6.64079   6.96594   7.03163   7.08920
 Alpha virt. eigenvalues --    7.09611   7.12829   7.23099   7.25309   7.28608
 Alpha virt. eigenvalues --    7.29467   7.34851   7.44357   7.49145   7.66182
 Alpha virt. eigenvalues --    7.76132   7.97285  11.99915  12.10839  12.23574
 Alpha virt. eigenvalues --   12.27277  12.42571  12.55113  12.78883  12.89974
 Alpha virt. eigenvalues --   12.97809  13.10029  13.24006  13.36054  13.38190
 Alpha virt. eigenvalues --   13.41311  13.44846  13.47990  13.57281  13.62883
 Alpha virt. eigenvalues --   13.67185  13.77549  13.94604  14.05853  14.16486
          Condensed to atoms (all electrons):
              1          2          3          4          5          6
     1  O    8.073160   0.299360  -0.087459  -0.007852   0.016776   0.019132
     2  C    0.299360   6.901042  -0.016416  -0.003678  -0.057763  -0.808400
     3  C   -0.087459  -0.016416   6.492433   0.163064   0.012800  -0.295344
     4  O   -0.007852  -0.003678   0.163064   8.094701   0.240985  -0.050256
     5  H    0.016776  -0.057763   0.012800   0.240985   0.420233   0.014290
     6  C    0.019132  -0.808400  -0.295344  -0.050256   0.014290   9.008896
     7  O   -0.000064   0.013994  -0.074023   0.004004  -0.000282   0.262701
     8  H    0.000010  -0.004074   0.007597  -0.000184   0.000012   0.007344
     9  C   -0.009393  -0.087012  -0.312017   0.006022  -0.001854   0.409626
    10  O   -0.015961  -0.006445   0.001985  -0.000037  -0.000010  -0.002984
    11  H    0.000639  -0.006085  -0.001110   0.000000   0.000000   0.000589
    12  C   -0.120436  -0.813252  -0.615078   0.031992   0.007193   0.840619
    13  O    0.003173  -0.035411  -0.014549  -0.002334  -0.000026  -0.037842
    14  C   -0.007134   0.373898   0.559644   0.005815   0.005373  -2.974331
    15  O    0.000028  -0.009544  -0.002814   0.000631   0.000006  -0.023685
    16  C    0.001526   0.058996   0.009173  -0.001544   0.000493  -0.397090
    17  C    0.000002  -0.044877   0.012362   0.000412   0.000014   0.030510
    18  O    0.000037   0.007359  -0.000122  -0.000015   0.000000  -0.000753
    19  H   -0.000052  -0.005506   0.004231   0.000004   0.000000   0.007092
    20  C    0.000062   0.010684  -0.010097  -0.000024   0.000001   0.051765
    21  O    0.000000   0.000054  -0.000018   0.000000   0.000000  -0.000063
    22  H    0.000000  -0.000001   0.000001   0.000000   0.000000  -0.000035
    23  C   -0.000014   0.008792  -0.009243  -0.000118  -0.000014  -0.101103
    24  O    0.000001  -0.000036  -0.003772   0.000040  -0.000001  -0.014389
    25  H    0.000000   0.000032   0.002205   0.000005   0.000000   0.000096
    26  C    0.000033  -0.007154  -0.011938   0.000375   0.000020   0.004029
    27  O    0.000000  -0.000009   0.000236   0.000000   0.000000   0.002146
    28  C    0.000003  -0.001040   0.001494   0.000008   0.000000  -0.016994
    29  O    0.000000  -0.000001   0.000009   0.000000   0.000000  -0.000217
    30  H    0.268239   0.046751  -0.029815   0.000969  -0.001482   0.000123
    31  H   -0.008570   0.277438   0.017714   0.000870   0.000118  -0.059385
    32  H   -0.000241  -0.073414   0.331892  -0.026053  -0.003097  -0.133427
    33  H    0.007348   0.039565  -0.017084   0.000602   0.000013  -0.059845
    34  H   -0.000546  -0.004278  -0.002157   0.000015   0.000000  -0.006301
    35  H    0.003019  -0.001540   0.002550   0.000006   0.000000   0.009046
    36  H    0.000175  -0.022616  -0.065862   0.000047   0.000005   0.108370
    37  H   -0.000195  -0.008983  -0.116776   0.000695  -0.000139   0.440834
    38  H    0.000000   0.000000   0.000000   0.000000   0.000000   0.000007
    39  H    0.000000   0.000005   0.000003   0.000000   0.000000  -0.000078
    40  H    0.000000   0.000125   0.000026   0.000000   0.000000   0.000727
    41  H    0.000000   0.000052   0.000389   0.000000   0.000000   0.008796
    42  H    0.000000  -0.002436   0.001876   0.000002   0.000000   0.019776
    43  H    0.000000  -0.000065   0.000134   0.000000   0.000000  -0.004787
    44  H    0.000000   0.000011  -0.000107   0.000000   0.000000   0.000289
    45  H    0.000000   0.000013  -0.000007  -0.000001   0.000000  -0.004700
              7          8          9         10         11         12
     1  O   -0.000064   0.000010  -0.009393  -0.015961   0.000639  -0.120436
     2  C    0.013994  -0.004074  -0.087012  -0.006445  -0.006085  -0.813252
     3  C   -0.074023   0.007597  -0.312017   0.001985  -0.001110  -0.615078
     4  O    0.004004  -0.000184   0.006022  -0.000037   0.000000   0.031992
     5  H   -0.000282   0.000012  -0.001854  -0.000010   0.000000   0.007193
     6  C    0.262701   0.007344   0.409626  -0.002984   0.000589   0.840619
     7  O    8.110017   0.251280  -0.000830  -0.000004   0.000000  -0.001085
     8  H    0.251280   0.333878   0.000181   0.000000   0.000000   0.001146
     9  C   -0.000830   0.000181   7.032173   0.081803  -0.015609  -0.785062
    10  O   -0.000004   0.000000   0.081803   8.116257   0.239267   0.085802
    11  H    0.000000   0.000000  -0.015609   0.239267   0.433422   0.021343
    12  C   -0.001085   0.001146  -0.785062   0.085802   0.021343   9.069901
    13  O    0.002688  -0.000047  -0.064526   0.000866  -0.000623   0.030149
    14  C   -0.039138  -0.040609  -0.852021   0.019444  -0.004293  -1.425075
    15  O    0.003230   0.007967   0.003936   0.000112  -0.000001  -0.019563
    16  C    0.015609   0.007586  -0.121191  -0.000983  -0.000288  -0.119969
    17  C    0.001769   0.000905  -0.001679  -0.000224   0.000089  -0.082287
    18  O    0.000007  -0.000020  -0.006258  -0.000271   0.000002  -0.004929
    19  H   -0.000054  -0.000003   0.004040   0.000042  -0.000002  -0.008605
    20  C    0.000956   0.000418   0.007318  -0.000001   0.000008  -0.014270
    21  O   -0.000003   0.000000   0.000205  -0.000001   0.000000  -0.000154
    22  H    0.000000   0.000000  -0.000004   0.000000   0.000000   0.000012
    23  C    0.008342  -0.004600  -0.000528  -0.000009   0.000000   0.003329
    24  O   -0.041811   0.016827  -0.000404   0.000000   0.000000  -0.002313
    25  H    0.002776  -0.003641  -0.000015   0.000000   0.000000  -0.000430
    26  C   -0.005479  -0.003071   0.001418  -0.000060  -0.000001   0.010545
    27  O    0.000020  -0.000115   0.000015   0.000000   0.000000  -0.000094
    28  C   -0.000121   0.000023  -0.001636   0.000000  -0.000001  -0.000272
    29  O   -0.000002  -0.000001  -0.000014   0.000000   0.000000   0.000052
    30  H   -0.000015   0.000000  -0.001718   0.001033  -0.000021  -0.024955
    31  H    0.000423   0.000004  -0.057362  -0.001064  -0.000010  -0.038933
    32  H    0.004670  -0.000093   0.012644  -0.000254   0.000000   0.062681
    33  H    0.000286   0.000007   0.022981  -0.001280  -0.000205   0.058381
    34  H   -0.000007   0.000000   0.432670  -0.028494  -0.006414  -0.049861
    35  H    0.000002   0.000000   0.521595  -0.045230  -0.003836  -0.190520
    36  H   -0.002054  -0.000278   0.038198   0.000099   0.000000   0.081096
    37  H   -0.033193  -0.002626   0.016690   0.000006   0.000000   0.068414
    38  H    0.000000   0.000000   0.000000   0.000000   0.000000  -0.000001
    39  H    0.000000   0.000000  -0.000001   0.000000   0.000000   0.000032
    40  H    0.000002   0.000000  -0.000122   0.000000   0.000000   0.000270
    41  H    0.000002  -0.000001   0.000057   0.000000   0.000000  -0.001871
    42  H   -0.001120  -0.000183   0.000949   0.000001   0.000000   0.002291
    43  H   -0.000065  -0.000028   0.000095   0.000000   0.000000   0.001045
    44  H   -0.000571   0.000286  -0.000002   0.000000   0.000000   0.000034
    45  H    0.001055  -0.000422   0.000010   0.000000   0.000000   0.000169
             13         14         15         16         17         18
     1  O    0.003173  -0.007134   0.000028   0.001526   0.000002   0.000037
     2  C   -0.035411   0.373898  -0.009544   0.058996  -0.044877   0.007359
     3  C   -0.014549   0.559644  -0.002814   0.009173   0.012362  -0.000122
     4  O   -0.002334   0.005815   0.000631  -0.001544   0.000412  -0.000015
     5  H   -0.000026   0.005373   0.000006   0.000493   0.000014   0.000000
     6  C   -0.037842  -2.974331  -0.023685  -0.397090   0.030510  -0.000753
     7  O    0.002688  -0.039138   0.003230   0.015609   0.001769   0.000007
     8  H   -0.000047  -0.040609   0.007967   0.007586   0.000905  -0.000020
     9  C   -0.064526  -0.852021   0.003936  -0.121191  -0.001679  -0.006258
    10  O    0.000866   0.019444   0.000112  -0.000983  -0.000224  -0.000271
    11  H   -0.000623  -0.004293  -0.000001  -0.000288   0.000089   0.000002
    12  C    0.030149  -1.425075  -0.019563  -0.119969  -0.082287  -0.004929
    13  O    7.908818   0.328529   0.000824   0.000089   0.027588  -0.015285
    14  C    0.328529  10.331956   0.233574  -0.526450  -0.061935   0.018113
    15  O    0.000824   0.233574   7.815934   0.212605   0.000058  -0.007437
    16  C    0.000089  -0.526450   0.212605  10.452619  -1.727490   0.025554
    17  C    0.027588  -0.061935   0.000058  -1.727490   7.836208   0.233521
    18  O   -0.015285   0.018113  -0.007437   0.025554   0.233521   8.117466
    19  H    0.028616  -0.000300   0.012912  -0.062427   0.025698   0.232128
    20  C   -0.011196  -0.148301   0.007985  -0.679303  -0.193740  -0.096900
    21  O   -0.000074   0.002468   0.000164   0.048207  -0.135815   0.007383
    22  H    0.000001  -0.000360  -0.000001  -0.013367   0.029315  -0.000394
    23  C    0.005414   0.144699  -0.031454   0.286215  -0.299072   0.011704
    24  O   -0.000514   0.072670  -0.033497  -0.015268   0.002314  -0.000016
    25  H   -0.000011  -0.010458   0.002219  -0.009094  -0.001084   0.000000
    26  C   -0.022742  -0.512204  -0.070308  -2.138826   0.033822  -0.007298
    27  O    0.000111   0.011894   0.004337   0.088747  -0.002922  -0.001102
    28  C    0.000998  -0.021429   0.007419   0.461028   0.152008  -0.007094
    29  O    0.000020   0.000307  -0.000074  -0.016442  -0.015733   0.000292
    30  H   -0.000713   0.003603   0.000000   0.000162  -0.000034  -0.000001
    31  H    0.004989   0.123993  -0.000148  -0.001964   0.001546   0.000034
    32  H    0.003557   0.055506   0.000133  -0.006788   0.001327   0.000028
    33  H   -0.023569   0.202585   0.001172   0.005002   0.006886  -0.000220
    34  H   -0.003069  -0.009754  -0.000139   0.006992  -0.000880   0.000360
    35  H   -0.005459   0.010646  -0.000164  -0.003020   0.001136  -0.000067
    36  H   -0.041245   0.181554  -0.030439  -0.025921   0.007964  -0.000754
    37  H    0.006409  -0.078219  -0.013630  -0.028617   0.000580   0.000099
    38  H    0.000000   0.000012  -0.000002   0.000954   0.006892  -0.000014
    39  H    0.000010   0.000607   0.000322   0.034759  -0.024090   0.000537
    40  H    0.000056  -0.009569   0.000330   0.056775  -0.168656   0.007328
    41  H   -0.002104  -0.000582  -0.006516  -0.123817   0.278360  -0.028685
    42  H   -0.003499  -0.035557  -0.026119   0.103889   0.039760  -0.001891
    43  H   -0.000189   0.040225  -0.000627   0.025294  -0.046565   0.000417
    44  H    0.000011   0.008749   0.000402   0.011499   0.000564   0.000012
    45  H    0.000051   0.001461   0.002584   0.067243  -0.001127   0.000054
             19         20         21         22         23         24
     1  O   -0.000052   0.000062   0.000000   0.000000  -0.000014   0.000001
     2  C   -0.005506   0.010684   0.000054  -0.000001   0.008792  -0.000036
     3  C    0.004231  -0.010097  -0.000018   0.000001  -0.009243  -0.003772
     4  O    0.000004  -0.000024   0.000000   0.000000  -0.000118   0.000040
     5  H    0.000000   0.000001   0.000000   0.000000  -0.000014  -0.000001
     6  C    0.007092   0.051765  -0.000063  -0.000035  -0.101103  -0.014389
     7  O   -0.000054   0.000956  -0.000003   0.000000   0.008342  -0.041811
     8  H   -0.000003   0.000418   0.000000   0.000000  -0.004600   0.016827
     9  C    0.004040   0.007318   0.000205  -0.000004  -0.000528  -0.000404
    10  O    0.000042  -0.000001  -0.000001   0.000000  -0.000009   0.000000
    11  H   -0.000002   0.000008   0.000000   0.000000   0.000000   0.000000
    12  C   -0.008605  -0.014270  -0.000154   0.000012   0.003329  -0.002313
    13  O    0.028616  -0.011196  -0.000074   0.000001   0.005414  -0.000514
    14  C   -0.000300  -0.148301   0.002468  -0.000360   0.144699   0.072670
    15  O    0.012912   0.007985   0.000164  -0.000001  -0.031454  -0.033497
    16  C   -0.062427  -0.679303   0.048207  -0.013367   0.286215  -0.015268
    17  C    0.025698  -0.193740  -0.135815   0.029315  -0.299072   0.002314
    18  O    0.232128  -0.096900   0.007383  -0.000394   0.011704  -0.000016
    19  H    0.357063  -0.001040  -0.000458   0.000013  -0.003766  -0.000001
    20  C   -0.001040   6.945759   0.235049  -0.029073   0.028528  -0.004989
    21  O   -0.000458   0.235049   8.061343   0.246970   0.000062   0.000009
    22  H    0.000013  -0.029073   0.246970   0.422371  -0.000067   0.000000
    23  C   -0.003766   0.028528   0.000062  -0.000067   6.128136   0.061437
    24  O   -0.000001  -0.004989   0.000009   0.000000   0.061437   8.212070
    25  H    0.000000   0.000642   0.000000   0.000000  -0.041023   0.254657
    26  C    0.004602   0.515143  -0.020845   0.005215  -0.724983   0.049309
    27  O    0.000034  -0.124526   0.001931  -0.000311  -0.111833   0.003476
    28  C    0.003512  -0.696742   0.008832  -0.004433  -0.082268   0.004162
    29  O    0.000002  -0.032486  -0.000206   0.010483   0.010995  -0.000028
    30  H    0.000000   0.000000   0.000000   0.000000   0.000002   0.000000
    31  H   -0.000017   0.000000   0.000000   0.000000   0.000034   0.000005
    32  H   -0.000001  -0.000031   0.000000   0.000000   0.000305   0.000038
    33  H   -0.000069   0.000642  -0.000001   0.000000   0.000030  -0.000001
    34  H    0.000888  -0.000473   0.000002   0.000000   0.000019   0.000000
    35  H    0.000016   0.000094   0.000000   0.000000  -0.000011   0.000000
    36  H   -0.000802   0.008469   0.000001   0.000000  -0.001715  -0.000034
    37  H   -0.000019   0.000144   0.000000   0.000000   0.002833  -0.000042
    38  H    0.000000  -0.022542  -0.001384  -0.001176  -0.000214   0.000000
    39  H    0.000001  -0.092496   0.000609  -0.000105  -0.000246   0.000033
    40  H   -0.000101   0.349534  -0.020254  -0.006993   0.007177   0.000013
    41  H   -0.000166   0.021543  -0.003352  -0.000153   0.015065  -0.000041
    42  H    0.000387   0.041748  -0.000477   0.000008  -0.016770   0.000350
    43  H    0.000021  -0.025579   0.000108   0.000001   0.066939   0.001291
    44  H    0.000000  -0.001961  -0.000002   0.000000   0.404310  -0.026077
    45  H    0.000000  -0.001931  -0.000002   0.000000   0.570295  -0.055755
             25         26         27         28         29         30
     1  O    0.000000   0.000033   0.000000   0.000003   0.000000   0.268239
     2  C    0.000032  -0.007154  -0.000009  -0.001040  -0.000001   0.046751
     3  C    0.002205  -0.011938   0.000236   0.001494   0.000009  -0.029815
     4  O    0.000005   0.000375   0.000000   0.000008   0.000000   0.000969
     5  H    0.000000   0.000020   0.000000   0.000000   0.000000  -0.001482
     6  C    0.000096   0.004029   0.002146  -0.016994  -0.000217   0.000123
     7  O    0.002776  -0.005479   0.000020  -0.000121  -0.000002  -0.000015
     8  H   -0.003641  -0.003071  -0.000115   0.000023  -0.000001   0.000000
     9  C   -0.000015   0.001418   0.000015  -0.001636  -0.000014  -0.001718
    10  O    0.000000  -0.000060   0.000000   0.000000   0.000000   0.001033
    11  H    0.000000  -0.000001   0.000000  -0.000001   0.000000  -0.000021
    12  C   -0.000430   0.010545  -0.000094  -0.000272   0.000052  -0.024955
    13  O   -0.000011  -0.022742   0.000111   0.000998   0.000020  -0.000713
    14  C   -0.010458  -0.512204   0.011894  -0.021429   0.000307   0.003603
    15  O    0.002219  -0.070308   0.004337   0.007419  -0.000074   0.000000
    16  C   -0.009094  -2.138826   0.088747   0.461028  -0.016442   0.000162
    17  C   -0.001084   0.033822  -0.002922   0.152008  -0.015733  -0.000034
    18  O    0.000000  -0.007298  -0.001102  -0.007094   0.000292  -0.000001
    19  H    0.000000   0.004602   0.000034   0.003512   0.000002   0.000000
    20  C    0.000642   0.515143  -0.124526  -0.696742  -0.032486   0.000000
    21  O    0.000000  -0.020845   0.001931   0.008832  -0.000206   0.000000
    22  H    0.000000   0.005215  -0.000311  -0.004433   0.010483   0.000000
    23  C   -0.041023  -0.724983  -0.111833  -0.082268   0.010995   0.000002
    24  O    0.254657   0.049309   0.003476   0.004162  -0.000028   0.000000
    25  H    0.406739   0.044193  -0.000739  -0.000735  -0.000003   0.000000
    26  C    0.044193   9.569224   0.091563  -0.646276  -0.017178  -0.000004
    27  O   -0.000739   0.091563   7.919064   0.255190  -0.054894   0.000000
    28  C   -0.000735  -0.646276   0.255190   5.852568   0.321267   0.000000
    29  O   -0.000003  -0.017178  -0.054894   0.321267   8.012368   0.000000
    30  H    0.000000  -0.000004   0.000000   0.000000   0.000000   0.405514
    31  H    0.000000  -0.000279   0.000000  -0.000001   0.000000  -0.012498
    32  H    0.000000  -0.000850   0.000000  -0.000004   0.000000  -0.000045
    33  H    0.000000  -0.000910   0.000001   0.000025   0.000000  -0.000201
    34  H    0.000000   0.000501   0.000000   0.000061   0.000000   0.000033
    35  H    0.000000  -0.000222   0.000000   0.000002   0.000000  -0.000364
    36  H    0.000009   0.011714   0.000224  -0.000268  -0.000002   0.000003
    37  H   -0.000002  -0.006997   0.000000  -0.000046   0.000000   0.000014
    38  H    0.000000  -0.001665   0.001150   0.003322   0.268377   0.000000
    39  H    0.000000  -0.000680  -0.042378   0.418375  -0.021118   0.000000
    40  H    0.000000   0.030769  -0.000868   0.003458  -0.000113   0.000000
    41  H    0.000000   0.103334  -0.000681  -0.045258   0.000639   0.000000
    42  H   -0.000025   0.105111   0.004023   0.001792  -0.000441   0.000000
    43  H   -0.000207   0.164068  -0.024838   0.047982  -0.001207   0.000000
    44  H   -0.008519  -0.056957  -0.004457   0.000707  -0.000105   0.000000
    45  H   -0.002429  -0.280463   0.002036   0.004939  -0.000225   0.000000
             31         32         33         34         35         36
     1  O   -0.008570  -0.000241   0.007348  -0.000546   0.003019   0.000175
     2  C    0.277438  -0.073414   0.039565  -0.004278  -0.001540  -0.022616
     3  C    0.017714   0.331892  -0.017084  -0.002157   0.002550  -0.065862
     4  O    0.000870  -0.026053   0.000602   0.000015   0.000006   0.000047
     5  H    0.000118  -0.003097   0.000013   0.000000   0.000000   0.000005
     6  C   -0.059385  -0.133427  -0.059845  -0.006301   0.009046   0.108370
     7  O    0.000423   0.004670   0.000286  -0.000007   0.000002  -0.002054
     8  H    0.000004  -0.000093   0.000007   0.000000   0.000000  -0.000278
     9  C   -0.057362   0.012644   0.022981   0.432670   0.521595   0.038198
    10  O   -0.001064  -0.000254  -0.001280  -0.028494  -0.045230   0.000099
    11  H   -0.000010   0.000000  -0.000205  -0.006414  -0.003836   0.000000
    12  C   -0.038933   0.062681   0.058381  -0.049861  -0.190520   0.081096
    13  O    0.004989   0.003557  -0.023569  -0.003069  -0.005459  -0.041245
    14  C    0.123993   0.055506   0.202585  -0.009754   0.010646   0.181554
    15  O   -0.000148   0.000133   0.001172  -0.000139  -0.000164  -0.030439
    16  C   -0.001964  -0.006788   0.005002   0.006992  -0.003020  -0.025921
    17  C    0.001546   0.001327   0.006886  -0.000880   0.001136   0.007964
    18  O    0.000034   0.000028  -0.000220   0.000360  -0.000067  -0.000754
    19  H   -0.000017  -0.000001  -0.000069   0.000888   0.000016  -0.000802
    20  C    0.000000  -0.000031   0.000642  -0.000473   0.000094   0.008469
    21  O    0.000000   0.000000  -0.000001   0.000002   0.000000   0.000001
    22  H    0.000000   0.000000   0.000000   0.000000   0.000000   0.000000
    23  C    0.000034   0.000305   0.000030   0.000019  -0.000011  -0.001715
    24  O    0.000005   0.000038  -0.000001   0.000000   0.000000  -0.000034
    25  H    0.000000   0.000000   0.000000   0.000000   0.000000   0.000009
    26  C   -0.000279  -0.000850  -0.000910   0.000501  -0.000222   0.011714
    27  O    0.000000   0.000000   0.000001   0.000000   0.000000   0.000224
    28  C   -0.000001  -0.000004   0.000025   0.000061   0.000002  -0.000268
    29  O    0.000000   0.000000   0.000000   0.000000   0.000000  -0.000002
    30  H   -0.012498  -0.000045  -0.000201   0.000033  -0.000364   0.000003
    31  H    0.607102   0.006731   0.006355  -0.000011   0.002809  -0.000046
    32  H    0.006731   0.623178   0.003548   0.000005  -0.000002   0.001663
    33  H    0.006355   0.003548   0.618529  -0.004961   0.006611   0.003905
    34  H   -0.000011   0.000005  -0.004961   0.564438  -0.047954  -0.000005
    35  H    0.002809  -0.000002   0.006611  -0.047954   0.597749  -0.000025
    36  H   -0.000046   0.001663   0.003905  -0.000005  -0.000025   0.609394
    37  H    0.001692   0.006934  -0.000042   0.000001  -0.000008   0.005665
    38  H    0.000000   0.000000   0.000000   0.000000   0.000000   0.000000
    39  H    0.000000   0.000000   0.000000   0.000000   0.000000   0.000000
    40  H    0.000000   0.000000   0.000000   0.000000   0.000000  -0.000002
    41  H    0.000000   0.000000  -0.000001   0.000000   0.000000  -0.000012
    42  H    0.000000   0.000000  -0.000012  -0.000001   0.000000   0.008133
    43  H    0.000000   0.000000   0.000000   0.000000   0.000000  -0.000003
    44  H    0.000000   0.000000   0.000000   0.000000   0.000000   0.000000
    45  H    0.000000   0.000000   0.000000   0.000000   0.000000   0.000011
             37         38         39         40         41         42
     1  O   -0.000195   0.000000   0.000000   0.000000   0.000000   0.000000
[...]
 002776,0.00003349,0.00005632,0.00001558,-0.00000899,-0.00000362,0.0000
 0936,-0.00017564,0.00004785,-0.00002610,0.00014595,0.00015760,0.000303
 84,0.00073857,-0.00043889,-0.00420470,-0.01512664,-0.00502730,0.012364
 80,-0.34540154,-0.01502512,-0.02353325,-0.01566791,0.00014024,-0.00528
 181,0.00201449,0.00009785,0.00125312,-0.00055512,0.00008688,0.00021986
 ,-0.00049437,-0.00036306,0.00098952,0.00047363,0.00000457,0.00004645,-
 0.00002395,0.00006026,-0.00009706,0.00027417,0.00076970,0.00050753,0.0
 0018682,-0.00001781,-0.00008987,0.00000240,-0.00006262,-0.00001103,-0.
 01000373,-0.00088163,-0.00135496,0.00205854,0.00083993,-0.00006681,-0.
 00016500,0.00009500,-0.00012224,0.00007810,-0.00001553,-0.00013460,-0.
 00000098,-0.00000451,-0.00000438,0.00001203,0.00000308,-0.00001225,0.0
 0001919,0.00000842,0.00002577,0.00004082,-0.00000213,0.00002854,-0.000
 01480,0.00001090,-0.00000263,0.00001393,0.00000418,-0.00001567,0.00118
 939,0.00047458,0.00152962,-0.00000946,0.00018185,-0.00028735,0.0000131
 5,-0.00000157,-0.00000825,0.00004656,-0.00001654,0.00018260,0.00069474
 ,0.00034699,-0.00075263,-0.00007322,0.00228620,-0.00102478,0.37756090,
 0.00001052,-0.00001144,0.00004189,-0.00000758,0.00002192,-0.00003824,0
 .00002235,0.00000585,-0.00003472,0.00000800,-0.00003236,0.00002704,-0.
 00000516,0.00000362,-0.00000359,-0.00013312,0.00016520,0.00005780,0.00
 017693,-0.00009650,-0.00022884,-0.00019159,-0.00001500,0.00013723,0.00
 000987,-0.00003472,-0.00000660,-0.00000313,0.00003245,0.00002683,0.000
 00512,-0.00000396,-0.00000261,-0.00002424,0.00001409,-0.00008110,0.000
 16578,0.00008262,0.00018041,-0.00024645,0.00050014,-0.00150469,-0.0121
 4036,-0.00036217,0.00626153,-0.01278861,-0.04330134,-0.00318925,0.0347
 4792,-0.00099776,0.00637064,-0.00246794,0.00250201,-0.00016550,0.00030
 294,-0.00017316,-0.00042689,0.00110476,0.00153017,-0.00139939,-0.00045
 944,-0.00018554,-0.00011150,-0.00008065,-0.00002905,0.00004089,-0.0017
 5421,0.00142431,0.00076004,0.00020469,-0.00004532,-0.00013453,-0.00001
 382,-0.00008443,0.00002537,-0.02784997,-0.00375499,-0.00506701,0.00153
 042,0.00118048,0.00216612,0.00030623,-0.00039062,0.00004739,-0.0000594
 1,0.00009963,0.00004902,0.00000173,-0.00000099,-0.00000654,0.00000073,
 -0.00000569,0.00000230,0.00000257,0.00000792,0.00001334,-0.00001228,0.
 00001619,0.00000511,0.00000952,-0.00000971,0.00000019,-0.00000696,0.00
 000157,0.00000705,0.00035776,0.00020524,0.00022995,0.00004702,0.000006
 16,-0.00004661,-0.00001127,0.00001946,-0.00001230,-0.00012749,-0.00013
 808,0.00000857,-0.00071547,-0.00015047,0.00040017,0.00243287,-0.005055
 38,0.00237942,0.01754676,0.04974591,-0.00001254,-0.00001146,-0.0000523
 8,0.00000414,-0.00000116,0.00003597,-0.00004892,0.00001373,0.00003002,
 -0.00001112,0.00001066,-0.00002024,0.00000192,-0.00000228,0.00000343,-
 0.00000132,0.00015251,-0.00017128,-0.00020831,0.00002042,0.00005671,0.
 00016945,-0.00011601,-0.00002317,-0.00005258,0.00005280,-0.00003559,0.
 00000322,-0.00004941,-0.00000903,-0.00000106,0.00000005,-0.00000945,0.
 00002848,-0.00010830,-0.00004063,-0.00088245,-0.00053362,-0.00037792,0
 .00717058,0.00145899,0.00493433,0.03843813,0.00881739,-0.02014989,-0.0
 2793354,-0.00456353,-0.04086927,-0.01170666,-0.00014525,0.00002386,0.0
 0095606,0.00048297,0.00091006,0.00014113,0.00021107,-0.00022896,-0.001
 06805,-0.00025136,0.00059127,0.00034776,-0.00002777,0.00003131,-0.0000
 1513,-0.00001327,-0.00003256,-0.00024730,0.00132146,0.00079544,0.00015
 868,-0.00009576,0.00005701,-0.00003546,0.00001068,0.00006949,-0.023489
 05,-0.00302368,-0.00265024,0.00073536,0.00064102,0.00198300,-0.0004356
 8,0.00016736,-0.00030758,0.00009011,0.00002082,-0.00017592,-0.00000134
 ,0.00000553,0.00000479,-0.00000664,0.00000487,0.00000861,-0.00003126,-
 0.00001274,-0.00005491,-0.00002884,-0.00003337,-0.00006544,-0.00000443
 ,-0.00001178,-0.00000303,0.00000187,0.00000493,0.00000260,-0.00157902,
 -0.00042771,0.00013199,-0.00024036,-0.00016510,0.00009289,0.00001768,0
 .00000373,0.00000783,0.00017775,-0.00000922,0.00011254,0.00030392,0.00
 010575,-0.00012757,-0.00076725,0.00213175,-0.00047488,0.02014845,-0.00
 337950,0.05895305,0.00000727,-0.00000259,-0.00000936,-0.00001414,0.000
 00478,0.00000666,0.00000627,0.00000083,0.00001190,0.00001350,0.0000056
 1,-0.00002245,-0.00000562,0.00000196,0.00000134,-0.00009414,-0.0000096
 2,-0.00000071,0.00008397,-0.00000506,-0.00008009,-0.00007160,-0.000014
 20,0.00007458,-0.00001995,0.00000366,-0.00000272,0.00001437,-0.0000018
 6,-0.00000188,-0.00000585,-0.00000152,0.00000154,-0.00001037,-0.000012
 57,0.00001336,0.00005157,-0.00005894,-0.00006046,0.00022852,0.00011764
 ,-0.00020709,0.00084012,0.00018924,-0.00075086,-0.01026301,-0.00112477
 ,-0.00184196,-0.00055729,0.00102250,0.00005886,0.00061856,0.00034699,0
 .00018345,-0.00013311,0.00004664,-0.00005416,0.00018705,0.00007620,0.0
 0021408,0.00008615,-0.00028859,-0.00005177,-0.00000435,0.00006627,0.00
 000916,-0.01405446,0.00002269,-0.00175273,0.00094017,0.00054553,-0.000
 90710,0.00003147,-0.00003438,-0.00012050,-0.34570509,-0.02119861,-0.03
 492578,-0.01229489,-0.00484852,0.01272880,0.00010972,0.00203498,-0.000
 96091,0.00027620,-0.00014005,0.00032429,-0.00000381,-0.00000111,0.0000
 0098,0.00000702,-0.00000152,-0.00000653,0.00000967,0.00000397,0.000006
 92,0.00000937,0.00000012,0.00000225,-0.00000440,0.00000003,-0.00000049
 ,0.00000801,-0.00000130,-0.00000659,0.00009869,0.00002853,0.00020554,0
 .00002268,0.00000602,-0.00003279,-0.00001249,-0.00010663,0.00004244,0.
 00018077,-0.00131498,0.00087335,0.00005971,0.00014957,-0.00016151,0.00
 113189,-0.00034374,0.00049149,0.00044423,-0.00104897,-0.00079726,0.376
 71031,-0.00000396,0.00000088,-0.00002007,0.00000083,-0.00000312,0.0000
 1943,0.00000015,0.00001917,0.00003157,-0.00000764,0.00001407,-0.000027
 98,0.00000153,0.00000035,-0.00000037,0.00010995,-0.00014292,-0.0000761
 3,-0.00005333,0.00011648,0.00010448,0.00002758,-0.00007128,-0.00015695
 ,-0.00000405,0.00001628,0.00000137,0.00000111,-0.00001456,-0.00000811,
 -0.00000170,0.00000131,-0.00000047,0.00001128,0.00000933,0.00004981,0.
 00005460,-0.00004875,-0.00006914,0.00008391,0.00017277,-0.00000723,0.0
 0078283,0.00042107,0.00078069,-0.02539538,-0.00371399,-0.00515654,-0.0
 0247371,0.00128655,-0.00064490,0.00083413,0.00006972,0.00032236,-0.000
 11229,0.00010847,-0.00000738,-0.00007957,-0.00033651,0.00008105,0.0001
 2158,-0.00013927,0.00003290,0.00000105,0.00000348,0.00000113,0.0348188
 6,-0.00010038,0.00265560,-0.00205537,0.00122760,-0.00010094,-0.0000547
 7,0.00024178,-0.00019296,-0.02010544,-0.04715721,-0.00414596,-0.011304
 11,-0.00035540,0.00621638,-0.00254509,0.00141795,-0.00098004,0.0003912
 5,-0.00009398,0.00020049,-0.00000092,0.00000113,0.00000265,0.00000032,
 0.00000185,-0.00000244,-0.00000093,-0.00000493,-0.00000463,0.00000271,
 0.00000089,0.00000212,-0.00000347,0.00000173,-0.00000117,0.00000296,-0
 .00000143,-0.00000328,0.00014641,0.00000199,0.00009227,-0.00001694,0.0
 0002517,-0.00000926,0.00002615,-0.00006597,0.00008003,0.00051181,0.000
 17296,-0.00002711,0.00017481,0.00010090,-0.00001277,0.00069979,-0.0005
 6226,0.00003195,-0.00066560,-0.00287124,-0.00262927,0.02376349,0.05416
 820,0.00000201,-0.00000759,-0.00002891,-0.00001224,0.00000767,0.000017
 19,0.00000655,-0.00001273,0.00003655,0.00000950,0.00001397,-0.00003294
 ,-0.00000371,-0.00000063,0.00000388,0.00003352,0.00001467,0.00001716,0
 .00006988,0.00002478,-0.00006058,-0.00008247,-0.00005767,0.00003513,-0
 .00000216,0.00001682,0.00001944,0.00000267,-0.00001595,-0.00001529,-0.
 00000290,0.00000306,0.00000211,-0.00001157,0.00003456,0.00006458,0.000
 15080,-0.00003952,-0.00002613,-0.00024042,0.00024850,0.00000811,0.0010
 0106,0.00041869,0.00209015,-0.02603201,-0.00446925,-0.00165364,-0.0010
 3196,0.00172803,-0.00004289,0.00067209,-0.00013908,0.00005990,-0.00019
 444,0.00006878,0.00005538,-0.00020765,0.00015449,-0.00058169,-0.000088
 13,0.00033804,0.00029775,0.00000695,-0.00011040,-0.00001168,-0.0080474
 8,-0.00148192,0.00120797,0.00060023,-0.00056715,0.00032179,0.00006989,
 -0.00008749,0.00006873,-0.03737615,-0.00295430,-0.04428045,0.04140085,
 0.00930345,-0.01306062,0.00344839,-0.00376332,0.00304060,-0.00053023,0
 .00013939,-0.00069802,-0.00000353,0.00000068,0.00000397,0.00000547,-0.
 00000075,-0.00000669,0.00000885,0.00000263,0.00000658,0.00000795,0.000
 00326,0.00000457,-0.00000305,0.00000492,-0.00000195,0.00000561,-0.0000
 0362,-0.00000686,0.00027977,0.00005053,0.00004493,0.00000993,0.0000253
 5,-0.00005505,-0.00009948,0.00023554,-0.00010351,-0.00113832,0.0000658
 6,-0.00014747,0.00001996,-0.00001538,-0.00011855,0.00068943,-0.0002286
 2,0.00034175,-0.00063507,-0.00342134,-0.00307373,0.02682516,0.00262918
 ,0.05575125,-0.00000237,0.00000158,-0.00000317,0.00000848,-0.00000148,
 0.00001167,-0.00002449,0.00001606,0.00001498,0.00000233,0.00000751,-0.
 00000963,-0.00000025,-0.00000074,0.00000158,0.00008086,-0.00003534,0.0
 0005375,0.00017356,0.00023668,0.00023271,-0.00037795,-0.00035089,-0.00
 025709,0.00000289,0.00000652,-0.00000306,-0.00000027,-0.00000451,-0.00
 000103,0.00000029,0.00000077,-0.00000030,-0.00000663,0.00000153,0.0000
 1670,0.00004782,-0.00003812,-0.00001659,-0.00020000,0.00004599,0.00005
 106,0.00006223,-0.00024926,-0.00016450,-0.00099829,0.00240154,-0.00154
 977,0.00074677,0.00028067,0.00070721,-0.00015512,0.00043297,0.00001680
 ,0.00000222,0.00000051,-0.00009849,-0.00003927,-0.00001605,0.00003041,
 0.00001195,-0.00001937,-0.00001450,-0.00000065,0.00000693,-0.00000612,
 -0.07407265,-0.05688085,-0.06810117,0.00631873,0.00615155,0.01399480,0
 .00084924,0.00084926,-0.00117996,0.00420744,0.01445348,0.01168911,0.00
 021292,-0.00158391,0.00080608,-0.00015666,0.00015846,-0.00001422,-0.00
 006487,-0.00000384,0.00013370,0.00000126,0.00000140,0.00000190,-0.0000
 0028,0.00000068,-0.00000080,0.00000293,0.00000044,0.00000037,0.0000025
 4,0.00000214,0.00000069,-0.00000214,-0.00000107,-0.00000081,0.00000039
 ,-0.00000161,-0.00000033,0.00004667,0.00003162,0.00001131,0.00000406,-
 0.00000098,-0.00001340,0.00001034,-0.00003976,-0.00001193,-0.00000799,
 0.00001673,-0.00000293,0.00000794,0.00001190,-0.00001044,-0.00001463,-
 0.00011112,0.00003859,0.00036024,0.00033936,0.00011741,0.00090426,-0.0
 0072516,0.00080171,0.07075609,-0.00001208,0.00002905,-0.00005262,-0.00
 000049,-0.00003960,0.00006111,-0.00002363,0.00006938,0.00005336,-0.000
 01131,0.00004676,-0.00005682,0.00000346,-0.00000223,0.00000066,0.00021
 460,-0.00040355,-0.00012543,0.00022409,0.00060700,0.00078239,-0.000656
 70,-0.00060971,-0.00098836,0.00000167,0.00003242,0.00003972,-0.0000131
 4,-0.00004412,-0.00005493,-0.00000305,0.00000808,0.00000908,0.00006405
 ,0.00001690,0.00012675,-0.00004628,-0.00000254,-0.00031800,0.00024252,
 0.00009392,0.00061393,-0.00022861,0.00045448,-0.00028675,0.00320010,-0
 .00488967,0.00398213,-0.00087408,-0.00004062,-0.00193924,0.00035092,-0
 .00119529,-0.00013645,-0.00008158,0.00004611,0.00036287,0.00001193,0.0
 0023177,-0.00052575,-0.00000498,0.00008137,0.00027808,0.00000361,-0.00
 005623,-0.00001005,-0.05385576,-0.16573453,-0.14711876,0.00284494,0.00
 869220,0.02464622,0.00020649,0.00278480,0.00071334,-0.00908688,-0.0226
 3034,-0.02345495,0.00030670,0.00257415,-0.00047641,0.00013566,-0.00020
 716,0.00026186,-0.00000387,0.00010553,0.00022456,-0.00000128,-0.000000
 12,0.00000945,-0.00000170,0.00000260,-0.00000225,-0.00000048,-0.000005
 69,-0.00000643,-0.00000538,-0.00000196,-0.00000585,0.00000392,0.000020
 06,-0.00000562,0.00000150,-0.00000223,-0.00000295,-0.00000267,-0.00002
 106,-0.00000808,-0.00002972,0.00001265,-0.00001030,-0.00001891,-0.0000
 7842,0.00000797,-0.00001449,-0.00000276,-0.00000774,-0.00000101,-0.000
 01482,0.00003220,0.00013456,-0.00000895,0.00006452,0.00011933,0.000381
 12,0.00026157,0.00016246,0.00149212,-0.00001432,0.05673890,0.17849693,
 -0.00000462,-0.00007851,-0.00008440,-0.00002524,0.00009566,0.00000490,
 0.00007637,-0.00012768,0.00006522,0.00001040,-0.00000652,-0.00007097,-
 0.00000148,-0.00000414,0.00001628,-0.00043749,0.00056563,0.00019029,-0
 .00032346,-0.00094228,-0.00136728,0.00116343,0.00108748,0.00202903,-0.
 00000113,0.00003983,0.00001740,-0.00000935,-0.00004222,-0.00001438,0.0
 0000139,0.00000669,-0.00000109,0.00003338,0.00003963,0.00001510,0.0000
 4800,-0.00022676,0.00003768,-0.00005925,0.00022356,-0.00012111,0.00003
 060,-0.00033715,0.00022685,0.00020797,0.00144750,-0.00051534,-0.000012
 98,0.00005767,0.00026031,-0.00004990,0.00017471,0.00012823,-0.00000676
 ,0.00005421,-0.00012017,-0.00000282,0.00002329,-0.00006756,-0.00000121
 ,0.00002674,0.00003420,-0.00000259,-0.00001440,-0.00000160,-0.06508625
 ,-0.14228847,-0.20318987,-0.00325404,-0.00497988,-0.04309248,0.0004263
 0,-0.00096918,0.00017110,-0.00003025,0.00189048,0.00289195,-0.00034710
 ,0.00072444,0.00097930,0.00015295,-0.00003177,0.00035252,0.00001004,-0
 .00000269,0.00000510,-0.00000750,0.00000418,0.00001052,0.00000536,-0.0
 0000839,-0.00000383,0.00000260,0.00001064,0.00000443,-0.00000082,0.000
 00498,-0.00000085,-0.00000157,-0.00001096,-0.00000004,0.00000124,-0.00
 000249,-0.00000398,-0.00000253,0.00000498,-0.00000104,0.00005264,-0.00
 002263,0.00002063,-0.00000570,-0.00000739,0.00000634,0.00000171,-0.000
 01905,-0.00000301,0.00001224,0.00000516,0.00000423,-0.00000052,0.00000
 661,-0.00000539,-0.00001743,0.00003813,-0.00002747,0.00035895,-0.00018
 049,0.00049847,0.06782113,0.14531667,0.23893178,0.00000749,0.00002523,
 0.00002376,0.00000253,-0.00002771,0.00000102,-0.00003663,0.00003247,-0
 .00000963,0.00001526,0.00001218,0.00000792,-0.00000550,0.00000138,-0.0
 0000268,0.00008648,-0.00015624,0.00002981,0.00018465,0.00039531,0.0003
 8347,-0.00042566,-0.00050059,-0.00067219,-0.00000694,-0.00001242,-0.00
 000703,0.00001251,0.00001614,0.00000501,-0.00000399,-0.00000314,0.0000
 0164,-0.00002721,-0.00000745,0.00000778,0.00007367,0.00004365,-0.00000
 632,-0.00026286,0.00001246,0.00004109,0.00031641,0.00005250,0.00004031
 ,0.00027188,-0.00124680,-0.00031337,0.00033780,0.00001252,0.00003530,0
 .00007230,0.00014425,-0.00000512,-0.00003447,-0.00001224,-0.00000540,-
 0.00008061,-0.00000381,0.00002982,0.00004575,-0.00003976,-0.00000862,-
 0.00001115,0.00000938,-0.00000680,-0.35193174,-0.02443857,-0.00582274,
 -0.00337044,-0.00692883,0.01104790,-0.00005577,-0.00001462,0.00066836,
 -0.01922626,0.00011502,-0.00139010,0.00183427,-0.00076680,0.00019017,0
 .00045819,0.00000459,-0.00005925,0.00005862,0.00011246,-0.00016624,0.0
 0000019,-0.00000252,-0.00000255,0.00000374,0.00000050,-0.00000299,0.00
 001138,0.00000344,0.00000753,0.00000749,0.00000061,0.00000144,-0.00000
 238,0.00000336,-0.00000047,0.00000462,-0.00000106,-0.00000185,0.000083
 84,0.00003626,0.00002058,0.00001467,-0.00000333,-0.00003861,0.00000605
 ,0.00002117,-0.00000901,0.00006263,-0.00023934,0.00016077,0.00003929,0
 .00003918,-0.00001420,0.00019317,-0.00024868,0.00008190,0.00073715,0.0
 0081427,0.00059344,0.00017304,0.00304031,-0.00038525,-0.00869989,0.000
 00667,-0.00072471,0.37906646,0.00000415,0.00002784,0.00003287,0.000006
 07,-0.00003165,-0.00000949,-0.00001702,0.00003330,-0.00003486,0.000003
 66,-0.00000005,0.00003183,-0.00000206,0.00000211,-0.00000583,0.0000659
 9,-0.00015346,-0.00006370,0.00010674,0.00015829,0.00037610,-0.00039000
 ,-0.00011993,-0.00067573,-0.00000108,-0.00001769,-0.00000635,0.0000036
 4,0.00001763,0.00000613,-0.00000036,-0.00000305,0.00000064,-0.00000723
 ,-0.00001851,-0.00002121,-0.00005043,0.00008869,-0.00001610,0.00015199
 ,-0.00017473,-0.00006788,-0.00032832,0.00008472,-0.00042953,0.00145351
 ,0.00257344,0.00085776,0.00031834,-0.00001178,0.00027373,-0.00023377,-
 0.00006948,-0.00017174,0.00003348,-0.00005327,0.00004945,0.00004535,0.
 00006210,-0.00000866,-0.00003644,0.00002413,-0.00002590,0.00000236,0.0
 0000775,0.00000413,-0.02490268,-0.04740785,-0.00667214,-0.01785704,-0.
 00442360,0.01413257,-0.00126653,0.00013899,0.00017423,0.03581789,-0.00
 213284,0.00180297,-0.00098120,0.00205825,-0.00187200,0.00004635,0.0000
 6604,-0.00006509,-0.00008359,-0.00008263,0.00005597,0.00000183,-0.0000
 0257,-0.00000423,-0.00000056,0.00000070,0.00000146,0.00000191,0.000001
 19,0.00000289,-0.00000153,-0.00000266,-0.00000063,0.00000195,0.0000038
 2,0.00000008,-0.00000087,0.00000163,0.00000252,-0.00002402,-0.00001563
 ,-0.00003664,0.00000324,-0.00001246,-0.00001454,0.00000140,-0.00000114
 ,-0.00001381,-0.00016594,0.00008488,-0.00009518,-0.00003740,-0.0000459
 7,0.00002462,-0.00039337,-0.00003791,-0.00012420,-0.00081571,-0.000196
 14,-0.00028852,0.00195980,-0.00541101,0.00185820,-0.02213111,-0.000287
 79,-0.00154582,0.02969861,0.05527828,0.00000225,-0.00000377,0.00002826
 ,0.00000446,0.00000099,-0.00001697,-0.00000784,0.00001129,-0.00003340,
 -0.00000920,-0.00002699,0.00003412,-0.00000008,0.00000173,-0.00000281,
 0.00005032,0.00002954,-0.00000364,-0.00039020,-0.00019571,-0.00000337,
 0.00090768,0.00045746,0.00031686,-0.00000084,-0.00001647,-0.00001102,0
 .00000275,0.00001797,0.00001733,0.00000111,-0.00000316,-0.00000234,-0.
 00001399,-0.00001105,-0.00005723,-0.00004320,0.00005682,0.00010646,0.0
 0013089,-0.00003439,-0.00018597,-0.00011020,-0.00013401,0.00014526,0.0
 0090723,0.00009958,-0.00007558,-0.00006180,-0.00010802,0.00003764,-0.0
 0000943,0.00010590,0.00003205,0.00001702,-0.00001256,-0.00003746,-0.00
 001755,-0.00005606,0.00008676,0.00001475,0.00000384,-0.00004733,-0.000
 00764,0.00000561,0.00000391,-0.00948920,-0.00640188,-0.04044656,0.0393
 1073,0.01586396,-0.01766859,0.00074464,-0.00090045,0.00042508,-0.00297
 074,-0.00027438,0.00156140,-0.00033113,0.00023420,0.00062851,-0.000189
 86,-0.00014812,-0.00004244,0.00010677,-0.00001738,-0.00012165,0.000001
 97,0.00000161,-0.00000482,-0.00000303,0.00000236,0.00000341,-0.0000113
 6,-0.00000811,-0.00001151,-0.00000098,-0.00000270,0.00000139,0.,-0.000
 00497,0.00000218,-0.00000176,0.00000268,0.00000170,-0.00004230,-0.0000
 4651,-0.00001234,-0.00004856,0.00003304,0.00005173,-0.00000292,0.00001
 486,0.00001640,0.00009236,0.00001223,-0.00001425,0.00000780,0.00001828
 ,0.00000172,0.00000824,-0.00002297,-0.00002340,-0.00005040,-0.00001567
 ,0.00014493,0.00032058,0.00113016,0.00000873,-0.02509342,-0.00224039,0
 .00178996,-0.00372390,-0.00741836,0.05337691\\0.00108986,-0.01290021,0
 .00250311,0.00359903,0.01125257,0.01450865,0.01856871,-0.00637988,-0.0
 0115908,-0.00717825,0.02481584,0.01799724,-0.00663478,-0.01259743,-0.0
 2634647,-0.00879643,-0.02417143,-0.00491773,-0.00127612,0.01139466,-0.
 01189547,-0.00037818,0.00657682,0.02040944,-0.01060954,0.01612846,0.01
 081411,0.00128473,0.01233202,0.00314041,0.00945706,-0.03349896,-0.0014
 2556,0.00257457,0.00084581,-0.00361909,-0.00044023,-0.00943048,0.00090
 034,-0.01132811,0.01174926,-0.02909336,-0.00848522,-0.00028953,0.01206
 618,0.01625482,0.00821118,0.00609096,-0.02596246,0.03184054,0.01436556
 ,0.01277356,-0.02229686,0.01645369,-0.00138386,0.01409118,-0.01966554,
 0.00177576,-0.00350248,-0.00709846,0.01440249,-0.00175783,-0.01333486,
 -0.01701205,-0.00452523,0.02591216,0.00896387,-0.01205655,-0.00242853,
 0.00128572,-0.02019753,0.00233673,-0.01177142,0.03071015,0.00044445,0.
 00172462,-0.00424740,0.01003640,-0.00387520,0.00042237,0.01407870,0.03
 783823,-0.02383424,-0.01192445,-0.01193588,0.01324529,0.01119546,0.000
 26369,0.00252364,0.00012389,-0.01964465,-0.00017407,0.00222747,0.02340
 566,0.00509700,-0.00217504,0.02234603,-0.00025327,-0.00179885,0.001244
 27,0.00283045,-0.01927616,-0.02226269,-0.00113883,0.00158758,0.0215264
 4,0.00453040,-0.00530632,-0.02196016,-0.00422037,0.00076900,-0.0015071
 6,-0.00230962,-0.00172775,-0.01914104,-0.00042973,-0.00429224,0.020037
 17,0.00140776,0.00106079,-0.02545473,-0.00375517,-0.00288648,0.0225407
 3,-0.00078465,0.00130505,-0.02141044,-0.00081937,0.00001594,-0.0043978
 8,-0.00820438,-0.01632375,0.01988947,0.00377011,-0.00364814\\\@


 TRUST EVERYONE, BUT CUT THE CARDS.
 Job cpu time:  3 days 21 hours 33 minutes  9.3 seconds.
 File lengths (MBytes):  RWF=   2348 Int=      0 D2E=      0 Chk=     43 Scr=      1
 Normal termination of Gaussian 09 at Fri Feb 12 11:29:02 2016.
Gaussian '09 finished on node028 at Fri Feb 12 11:29:02 EST 2016.
