Gaussian '09 started on node011 at Thu Oct 22 02:20:28 EDT 2015.
 Entering Gaussian System, Link 0=/usr/local/gaussian/g09/g09
 Initial command:
 /usr/local/gaussian/g09/l1.exe /home/srmcgrat/data/gaussian/cellobiose/450/capped/8000ps/gaussian1114/Gau-1150.inp -scrdir=/home/srmcgrat/data/gaussian/cellobiose/450/capped/8000ps/gaussian1114/
 Entering Link 1 = /usr/local/gaussian/g09/l1.exe PID=      1152.
  
 Copyright (c) 1988,1990,1992,1993,1995,1998,2003,2009,2010,
            Gaussian, Inc.  All Rights Reserved.
  
 This is part of the Gaussian(R) 09 program.  It is based on
 the Gaussian(R) 03 system (copyright 2003, Gaussian, Inc.),
 the Gaussian(R) 98 system (copyright 1998, Gaussian, Inc.),
 the Gaussian(R) 94 system (copyright 1995, Gaussian, Inc.),
 the Gaussian 92(TM) system (copyright 1992, Gaussian, Inc.),
 the Gaussian 90(TM) system (copyright 1990, Gaussian, Inc.),
 the Gaussian 88(TM) system (copyright 1988, Gaussian, Inc.),
 the Gaussian 86(TM) system (copyright 1986, Carnegie Mellon
 University), and the Gaussian 82(TM) system (copyright 1983,
 Carnegie Mellon University). Gaussian is a federally registered
 trademark of Gaussian, Inc.
  
 This software contains proprietary and confidential information,
 including trade secrets, belonging to Gaussian, Inc.
  
 This software is provided under written license and may be
 used, copied, transmitted, or stored only in accord with that
 written license.
  
 The following legend is applicable only to US Government
 contracts under FAR:
  
                    RESTRICTED RIGHTS LEGEND
  
 Use, reproduction and disclosure by the US Government is
 subject to restrictions as set forth in subparagraphs (a)
 and (c) of the Commercial Computer Software - Restricted
 Rights clause in FAR 52.227-19.
  
 Gaussian, Inc.
 340 Quinnipiac St., Bldg. 40, Wallingford CT 06492
  
  
 ---------------------------------------------------------------
 Warning -- This program may not be used in any manner that
 competes with the business of Gaussian, Inc. or will provide
 assistance to any competitor of Gaussian, Inc.  The licensee
 of this program is prohibited from giving any competitor of
 Gaussian, Inc. access to this program.  By using this program,
 the user acknowledges that Gaussian, Inc. is engaged in the
 business of creating and licensing software in the field of
 computational chemistry and represents and warrants to the
 licensee that it is not a competitor of Gaussian, Inc. and that
 it will not use this program in any manner prohibited above.
 ---------------------------------------------------------------
  

 Cite this work as:
 Gaussian 09, Revision B.01,
 M. J. Frisch, G. W. Trucks, H. B. Schlegel, G. E. Scuseria, 
 M. A. Robb, J. R. Cheeseman, G. Scalmani, V. Barone, B. Mennucci, 
 G. A. Petersson, H. Nakatsuji, M. Caricato, X. Li, H. P. Hratchian, 
 A. F. Izmaylov, J. Bloino, G. Zheng, J. L. Sonnenberg, M. Hada, 
 M. Ehara, K. Toyota, R. Fukuda, J. Hasegawa, M. Ishida, T. Nakajima, 
 Y. Honda, O. Kitao, H. Nakai, T. Vreven, J. A. Montgomery, Jr., 
 J. E. Peralta, F. Ogliaro, M. Bearpark, J. J. Heyd, E. Brothers, 
 K. N. Kudin, V. N. Staroverov, T. Keith, R. Kobayashi, J. Normand, 
 K. Raghavachari, A. Rendell, J. C. Burant, S. S. Iyengar, J. Tomasi, 
 M. Cossi, N. Rega, J. M. Millam, M. Klene, J. E. Knox, J. B. Cross, 
 V. Bakken, C. Adamo, J. Jaramillo, R. Gomperts, R. E. Stratmann, 
 O. Yazyev, A. J. Austin, R. Cammi, C. Pomelli, J. W. Ochterski, 
 R. L. Martin, K. Morokuma, V. G. Zakrzewski, G. A. Voth, 
 P. Salvador, J. J. Dannenberg, S. Dapprich, A. D. Daniels, 
 O. Farkas, J. B. Foresman, J. V. Ortiz, J. Cioslowski, 
 and D. J. Fox, Gaussian, Inc., Wallingford CT, 2010.
 
 ******************************************
 Gaussian 09:  EM64L-G09RevB.01 12-Aug-2010
                22-Oct-2015 
 ******************************************
 ------------------------------------------------
 # freq=raman b3lyp/6-31+g(d,p) geom=connectivity
 ------------------------------------------------
 1/10=4,30=1,38=1,57=2/1,3;
 2/12=2,17=6,18=5,40=1/2;
 3/5=1,6=6,7=111,11=2,16=1,25=1,30=1,71=2,74=-5/1,2,3;
 4//1;
 5/5=2,38=5,98=1/2;
 8/6=4,10=90,11=11/1;
 10/13=10,15=4/2;
 11/6=3,8=1,9=11,15=111,16=1/1,2,10;
 10/6=1/2;
 6/7=2,8=2,9=2,10=2,18=1,28=1/1;
 7/8=1,10=1,25=1/1,2,3,16;
 1/10=4,30=1/3;
 99//99;
 -----------------------------
 450K 8000ps Cellobiose Unit 1
 -----------------------------
 Symbolic Z-matrix:
 Charge =  0 Multiplicity = 1
 O(PDBName=O1,ResName=GLC,ResNum=6)  10.722    7.55      32.32 
 C(PDBName=C4,ResName=GLC,ResNum=7)  11.361    7.497     33.604 
 C(PDBName=C3,ResName=GLC,ResNum=7)  11.738    8.889     34.082 
 O(PDBName=O3,ResName=GLC,ResNum=7)  12.699    9.435     33.166 
 H(PDBName=HO3,ResName=GLC,ResNum=7)  12.365    9.12      32.278 
 C(PDBName=C2,ResName=GLC,ResNum=7)  12.472    8.782     35.409 
 O(PDBName=O2,ResName=GLC,ResNum=7)  13.147    9.936     35.929 
 H(PDBName=HO2,ResName=GLC,ResNum=7)  13.033    10.729    35.33 
 C(PDBName=C6,ResName=GLC,ResNum=7)  10.416    5.342     34.146 
 O(PDBName=O6,ResName=GLC,ResNum=7)  9.617     4.58      35.063 
 H(PDBName=HO6,ResName=GLC,ResNum=7)  9.555     3.666     34.662 
 C(PDBName=C5,ResName=GLC,ResNum=7)  10.61     6.748     34.692 
 O(PDBName=O5,ResName=GLC,ResNum=7)  11.111    6.883     36.03 
 C(PDBName=C1,ResName=GLC,ResNum=7)  11.55     8.181     36.457 
 O(PDBName=O1,ResName=GLC,ResNum=7)  12.154    7.886     37.725 
 C(PDBName=C4,ResName=GLC,ResNum=8)  11.326    8.227     38.846 
 C(PDBName=C3,ResName=GLC,ResNum=8)  10.693    6.919     39.292 
 O(PDBName=O3,ResName=GLC,ResNum=8)  9.83      6.303     38.326 
 H(PDBName=HO3,ResName=GLC,ResNum=8)  10.347    6.338     37.47 
 C(PDBName=C2,ResName=GLC,ResNum=8)  10.006    6.946     40.648 
 O(PDBName=O2,ResName=GLC,ResNum=8)  9.403     5.668     40.901 
 H(PDBName=HO2,ResName=GLC,ResNum=8)  8.776     5.583     40.126 
 C(PDBName=C6,ResName=GLC,ResNum=8)  12.497    10.29     39.694 
 O(PDBName=O6,ResName=GLC,ResNum=8)  13.199    11.036    40.698 
 H(PDBName=HO6,ResName=GLC,ResNum=8)  14.117    10.674    40.865 
 C(PDBName=C5,ResName=GLC,ResNum=8)  12.14     8.839     39.974 
 O(PDBName=O5,ResName=GLC,ResNum=8)  11.398    8.844     41.202 
 C(PDBName=C1,ResName=GLC,ResNum=8)  11.005    7.532     41.632 
 O(PDBName=O1,ResName=GLC,ResNum=8)  10.53     7.608     42.984 
 H                     11.38996   7.57844   31.63107 
 H                     11.27815   7.64176   43.5846 
 H                     11.36925   4.87088   34.02658 
 H                     9.92157   5.39224   33.19842 
 H                     9.63245   7.18237   34.71706 
 H                     12.28     6.96878   33.45799 
 H                     10.87747   9.51966   34.16356 
 H                     13.24057   8.05507   35.24845 
 H                     10.70282   8.8186    36.60073 
 H                     10.56333   8.91114   38.53748 
 H                     11.51325   6.24169   39.40748 
 H                     9.20319   7.64966   40.57553 
 H                     11.87495   6.90907   41.62509 
 H                     13.03878   8.27386   40.10708 
 H                     11.58551   10.81043   39.48608 
 H                     13.09273   10.30824   38.80537 
 
 Residue   4                        charge    0.00000000 ave dist*************
 Residue   2 PDB Number     7_0 GLC charge    0.00000000 ave dist*************
 Residue   3 PDB Number     8_0 GLC charge    0.00000000 ave dist*************
 Residue   1 PDB Number     6_0 GLC charge    0.00000000 ave dist*************

 GradGradGradGradGradGradGradGradGradGradGradGradGradGradGradGradGradGrad
 Berny optimization.
 Initialization pass.
 Trust Radius=3.00D-01 FncErr=1.00D-07 GrdErr=1.00D-07
 Number of steps in this run=      2 maximum allowed number of steps=      2.
 GradGradGradGradGradGradGradGradGradGradGradGradGradGradGradGradGradGrad

                          Input orientation:                          
 ---------------------------------------------------------------------
 Center     Atomic      Atomic             Coordinates (Angstroms)
 Number     Number       Type             X           Y           Z
 ---------------------------------------------------------------------
      1          8           0       10.722000    7.550000   32.320000
      2          6           0       11.361000    7.497000   33.604000
      3          6           0       11.738000    8.889000   34.082000
      4          8           0       12.699000    9.435000   33.166000
      5          1           0       12.365000    9.120000   32.278000
      6          6           0       12.472000    8.782000   35.409000
      7          8           0       13.147000    9.936000   35.929000
      8          1           0       13.033000   10.729000   35.330000
      9          6           0       10.416000    5.342000   34.146000
     10          8           0        9.617000    4.580000   35.063000
     11          1           0        9.555000    3.666000   34.662000
     12          6           0       10.610000    6.748000   34.692000
     13          8           0       11.111000    6.883000   36.030000
     14          6           0       11.550000    8.181000   36.457000
     15          8           0       12.154000    7.886000   37.725000
     16          6           0       11.326000    8.227000   38.846000
     17          6           0       10.693000    6.919000   39.292000
     18          8           0        9.830000    6.303000   38.326000
     19          1           0       10.347000    6.338000   37.470000
     20          6           0       10.006000    6.946000   40.648000
     21          8           0        9.403000    5.668000   40.901000
     22          1           0        8.776000    5.583000   40.126000
     23          6           0       12.497000   10.290000   39.694000
     24          8           0       13.199000   11.036000   40.698000
     25          1           0       14.117000   10.674000   40.865000
     26          6           0       12.140000    8.839000   39.974000
     27          8           0       11.398000    8.844000   41.202000
     28          6           0       11.005000    7.532000   41.632000
     29          8           0       10.530000    7.608000   42.984000
     30          1           0       11.389960    7.578437   31.631073
     31          1           0       11.278155    7.641762   43.584604
     32          1           0       11.369251    4.870882   34.026580
     33          1           0        9.921568    5.392239   33.198418
     34          1           0        9.632455    7.182370   34.717059
     35          1           0       12.279999    6.968776   33.457985
     36          1           0       10.877470    9.519664   34.163558
     37          1           0       13.240567    8.055070   35.248449
     38          1           0       10.702821    8.818595   36.600734
     39          1           0       10.563326    8.911136   38.537477
     40          1           0       11.513251    6.241687   39.407480
     41          1           0        9.203187    7.649661   40.575531
     42          1           0       11.874945    6.909065   41.625091
     43          1           0       13.038783    8.273863   40.107078
     44          1           0       11.585506   10.810431   39.486083
     45          1           0       13.092734   10.308239   38.805367
 ---------------------------------------------------------------------
                    Distance matrix (angstroms):
                    1          2          3          4          5
     1  O    0.000000
     2  C    1.435195   0.000000
     3  C    2.435122   1.519301   0.000000
     4  O    2.859628   2.395398   1.435511   0.000000
     5  H    2.272908   2.323881   1.923774   0.999662   0.000000
     6  C    3.757958   2.478623   1.520241   2.347123   3.151008
     7  O    4.959688   3.813678   2.548117   2.843567   3.821934
     8  H    4.950441   4.027466   2.572961   2.543401   3.514230
     9  C    2.881523   2.414708   3.785893   4.788020   4.643416
    10  O    4.191178   3.698528   4.901886   6.055440   5.993274
    11  H    4.683194   4.365497   5.690485   6.738257   6.582224
    12  C    2.506418   1.519456   2.495669   3.729955   3.812323
    13  O    3.789500   2.514950   2.865636   4.151740   4.544688
    14  C    4.265972   2.939930   2.485404   3.704510   4.360044
    15  O    5.601566   4.214595   3.801383   4.845710   5.589015
    16  C    6.588765   5.292701   4.827389   5.967143   6.709366
    17  C    7.000556   5.756184   5.667188   6.919694   7.538977
    18  O    6.198605   5.105574   5.323476   6.683277   7.137228
    19  H    5.303967   4.161422   4.463298   5.800666   6.226453
    20  C    8.380516   7.194273   7.063103   8.332328   8.963708
    21  O    8.883425   7.773366   7.894671   9.213258   9.749148
    22  H    8.281886   7.272008   7.498868   8.869579   9.326435
    23  C    8.064372   6.795546   5.833817   6.586852   7.508887
    24  O    9.406307   8.138034   7.107432   7.716490   8.675426
    25  H    9.710944   8.391125   7.406413   7.925935   8.900617
    26  C    7.890245   6.556272   5.905910   6.856862   7.704414
    27  O    9.001185   7.716565   7.128255   8.162057   8.980481
    28  C    9.316317   8.035966   7.705922   8.841052   9.584814
    29  O   10.665886   9.417393   9.074460  10.219374  10.966850
    30  H    0.960000   1.974819   2.801026   2.741607   1.935364
    31  H   11.278698   9.981997   9.595131  10.666856  11.454506
    32  H    3.241762   2.659913   4.035383   4.831149   4.701495
    33  H    2.463380   2.581953   4.038253   4.905008   4.551234
    34  H    2.658600   2.079847   2.783740   4.108993   4.143697
    35  H    2.014992   1.070000   2.090554   2.518547   2.455067
    36  H    2.702305   2.153619   1.070000   2.078524   2.434709
    37  H    3.895393   2.558989   2.076957   2.556188   3.274792
    38  H    4.464794   3.340693   2.724073   4.020209   4.641090
    39  H    6.366702   5.193772   4.607779   5.804163   6.516956
    40  H    7.250526   5.939644   5.951430   7.110508   7.735609
    41  H    8.394672   7.299432   7.080056   8.385064   9.000444
    42  H    9.398128   8.059014   7.799816   8.866546   9.617510
    43  H    8.156595   6.760806   6.194513   7.045726   7.903442
    44  H    7.920152   6.754860   5.737532   6.563165   7.444571
    45  H    7.435607   6.160859   5.114660   5.720143   6.674431
                    6          7          8          9         10
     6  C    0.000000
     7  O    1.434483   0.000000
     8  H    2.027750   1.000323   0.000000
     9  C    4.201893   5.634029   6.104942   0.000000
    10  O    5.091910   6.472835   7.039215   1.435247   0.000000
    11  H    5.936359   7.336256   7.901182   1.953600   1.000020
    12  C    2.849261   4.257920   4.703864   1.520720   2.413279
    13  O    2.417470   3.671009   4.356122   2.531237   2.910487
    14  C    1.519733   2.430888   3.156220   3.832310   4.318209
    15  O    2.503557   2.900718   3.819858   4.722480   4.944922
    16  C    3.665284   3.840001   4.640701   5.589394   5.525611
    17  C    4.659753   5.141418   5.974039   5.389339   4.951074
    18  O    4.651289   5.472366   6.230947   4.328893   3.696115
    19  H    3.838813   4.812513   5.574502   3.470699   3.068731
    20  C    6.074469   6.408974   7.194091   6.709465   6.077952
    21  O    7.019816   7.546797   8.356235   6.838309   5.942372
    22  H    6.792945   7.461170   8.222225   6.205488   5.229461
    23  C    4.542677   3.837062   4.418655   7.719687   7.895864
    24  O    5.795047   4.894493   5.379334   9.115669   9.287835
    25  H    6.004467   5.084254   5.640417   9.341980   9.542014
    26  C    4.577412   4.310392   5.092768   7.011902   6.972986
    27  O    5.892043   5.661801   6.380191   7.938228   7.683813
    28  C    6.514623   6.549167   7.351789   7.821970   7.334344
    29  O    7.907608   7.876630   8.636514   9.124582   8.529044
    30  H    4.110001   5.207443   5.129102   3.503585   4.890004
    31  H    8.340618   8.207581   8.986045   9.752920   9.206061
    32  H    4.292317   5.695174   6.227721   1.070000   2.056492
    33  H    4.783499   6.205261   6.534958   1.070000   2.056492
    34  H    3.331758   4.626371   4.951564   2.080148   2.625308
    35  H    2.670413   3.957527   4.267404   2.567929   3.920955
    36  H    2.153555   2.905320   2.733018   4.203111   5.176684
    37  H    1.070000   2.002449   2.683214   4.068700   5.024016
    38  H    2.133440   2.770168   3.270191   4.265524   4.637814
    39  H    3.667026   3.811807   4.437548   5.660875   5.632607
    40  H    4.833242   5.330751   6.250717   5.449456   5.023094
    41  H    6.217747   6.509321   7.187864   6.937945   6.323137
    42  H    6.519521   6.574642   7.453936   7.779526   7.320103
    43  H    4.759347   4.497860   5.371053   7.142077   7.127128
    44  H    4.639290   3.981926   4.401693   7.732268   7.890308
    45  H    3.774921   2.900861   3.501255   7.316976   7.674553
                   11         12         13         14         15
    11  H    0.000000
    12  C    3.257706   0.000000
    13  O    3.826441   1.435085   0.000000
    14  C    5.252359   2.460145   1.435219   0.000000
    15  O    5.826248   3.588603   2.228650   1.435153   0.000000
    16  C    6.437781   4.467193   3.127686   2.399919   1.434749
    17  C    5.771824   4.603925   3.288870   3.219366   2.350553
    18  O    4.522642   3.743312   2.692392   3.158868   2.875424
    19  H    3.956224   2.820382   1.718814   2.422814   2.393027
    20  C    6.840614   5.989821   4.748781   4.633966   3.747190
    21  O    6.554100   6.416769   5.302842   5.538404   4.751263
    22  H    5.842690   5.852276   4.890751   5.282636   4.741254
    23  C    8.823478   6.412998   5.191680   3.977796   3.126312
    24  O   10.199457   7.820607   6.587669   5.371807   4.455699
    25  H   10.411586   8.112857   6.839952   5.677588   4.635290
    26  C    7.852356   5.883256   4.521052   3.626342   2.442623
    27  O    8.542829   6.884349   5.538725   4.793506   3.684946
    28  C    8.101195   6.995304   5.640465   5.243935   4.087807
    29  O    9.259896   8.336862   7.015789   6.631022   5.511056
    30  H    5.278329   3.266074   4.462287   4.866032   6.149333
    31  H    9.919113   8.962346   7.594452   7.153140   5.929731
    32  H    2.268701   2.131388   2.851141   4.110534   4.835812
    33  H    2.292672   2.131388   3.413939   4.587738   5.629614
    34  H    3.517654   1.070000   1.999883   2.775182   3.987605
    35  H    4.447876   2.088164   2.826513   3.316093   4.366302
    36  H    6.021856   2.834239   3.238848   2.739378   4.120953
    37  H    5.761186   2.989640   2.553356   2.081939   2.709708
    38  H    5.623648   2.817666   2.058853   1.070000   2.059036
    39  H    6.599053   4.412373   3.271196   2.415577   2.059434
    40  H    5.743561   4.827832   3.461280   3.530951   2.438250
    41  H    7.138850   6.116213   4.988925   4.769922   4.109584
    42  H    8.023980   7.049382   5.647065   5.332221   4.030259
    43  H    7.938389   6.127831   4.719472   3.943117   2.570520
    44  H    8.856502   6.359103   5.253036   4.011298   3.460766
    45  H    8.590832   5.979888   4.833445   3.524202   2.813478
                   16         17         18         19         20
    16  C    0.000000
    17  C    1.520023   0.000000
    18  O    2.492026   1.434357   0.000000
    19  H    2.533799   1.943441   1.000625   0.000000
    20  C    2.574988   1.520340   2.415804   3.253556   0.000000
    21  O    3.803871   2.412049   2.686295   3.621022   1.435584
    22  H    3.889940   2.480996   2.206653   3.176854   1.908705
    23  C    2.519189   3.844432   4.988034   5.018663   4.277562
    24  O    3.850781   5.020614   6.275176   6.373782   5.189012
    25  H    4.225382   5.319599   6.628011   6.673816   5.553863
    26  C    1.519712   2.499066   3.805693   3.967350   2.931157
    27  O    2.436516   2.801919   4.145682   4.616542   2.418054
    28  C    2.889267   2.438998   3.717620   4.379594   1.519754
    29  O    4.259087   3.759276   4.887739   5.661324   2.483891
    30  H    7.244301   7.720778   6.991585   6.059663   9.144413
    31  H    4.774847   4.392179   5.616258   6.321014   3.275073
    32  H    5.873006   5.690057   4.785945   3.880022   7.071617
    33  H    6.473290   6.329128   5.208644   4.395665   7.610360
    34  H    4.583394   4.703637   3.719781   2.966853   5.947391
    35  H    5.614619   6.046220   5.490293   4.497847   7.541081
    36  H    4.878260   5.753121   5.363771   4.619193   7.030732
    37  H    4.078909   4.912337   4.916608   4.031916   6.391214
    38  H    2.404071   3.294157   3.172787   2.652468   4.513595
    39  H    1.070000   2.134180   2.717510   2.794161   2.937121
    40  H    2.071664   1.070000   2.001672   2.263459   2.075272
    41  H    2.798381   2.097823   2.695697   3.559928   1.070000
    42  H    3.124363   2.615418   3.928501   4.463801   2.109272
    43  H    2.127473   2.828905   4.165673   4.236442   3.354637
    44  H    2.674167   3.997183   4.974387   5.059756   4.333442
    45  H    2.730303   4.181205   5.188176   5.008499   4.922182
                   21         22         23         24         25
    21  O    0.000000
    22  H    1.000489   0.000000
    23  C    5.691447   6.015672   0.000000
    24  O    6.577708   7.044524   1.434342   0.000000
    25  H    6.876273   7.415570   2.035460   1.000828   0.000000
    26  C    4.290191   4.684137   1.520280   2.544104   2.840710
    27  O    3.762659   4.320507   2.360674   2.881403   3.294758
    28  C    2.564227   3.321909   3.686254   4.238397   4.488318
    29  O    3.061473   3.917308   4.678281   4.909230   5.172725
    30  H    9.671056   9.109245   8.578397   9.870994  10.113588
    31  H    3.822783   4.739327   4.861641   4.852111   4.964852
    32  H    7.194386   6.665957   7.922014   9.266310   9.380314
    33  H    7.724942   7.024252   8.533083   9.941697  10.211520
    34  H    6.370800   5.705098   6.529389   7.958791   8.372562
    35  H    8.085024   7.659034   7.068628   8.354920   8.483344
    36  H    7.899525   7.447430   5.813956   7.098430   7.532355
    37  H    7.237151   7.059319   5.030977   6.211705   6.258800
    38  H    5.487082   5.158412   3.866834   5.285394   5.769152
    39  H    4.177383   4.098100   2.641573   4.016178   4.599310
    40  H    2.648184   2.905629   4.175966   5.243341   5.343152
    41  H    2.018127   2.157697   4.312504   5.239162   5.777195
    42  H    2.859207   3.689063   3.942941   4.432179   4.447390
    43  H    4.543099   5.041073   2.128138   2.829180   2.738184
    44  H    5.762805   5.968991   1.070000   2.030514   2.885912
    45  H    6.287896   6.534994   1.070000   2.030514   2.329161
                   26         27         28         29         30
    26  C    0.000000
    27  O    1.434773   0.000000
    28  C    2.396964   1.435511   0.000000
    29  O    3.628713   2.335946   1.435028   0.000000
    30  H    8.470892   9.654240  10.008441  11.385489   0.000000
    31  H    3.900336   2.671430   1.974670   0.960000  11.954221
    32  H    7.191093   8.202021   8.065769   9.403804   3.615209
    33  H    7.918972   8.840353   8.767994  10.051737   3.064671
    34  H    6.055380   6.923339   7.058507   8.326407   3.573375
    35  H    6.780545   8.016492   8.292006   9.706496   2.121665
    36  H    5.984857   7.089932   7.729469   9.031909   3.231794
    37  H    4.914939   6.281897   6.783884   8.208885   4.091128
    38  H    3.666719   4.653555   5.201950   6.499346   5.167947
    39  H    2.134175   2.793004   3.416601   4.633664   7.082219
    40  H    2.731262   3.163166   2.621396   3.952858   7.891426
    41  H    3.225095   2.576066   2.092009   2.750071   9.208169
    42  H    2.553626   2.037267   1.070000   2.035687  10.028144
    43  H    1.070000   2.053309   2.648022   3.874796   8.662846
    44  H    2.105248   2.616559   3.961068   4.858506   8.496188
    45  H    2.105248   3.280239   4.478391   5.596416   7.862681
                   31         32         33         34         35
    31  H    0.000000
    32  H    9.951979   0.000000
    33  H   10.713242   1.747413   0.000000
    34  H    9.030654   2.972574   2.365255   0.000000
    35  H   10.198284   2.356676   2.848692   2.939452   0.000000
    36  H    9.614737   4.676728   4.345214   2.705434   2.995321
    37  H    8.573994   3.890223   4.723246   3.749994   2.304015
    38  H    7.105659   4.759709   4.891424   2.714985   3.973184
    39  H    5.253168   6.109121   6.426512   4.295433   5.702716
    40  H    4.411785   5.554631   6.465870   5.140265   6.042603
    41  H    3.655143   7.436545   7.748150   5.892735   7.783947
    42  H    2.175475   7.883355   8.782100   7.268037   8.177362
    43  H    3.948740   7.165199   8.108661   6.468905   6.818317
    44  H    5.189682   8.070389   8.465237   6.302446   7.181824
    45  H    5.765753   7.441240   8.103162   6.201520   6.356653
                   36         37         38         39         40
    36  H    0.000000
    37  H    2.984334   0.000000
    38  H    2.542012   2.975198   0.000000
    39  H    4.427207   4.326451   1.943965   0.000000
    40  H    6.216757   4.854845   3.895520   2.963987   0.000000
    41  H    6.885749   6.696462   4.406169   2.755896   2.946715
    42  H    7.967726   6.621164   5.501304   3.906660   2.343932
    43  H    6.445830   4.867737   4.248283   2.999608   2.635607
    44  H    5.522379   5.318721   3.615493   2.356274   4.569992
    45  H    5.203425   4.213110   3.576470   2.901994   4.403879
                   41         42         43         44         45
    41  H    0.000000
    42  H    2.964516   0.000000
    43  H    3.914189   2.349799   0.000000
    44  H    4.105217   4.458675   2.988616   0.000000
    45  H    5.032901   4.581292   2.415791   1.728383   0.000000
 Stoichiometry    C12H22O11
 Framework group  C1[X(C12H22O11)]
 Deg. of freedom   129
 Full point group                 C1      NOp   1
 Largest Abelian subgroup         C1      NOp   1
 Largest concise Abelian subgroup C1      NOp   1
                         Standard orientation:                         
 ---------------------------------------------------------------------
 Center     Atomic      Atomic             Coordinates (Angstroms)
 Number     Number       Type             X           Y           Z
 ---------------------------------------------------------------------
      1          8           0        5.151835   -0.226035   -0.660592
      2          6           0        3.890360    0.011246   -0.018591
      3          6           0        3.301222    1.342902   -0.452051
      4          8           0        4.185598    2.388379   -0.021299
      5          1           0        5.090659    1.994604   -0.179829
      6          6           0        2.003506    1.586336    0.301478
      7          8           0        1.399145    2.886278    0.250084
      8          1           0        1.924770    3.513050   -0.325695
      9          6           0        3.518235   -2.330691    0.437110
     10          8           0        2.654833   -3.463582    0.260955
     11          1           0        3.132192   -4.228543    0.693396
     12          6           0        2.856475   -1.094313   -0.151132
     13          8           0        1.522151   -0.782583    0.275336
     14          6           0        0.993201    0.509371   -0.057715
     15          8           0       -0.232072    0.528229    0.689289
     16          6           0       -1.394818    0.277133   -0.112883
     17          6           0       -1.738441   -1.184763    0.122180
     18          8           0       -0.740242   -2.119197   -0.311194
     19          1           0        0.119724   -1.748345    0.041194
     20          6           0       -3.105214   -1.630099   -0.372835
     21          8           0       -3.258599   -3.038722   -0.142277
     22          1           0       -2.491908   -3.413954   -0.664163
     23          6           0       -2.394669    2.585931   -0.239614
     24          8           0       -3.445217    3.534998   -0.009490
     25          1           0       -3.561738    3.741388    0.962870
     26          6           0       -2.555013    1.170964    0.292748
     27          8           0       -3.793493    0.684338   -0.243847
     28          6           0       -4.116009   -0.645177    0.190970
     29          8           0       -5.478782   -0.930830   -0.156241
     30          1           0        5.848993    0.214031   -0.168746
     31          1           0       -6.064893   -0.519338    0.483094
     32          1           0        3.697162   -2.177259    1.480827
     33          1           0        4.447770   -2.509450   -0.061797
     34          1           0        2.774230   -1.286006   -1.200603
     35          1           0        4.100036    0.099926    1.026910
     36          1           0        3.148046    1.375493   -1.510529
     37          1           0        2.241853    1.427445    1.332421
     38          1           0        0.777764    0.551416   -1.104958
     39          1           0       -1.162125    0.432376   -1.145672
     40          1           0       -1.778290   -1.290382    1.186208
     41          1           0       -3.110138   -1.495545   -1.434330
     42          1           0       -4.037667   -0.670618    1.257795
     43          1           0       -2.620532    1.200951    1.360319
     44          1           0       -2.250991    2.516435   -1.297643
     45          1           0       -1.499165    2.989116    0.185138
 ---------------------------------------------------------------------
 Rotational constants (GHZ):      0.3846490      0.1480683      0.1093995
 Standard basis: 6-31+G(d,p) (6D, 7F)
 There are   547 symmetry adapted basis functions of A   symmetry.
 Integral buffers will be    131072 words long.
 Raffenetti 2 integral format.
 Two-electron integral symmetry is turned on.
   547 basis functions,   890 primitive gaussians,   547 cartesian basis functions
    91 alpha electrons       91 beta electrons
       nuclear repulsion energy      2273.5064243458 Hartrees.
 NAtoms=   45 NActive=   45 NUniq=   45 SFac= 1.00D+00 NAtFMM=   50 NAOKFM=F Big=F
 One-electron integrals computed using PRISM.
 NBasis=   547 RedAO= T  NBF=   547
 NBsUse=   547 1.00D-06 NBFU=   547
 Harris functional with IExCor=  402 diagonalized for initial guess.
 ExpMin= 4.38D-02 ExpMax= 5.48D+03 ExpMxC= 8.25D+02 IAcc=2 IRadAn=         0 AccDes= 0.00D+00
 HarFok:  IExCor=  402 AccDes= 0.00D+00 IRadAn=         0 IDoV= 1
 ScaDFX=  1.000000  1.000000  1.000000  1.000000
 FoFCou: FMM=F IPFlag=           0 FMFlag=      100000 FMFlg1=           0
         NFxFlg=           0 DoJE=T BraDBF=F KetDBF=T FulRan=T
         Omega=  0.000000  0.000000  1.000000  0.000000  0.000000 ICntrl=     500 IOpCl=  0
         NMat0=    1 NMatS0=    1 NMatT0=    0 NMatD0=    1 NMtDS0=    0 NMtDT0=    0
         I1Cent=           4 NGrid=           0.
 Petite list used in FoFCou.
 Initial guess orbital symmetries:
       Occupied  (A) (A) (A) (A) (A) (A) (A) (A) (A) (A) (A) (A)
                 (A) (A) (A) (A) (A) (A) (A) (A) (A) (A) (A) (A)
                 (A) (A) (A) (A) (A) (A) (A) (A) (A) (A) (A) (A)
                 (A) (A) (A) (A) (A) (A) (A) (A) (A) (A) (A) (A)
                 (A) (A) (A) (A) (A) (A) (A) (A) (A) (A) (A) (A)
                 (A) (A) (A) (A) (A) (A) (A) (A) (A) (A) (A) (A)
                 (A) (A) (A) (A) (A) (A) (A) (A) (A) (A) (A) (A)
                 (A) (A) (A) (A) (A) (A) (A)
       Virtual   (A) (A) (A) (A) (A) (A) (A) (A) (A) (A) (A) (A)
                 (A) (A) (A) (A) (A) (A) (A) (A) (A) (A) (A) (A)
                 (A) (A) (A) (A) (A) (A) (A) (A) (A) (A) (A) (A)
                 (A) (A) (A) (A) (A) (A) (A) (A) (A) (A) (A) (A)
                 (A) (A) (A) (A) (A) (A) (A) (A) (A) (A) (A) (A)
                 (A) (A) (A) (A) (A) (A) (A) (A) (A) (A) (A) (A)
                 (A) (A) (A) (A) (A) (A) (A) (A) (A) (A) (A) (A)
                 (A) (A) (A) (A) (A) (A) (A) (A) (A) (A) (A) (A)
                 (A) (A) (A) (A) (A) (A) (A) (A) (A) (A) (A) (A)
                 (A) (A) (A) (A) (A) (A) (A) (A) (A) (A) (A) (A)
                 (A) (A) (A) (A) (A) (A) (A) (A) (A) (A) (A) (A)
                 (A) (A) (A) (A) (A) (A) (A) (A) (A) (A) (A) (A)
                 (A) (A) (A) (A) (A) (A) (A) (A) (A) (A) (A) (A)
                 (A) (A) (A) (A) (A) (A) (A) (A) (A) (A) (A) (A)
                 (A) (A) (A) (A) (A) (A) (A) (A) (A) (A) (A) (A)
                 (A) (A) (A) (A) (A) (A) (A) (A) (A) (A) (A) (A)
                 (A) (A) (A) (A) (A) (A) (A) (A) (A) (A) (A) (A)
                 (A) (A) (A) (A) (A) (A) (A) (A) (A) (A) (A) (A)
                 (A) (A) (A) (A) (A) (A) (A) (A) (A) (A) (A) (A)
                 (A) (A) (A) (A) (A) (A) (A) (A) (A) (A) (A) (A)
                 (A) (A) (A) (A) (A) (A) (A) (A) (A) (A) (A) (A)
                 (A) (A) (A) (A) (A) (A) (A) (A) (A) (A) (A) (A)
                 (A) (A) (A) (A) (A) (A) (A) (A) (A) (A) (A) (A)
                 (A) (A) (A) (A) (A) (A) (A) (A) (A) (A) (A) (A)
                 (A) (A) (A) (A) (A) (A) (A) (A) (A) (A) (A) (A)
                 (A) (A) (A) (A) (A) (A) (A) (A) (A) (A) (A) (A)
                 (A) (A) (A) (A) (A) (A) (A) (A) (A) (A) (A) (A)
                 (A) (A) (A) (A) (A) (A) (A) (A) (A) (A) (A) (A)
                 (A) (A) (A) (A) (A) (A) (A) (A) (A) (A) (A) (A)
                 (A) (A) (A) (A) (A) (A) (A) (A) (A) (A) (A) (A)
                 (A) (A) (A) (A) (A) (A) (A) (A) (A) (A) (A) (A)
                 (A) (A) (A) (A) (A) (A) (A) (A) (A) (A) (A) (A)
                 (A) (A) (A) (A) (A) (A) (A) (A) (A) (A) (A) (A)
                 (A) (A) (A) (A) (A) (A) (A) (A) (A) (A) (A) (A)
                 (A) (A) (A) (A) (A) (A) (A) (A) (A) (A) (A) (A)
                 (A) (A) (A) (A) (A) (A) (A) (A) (A) (A) (A) (A)
                 (A) (A) (A) (A) (A) (A) (A) (A) (A) (A) (A) (A)
                 (A) (A) (A) (A) (A) (A) (A) (A) (A) (A) (A) (A)
 The electronic state of the initial guess is 1-A.
 Requested convergence on RMS density matrix=1.00D-08 within 128 cycles.
 Requested convergence on MAX density matrix=1.00D-06.
 Requested convergence on             energy=1.00D-06.
 No special actions if energy rises.
 SCF Done:  E(RB3LYP) =  -1297.93526857     A.U. after   14 cycles
             Convg  =    0.2303D-08             -V/T =  2.0087
 Range of M.O.s used for correlation:     1   547
 NBasis=   547 NAE=    91 NBE=    91 NFC=     0 NFV=     0
 NROrb=    547 NOA=    91 NOB=    91 NVA=   456 NVB=   456

 **** Warning!!: The largest alpha MO coefficient is  0.93219205D+02

          Differentiating once with respect to electric field.
                with respect to dipole field.
          Electric field/nuclear overlap derivatives assumed to be zero.
          There are     3 degrees of freedom in the 1st order CPHF.  IDoFFX=0.
      3 vectors produced by pass  0 Test12= 1.38D-12 3.33D-08 XBig12= 1.20D+02 1.44D+00.
 AX will form     3 AO Fock derivatives at one time.
      3 vectors produced by pass  1 Test12= 1.38D-12 3.33D-08 XBig12= 2.16D+01 4.51D-01.
      3 vectors produced by pass  2 Test12= 1.38D-12 3.33D-08 XBig12= 8.84D+00 2.24D-01.
      3 vectors produced by pass  3 Test12= 1.38D-12 3.33D-08 XBig12= 9.21D-01 8.25D-02.
      3 vectors produced by pass  4 Test12= 1.38D-12 3.33D-08 XBig12= 2.99D-01 4.37D-02.
      3 vectors produced by pass  5 Test12= 1.38D-12 3.33D-08 XBig12= 4.92D-02 1.65D-02.
      3 vectors produced by pass  6 Test12= 1.38D-12 3.33D-08 XBig12= 1.70D-02 1.32D-02.
      3 vectors produced by pass  7 Test12= 1.38D-12 3.33D-08 XBig12= 2.46D-03 5.67D-03.
      3 vectors produced by pass  8 Test12= 1.38D-12 3.33D-08 XBig12= 5.90D-04 2.77D-03.
      3 vectors produced by pass  9 Test12= 1.38D-12 3.33D-08 XBig12= 1.30D-04 1.75D-03.
      3 vectors produced by pass 10 Test12= 1.38D-12 3.33D-08 XBig12= 3.25D-05 6.13D-04.
      3 vectors produced by pass 11 Test12= 1.38D-12 3.33D-08 XBig12= 6.86D-06 4.47D-04.
      3 vectors produced by pass 12 Test12= 1.38D-12 3.33D-08 XBig12= 1.42D-06 1.62D-04.
      3 vectors produced by pass 13 Test12= 1.38D-12 3.33D-08 XBig12= 3.03D-07 7.63D-05.
      3 vectors produced by pass 14 Test12= 1.38D-12 3.33D-08 XBig12= 2.73D-08 2.44D-05.
      3 vectors produced by pass 15 Test12= 1.38D-12 3.33D-08 XBig12= 6.03D-09 6.87D-06.
      3 vectors produced by pass 16 Test12= 1.38D-12 3.33D-08 XBig12= 6.13D-10 2.33D-06.
      3 vectors produced by pass 17 Test12= 1.38D-12 3.33D-08 XBig12= 1.35D-10 7.62D-07.
      3 vectors produced by pass 18 Test12= 1.38D-12 3.33D-08 XBig12= 5.80D-11 4.86D-07.
      3 vectors produced by pass 19 Test12= 1.38D-12 3.33D-08 XBig12= 1.24D-11 2.40D-07.
      3 vectors produced by pass 20 Test12= 1.38D-12 3.33D-08 XBig12= 2.99D-12 1.07D-07.
      2 vectors produced by pass 21 Test12= 1.38D-12 3.33D-08 XBig12= 1.36D-12 8.53D-08.
 Inverted reduced A of dimension    65 with in-core refinement.
 End of Minotr Frequency-dependent properties file   721 does not exist.
 End of Minotr Frequency-dependent properties file   722 does not exist.
 Symmetrizing basis deriv contribution to polar:
 IMax=3 JMax=2 DiffMx= 0.00D+00
 G2DrvN: will do    23 centers at a time, making    2 passes doing MaxLOS=2.
 Calling FoFCou, ICntrl=  3107 FMM=F I1Cent=   0 AccDes= 0.00D+00.
 Calling FoFCou, ICntrl=  3107 FMM=F I1Cent=   0 AccDes= 0.00D+00.
 FoFDir/FoFCou used for L=0 through L=2.
 End of G2Drv Frequency-dependent properties file   721 does not exist.
 End of G2Drv Frequency-dependent properties file   722 does not exist.
          IDoAtm=111111111111111111111111111111111111111111111
          Differentiating once with respect to electric field.
                with respect to dipole field.
          Differentiating once with respect to nuclear coordinates.
          There are   138 degrees of freedom in the 1st order CPHF.  IDoFFX=5.
 Will reuse    3 saved solutions.
    135 vectors produced by pass  0 Test12= 4.15D-14 1.00D-09 XBig12= 2.83D-01 1.09D-01.
 AX will form    68 AO Fock derivatives at one time.
    135 vectors produced by pass  1 Test12= 4.15D-14 1.00D-09 XBig12= 4.25D-02 2.34D-02.
    132 vectors produced by pass  2 Test12= 4.15D-14 1.00D-09 XBig12= 2.13D-04 1.56D-03.
    132 vectors produced by pass  3 Test12= 4.15D-14 1.00D-09 XBig12= 6.96D-07 8.34D-05.
    132 vectors produced by pass  4 Test12= 4.15D-14 1.00D-09 XBig12= 9.94D-10 2.27D-06.
    129 vectors produced by pass  5 Test12= 4.15D-14 1.00D-09 XBig12= 4.39D-12 1.62D-07.
     76 vectors produced by pass  6 Test12= 4.15D-14 1.00D-09 XBig12= 1.54D-13 2.09D-08.
 Inverted reduced A of dimension   871 with in-core refinement.
 Isotropic polarizability for W=    0.000000      187.23 Bohr**3.
 End of Minotr Frequency-dependent properties file   721 does not exist.
 End of Minotr Frequency-dependent properties file   722 does not exist.

 **********************************************************************

            Population analysis using the SCF density.

 **********************************************************************

 Orbital symmetries:
       Occupied  (A) (A) (A) (A) (A) (A) (A) (A) (A) (A) (A) (A)
                 (A) (A) (A) (A) (A) (A) (A) (A) (A) (A) (A) (A)
                 (A) (A) (A) (A) (A) (A) (A) (A) (A) (A) (A) (A)
                 (A) (A) (A) (A) (A) (A) (A) (A) (A) (A) (A) (A)
                 (A) (A) (A) (A) (A) (A) (A) (A) (A) (A) (A) (A)
                 (A) (A) (A) (A) (A) (A) (A) (A) (A) (A) (A) (A)
                 (A) (A) (A) (A) (A) (A) (A) (A) (A) (A) (A) (A)
                 (A) (A) (A) (A) (A) (A) (A)
       Virtual   (A) (A) (A) (A) (A) (A) (A) (A) (A) (A) (A) (A)
                 (A) (A) (A) (A) (A) (A) (A) (A) (A) (A) (A) (A)
                 (A) (A) (A) (A) (A) (A) (A) (A) (A) (A) (A) (A)
                 (A) (A) (A) (A) (A) (A) (A) (A) (A) (A) (A) (A)
                 (A) (A) (A) (A) (A) (A) (A) (A) (A) (A) (A) (A)
                 (A) (A) (A) (A) (A) (A) (A) (A) (A) (A) (A) (A)
                 (A) (A) (A) (A) (A) (A) (A) (A) (A) (A) (A) (A)
                 (A) (A) (A) (A) (A) (A) (A) (A) (A) (A) (A) (A)
                 (A) (A) (A) (A) (A) (A) (A) (A) (A) (A) (A) (A)
                 (A) (A) (A) (A) (A) (A) (A) (A) (A) (A) (A) (A)
                 (A) (A) (A) (A) (A) (A) (A) (A) (A) (A) (A) (A)
                 (A) (A) (A) (A) (A) (A) (A) (A) (A) (A) (A) (A)
                 (A) (A) (A) (A) (A) (A) (A) (A) (A) (A) (A) (A)
                 (A) (A) (A) (A) (A) (A) (A) (A) (A) (A) (A) (A)
                 (A) (A) (A) (A) (A) (A) (A) (A) (A) (A) (A) (A)
                 (A) (A) (A) (A) (A) (A) (A) (A) (A) (A) (A) (A)
                 (A) (A) (A) (A) (A) (A) (A) (A) (A) (A) (A) (A)
                 (A) (A) (A) (A) (A) (A) (A) (A) (A) (A) (A) (A)
                 (A) (A) (A) (A) (A) (A) (A) (A) (A) (A) (A) (A)
                 (A) (A) (A) (A) (A) (A) (A) (A) (A) (A) (A) (A)
                 (A) (A) (A) (A) (A) (A) (A) (A) (A) (A) (A) (A)
                 (A) (A) (A) (A) (A) (A) (A) (A) (A) (A) (A) (A)
                 (A) (A) (A) (A) (A) (A) (A) (A) (A) (A) (A) (A)
                 (A) (A) (A) (A) (A) (A) (A) (A) (A) (A) (A) (A)
                 (A) (A) (A) (A) (A) (A) (A) (A) (A) (A) (A) (A)
                 (A) (A) (A) (A) (A) (A) (A) (A) (A) (A) (A) (A)
                 (A) (A) (A) (A) (A) (A) (A) (A) (A) (A) (A) (A)
                 (A) (A) (A) (A) (A) (A) (A) (A) (A) (A) (A) (A)
                 (A) (A) (A) (A) (A) (A) (A) (A) (A) (A) (A) (A)
                 (A) (A) (A) (A) (A) (A) (A) (A) (A) (A) (A) (A)
                 (A) (A) (A) (A) (A) (A) (A) (A) (A) (A) (A) (A)
                 (A) (A) (A) (A) (A) (A) (A) (A) (A) (A) (A) (A)
                 (A) (A) (A) (A) (A) (A) (A) (A) (A) (A) (A) (A)
                 (A) (A) (A) (A) (A) (A) (A) (A) (A) (A) (A) (A)
                 (A) (A) (A) (A) (A) (A) (A) (A) (A) (A) (A) (A)
                 (A) (A) (A) (A) (A) (A) (A) (A) (A) (A) (A) (A)
                 (A) (A) (A) (A) (A) (A) (A) (A) (A) (A) (A) (A)
                 (A) (A) (A) (A) (A) (A) (A) (A) (A) (A) (A) (A)
 The electronic state is 1-A.
 Alpha  occ. eigenvalues --  -19.21795 -19.21007 -19.20243 -19.19419 -19.18900
 Alpha  occ. eigenvalues --  -19.17829 -19.16979 -19.16363 -19.15987 -19.14891
 Alpha  occ. eigenvalues --  -19.14615 -10.32476 -10.29425 -10.28782 -10.28016
 Alpha  occ. eigenvalues --  -10.27972 -10.27170 -10.25990 -10.25711 -10.25071
 Alpha  occ. eigenvalues --  -10.23601 -10.23360 -10.23213  -1.11329  -1.09358
 Alpha  occ. eigenvalues --   -1.07059  -1.06389  -1.05094  -1.03896  -1.03534
 Alpha  occ. eigenvalues --   -1.02327  -1.01672  -1.00559  -0.99567  -0.84138
 Alpha  occ. eigenvalues --   -0.82454  -0.79292  -0.78078  -0.72698  -0.69989
 Alpha  occ. eigenvalues --   -0.68084  -0.65440  -0.64406  -0.63544  -0.62264
 Alpha  occ. eigenvalues --   -0.59827  -0.58824  -0.56777  -0.55629  -0.54782
 Alpha  occ. eigenvalues --   -0.54238  -0.53646  -0.53253  -0.52509  -0.51753
 Alpha  occ. eigenvalues --   -0.50363  -0.49809  -0.49239  -0.48397  -0.47629
 Alpha  occ. eigenvalues --   -0.46525  -0.45771  -0.44961  -0.44287  -0.43783
 Alpha  occ. eigenvalues --   -0.42956  -0.42670  -0.40830  -0.40675  -0.40114
 Alpha  occ. eigenvalues --   -0.39940  -0.38359  -0.37546  -0.37097  -0.36712
 Alpha  occ. eigenvalues --   -0.36502  -0.35159  -0.34725  -0.34353  -0.33836
 Alpha  occ. eigenvalues --   -0.32808  -0.32074  -0.31373  -0.31036  -0.30424
 Alpha  occ. eigenvalues --   -0.29831  -0.29630  -0.28397  -0.27430  -0.26602
 Alpha  occ. eigenvalues --   -0.26123
 Alpha virt. eigenvalues --   -0.05053  -0.02097  -0.01274  -0.00647   0.00202
 Alpha virt. eigenvalues --    0.01031   0.01391   0.02087   0.02455   0.03404
 Alpha virt. eigenvalues --    0.03819   0.04033   0.04857   0.05186   0.05583
 Alpha virt. eigenvalues --    0.05657   0.06070   0.06908   0.07110   0.07907
 Alpha virt. eigenvalues --    0.08356   0.08683   0.09194   0.09360   0.09505
 Alpha virt. eigenvalues --    0.10357   0.10551   0.10853   0.11079   0.11597
 Alpha virt. eigenvalues --    0.12217   0.12281   0.12754   0.12885   0.13374
 Alpha virt. eigenvalues --    0.13942   0.14179   0.14524   0.14629   0.15055
 Alpha virt. eigenvalues --    0.15278   0.15556   0.15909   0.16293   0.16770
 Alpha virt. eigenvalues --    0.17401   0.17570   0.17827   0.17882   0.18399
 Alpha virt. eigenvalues --    0.18671   0.19072   0.19290   0.19580   0.19835
 Alpha virt. eigenvalues --    0.20101   0.20426   0.20792   0.20939   0.21361
 Alpha virt. eigenvalues --    0.21749   0.22033   0.22117   0.22288   0.22955
 Alpha virt. eigenvalues --    0.23340   0.23729   0.23862   0.24222   0.24490
 Alpha virt. eigenvalues --    0.24596   0.24742   0.25171   0.25613   0.25791
 Alpha virt. eigenvalues --    0.26147   0.26161   0.26803   0.27114   0.27323
 Alpha virt. eigenvalues --    0.27768   0.27910   0.28201   0.28851   0.28986
 Alpha virt. eigenvalues --    0.29149   0.29501   0.29693   0.30176   0.30354
 Alpha virt. eigenvalues --    0.30610   0.30936   0.31612   0.31802   0.32005
 Alpha virt. eigenvalues --    0.32297   0.32608   0.32680   0.33303   0.33633
 Alpha virt. eigenvalues --    0.33826   0.34214   0.34656   0.34953   0.35306
 Alpha virt. eigenvalues --    0.35814   0.36148   0.36201   0.36850   0.37047
 Alpha virt. eigenvalues --    0.37621   0.37747   0.38606   0.38893   0.39258
 Alpha virt. eigenvalues --    0.39342   0.39879   0.40265   0.40811   0.40928
 Alpha virt. eigenvalues --    0.41538   0.42243   0.42366   0.42602   0.43683
 Alpha virt. eigenvalues --    0.44767   0.45086   0.45267   0.46198   0.46391
 Alpha virt. eigenvalues --    0.46862   0.47498   0.47896   0.48395   0.49016
 Alpha virt. eigenvalues --    0.51119   0.52483   0.54234   0.61283   0.63048
 Alpha virt. eigenvalues --    0.64314   0.64635   0.65783   0.68047   0.69298
 Alpha virt. eigenvalues --    0.69656   0.71231   0.71492   0.72641   0.73007
 Alpha virt. eigenvalues --    0.73662   0.75207   0.75609   0.76832   0.77634
 Alpha virt. eigenvalues --    0.78669   0.79415   0.80742   0.82375   0.83329
 Alpha virt. eigenvalues --    0.83890   0.85744   0.87465   0.88229   0.88836
 Alpha virt. eigenvalues --    0.90439   0.91687   0.92529   0.93232   0.94934
 Alpha virt. eigenvalues --    0.95211   0.97415   0.98343   0.99206   1.00202
 Alpha virt. eigenvalues --    1.00749   1.01397   1.02180   1.02732   1.03114
 Alpha virt. eigenvalues --    1.03667   1.04513   1.04939   1.05659   1.06358
 Alpha virt. eigenvalues --    1.07015   1.07724   1.08353   1.08709   1.10028
 Alpha virt. eigenvalues --    1.11189   1.11784   1.12190   1.13182   1.14507
 Alpha virt. eigenvalues --    1.15250   1.16333   1.17192   1.19663   1.20920
 Alpha virt. eigenvalues --    1.21896   1.23681   1.24081   1.24661   1.25557
 Alpha virt. eigenvalues --    1.25804   1.26334   1.26699   1.27445   1.27900
 Alpha virt. eigenvalues --    1.28368   1.28788   1.29299   1.30306   1.31241
 Alpha virt. eigenvalues --    1.31587   1.31976   1.32944   1.33262   1.33861
 Alpha virt. eigenvalues --    1.34511   1.35192   1.35785   1.36813   1.38350
 Alpha virt. eigenvalues --    1.39167   1.39287   1.40618   1.41228   1.43009
 Alpha virt. eigenvalues --    1.43518   1.43812   1.44391   1.45827   1.46557
 Alpha virt. eigenvalues --    1.47072   1.48679   1.50383   1.50659   1.52848
 Alpha virt. eigenvalues --    1.53205   1.54909   1.55567   1.56650   1.57231
 Alpha virt. eigenvalues --    1.57811   1.58186   1.58721   1.59234   1.60585
 Alpha virt. eigenvalues --    1.60637   1.61130   1.63094   1.63450   1.64675
 Alpha virt. eigenvalues --    1.64875   1.66285   1.66843   1.67617   1.68497
 Alpha virt. eigenvalues --    1.69225   1.70411   1.70740   1.70918   1.73193
 Alpha virt. eigenvalues --    1.74258   1.75438   1.75728   1.76285   1.77364
 Alpha virt. eigenvalues --    1.78165   1.79293   1.79991   1.80493   1.81671
 Alpha virt. eigenvalues --    1.82272   1.83412   1.84846   1.85403   1.86909
 Alpha virt. eigenvalues --    1.86934   1.87525   1.88571   1.88832   1.89837
 Alpha virt. eigenvalues --    1.90415   1.91961   1.92564   1.93373   1.93693
 Alpha virt. eigenvalues --    1.95085   1.95404   1.95725   1.96470   1.97456
 Alpha virt. eigenvalues --    1.97642   1.98614   1.99348   2.00327   2.00354
 Alpha virt. eigenvalues --    2.03343   2.05098   2.05433   2.06284   2.07527
 Alpha virt. eigenvalues --    2.08253   2.08606   2.09584   2.11023   2.11265
 Alpha virt. eigenvalues --    2.12010   2.13201   2.13466   2.15393   2.15829
 Alpha virt. eigenvalues --    2.16190   2.17410   2.18307   2.18772   2.19777
 Alpha virt. eigenvalues --    2.22283   2.22910   2.24144   2.25172   2.26859
 Alpha virt. eigenvalues --    2.30024   2.31300   2.31906   2.32729   2.33425
 Alpha virt. eigenvalues --    2.35124   2.35315   2.36684   2.37415   2.38634
 Alpha virt. eigenvalues --    2.39539   2.40175   2.40365   2.40845   2.43158
 Alpha virt. eigenvalues --    2.43801   2.44686   2.45081   2.47101   2.49028
 Alpha virt. eigenvalues --    2.49247   2.49877   2.51891   2.53583   2.55600
 Alpha virt. eigenvalues --    2.56188   2.56718   2.58009   2.58533   2.59373
 Alpha virt. eigenvalues --    2.60613   2.61638   2.62153   2.62730   2.63504
 Alpha virt. eigenvalues --    2.65321   2.66153   2.67059   2.67884   2.68203
 Alpha virt. eigenvalues --    2.69297   2.72016   2.72414   2.73138   2.73404
 Alpha virt. eigenvalues --    2.74754   2.75830   2.76018   2.78224   2.78692
 Alpha virt. eigenvalues --    2.80494   2.81980   2.82712   2.83784   2.84735
 Alpha virt. eigenvalues --    2.86011   2.86703   2.87709   2.88517   2.90174
 Alpha virt. eigenvalues --    2.90246   2.91338   2.92969   2.93578   2.94192
 Alpha virt. eigenvalues --    2.95365   2.96223   2.96442   2.98653   2.99452
 Alpha virt. eigenvalues --    3.01131   3.01412   3.02873   3.05435   3.05934
 Alpha virt. eigenvalues --    3.08153   3.08978   3.12080   3.13239   3.16196
 Alpha virt. eigenvalues --    3.18465   3.19574   3.21588   3.23889   3.25618
 Alpha virt. eigenvalues --    3.32769   3.34973   3.36910   3.37372   3.39448
 Alpha virt. eigenvalues --    3.40890   3.44215   3.44772   3.46263   3.46810
 Alpha virt. eigenvalues --    3.48911   3.49620   3.50687   3.51488   3.51793
 Alpha virt. eigenvalues --    3.54287   3.55153   3.58026   3.60477   3.63014
 Alpha virt. eigenvalues --    3.63895   3.66946   3.73715   4.26070   4.30308
 Alpha virt. eigenvalues --    4.32855   4.34100   4.36927   4.42668   4.44757
 Alpha virt. eigenvalues --    4.46549   4.47373   4.47734   4.51563   4.53455
 Alpha virt. eigenvalues --    4.55395   4.58815   4.62215   4.64696   4.65947
 Alpha virt. eigenvalues --    4.79940   4.81161   4.84056   4.85293   4.88897
 Alpha virt. eigenvalues --    4.95913
          Condensed to atoms (all electrons):
              1          2          3          4          5          6
     1  O    8.243663   0.169270   0.073224  -0.038044   0.029836   0.025783
     2  C    0.169270  13.554317  -4.052664   0.219887  -0.112326  -4.389980
     3  C    0.073224  -4.052664   9.199918   0.062454   0.094182   2.634106
     4  O   -0.038044   0.219887   0.062454   8.294811   0.159442  -0.255654
     5  H    0.029836  -0.112326   0.094182   0.159442   0.494360  -0.041354
     6  C    0.025783  -4.389980   2.634106  -0.255654  -0.041354  15.143537
     7  O   -0.001530   0.018148   0.024644   0.012417  -0.000526   0.467040
     8  H   -0.000080   0.037501  -0.079060   0.007555  -0.000188   0.041513
     9  C   -0.038062   0.736619  -0.483856   0.016366  -0.009999  -0.137521
    10  O   -0.000963   0.046765  -0.012371   0.000117  -0.000014  -0.011285
    11  H    0.000179  -0.006373   0.003973   0.000000   0.000000   0.002079
    12  C   -0.135087  -4.087259   1.652947  -0.060849   0.044505   1.412441
    13  O    0.005714   0.079209  -0.041315  -0.002130  -0.000753   0.043643
    14  C   -0.003167   2.888540  -2.675663   0.086015   0.033759  -6.563025
    15  O    0.000139  -0.044699   0.017334  -0.000101   0.000190  -0.046158
    16  C    0.000276   0.387403  -0.225808  -0.003656   0.001322  -0.773658
    17  C    0.000158  -0.121441  -0.052765   0.001652   0.000112  -0.021178
    18  O    0.000001   0.003228   0.000609   0.000006   0.000000  -0.004765
    19  H    0.000003   0.002700   0.002250  -0.000004   0.000000   0.014038
    20  C    0.000052   0.003772  -0.008690   0.000049   0.000006  -0.050516
    21  O    0.000000   0.000085  -0.000199   0.000000   0.000000  -0.000413
    22  H    0.000000  -0.000011  -0.000006   0.000000   0.000000   0.000511
    23  C   -0.000027   0.014681  -0.004204   0.000571  -0.000038  -0.156531
    24  O    0.000000  -0.000045  -0.000785  -0.000001   0.000000  -0.000843
    25  H    0.000000  -0.000005  -0.000086   0.000000   0.000000   0.000366
    26  C   -0.000038   0.079845  -0.044341   0.000395   0.000001  -0.770534
    27  O    0.000000   0.000115  -0.000084   0.000000   0.000000  -0.000251
    28  C    0.000012  -0.001981  -0.005966   0.000024   0.000001   0.012582
    29  O    0.000000  -0.000002   0.000035   0.000000   0.000000   0.000145
    30  H    0.225444   0.035596  -0.051174  -0.002448   0.008991  -0.008576
    31  H    0.000000   0.000000   0.000000   0.000000   0.000000   0.000017
    32  H   -0.001483   0.041098  -0.009084  -0.000024  -0.000006  -0.004752
    33  H    0.002020   0.035085  -0.017276  -0.000082   0.000005  -0.003120
    34  H    0.004251   0.036444  -0.084816   0.000583  -0.000057  -0.037964
    35  H   -0.052296   0.456513  -0.126990   0.002736  -0.001822  -0.052784
    36  H   -0.007985   0.219964   0.224172  -0.036342  -0.003358  -0.308834
    37  H   -0.000976   0.091107  -0.141029   0.000759  -0.000430   0.391095
    38  H   -0.000067   0.023728  -0.045610   0.000298  -0.000009  -0.234007
    39  H    0.000000  -0.000929  -0.000362   0.000016   0.000000   0.002787
    40  H    0.000000   0.000634  -0.000430   0.000000   0.000000   0.000562
    41  H    0.000000   0.000144  -0.000100   0.000000   0.000000  -0.001058
    42  H    0.000000   0.000017  -0.000015   0.000000   0.000000  -0.000141
    43  H    0.000000  -0.000213  -0.000093   0.000000   0.000000   0.003616
    44  H    0.000000  -0.000093   0.000082   0.000001   0.000000   0.001541
    45  H    0.000000  -0.000915   0.004671  -0.000015   0.000000   0.013175
              7          8          9         10         11         12
     1  O   -0.001530  -0.000080  -0.038062  -0.000963   0.000179  -0.135087
     2  C    0.018148   0.037501   0.736619   0.046765  -0.006373  -4.087259
     3  C    0.024644  -0.079060  -0.483856  -0.012371   0.003973   1.652947
     4  O    0.012417   0.007555   0.016366   0.000117   0.000000  -0.060849
     5  H   -0.000526  -0.000188  -0.009999  -0.000014   0.000000   0.044505
     6  C    0.467040   0.041513  -0.137521  -0.011285   0.002079   1.412441
     7  O    8.180212   0.210875   0.000434  -0.000022   0.000000   0.013674
     8  H    0.210875   0.414353   0.000348   0.000000   0.000000  -0.011275
     9  C    0.000434   0.000348   6.352338   0.115663  -0.004016  -1.404746
    10  O   -0.000022   0.000000   0.115663   8.326301   0.186609  -0.064247
    11  H    0.000000   0.000000  -0.004016   0.186609   0.451379   0.031909
    12  C    0.013674  -0.011275  -1.404746  -0.064247   0.031909  10.378957
    13  O    0.016164  -0.000335   0.011069   0.008583  -0.000615  -0.118388
    14  C   -0.368008   0.003615  -0.013109   0.012344  -0.003701  -1.390544
    15  O   -0.012797  -0.000533  -0.019958  -0.002351   0.000004   0.023168
    16  C   -0.046403   0.015528  -0.157551   0.018135  -0.001280  -0.091375
    17  C    0.002881  -0.000497   0.077610  -0.013804   0.000634  -0.159178
    18  O    0.000329   0.000000   0.010679   0.000879   0.000039  -0.023620
    19  H   -0.000106   0.000000  -0.014159   0.004639  -0.000103   0.008349
    20  C   -0.000014  -0.000034   0.000712   0.002380  -0.000130  -0.024957
    21  O   -0.000002   0.000000  -0.000302  -0.000005  -0.000001   0.001009
    22  H    0.000000   0.000000  -0.000191  -0.000011   0.000000   0.000068
    23  C   -0.016540   0.000813  -0.000710   0.000010  -0.000003  -0.003435
    24  O    0.000278   0.000006   0.000013   0.000000   0.000000   0.000210
    25  H    0.000081   0.000000   0.000001   0.000000   0.000000   0.000011
    26  C    0.005882  -0.000998   0.007134  -0.000394  -0.000009  -0.012517
    27  O   -0.000083   0.000003   0.000049   0.000002   0.000000   0.000294
    28  C    0.000179   0.000001  -0.000444   0.000223   0.000000   0.001395
    29  O   -0.000003   0.000000   0.000007   0.000000   0.000000   0.000085
    30  H   -0.000046   0.000000  -0.002277   0.000077  -0.000002   0.031810
    31  H    0.000000   0.000000   0.000000   0.000000   0.000000   0.000000
    32  H    0.000005   0.000000   0.514745  -0.048422  -0.006406  -0.213462
    33  H   -0.000004   0.000000   0.439713  -0.052728  -0.004742  -0.093145
    34  H    0.000099  -0.000004   0.078093   0.004305  -0.000084   0.208969
    35  H    0.000195  -0.000002   0.026190   0.000596  -0.000012  -0.111836
    36  H    0.003826   0.000305   0.017253   0.000025   0.000000  -0.060417
    37  H   -0.053110   0.003971   0.022053  -0.000015   0.000000  -0.009324
    38  H    0.011825   0.000231   0.011593  -0.000142  -0.000001   0.010174
    39  H    0.000917   0.000002   0.000456   0.000012   0.000000   0.005281
    40  H    0.000094   0.000000  -0.000129  -0.000005   0.000000   0.001845
    41  H    0.000003   0.000000  -0.000070   0.000000   0.000000   0.001000
    42  H    0.000000   0.000000  -0.000008   0.000000   0.000000   0.000154
    43  H    0.000011   0.000000   0.000129   0.000000   0.000000   0.000703
    44  H    0.000769  -0.000003   0.000020   0.000000   0.000000   0.000227
    45  H   -0.003345  -0.000149  -0.000004   0.000000   0.000000  -0.000031
             13         14         15         16         17         18
     1  O    0.005714  -0.003167   0.000139   0.000276   0.000158   0.000001
     2  C    0.079209   2.888540  -0.044699   0.387403  -0.121441   0.003228
     3  C   -0.041315  -2.675663   0.017334  -0.225808  -0.052765   0.000609
     4  O   -0.002130   0.086015  -0.000101  -0.003656   0.001652   0.000006
     5  H   -0.000753   0.033759   0.000190   0.001322   0.000112   0.000000
     6  C    0.043643  -6.563025  -0.046158  -0.773658  -0.021178  -0.004765
     7  O    0.016164  -0.368008  -0.012797  -0.046403   0.002881   0.000329
     8  H   -0.000335   0.003615  -0.000533   0.015528  -0.000497   0.000000
     9  C    0.011069  -0.013109  -0.019958  -0.157551   0.077610   0.010679
    10  O    0.008583   0.012344  -0.002351   0.018135  -0.013804   0.000879
    11  H   -0.000615  -0.003701   0.000004  -0.001280   0.000634   0.000039
    12  C   -0.118388  -1.390544   0.023168  -0.091375  -0.159178  -0.023620
    13  O    8.541346   0.023454  -0.076460   0.043615  -0.051580   0.019728
    14  C    0.023454  14.494317   0.336813  -1.806162   0.715359  -0.005565
    15  O   -0.076460   0.336813   8.256268   0.011865  -0.045015  -0.008182
    16  C    0.043615  -1.806162   0.011865  19.548139  -5.705474  -0.166152
    17  C   -0.051580   0.715359  -0.045015  -5.705474  12.132581   0.379557
    18  O    0.019728  -0.005565  -0.008182  -0.166152   0.379557   8.288795
    19  H    0.006024  -0.008948   0.018649  -0.042717   0.014644   0.199101
    20  C   -0.022664  -0.442758   0.083864  -2.557143  -0.379812  -0.133696
    21  O    0.000557  -0.008214  -0.000528   0.012609  -0.219767  -0.005488
    22  H   -0.000052   0.005123  -0.000156   0.048158  -0.089925   0.023801
    23  C    0.004823   0.112971  -0.024350  -0.097427  -0.316778   0.004958
    24  O   -0.000008   0.014064  -0.000685  -0.077488   0.007973   0.000092
    25  H    0.000000   0.001160  -0.000150   0.050771   0.005654   0.000003
    26  C   -0.008225  -0.834606  -0.031469  -4.578634  -0.120967   0.054158
    27  O    0.000340  -0.008525   0.005325  -0.053613  -0.076972   0.001256
    28  C    0.000971  -0.007383  -0.004570   1.332832  -0.399151   0.004929
    29  O    0.000003   0.004865   0.000245   0.016269   0.014926  -0.000397
    30  H   -0.000761   0.007098   0.000014   0.000333  -0.000028  -0.000001
    31  H    0.000000   0.000624   0.000000   0.004533  -0.000767   0.000009
    32  H   -0.002893   0.018839  -0.000138  -0.001766   0.001894   0.000245
    33  H    0.007693   0.002440  -0.000010   0.001293  -0.000305  -0.000126
    34  H   -0.057937   0.075802  -0.002649  -0.006878   0.016116   0.001237
    35  H    0.005818   0.077009  -0.001407  -0.002783   0.002885   0.000051
    36  H    0.006401   0.158219  -0.001867   0.007601   0.003238   0.000051
    37  H    0.021108  -0.089034  -0.014226   0.009589   0.012075   0.000049
    38  H   -0.054872   0.424376  -0.066962  -0.000319   0.078407   0.000295
    39  H    0.002510   0.063222  -0.067556   0.283924   0.021022   0.000604
    40  H    0.003854   0.063010  -0.014688  -0.023007   0.393337  -0.051318
    41  H    0.000555  -0.003115  -0.001641   0.149640  -0.171581   0.005387
    42  H    0.000094   0.003989  -0.000714   0.129731  -0.044114   0.000085
    43  H   -0.000412   0.077982   0.003473   0.085291   0.027740  -0.000554
    44  H    0.000123   0.027112  -0.001642   0.169124   0.022406   0.000143
    45  H   -0.000325  -0.030108   0.003266   0.029479  -0.011250  -0.000074
             19         20         21         22         23         24
     1  O    0.000003   0.000052   0.000000   0.000000  -0.000027   0.000000
     2  C    0.002700   0.003772   0.000085  -0.000011   0.014681  -0.000045
     3  C    0.002250  -0.008690  -0.000199  -0.000006  -0.004204  -0.000785
     4  O   -0.000004   0.000049   0.000000   0.000000   0.000571  -0.000001
     5  H    0.000000   0.000006   0.000000   0.000000  -0.000038   0.000000
     6  C    0.014038  -0.050516  -0.000413   0.000511  -0.156531  -0.000843
     7  O   -0.000106  -0.000014  -0.000002   0.000000  -0.016540   0.000278
     8  H    0.000000  -0.000034   0.000000   0.000000   0.000813   0.000006
     9  C   -0.014159   0.000712  -0.000302  -0.000191  -0.000710   0.000013
    10  O    0.004639   0.002380  -0.000005  -0.000011   0.000010   0.000000
    11  H   -0.000103  -0.000130  -0.000001   0.000000  -0.000003   0.000000
    12  C    0.008349  -0.024957   0.001009   0.000068  -0.003435   0.000210
    13  O    0.006024  -0.022664   0.000557  -0.000052   0.004823  -0.000008
    14  C   -0.008948  -0.442758  -0.008214   0.005123   0.112971   0.014064
    15  O    0.018649   0.083864  -0.000528  -0.000156  -0.024350  -0.000685
    16  C   -0.042717  -2.557143   0.012609   0.048158  -0.097427  -0.077488
    17  C    0.014644  -0.379812  -0.219767  -0.089925  -0.316778   0.007973
    18  O    0.199101  -0.133696  -0.005488   0.023801   0.004958   0.000092
    19  H    0.332380   0.027429   0.001359  -0.000424  -0.002253   0.000002
    20  C    0.027429   9.306896   0.506694  -0.005492   0.091867  -0.011070
    21  O    0.001359   0.506694   8.151425   0.220222  -0.001361  -0.000027
    22  H   -0.000424  -0.005492   0.220222   0.398253   0.000411   0.000000
    23  C   -0.002253   0.091867  -0.001361   0.000411   6.181636   0.190149
    24  O    0.000002  -0.011070  -0.000027   0.000000   0.190149   8.203439
    25  H    0.000000  -0.003439   0.000000   0.000000   0.011191   0.239216
    26  C   -0.002130   1.204381   0.041347  -0.015621  -0.920532   0.069947
    27  O   -0.000116  -0.140775   0.003633  -0.000079  -0.037793  -0.007594
    28  C   -0.000515  -1.102245  -0.207157   0.051295  -0.009329  -0.015102
    29  O    0.000023  -0.145794   0.008538  -0.000478  -0.004368   0.000605
    30  H    0.000000   0.000001   0.000000   0.000000  -0.000001   0.000000
    31  H    0.000000   0.037421  -0.000946   0.000013  -0.000773   0.000062
    32  H   -0.000021   0.000001   0.000000   0.000000   0.000012   0.000000
    33  H    0.000029   0.000076   0.000000   0.000000   0.000000   0.000000
    34  H    0.000351   0.000846   0.000005   0.000000  -0.000113   0.000000
    35  H   -0.000012   0.000048   0.000000   0.000000  -0.000003   0.000000
    36  H   -0.000006   0.000101   0.000000   0.000000  -0.000239   0.000000
    37  H   -0.000029   0.000874   0.000000   0.000000  -0.002142   0.000009
    38  H   -0.000131   0.014736   0.000022  -0.000001  -0.004469   0.000043
    39  H   -0.000512  -0.003510  -0.000469   0.000014   0.023722   0.000896
    40  H   -0.007159  -0.155400  -0.001674   0.000200   0.014436   0.000026
    41  H   -0.000195   0.320383  -0.052380  -0.007292   0.015207  -0.000049
    42  H   -0.000003  -0.194857   0.007834  -0.000207   0.007305  -0.000415
    43  H    0.000020  -0.043629  -0.000003  -0.000001   0.008807  -0.003824
    44  H    0.000000  -0.014704  -0.000001   0.000000   0.509038  -0.050011
    45  H   -0.000001   0.003446  -0.000009   0.000000   0.404787  -0.050680
             25         26         27         28         29         30
     1  O    0.000000  -0.000038   0.000000   0.000012   0.000000   0.225444
     2  C   -0.000005   0.079845   0.000115  -0.001981  -0.000002   0.035596
     3  C   -0.000086  -0.044341  -0.000084  -0.005966   0.000035  -0.051174
     4  O    0.000000   0.000395   0.000000   0.000024   0.000000  -0.002448
     5  H    0.000000   0.000001   0.000000   0.000001   0.000000   0.008991
     6  C    0.000366  -0.770534  -0.000251   0.012582   0.000145  -0.008576
     7  O    0.000081   0.005882  -0.000083   0.000179  -0.000003  -0.000046
     8  H    0.000000  -0.000998   0.000003   0.000001   0.000000   0.000000
     9  C    0.000001   0.007134   0.000049  -0.000444   0.000007  -0.002277
    10  O    0.000000  -0.000394   0.000002   0.000223   0.000000   0.000077
    11  H    0.000000  -0.000009   0.000000   0.000000   0.000000  -0.000002
    12  C    0.000011  -0.012517   0.000294   0.001395   0.000085   0.031810
    13  O    0.000000  -0.008225   0.000340   0.000971   0.000003  -0.000761
    14  C    0.001160  -0.834606  -0.008525  -0.007383   0.004865   0.007098
    15  O   -0.000150  -0.031469   0.005325  -0.004570   0.000245   0.000014
    16  C    0.050771  -4.578634  -0.053613   1.332832   0.016269   0.000333
    17  C    0.005654  -0.120967  -0.076972  -0.399151   0.014926  -0.000028
    18  O    0.000003   0.054158   0.001256   0.004929  -0.000397  -0.000001
    19  H    0.000000  -0.002130  -0.000116  -0.000515   0.000023   0.000000
    20  C   -0.003439   1.204381  -0.140775  -1.102245  -0.145794   0.000001
    21  O    0.000000   0.041347   0.003633  -0.207157   0.008538   0.000000
    22  H    0.000000  -0.015621  -0.000079   0.051295  -0.000478   0.000000
    23  C    0.011191  -0.920532  -0.037793  -0.009329  -0.004368  -0.000001
    24  O    0.239216   0.069947  -0.007594  -0.015102   0.000605   0.000000
    25  H    0.431272  -0.072662  -0.003599   0.001307   0.000017   0.000000
    26  C   -0.072662  13.495747   0.300629  -1.071482  -0.060269   0.000000
    27  O   -0.003599   0.300629   8.367876   0.094703  -0.045071   0.000000
    28  C    0.001307  -1.071482   0.094703   6.128889   0.362095   0.000000
    29  O    0.000017  -0.060269  -0.045071   0.362095   8.171438   0.000000
    30  H    0.000000   0.000000   0.000000   0.000000   0.000000   0.415374
    31  H    0.000000  -0.008720  -0.003207  -0.015254   0.232302   0.000000
    32  H    0.000000  -0.000030   0.000000  -0.000009   0.000000  -0.000017
    33  H    0.000000   0.000051   0.000000   0.000001   0.000000  -0.000401
    34  H    0.000000   0.001175   0.000000  -0.000024   0.000000  -0.000229
    35  H    0.000000   0.000101   0.000000   0.000000   0.000000  -0.011603
    36  H    0.000000   0.001072   0.000000   0.000011   0.000000   0.000229
    37  H    0.000000   0.004817   0.000005   0.000097   0.000000   0.000036
    38  H    0.000000   0.036271   0.000269   0.000641  -0.000006   0.000001
    39  H    0.000009  -0.124147   0.003844   0.007301  -0.000204   0.000000
    40  H    0.000000  -0.020553   0.002681   0.004629   0.000045   0.000000
    41  H    0.000000   0.011326   0.001406  -0.046126  -0.002501   0.000000
    42  H    0.000003  -0.042788  -0.073043   0.469727  -0.049717   0.000000
    43  H    0.003233   0.081351  -0.051822   0.031798   0.000098   0.000000
    44  H    0.006969  -0.368432  -0.002423   0.010212  -0.000079   0.000000
    45  H   -0.008132  -0.050822   0.006582  -0.004433   0.000041   0.000000
             31         32         33         34         35         36
     1  O    0.000000  -0.001483   0.002020   0.004251  -0.052296  -0.007985
     2  C    0.000000   0.041098   0.035085   0.036444   0.456513   0.219964
     3  C    0.000000  -0.009084  -0.017276  -0.084816  -0.126990   0.224172
     4  O    0.000000  -0.000024  -0.000082   0.000583   0.002736  -0.036342
     5  H    0.000000  -0.000006   0.000005  -0.000057  -0.001822  -0.003358
     6  C    0.000017  -0.004752  -0.003120  -0.037964  -0.052784  -0.308834
     7  O    0.000000   0.000005  -0.000004   0.000099   0.000195   0.003826
     8  H    0.000000   0.000000   0.000000  -0.000004  -0.000002   0.000305
     9  C    0.000000   0.514745   0.439713   0.078093   0.026190   0.017253
    10  O    0.000000  -0.048422  -0.052728   0.004305   0.000596   0.000025
    11  H    0.000000  -0.006406  -0.004742  -0.000084  -0.000012   0.000000
    12  C    0.000000  -0.213462  -0.093145   0.208969  -0.111836  -0.060417
    13  O    0.000000  -0.002893   0.007693  -0.057937   0.005818   0.006401
    14  C    0.000624   0.018839   0.002440   0.075802   0.077009   0.158219
    15  O    0.000000  -0.000138  -0.000010  -0.002649  -0.001407  -0.001867
    16  C    0.004533  -0.001766   0.001293  -0.006878  -0.002783   0.007601
    17  C   -0.000767   0.001894  -0.000305   0.016116   0.002885   0.003238
    18  O    0.000009   0.000245  -0.000126   0.001237   0.000051   0.000051
    19  H    0.000000  -0.000021   0.000029   0.000351  -0.000012  -0.000006
    20  C    0.037421   0.000001   0.000076   0.000846   0.000048   0.000101
    21  O   -0.000946   0.000000   0.000000   0.000005   0.000000   0.000000
    22  H    0.000013   0.000000   0.000000   0.000000   0.000000   0.000000
    23  C   -0.000773   0.000012   0.000000  -0.000113  -0.000003  -0.000239
    24  O    0.000062   0.000000   0.000000   0.000000   0.000000   0.000000
    25  H    0.000000   0.000000   0.000000   0.000000   0.000000   0.000000
    26  C   -0.008720  -0.000030   0.000051   0.001175   0.000101   0.001072
    27  O   -0.003207   0.000000   0.000000   0.000000   0.000000   0.000000
    28  C   -0.015254  -0.000009   0.000001  -0.000024   0.000000   0.000011
    29  O    0.232302   0.000000   0.000000   0.000000   0.000000   0.000000
    30  H    0.000000  -0.000017  -0.000401  -0.000229  -0.011603   0.000229
    31  H    0.417267   0.000000   0.000000   0.000000   0.000000   0.000000
    32  H    0.000000   0.622594  -0.055767   0.006945   0.006052  -0.000004
    33  H    0.000000  -0.055767   0.581673  -0.007642  -0.000502  -0.000005
    34  H    0.000000   0.006945  -0.007642   0.603189   0.007572   0.002624
    35  H    0.000000   0.006052  -0.000502   0.007572   0.618530   0.005581
    36  H    0.000000  -0.000004  -0.000005   0.002624   0.005581   0.606863
    37  H    0.000000  -0.000048   0.000000   0.000057   0.003594   0.006469
    38  H    0.000000   0.000007   0.000007   0.004784   0.000080   0.004565
    39  H    0.000002   0.000000   0.000000  -0.000006   0.000000  -0.000005
    40  H    0.000010   0.000000   0.000000  -0.000002   0.000000   0.000000
    41  H   -0.000055   0.000000   0.000000   0.000000   0.000000   0.000000
    42  H   -0.010650   0.000000   0.000000   0.000000   0.000000   0.000000
    43  H   -0.000030   0.000000   0.000000   0.000000   0.000000   0.000000
    44  H    0.000001   0.000000   0.000000   0.000000   0.000000   0.000000
    45  H    0.000000   0.000000   0.000000   0.000000   0.000000  -0.000001
             37         38         39         40         41         42
     1  O   -0.000976  -0.000067   0.000000   0.000000   0.000000   0.000000
     2  C    0.091107   0.023728  -0.000929   0.000634   0.000144   0.000017
     3  C   -0.141029  -0.045610  -0.000362  -0.000430  -0.000100  -0.000015
     4  O    0.000759   0.000298   0.000016   0.000000   0.000000   0.000000
     5  H   -0.000430  -0.000009   0.000000   0.000000   0.000000   0.000000
     6  C    0.391095  -0.234007   0.002787   0.000562  -0.001058  -0.000141
     7  O   -0.053110   0.011825   0.000917   0.000094   0.000003   0.000000
     8  H    0.003971   0.000231   0.000002   0.000000   0.000000   0.000000
     9  C    0.022053   0.011593   0.000456  -0.000129  -0.000070  -0.000008
    10  O   -0.000015  -0.000142   0.000012  -0.000005   0.000000   0.000000
    11  H    0.000000  -0.000001   0.000000   0.000000   0.000000   0.000000
    12  C   -0.009324   0.010174   0.005281   0.001845   0.001000   0.000154
    13  O    0.021108  -0.054872   0.002510   0.003854   0.000555   0.000094
    14  C   -0.089034   0.424376   0.063222   0.063010  -0.003115   0.003989
    15  O   -0.014226  -0.066962  -0.067556  -0.014688  -0.001641  -0.000714
    16  C    0.009589  -0.000319   0.283924  -0.023007   0.149640   0.129731
    17  C    0.012075   0.078407   0.021022   0.393337  -0.171581  -0.044114
    18  O    0.000049   0.000295   0.000604  -0.051318   0.005387   0.000085
    19  H   -0.000029  -0.000131  -0.000512  -0.007159  -0.000195  -0.000003
    20  C    0.000874   0.014736  -0.003510  -0.155400   0.320383  -0.194857
    21  O    0.000000   0.000022  -0.000469  -0.001674  -0.052380   0.007834
    22  H    0.000000  -0.000001   0.000014   0.000200  -0.007292  -0.000207
    23  C   -0.002142  -0.004469   0.023722   0.014436   0.015207   0.007305
    24  O    0.000009   0.000043   0.000896   0.000026  -0.000049  -0.000415
    25  H    0.000000   0.000000   0.000009   0.000000   0.000000   0.000003
    26  C    0.004817   0.036271  -0.124147  -0.020553   0.011326  -0.042788
    27  O    0.000005   0.000269   0.003844   0.002681   0.001406  -0.073043
    28  C    0.000097   0.000641   0.007301   0.004629  -0.046126   0.469727
    29  O    0.000000  -0.000006  -0.000204   0.000045  -0.002501  -0.049717
    30  H    0.000036   0.000001   0.000000   0.000000   0.000000   0.000000
    31  H    0.000000   0.000000   0.000002   0.000010  -0.000055  -0.010650
    32  H   -0.000048   0.000007   0.000000   0.000000   0.000000   0.000000
    33  H    0.000000   0.000007   0.000000   0.000000   0.000000   0.000000
    34  H    0.000057   0.004784  -0.000006  -0.000002   0.000000   0.000000
    35  H    0.003594   0.000080   0.000000   0.000000   0.000000   0.000000
    36  H    0.006469   0.004565  -0.000005   0.000000   0.000000   0.000000
    37  H    0.588495   0.006828   0.000005  -0.000005   0.000000   0.000000
    38  H    0.006828   0.657888   0.013402  -0.000073  -0.000024   0.000000
    39  H    0.000005   0.013402   0.630678   0.007138   0.002330   0.000035
    40  H   -0.000005  -0.000073   0.007138   0.629111   0.007459   0.006103
    41  H    0.000000  -0.000024   0.002330   0.007459   0.624176   0.007243
    42  H    0.000000   0.000000   0.000035   0.006103   0.007243   0.675487
    43  H   -0.000003  -0.000018   0.006400   0.002687  -0.000010   0.007610
    44  H    0.000000  -0.000004   0.007003   0.000003  -0.000033  -0.000008
    45  H   -0.000015   0.000019  -0.000933  -0.000025   0.000000   0.000019
             43         44         45
     1  O    0.000000   0.000000   0.000000
     2  C   -0.000213  -0.000093  -0.000915
     3  C   -0.000093   0.000082   0.004671
     4  O    0.000000   0.000001  -0.000015
     5  H    0.000000   0.000000   0.000000
     6  C    0.003616   0.001541   0.013175
     7  O    0.000011   0.000769  -0.003345
     8  H    0.000000  -0.000003  -0.000149
     9  C    0.000129   0.000020  -0.000004
    10  O    0.000000   0.000000   0.000000
    11  H    0.000000   0.000000   0.000000
    12  C    0.000703   0.000227  -0.000031
    13  O   -0.000412   0.000123  -0.000325
    14  C    0.077982   0.027112  -0.030108
    15  O    0.003473  -0.001642   0.003266
    16  C    0.085291   0.169124   0.029479
    17  C    0.027740   0.022406  -0.011250
    18  O   -0.000554   0.000143  -0.000074
    19  H    0.000020   0.000000  -0.000001
    20  C   -0.043629  -0.014704   0.003446
    21  O   -0.000003  -0.000001  -0.000009
    22  H   -0.000001   0.000000   0.000000
    23  C    0.008807   0.509038   0.404787
    24  O   -0.003824  -0.050011  -0.050680
    25  H    0.003233   0.006969  -0.008132
    26  C    0.081351  -0.368432  -0.050822
    27  O   -0.051822  -0.002423   0.006582
    28  C    0.031798   0.010212  -0.004433
    29  O    0.000098  -0.000079   0.000041
    30  H    0.000000   0.000000   0.000000
    31  H   -0.000030   0.000001   0.000000
    32  H    0.000000   0.000000   0.000000
    33  H    0.000000   0.000000   0.000000
    34  H    0.000000   0.000000   0.000000
    35  H    0.000000   0.000000   0.000000
    36  H    0.000000   0.000000  -0.000001
    37  H   -0.000003   0.000000  -0.000015
    38  H   -0.000018  -0.000004   0.000019
    39  H    0.006400   0.007003  -0.000933
    40  H    0.002687   0.000003  -0.000025
    41  H   -0.000010  -0.000033   0.000000
    42  H    0.007610  -0.000008   0.000019
    43  H    0.632244   0.006553  -0.005822
    44  H    0.006553   0.577745  -0.041134
    45  H   -0.005822  -0.041134   0.582474
 Mulliken atomic charges:
              1
     1  O   -0.500221
     2  C   -0.363480
     3  C    0.170238
     4  O   -0.466804
     5  H    0.304171
     6  C   -0.335676
     7  O   -0.468440
     8  H    0.356540
     9  C   -0.152172
    10  O   -0.520884
    11  H    0.350672
    12  C    0.246508
    13  O   -0.413674
    14  C    0.529512
    15  O   -0.268953
    16  C    0.061833
    17  C    0.069489
    18  O   -0.600366
    19  H    0.447552
    20  C   -0.164706
    21  O   -0.456393
    22  H    0.371878
    23  C    0.006024
    24  O   -0.508404
    25  H    0.336809
    26  C   -0.234710
    27  O   -0.283963
    28  C    0.375316
    29  O   -0.502890
    30  H    0.352558
    31  H    0.348142
    32  H    0.131893
    33  H    0.165769
    34  H    0.144959
    35  H    0.148498
    36  H    0.150494
    37  H    0.147292
    38  H    0.106226
    39  H    0.115103
    40  H    0.136602
    41  H    0.139969
    42  H    0.101244
    43  H    0.126688
    44  H    0.139495
    45  H    0.160263
 Sum of Mulliken atomic charges =   0.00000
 Mulliken charges with hydrogens summed into heavy atoms:
              1
     1  O   -0.147662
     2  C   -0.214982
     3  C    0.320732
     4  O   -0.162632
     6  C   -0.188384
     7  O   -0.111900
     9  C    0.145490
    10  O   -0.170212
    12  C    0.391467
    13  O   -0.413674
    14  C    0.635737
    15  O   -0.268953
    16  C    0.176936
    17  C    0.206091
    18  O   -0.152815
    20  C   -0.024736
    21  O   -0.084515
    23  C    0.305782
    24  O   -0.171594
    26  C   -0.108022
    27  O   -0.283963
    28  C    0.476560
    29  O   -0.154748
 Sum of Mulliken charges with hydrogens summed into heavy atoms =   0.00000
 APT atomic charges:
              1
     1  O   -0.636107
     2  C    0.414953
     3  C    0.342141
     4  O   -0.605725
     5  H    0.242314
     6  C    0.364162
     7  O   -0.583964
     8  H    0.262820
     9  C    0.448016
    10  O   -0.575918
    11  H    0.235885
    12  C    0.444737
    13  O   -0.847876
    14  C    0.922670
    15  O   -0.850976
    16  C    0.434352
    17  C    0.347415
    18  O   -0.746182
[...]
 0000326,-0.00000866,-0.00001238,0.00001254,-0.00000176,0.00004405,0.00
 000114,-0.00002895,-0.00002410,0.00004118,-0.00002965,0.00023492,0.000
 06412,-0.00009538,-0.00033839,-0.00002540,-0.00008604,-0.00104101,0.00
 103187,0.00192337,0.00093718,-0.00046522,0.00019275,-0.00002612,-0.000
 02307,-0.00000569,-0.02248056,0.01658927,-0.00380367,0.00127805,-0.001
 47003,0.00051323,0.00020200,-0.00001173,0.00025268,0.00047752,-0.00029
 607,-0.00012867,-0.00002933,-0.00002332,-0.00001227,0.00000562,0.00002
 921,-0.00000965,0.00250973,-0.00147978,-0.00069254,0.01111340,-0.00841
 541,0.00225213,-0.25829498,0.14308691,-0.00701566,-0.00811242,0.006918
 13,0.01107051,-0.00000155,0.00000306,-0.00000095,0.00116236,-0.0009491
 6,0.00051678,0.00000642,-0.00000249,-0.00000527,0.00000098,-0.00000061
 ,0.00000070,0.00000555,-0.00000416,0.00000418,0.00000447,-0.00000117,-
 0.00000303,0.00000380,-0.00000348,0.00000110,0.00000362,-0.00000273,-0
 .00000720,0.00001328,-0.00001456,0.00000879,-0.00011415,-0.00018526,0.
 00020707,0.00143412,-0.00080483,-0.00075670,-0.00227886,-0.00169509,-0
 .00349750,0.27324284,0.00000722,0.00001372,0.00001436,-0.00000391,-0.0
 0001623,-0.00000747,-0.00000275,0.00000549,-0.00001247,-0.00000351,0.0
 0000752,0.00001862,0.00000116,-0.00000363,-0.00000067,0.00000746,-0.00
 004406,-0.00000639,-0.00000157,0.00004337,0.00004318,0.00000842,-0.000
 00382,-0.00001243,-0.00000392,-0.00002444,0.00001521,0.00000413,0.0000
 1741,-0.00001620,0.00000340,-0.00000226,0.00000333,0.00000074,0.000009
 04,-0.00000625,0.00005629,0.00009475,0.00003421,-0.00010754,-0.0000297
 6,-0.00010929,0.00011116,0.00016173,0.00039122,-0.00058175,-0.00034865
 ,0.00000854,-0.00052430,0.00035202,0.00044217,-0.00010281,-0.00004389,
 -0.00035515,0.00000470,-0.00010123,0.00012776,-0.01011349,0.00962215,-
 0.00225096,0.00175421,0.00086288,0.00098843,0.00031655,0.00023606,-0.0
 0007629,-0.00062679,0.00017327,0.00018654,-0.00010026,-0.00000817,-0.0
 0000455,0.00000845,-0.00005201,0.00007593,0.00442395,0.00016636,-0.004
 53213,0.01908730,-0.04214687,0.01209144,0.14099246,-0.13621995,-0.0012
 7821,0.00193421,0.00492688,-0.00218431,0.00000051,-0.00000471,-0.00000
 385,0.00012202,-0.00034498,-0.00049802,0.,0.00000204,-0.00000015,0.000
 00064,0.00000494,-0.00000132,0.00000091,-0.00000182,0.00000583,-0.0000
 0081,0.00000109,0.00000093,-0.00000255,0.00000105,-0.00000050,-0.00000
 194,0.00000858,0.00000396,-0.00000471,0.00000384,0.00000221,0.00001735
 ,-0.00000228,-0.00018792,-0.00019320,0.00035769,0.00018156,-0.00199812
 ,-0.00063568,-0.00201592,-0.15261727,0.16206985,0.00000089,0.00000097,
 -0.00001071,-0.00000261,-0.00000154,0.00000630,-0.00000327,-0.00000156
 ,0.00000686,0.00000647,0.00000443,-0.00000983,-0.00000148,-0.00000153,
 0.00000135,-0.00000853,-0.00000619,-0.00000125,0.00000733,0.00000367,-
 0.00000288,-0.00000175,-0.00000114,0.00000250,-0.00000693,-0.00000041,
 0.00000535,0.00000463,-0.00000081,-0.00000579,-0.00000006,0.00000067,-
 0.00000005,0.00000336,0.00000816,0.00001350,0.00001966,0.00000842,-0.0
 0004171,0.00000760,-0.00000745,0.00000459,0.00011026,-0.00003386,-0.00
 011613,-0.00001221,0.00001211,-0.00014338,-0.00247955,0.00098851,0.000
 52623,0.00061437,-0.00017478,-0.00003203,-0.00003471,0.00001236,0.0000
 3912,-0.02099565,0.01060414,-0.00035716,0.00042122,-0.00098538,0.00022
 097,0.00010297,0.00002098,0.00013278,0.00000608,0.00011186,0.00000556,
 0.00001255,-0.00002559,-0.00002167,-0.00000645,0.00000442,0.00000889,-
 0.00198108,0.00126574,0.00194378,-0.00426156,0.01195183,0.00126641,-0.
 00904893,0.00096232,-0.04276625,0.03681924,-0.02068450,-0.02237018,-0.
 00000045,0.00000119,0.00000224,0.00206185,0.00006805,0.00245205,0.0000
 0269,-0.00000116,-0.00000147,0.00000005,-0.00000019,-0.00000149,0.0000
 0071,-0.00000075,0.00000144,0.00000131,-0.00000023,-0.00000124,0.00000
 134,-0.00000106,0.00000043,0.00000079,-0.00000031,-0.00000287,0.000000
 18,-0.00000380,0.00000938,0.00004945,-0.00010253,0.00010608,0.00032951
 ,-0.00061390,-0.00019138,-0.00251210,-0.00122954,-0.00281948,0.0003182
 3,-0.00176279,0.06193561,0.00000774,0.00000065,-0.00001047,-0.00001244
 ,-0.00000272,0.00000794,-0.00001103,0.00000533,0.00002345,0.00002415,0
 .00000577,-0.00002199,-0.00000505,0.00000143,0.00000045,-0.00004523,-0
 .00009037,-0.00003435,0.00006534,0.00002251,-0.00000225,-0.00001041,-0
 .00000190,0.00001323,-0.00001572,0.00000717,0.00000722,0.00001781,-0.0
 0000838,-0.00000453,-0.00000677,0.00000230,-0.00000471,-0.00000028,0.0
 0002658,0.00003976,0.00011487,-0.00004706,-0.00002258,0.00027375,0.000
 09612,-0.00027639,0.00144722,-0.00058848,0.00079367,-0.01751865,0.0122
 6445,-0.00544854,-0.00003365,0.00187164,-0.00007208,0.00049569,-0.0006
 4350,-0.00000775,-0.00012150,0.00012623,0.00005793,0.00020139,-0.00024
 577,0.00015957,-0.00022531,-0.00035547,-0.00010210,-0.00000518,-0.0000
 2349,0.00004165,0.00761613,-0.00636995,0.00036374,0.00168112,0.0009702
 7,0.00106098,-0.00035586,0.00077622,0.00000609,-0.25892742,0.13584978,
 -0.04465143,-0.02002097,0.00695371,0.01543624,0.00015745,0.00484024,-0
 .00174474,0.00049380,-0.00079119,0.00021359,-0.00000227,0.00000286,0.0
 0000072,-0.00009276,0.00017482,0.00001227,0.00000759,-0.00000444,-0.00
 000522,0.00000038,-0.00000157,-0.00000201,0.00000593,-0.00000171,0.000
 00280,0.00000522,-0.00000325,-0.00000556,0.00000695,-0.00000684,0.0000
 0367,0.00001543,0.00000507,-0.00003640,0.00015610,-0.00013381,0.000273
 18,-0.00125612,-0.00193634,-0.00192350,0.00025739,-0.00103702,0.000115
 65,0.00031039,0.00004841,0.00001451,0.00030588,-0.00161027,0.00033850,
 0.28394003,-0.00000620,0.00000334,-0.00000897,0.00000432,-0.00000072,0
 .00000392,0.00001668,-0.00000512,0.00001954,-0.00001018,0.00001226,-0.
 00000706,0.00000283,-0.00000283,-0.00000012,0.00005518,-0.00010981,-0.
 00000280,-0.00006799,0.00010409,0.00005940,0.00002578,-0.00002642,-0.0
 0004972,0.00001272,0.00000303,-0.00000124,-0.00000906,-0.00000419,0.00
 000264,0.00000352,0.00000033,0.00000016,0.00002623,0.00001189,0.000031
 03,0.00002633,-0.00001561,0.00005008,-0.00012319,0.00025545,0.00008218
 ,-0.00001217,0.00026449,0.00135610,-0.01270771,0.00777108,-0.00447152,
 -0.00012230,0.00097137,-0.00007387,0.00004291,-0.00034476,0.00010487,0
 .00001637,0.00005791,-0.00000175,-0.00016329,-0.00023305,-0.00034618,0
 .00004496,0.00004832,0.00008967,0.00001445,0.00000278,-0.00004731,0.02
 890907,-0.01964166,0.00731789,-0.00065657,0.00306601,-0.00028848,-0.00
 095642,-0.00069817,-0.00063286,0.13782276,-0.13282900,0.02570075,0.001
 03420,0.00207419,-0.00320576,-0.00247867,0.00174859,0.00056146,0.00009
 776,0.00004678,-0.00012335,0.00000135,-0.00000160,0.00000123,0.0000563
 4,-0.00004045,0.00002474,-0.00000294,0.00000117,0.00000215,-0.00000143
 ,-0.00000023,0.00000041,-0.00000189,0.00000366,0.00000146,-0.00000284,
 0.00000357,0.00000250,-0.00000922,-0.00000006,-0.00000523,0.00001380,0
 .00002962,0.00000302,0.00007133,-0.00008067,-0.00009771,-0.00119759,-0
 .00109267,-0.00188882,0.00002351,0.00005050,-0.00016349,0.00001372,-0.
 00014574,0.00009354,0.00075874,0.00068516,-0.00031583,-0.14858709,0.14
 233244,0.00000009,-0.00001056,-0.00002105,-0.00000467,0.00001362,0.000
 00918,-0.00002920,-0.00000785,0.00003932,0.00002407,-0.00000297,-0.000
 02016,-0.00000575,0.00000111,0.00000354,0.00008349,-0.00008399,0.00002
 305,0.00008068,-0.00004887,-0.00004797,-0.00001677,0.00000952,0.000041
 95,0.00000008,0.00001625,0.00001014,0.00000491,-0.00001924,0.00000370,
 -0.00000311,0.00000300,-0.00000630,0.00001608,0.00005954,0.00008262,0.
 00013810,-0.00012667,0.00006293,-0.00018340,0.00055650,-0.00016711,0.0
 0067470,0.00012652,0.00202640,-0.02271349,0.01384729,-0.00404903,0.000
 40928,0.00150174,-0.00003846,0.00020864,-0.00074470,0.00005649,-0.0000
 9309,0.00015691,0.00004453,-0.00015987,0.00043106,-0.00038222,0.000058
 07,0.00010905,0.00038499,0.00005771,0.00006762,-0.00006989,-0.00704787
 ,0.00402568,-0.00053394,0.00110631,-0.00009711,0.00037416,-0.00000133,
 0.00000313,0.00026579,-0.04389140,0.02575133,-0.04755993,0.03803516,-0
 .01412032,-0.01024529,0.00090417,-0.00649010,0.00211407,-0.00039938,0.
 00041879,-0.00044039,-0.00000208,0.00000514,0.00000418,0.00009605,0.00
 002639,0.00001874,0.00000427,-0.00000480,-0.00000298,0.00000049,0.0000
 0067,0.00000069,0.00000842,0.00000301,0.00000156,0.00000402,-0.0000029
 8,-0.00000461,0.00001068,-0.00000799,0.00000919,0.00003532,0.00000639,
 -0.00006996,0.00030704,-0.00021510,0.00006223,-0.00228687,-0.00229642,
 -0.00315840,0.00009347,-0.00058715,0.00024070,-0.00007172,0.00004484,-
 0.00017464,-0.00117042,0.00085730,0.00021615,0.03565184,-0.02473165,0.
 06026534,-0.00000821,-0.00002009,-0.00002045,0.00001202,0.00002319,0.0
 0001083,-0.00004144,0.00000347,0.00001891,0.00002520,-0.00002069,-0.00
 002236,-0.00000642,0.00000556,0.00000478,0.00004151,0.00012377,0.00009
 249,0.00022766,-0.00021912,-0.00013950,-0.00008847,0.00005020,0.000160
 39,0.00000536,0.00002194,-0.00000476,-0.00000546,-0.00002010,0.0000109
 0,-0.00000156,0.00000300,-0.00000273,0.00000836,0.00001284,0.00001999,
 0.00002743,-0.00010969,0.00002515,-0.00023304,0.00031903,-0.00008245,0
 .00019776,-0.00003911,0.00014191,0.00115682,-0.00050177,0.00017582,0.0
 0034974,-0.00027414,0.00021324,0.00001923,0.00011998,0.00004218,0.0000
 1313,0.00001542,-0.00005589,-0.00003992,0.00004612,-0.00005966,0.00002
 986,0.00002415,0.00004179,0.00000154,0.00000976,-0.00000852,-0.2734468
 2,0.13761147,-0.04518736,-0.01750155,0.00153455,-0.00878118,0.00081405
 ,-0.00160768,-0.00200375,0.00476278,-0.00505936,0.00219940,0.00111078,
 0.00031911,-0.00086437,0.00018091,-0.00050867,-0.00000455,0.00001219,0
 .00012491,-0.00005973,-0.00000121,0.00000806,0.00000703,-0.00001313,-0
 .00002286,0.00001431,0.00000114,-0.00000315,0.,-0.00000051,-0.00000141
 ,0.00000155,0.00000436,0.00000331,-0.00000057,0.00000203,-0.00000617,-
 0.00000370,0.00001927,-0.00000309,0.00000891,0.00000192,-0.00003922,-0
 .00002876,0.00009444,-0.00004720,0.00000985,0.00029160,0.00021265,0.00
 032056,-0.00015596,-0.00012274,-0.00000374,-0.00000163,-0.00001753,-0.
 00000048,-0.00018344,-0.00002359,0.00008534,0.00046288,-0.00143332,0.0
 0045251,0.29615972,0.00000292,0.00000461,0.00000890,-0.00000049,-0.000
 00859,-0.00000475,0.00001284,0.00000413,-0.00001699,-0.00000912,-0.000
 00194,0.00001460,0.00000187,0.00000092,-0.00000102,-0.00000137,-0.0000
 1375,-0.00003126,-0.00005959,0.00001413,0.00003290,0.00001159,0.000019
 36,-0.00000203,-0.00000089,-0.00000905,0.00000100,-0.00000192,0.000007
 95,-0.00000359,0.00000192,-0.00000127,0.00000154,-0.00000147,-0.000012
 76,-0.00002356,-0.00003942,0.00007168,-0.00001690,0.00009989,-0.000230
 72,-0.00000360,-0.00035870,0.00023885,-0.00019439,0.00267202,0.0004987
 7,0.00178398,-0.00017097,0.00002143,-0.00006595,-0.00021986,-0.0000435
 3,-0.00008530,0.00001340,-0.00003681,0.00003812,0.00003400,0.00000289,
 -0.00003276,0.00000099,0.00007013,-0.00000445,0.00001027,-0.00001076,-
 0.00001265,0.14068435,-0.12357611,0.02983098,-0.02064228,0.00845911,-0
 .00678091,-0.00304569,-0.00104875,-0.00331572,0.02881234,-0.02373438,0
 .00410416,-0.00011476,0.00292001,-0.00156752,0.00003328,-0.00015890,0.
 00005827,-0.00014748,0.00007936,0.00004007,-0.00000029,-0.00000183,-0.
 00000281,0.00001484,-0.00004144,-0.00003095,-0.00000154,0.00000204,0.0
 0000093,0.00000028,0.00000046,-0.00000077,-0.00000297,-0.00000092,-0.0
 0000113,-0.00000141,0.00000144,0.00000231,-0.00000514,0.00000451,-0.00
 000348,-0.00000985,0.00000152,0.00001635,-0.00007233,0.00000608,-0.000
 09826,-0.00129422,0.00025760,-0.00093805,-0.00008809,0.00030436,-0.000
 10794,-0.00010292,0.00000137,0.00000992,-0.00014301,0.00038752,-0.0000
 7626,-0.00250672,-0.00552316,0.00157888,-0.14108914,0.13921399,0.00001
 075,0.00001725,0.00001260,-0.00001600,-0.00002065,-0.00000384,0.000031
 07,0.00000055,-0.00001154,-0.00001134,0.00001898,0.00001483,0.00000407
 ,-0.00000378,-0.00000369,-0.00005241,-0.00011083,-0.00008164,-0.000183
 69,0.00021108,0.00016814,0.00006112,-0.00003855,-0.00013744,-0.0000110
 1,-0.00001553,0.00000256,0.00000933,0.00001533,-0.00001000,-0.00000072
 ,-0.00000153,0.00000158,-0.00000732,-0.00001344,-0.00001681,-0.0000282
 5,0.00008548,-0.00006173,0.00022925,-0.00026405,0.00015772,-0.00019830
 ,-0.00013862,-0.00055571,0.00058760,-0.00122248,0.00034774,0.00004111,
 -0.00006415,0.00007402,0.00003917,0.00002319,-0.00011023,-0.00001326,-
 0.00002148,0.00004746,-0.00002457,0.00006956,0.00007714,-0.00002703,-0
 .00009087,-0.00005921,-0.00000870,0.00000308,0.00003013,-0.03889548,0.
 02614163,-0.05265926,-0.02972376,0.00886276,-0.00878834,-0.00292700,-0
 .00221684,-0.00398725,-0.00741808,0.00784119,-0.00065516,-0.00097117,-
 0.00089357,0.00111724,0.00008454,0.00040391,-0.00020282,0.00002861,-0.
 00011064,0.00008798,-0.00000043,-0.00000550,-0.00000541,-0.00002574,0.
 00002175,-0.00001945,0.00000151,0.00000205,-0.00000053,-0.00000006,-0.
 00000074,-0.00000183,-0.00000317,-0.00000380,-0.00000042,-0.00000019,0
 .00000425,0.00000217,-0.00001528,0.00000082,-0.00000834,-0.00000040,0.
 00003401,0.00002751,-0.00009030,-0.00000857,-0.00003040,0.00000068,-0.
 00026471,0.00020482,-0.00002989,-0.00005954,-0.00000874,0.00004200,-0.
 00000525,0.00000855,0.00012876,-0.00017737,-0.00002208,0.00012152,0.00
 124197,0.00042070,0.05639566,-0.02420776,0.05727838,0.00004949,0.00005
 439,0.00010217,-0.00002857,-0.00008087,-0.00003404,0.00001085,0.000100
 72,-0.00005284,-0.00001734,0.00001681,0.00009594,0.00001049,0.00000417
 ,-0.00000887,-0.00018824,-0.00047832,-0.00021512,-0.00036136,0.0003303
 9,0.00077002,0.00011238,0.00001245,-0.00011461,-0.00002034,-0.00007054
 ,0.00003283,0.00003552,0.00005643,-0.00003082,-0.00000299,-0.00000718,
 0.00000482,-0.00005965,-0.00000450,-0.00007353,0.00014855,0.00031482,0
 .00008347,-0.00015869,-0.00053149,-0.00044243,0.00066899,0.00069731,-0
 .00049750,-0.00066451,-0.00023689,0.00101875,-0.00008139,0.00011045,0.
 00006750,0.00002597,-0.00002714,-0.00025186,-0.00011157,-0.00007817,0.
 00016722,0.00005342,0.00010463,0.00017337,-0.00004393,-0.00010031,-0.0
 0013500,-0.00001543,-0.00000658,0.00004913,-0.15568107,-0.00254431,0.1
 5206791,0.01022135,-0.00673691,-0.02579308,0.00212708,0.00044472,-0.00
 063621,-0.00296738,0.00352321,0.00464975,0.00009368,-0.00279581,0.0006
 8584,0.00078144,0.00081049,-0.00011631,-0.00017611,-0.00015739,0.00035
 317,0.00000092,-0.00001705,-0.00002350,-0.00002986,0.00000983,-0.00007
 073,0.00000204,0.00000463,-0.00000454,0.00000330,0.00001248,-0.0000010
 1,0.00001003,-0.00001028,0.00001399,0.00000226,0.00000372,0.00000275,-
 0.00001168,-0.00000268,-0.00000459,0.00001962,0.00009585,0.00003992,-0
 .00004177,0.00004122,0.00004197,-0.00001324,0.00003503,0.00002275,0.00
 001500,0.00003543,-0.00001330,0.00002902,-0.00000614,-0.00001473,-0.00
 003786,-0.00023816,0.00003072,0.00059600,-0.00054480,-0.00038525,-0.01
 430493,-0.00227513,0.02286680,0.16000049,0.00000634,-0.00000418,0.0000
 3393,-0.00000071,0.00000254,-0.00002744,-0.00003651,-0.00001246,-0.000
 03918,-0.00000233,-0.00002773,0.00005645,-0.00000232,0.00000365,0.0000
 0324,0.00008021,0.00010263,-0.00008031,-0.00005986,-0.00070512,-0.0000
 7463,0.00002140,0.00015698,0.00031898,-0.00000680,-0.00002737,0.000026
 54,0.00001680,0.00001740,-0.00001042,-0.00000385,-0.00000309,0.0000023
 1,-0.00003522,0.00002207,-0.00005169,0.00011558,0.00011520,0.00014982,
 -0.00035589,-0.00016185,-0.00075212,0.00056134,-0.00019734,-0.00070861
 ,-0.00047415,0.00077267,0.00057581,-0.00002274,-0.00001584,0.00037871,
 0.00011296,0.00009244,-0.00023360,-0.00008489,-0.00006846,0.00005341,0
 .00020361,-0.00003434,0.00031783,-0.00012144,-0.00013421,-0.00022703,-
 0.00002505,-0.00003417,0.00005774,-0.00280534,-0.04694413,0.01167680,0
 .00306251,-0.00378805,-0.02599114,0.00045064,0.00037412,0.00086799,-0.
 01858305,0.00173382,0.02648092,-0.00293405,-0.00919544,0.00290069,-0.0
 0046900,0.00190407,0.00044509,-0.00041952,-0.00063324,0.00113479,0.000
 00030,-0.00000023,-0.00000424,-0.00010057,-0.00002854,-0.00010224,0.00
 000161,0.00000068,-0.00000374,0.00000390,0.00001111,0.00000129,0.00000
 835,-0.00000574,0.00000975,0.00000185,-0.00000215,-0.00000149,0.000010
 31,-0.00000002,0.00001086,-0.00001217,-0.00004573,-0.00003934,0.000096
 39,-0.00001462,0.00005965,0.00005594,0.00002535,-0.00022400,-0.0000195
 1,0.00001330,-0.00001129,-0.00000808,-0.00000660,-0.00001497,0.0000984
 4,-0.00017996,0.00000324,0.00094580,0.00124791,-0.00002281,0.01059732,
 0.00186046,-0.01503859,0.01013145,0.05381416,0.00000031,0.00000851,-0.
 00001171,-0.00000409,-0.00002217,0.00002303,0.00001678,0.00004667,0.00
 000569,-0.00000061,0.00000439,-0.00002543,0.00000027,-0.00000008,0.000
 00325,-0.00006540,-0.00026171,-0.00001981,-0.00010160,-0.00014035,-0.0
 0039527,0.00002466,0.00008798,0.00000987,0.00000576,0.00001814,-0.0000
 1639,-0.00001214,-0.00001120,0.00000450,0.00000372,0.00000261,-0.00000
 082,0.00000228,-0.00000706,0.00003925,-0.00005289,-0.00008140,-0.00015
 180,0.00003983,-0.00002000,0.00048302,-0.00080655,-0.00116709,-0.00064
 321,0.00047401,0.00064151,-0.00062476,0.00009336,0.00009747,0.00006973
 ,0.00000693,0.00003943,0.00008863,0.00004549,0.00003432,-0.00002937,-0
 .00005306,0.00000620,-0.00005290,0.00001800,0.00001398,0.00006701,0.00
 001099,0.00000994,-0.00001834,0.14865810,0.01238784,-0.24978714,0.0011
 3928,-0.01292063,-0.03263067,0.00069250,0.00003233,-0.00001639,0.00764
 516,0.00204457,-0.00631304,-0.00002319,0.00145460,0.00064077,0.0000748
 0,-0.00047407,0.00004358,0.00003987,0.00007552,-0.00000086,0.00000100,
 0.00000203,0.00000316,-0.00000075,-0.00005772,0.00001696,-0.00000010,-
 0.00000101,0.00000265,-0.00000262,-0.00000681,-0.00000161,-0.00000709,
 0.00000450,-0.00001089,0.00000063,0.00000206,0.00000217,0.00000268,-0.
 00000282,0.00000244,-0.00000342,0.00003606,0.00001118,0.00001857,0.000
 02894,-0.00003481,0.00008479,0.00017503,0.00006524,-0.00001585,-0.0000
 0002,-0.00000799,0.00001260,-0.00000230,-0.00000751,-0.00003949,0.0000
 0790,0.00001145,-0.00038358,-0.00028697,0.00020999,-0.00311898,0.00010
 782,0.00736063,-0.15442094,-0.00190695,0.28163660\\0.01756956,-0.00087
 633,-0.01449626,-0.02040247,-0.01199899,-0.00718048,-0.02918387,-0.001
 71784,-0.00000864,0.01780357,0.00759130,0.02862648,-0.01387938,-0.0201
 6629,-0.02128792,-0.01318965,0.00253613,-0.01619014,0.01830812,-0.0234
 2379,0.02111615,-0.00284481,0.02597425,-0.01432306,0.00546963,0.008143
 01,-0.04204264,-0.00058432,0.02694873,0.01723700,0.00129813,-0.0256833
 3,-0.01662163,0.03399093,-0.00319432,0.02158215,-0.01593039,0.01314866
 ,0.02627625,-0.01289710,0.01951950,-0.01774075,0.00020744,-0.02751803,
 0.02861795,0.00406608,0.01762173,-0.00356142,0.00314699,0.01843025,-0.
 00088197,-0.01113105,-0.02021433,0.00783848,0.01803370,0.00888167,-0.0
 1350621,0.02070875,-0.00640661,0.01198543,0.00242703,-0.00773198,0.010
 73050,-0.01911799,0.00425840,-0.02128194,-0.01766638,-0.00005700,-0.00
 286139,-0.01656686,0.01498341,-0.00965399,0.02979030,-0.00712488,0.009
 32946,0.00385734,-0.01829015,-0.01720901,0.01071679,0.01201606,0.00360
 288,0.00221825,0.00260412,-0.03353443,0.00955009,0.00031402,0.03138877
 ,-0.00286222,0.00565641,0.00305566,-0.00606082,-0.00193763,-0.00027419
 ,-0.01935626,0.00896586,0.00321191,0.00530950,-0.00758805,0.01531175,0
 .02291112,-0.00748531,-0.00048062,-0.02033199,0.00765501,0.00079769,0.
 01732857,-0.01268192,0.00176296,-0.01606981,0.01278115,0.00233502,0.01
 643853,-0.01113711,-0.00382646,0.01285525,-0.01331477,0.00410891,-0.01
 998524,0.01324472,-0.00340574,0.01585159,-0.01729923,-0.00239621,-0.01
 993644,0.01216981,-0.00058617,-0.01785632,0.01402086,-0.00254541,0.012
 62791,-0.01311848,-0.00242014,-0.00663183,0.00150132,0.01940142\\\@


 IT IS BETTER TO THINK YOU ARE HALF DRY THAN TO KNOW YOU
 ARE ALL WET.  -- SNOOPY
 Job cpu time:  0 days 12 hours 57 minutes 16.6 seconds.
 File lengths (MBytes):  RWF=   1322 Int=      0 D2E=      0 Chk=     19 Scr=      1
 Normal termination of Gaussian 09 at Thu Oct 22 15:17:58 2015.
Gaussian '09 finished on node011 at Thu Oct 22 15:17:58 EDT 2015.
