Gaussian '09 started on node017 at Thu Jan 21 05:08:47 EST 2016.
 Entering Gaussian System, Link 0=/usr/local/gaussian/g09/g09
 Initial command:
 /usr/local/gaussian/g09/l1.exe /home/srmcgrat/thesis/gaussian/cellobiose/550/10000/gaussian15999/Gau-16035.inp -scrdir=/home/srmcgrat/thesis/gaussian/cellobiose/550/10000/gaussian15999/
 Entering Link 1 = /usr/local/gaussian/g09/l1.exe PID=     16037.
  
 Copyright (c) 1988,1990,1992,1993,1995,1998,2003,2009,2010,
            Gaussian, Inc.  All Rights Reserved.
  
 This is part of the Gaussian(R) 09 program.  It is based on
 the Gaussian(R) 03 system (copyright 2003, Gaussian, Inc.),
 the Gaussian(R) 98 system (copyright 1998, Gaussian, Inc.),
 the Gaussian(R) 94 system (copyright 1995, Gaussian, Inc.),
 the Gaussian 92(TM) system (copyright 1992, Gaussian, Inc.),
 the Gaussian 90(TM) system (copyright 1990, Gaussian, Inc.),
 the Gaussian 88(TM) system (copyright 1988, Gaussian, Inc.),
 the Gaussian 86(TM) system (copyright 1986, Carnegie Mellon
 University), and the Gaussian 82(TM) system (copyright 1983,
 Carnegie Mellon University). Gaussian is a federally registered
 trademark of Gaussian, Inc.
  
 This software contains proprietary and confidential information,
 including trade secrets, belonging to Gaussian, Inc.
  
 This software is provided under written license and may be
 used, copied, transmitted, or stored only in accord with that
 written license.
  
 The following legend is applicable only to US Government
 contracts under FAR:
  
                    RESTRICTED RIGHTS LEGEND
  
 Use, reproduction and disclosure by the US Government is
 subject to restrictions as set forth in subparagraphs (a)
 and (c) of the Commercial Computer Software - Restricted
 Rights clause in FAR 52.227-19.
  
 Gaussian, Inc.
 340 Quinnipiac St., Bldg. 40, Wallingford CT 06492
  
  
 ---------------------------------------------------------------
 Warning -- This program may not be used in any manner that
 competes with the business of Gaussian, Inc. or will provide
 assistance to any competitor of Gaussian, Inc.  The licensee
 of this program is prohibited from giving any competitor of
 Gaussian, Inc. access to this program.  By using this program,
 the user acknowledges that Gaussian, Inc. is engaged in the
 business of creating and licensing software in the field of
 computational chemistry and represents and warrants to the
 licensee that it is not a competitor of Gaussian, Inc. and that
 it will not use this program in any manner prohibited above.
 ---------------------------------------------------------------
  

 Cite this work as:
 Gaussian 09, Revision B.01,
 M. J. Frisch, G. W. Trucks, H. B. Schlegel, G. E. Scuseria, 
 M. A. Robb, J. R. Cheeseman, G. Scalmani, V. Barone, B. Mennucci, 
 G. A. Petersson, H. Nakatsuji, M. Caricato, X. Li, H. P. Hratchian, 
 A. F. Izmaylov, J. Bloino, G. Zheng, J. L. Sonnenberg, M. Hada, 
 M. Ehara, K. Toyota, R. Fukuda, J. Hasegawa, M. Ishida, T. Nakajima, 
 Y. Honda, O. Kitao, H. Nakai, T. Vreven, J. A. Montgomery, Jr., 
 J. E. Peralta, F. Ogliaro, M. Bearpark, J. J. Heyd, E. Brothers, 
 K. N. Kudin, V. N. Staroverov, T. Keith, R. Kobayashi, J. Normand, 
 K. Raghavachari, A. Rendell, J. C. Burant, S. S. Iyengar, J. Tomasi, 
 M. Cossi, N. Rega, J. M. Millam, M. Klene, J. E. Knox, J. B. Cross, 
 V. Bakken, C. Adamo, J. Jaramillo, R. Gomperts, R. E. Stratmann, 
 O. Yazyev, A. J. Austin, R. Cammi, C. Pomelli, J. W. Ochterski, 
 R. L. Martin, K. Morokuma, V. G. Zakrzewski, G. A. Voth, 
 P. Salvador, J. J. Dannenberg, S. Dapprich, A. D. Daniels, 
 O. Farkas, J. B. Foresman, J. V. Ortiz, J. Cioslowski, 
 and D. J. Fox, Gaussian, Inc., Wallingford CT, 2010.
 
 ******************************************
 Gaussian 09:  EM64L-G09RevB.01 12-Aug-2010
                21-Jan-2016 
 ******************************************
 ------------------------------------------------
 # freq=raman b3lyp/6-31+g(d,p) geom=connectivity
 ------------------------------------------------
 1/10=4,30=1,38=1,57=2/1,3;
 2/12=2,17=6,18=5,40=1/2;
 3/5=1,6=6,7=111,11=2,16=1,25=1,30=1,71=2,74=-5/1,2,3;
 4//1;
 5/5=2,38=5,98=1/2;
 8/6=4,10=90,11=11/1;
 10/13=10,15=4/2;
 11/6=3,8=1,9=11,15=111,16=1/1,2,10;
 10/6=1/2;
 6/7=2,8=2,9=2,10=2,18=1,28=1/1;
 7/8=1,10=1,25=1/1,2,3,16;
 1/10=4,30=1/3;
 99//99;
 -------------
 550 10000.com
 -------------
 Symbolic Z-matrix:
 Charge =  0 Multiplicity = 1
 O                     9.613     7.461     11.058 
 C                     10.473    7.668     12.188 
 C                     10.316    9.025     12.854 
 O                     10.624    10.       11.847 
 H                     10.597    9.565     10.947 
 C                     10.764    9.368     14.265 
 O                     10.397    10.586    14.93 
 H                     10.57     11.332    14.286 
 C                     9.921     5.221     12.936 
 O                     9.157     4.182     13.563 
 H                     8.987     3.305     13.112 
 C                     9.946     6.71      13.243 
 O                     10.747    6.924     14.414 
 C                     10.314    8.141     15.041 
 O                     11.15     8.193     16.206 
 C                     10.283    8.092     17.345 
 C                     9.87      6.666     17.67 
 O                     8.851     6.18      16.785 
 H                     9.336     5.605     16.126 
 C                     9.133     6.812     18.991 
 O                     8.794     5.448     19.282 
 H                     8.095     5.425     18.568 
 C                     11.658    10.042    18.193 
 O                     12.582    10.623    19.124 
 H                     13.416    10.085    19.244 
 C                     11.205    8.612     18.436 
 O                     10.692    8.485     19.77 
 C                     10.009    7.279     20.142 
 O                     9.501     7.572     21.451 
 H                     10.14579   7.31711   10.27249 
 H                     10.93896   4.9065    13.03472 
 H                     9.66028   5.16194   11.89993 
 H                     8.9443    7.00639   13.47464 
 H                     11.49543   7.46106   11.94985 
 H                     9.25299   9.10544   12.94583 
 H                     11.83378   9.35003   14.25256 
 H                     9.27064   8.14804   15.27818 
 H                     10.2341   7.70739   22.05584 
 H                     10.78481   10.66013   18.17394 
 H                     12.10815   10.07933   17.22301 
 H                     12.08599   8.00614   18.39492 
 H                     9.42811   8.72576   17.23354 
 H                     10.70497   6.00085   17.74275 
 H                     8.25711   7.41803   18.88884 
 H                     10.75733   6.52525   20.2715 
 

 GradGradGradGradGradGradGradGradGradGradGradGradGradGradGradGradGradGrad
 Berny optimization.
 Initialization pass.
 Trust Radius=3.00D-01 FncErr=1.00D-07 GrdErr=1.00D-07
 Number of steps in this run=      2 maximum allowed number of steps=      2.
 GradGradGradGradGradGradGradGradGradGradGradGradGradGradGradGradGradGrad

                          Input orientation:                          
 ---------------------------------------------------------------------
 Center     Atomic      Atomic             Coordinates (Angstroms)
 Number     Number       Type             X           Y           Z
 ---------------------------------------------------------------------
      1          8           0        9.613000    7.461000   11.058000
      2          6           0       10.473000    7.668000   12.188000
      3          6           0       10.316000    9.025000   12.854000
      4          8           0       10.624000   10.000000   11.847000
      5          1           0       10.597000    9.565000   10.947000
      6          6           0       10.764000    9.368000   14.265000
      7          8           0       10.397000   10.586000   14.930000
      8          1           0       10.570000   11.332000   14.286000
      9          6           0        9.921000    5.221000   12.936000
     10          8           0        9.157000    4.182000   13.563000
     11          1           0        8.987000    3.305000   13.112000
     12          6           0        9.946000    6.710000   13.243000
     13          8           0       10.747000    6.924000   14.414000
     14          6           0       10.314000    8.141000   15.041000
     15          8           0       11.150000    8.193000   16.206000
     16          6           0       10.283000    8.092000   17.345000
     17          6           0        9.870000    6.666000   17.670000
     18          8           0        8.851000    6.180000   16.785000
     19          1           0        9.336000    5.605000   16.126000
     20          6           0        9.133000    6.812000   18.991000
     21          8           0        8.794000    5.448000   19.282000
     22          1           0        8.095000    5.425000   18.568000
     23          6           0       11.658000   10.042000   18.193000
     24          8           0       12.582000   10.623000   19.124000
     25          1           0       13.416000   10.085000   19.244000
     26          6           0       11.205000    8.612000   18.436000
     27          8           0       10.692000    8.485000   19.770000
     28          6           0       10.009000    7.279000   20.142000
     29          8           0        9.501000    7.572000   21.451000
     30          1           0       10.145791    7.317105   10.272489
     31          1           0       10.938961    4.906499   13.034718
     32          1           0        9.660282    5.161937   11.899932
     33          1           0        8.944304    7.006394   13.474635
     34          1           0       11.495429    7.461061   11.949850
     35          1           0        9.252987    9.105440   12.945829
     36          1           0       11.833777    9.350031   14.252557
     37          1           0        9.270642    8.148041   15.278180
     38          1           0       10.234099    7.707385   22.055845
     39          1           0       10.784814   10.660129   18.173945
     40          1           0       12.108150   10.079327   17.223015
     41          1           0       12.085989    8.006136   18.394921
     42          1           0        9.428114    8.725756   17.233536
     43          1           0       10.704971    6.000846   17.742748
     44          1           0        8.257105    7.418030   18.888845
     45          1           0       10.757328    6.525253   20.271505
 ---------------------------------------------------------------------
                    Distance matrix (angstroms):
                    1          2          3          4          5
     1  O    0.000000
     2  C    1.435043   0.000000
     3  C    2.483127   1.519755   0.000000
     4  O    2.844497   2.361632   1.435109   0.000000
     5  H    2.325380   2.270257   2.001802   0.999977   0.000000
     6  C    3.904651   2.699743   1.519630   2.503148   3.328036
     7  O    5.037129   4.004880   2.598665   3.146397   4.116641
     8  H    5.130348   4.223258   2.727158   2.779543   3.777822
     9  C    2.939277   2.617636   3.825332   4.951663   4.825291
    10  O    4.151482   3.971735   5.029971   6.240663   6.155790
    11  H    4.677941   4.700823   5.878027   7.007355   6.816665
    12  C    2.334334   1.519381   2.376436   3.637664   3.721081
    13  O    3.582884   2.362983   2.652086   4.008291   4.360902
    14  C    4.100986   2.896311   2.358904   3.708587   4.343812
    15  O    5.422186   4.108318   3.552982   4.747926   5.463083
    16  C    6.354009   5.177888   4.587010   5.829644   6.572878
    17  C    6.664579   5.605349   5.381232   6.752140   7.357408
    18  O    5.917781   5.096807   5.068827   6.489975   6.970580
    19  H    5.404266   4.588745   4.833506   6.267760   6.640313
    20  C    7.973963   6.986354   6.630206   7.963866   8.627180
    21  O    8.506298   7.620517   7.512030   8.907796   9.469568
    22  H    7.927782   7.168705   7.109334   8.514594   9.026585
    23  C    7.858232   6.565069   5.598230   6.429824   7.338785
    24  O    9.158251   7.828665   6.855746   7.561522   8.480738
    25  H    9.399935   8.018122   7.180926   7.906839   8.778233
    26  C    7.635061   6.361168   5.667417   6.758626   7.573836
    27  O    8.838086   7.629035   6.947232   8.066832   8.889362
    28  C    9.094449   7.977013   7.500514   8.751519   9.493133
    29  O   10.394196   9.314353   8.756931   9.969610  10.747431
    30  H    0.960000   1.974684   3.100012   3.147331   2.389892
    31  H    3.491570   2.925737   4.169267   5.239620   5.116359
    32  H    2.448831   2.650254   4.032799   4.933397   4.601357
    33  H    2.548323   2.104772   2.518235   3.798980   3.958132
    34  H    2.083011   1.070000   2.157416   2.686295   2.497888
    35  H    2.529366   2.031987   1.070000   1.971633   2.452118
    36  H    4.324984   2.990541   2.089319   2.769969   3.535893
    37  H    4.289423   3.350420   2.781812   4.127266   4.746169
    38  H   11.018124   9.870815   9.296062  10.470369  11.268934
    39  H    7.889502   6.699373   5.585271   6.363322   7.311861
    40  H    7.147644   5.817180   4.838563   5.577681   6.475837
    41  H    7.761653   6.421989   5.905316   6.999155   7.753623
    42  H    6.306428   5.260045   4.478641   5.662916   6.449121
    43  H    6.928947   5.804174   5.761655   7.124580   7.674441
    44  H    7.947479   7.062152   6.575770   7.864880   8.553215
    45  H    9.331333   8.168829   7.839827   9.113941   9.808780
                    6          7          8          9         10
     6  C    0.000000
     7  O    1.435423   0.000000
     8  H    1.973670   1.000590   0.000000
     9  C    4.435595   5.743330   6.291901   0.000000
    10  O    5.474472   6.664646   7.324056   1.433997   0.000000
    11  H    6.422391   7.635849   8.265403   2.138782   1.000715
    12  C    2.962866   4.251205   4.779133   1.520525   2.667528
    13  O    2.448597   3.714701   4.413409   2.401451   3.281900
    14  C    1.519936   2.448925   3.289079   3.621032   4.381417
    15  O    2.301543   2.814540   3.725067   4.586516   5.200540
    16  C    3.368373   3.473508   4.465137   5.273800   5.555133
    17  C    4.437800   4.811624   5.806291   4.949887   4.852430
    18  O    4.491471   5.024338   5.978550   4.108453   3.803541
    19  H    4.434261   5.231300   6.140593   3.265851   2.936995
    20  C    5.615013   5.686167   6.680748   6.309933   6.031638
    21  O    6.664652   6.921601   7.920584   6.449293   5.868687
    22  H    6.417680   6.720876   7.704142   5.924130   5.265256
    23  C    4.084446   3.540230   4.255877   7.341339   7.876008
    24  O    5.337605   4.729189   5.287444   8.634458   9.172885
    25  H    5.686619   5.289230   5.851196   8.698528   9.233539
    26  C    4.261837   4.103849   5.002412   6.587681   6.896763
    27  O    5.575832   5.284584   6.180174   7.612601   7.707067
    28  C    6.282760   6.184799   7.143827   7.494634   7.321240
    29  O    7.513946   7.239506   8.161960   8.843575   8.592496
    30  H    4.530839   5.695717   5.692768   3.396834   4.651243
    31  H    4.631327   6.011867   6.556592   1.070000   1.994835
    32  H    4.950021   6.256559   6.677618   1.070000   1.994835
    33  H    3.084340   4.128194   4.691702   2.105159   2.833770
    34  H    3.087285   4.455680   4.614996   2.910187   4.338518
    35  H    2.022946   2.727226   2.913443   3.941474   4.962900
    36  H    1.070000   2.012679   2.350841   4.737186   5.860816
    37  H    2.178291   2.708054   3.579155   3.804779   4.322527
    38  H    7.983464   7.687043   8.580277   9.457892   9.258342
    39  H    4.117023   3.267885   3.951414   7.600419   8.116449
    40  H    3.326045   2.905627   3.544171   6.838528   7.542112
    41  H    4.545171   4.638325   5.499348   6.499537   6.822790
    42  H    3.318023   3.115370   4.096875   5.567321   5.847397
    43  H    4.841069   5.387953   6.355197   4.932301   4.814012
    44  H    5.609532   5.503420   6.469530   6.559866   6.296533
    45  H    6.645250   6.719462   7.678944   7.497343   7.283950
                   11         12         13         14         15
    11  H    0.000000
    12  C    3.539896   0.000000
    13  O    4.229653   1.434795   0.000000
    14  C    5.372976   2.327228   1.435865   0.000000
    15  O    6.176079   3.525376   2.232495   1.434861   0.000000
    16  C    6.520220   4.341647   3.189088   2.304729   1.434995
    17  C    5.731612   4.427871   3.381897   3.047032   2.472534
    18  O    4.666374   3.745089   3.125699   3.004568   3.110114
    19  H    3.807361   3.147191   2.581013   2.926603   3.161446
    20  C    6.847117   5.806107   4.854531   4.331686   3.705627
    21  O    6.534416   6.276087   5.448872   5.248688   4.748425
    22  H    5.920980   5.782132   5.151293   4.973967   4.751199
    23  C    8.850874   6.207710   4.983241   3.918576   2.761346
    24  O   10.130217   7.539644   6.263699   5.289143   4.058355
    25  H   10.158044   7.709963   6.359590   5.573755   4.236020
    26  C    7.837649   5.671855   4.385840   3.541433   2.269689
    27  O    8.606299   6.805062   5.579111   4.756539   3.605152
    28  C    8.139905   6.922711   5.786247   5.182304   4.198735
    29  O    9.381386   8.265128   7.175778   6.486357   5.533070
    30  H    5.050011   3.038492   4.203344   4.842086   6.081298
    31  H    2.526049   2.069291   2.451444   3.857167   4.571942
    32  H    2.317463   2.069291   3.256741   4.378182   5.472552
    33  H    3.719361   1.070000   2.034431   2.369999   3.705871
    34  H    4.991558   2.153383   2.630706   3.378358   4.332421
    35  H    5.808913   2.511317   3.024283   2.538826   3.880712
    36  H    6.778452   3.398922   2.663226   2.095977   2.371120
    37  H    5.312987   2.581865   2.103501   1.070000   2.096392
    38  H   10.046323   8.873782   7.698997   7.028688   5.940992
    39  H    9.107873   6.373488   5.300687   4.047595   3.176932
    40  H    8.516662   5.645155   4.438399   3.425971   2.347467
    41  H    7.720989   5.727287   4.337239   3.795645   2.387964
    42  H    6.823946   4.500651   3.596605   2.435970   2.074741
    43  H    5.626974   4.618081   3.454641   3.468798   2.713888
    44  H    7.128934   5.935422   5.144694   4.422602   4.020830
    45  H    8.047521   7.077589   5.871070   5.492300   4.411791
                   16         17         18         19         20
    16  C    0.000000
    17  C    1.519760   0.000000
    18  O    2.453562   1.434497   0.000000
    19  H    2.927104   1.948028   1.000065   0.000000
    20  C    2.381222   1.519712   2.312009   3.115491   0.000000
    21  O    3.599976   2.289071   2.602707   3.206049   1.435304
    22  H    3.660049   2.344592   2.078617   2.745149   1.783295
    23  C    2.532238   3.855885   4.977626   5.417669   4.176761
    24  O    3.854375   5.012675   6.255520   6.686168   5.141693
    25  H    4.170604   5.171185   6.491143   6.814596   5.396353
    26  C    1.520120   2.481108   3.765865   4.227447   2.800216
    27  O    2.490453   2.897317   4.196729   4.838582   2.415833
    28  C    2.925620   2.550661   3.717286   4.402665   1.519956
    29  O    4.212026   3.905504   4.912405   5.679079   2.600889
    30  H    7.116158   7.431230   6.736638   6.152289   8.791662
    31  H    5.399651   5.071919   4.477276   3.551536   6.509203
    32  H    6.214645   5.966563   5.055223   4.261586   7.299588
    33  H    4.236788   4.309741   3.413231   3.024412   5.523013
    34  H    5.565583   5.999522   5.657985   5.054535   7.455209
    35  H    4.630410   5.352511   4.843453   4.730060   6.466712
    36  H    3.681135   4.768580   5.035804   4.875852   6.015699
    37  H    2.302120   2.876887   2.513919   2.681441   3.948289
    38  H    4.726773   4.522465   5.659300   6.355286   3.377485
    39  H    2.744860   4.128428   5.073496   5.643357   4.266634
    40  H    2.701022   4.106082   5.099572   5.376603   4.759487
    41  H    2.088176   2.689254   4.048676   4.298360   3.240589
    42  H    1.070000   2.151362   2.648607   3.312739   2.615001
    43  H    2.170067   1.070000   2.094418   2.155145   2.164994
    44  H    2.634757   2.156980   2.512288   3.476263   1.070000
    45  H    3.353224   2.752269   3.988609   4.477974   2.088147
                   21         22         23         24         25
    21  O    0.000000
    22  H    0.999463   0.000000
    23  C    5.522070   5.843995   0.000000
    24  O    6.415180   6.889231   1.434607   0.000000
    25  H    6.547221   7.105323   2.048662   0.999700   0.000000
    26  C    4.066882   4.454940   1.519591   2.532507   2.776889
    27  O    3.614404   4.189608   2.417506   2.925826   3.202632
    28  C    2.359743   3.094865   3.761911   4.340390   4.504186
    29  O    3.117016   3.859810   4.622566   4.920985   5.149101
    30  H    9.300118   8.752218   8.511541   9.757731   9.942008
    31  H    6.627414   6.242929   7.314250   8.512186   8.456227
    32  H    7.438226   6.854374   8.210274   9.515609   9.606108
    33  H    6.014704   5.400415   6.232336   7.630727   7.922086
    34  H    8.069111   7.714167   6.757559   7.914981   7.986130
    35  H    7.330389   6.818753   5.847567   7.180189   7.612961
    36  H    7.054175   6.928735   4.004598   5.090309   5.287543
    37  H    4.852627   4.429447   4.216958   5.646313   6.055042
    38  H    3.856543   4.685092   4.732810   4.754909   4.866623
    39  H    5.688358   5.898895   1.070000   2.033189   2.898091
    40  H    6.055758   6.291035   1.070000   2.033189   2.407257
    41  H    4.262413   4.756072   2.090140   2.761441   2.609892
    42  H    3.916885   3.801707   2.761423   4.137678   4.668270
    43  H    2.515302   2.797247   4.176352   5.176428   5.126768
    44  H    2.079386   2.025188   4.351494   5.388121   5.818338
    45  H    2.448316   3.346711   4.183169   4.630089   4.560274
                   26         27         28         29         30
    26  C    0.000000
    27  O    1.434871   0.000000
    28  C    2.473407   1.435029   0.000000
    29  O    3.615998   2.253400   1.434362   0.000000
    30  H    8.333162   9.584625   9.870533  11.199993   0.000000
    31  H    6.555559   7.630903   7.550301   8.944631   3.751007
    32  H    7.550449   8.604950   8.516763   9.851735   2.743910
    33  H    5.683648   6.698681   6.757340   8.015748   3.434219
    34  H    6.593873   7.927717   8.327901   9.708857   2.157727
    35  H    5.847719   7.001787   7.462729   8.645860   3.337962
    36  H    4.294327   5.700360   6.504192   7.773083   4.777345
    37  H    3.732134   4.723373   4.995713   6.203918   5.149105
    38  H    3.855419   2.457528   1.974078   0.960000  11.790148
    39  H    2.107146   2.699480   3.988379   4.682287   8.603323
    40  H    2.107146   3.321821   4.557273   5.564151   7.732434
    41  H    1.070000   2.015777   2.809786   4.026197   8.379322
    42  H    2.148530   2.844120   3.299953   4.373038   7.138315
    43  H    2.747500   3.206391   2.806148   4.203476   7.605919
    44  H    3.212587   2.800638   2.158440   2.852301   8.821503
    45  H    2.814960   2.023952   1.070000   2.016246  10.048947
                   31         32         33         34         35
    31  H    0.000000
    32  H    1.728586   0.000000
    33  H    2.929461   2.528703   0.000000
    34  H    2.830615   2.942147   3.006648   0.000000
    35  H    4.525651   4.100123   2.186531   2.953727   0.000000
    36  H    4.693485   5.272481   3.800901   2.997524   2.903074
    37  H    4.280654   4.525616   2.159311   4.061945   2.521267
    38  H    9.472197  10.485759   8.705867  10.187383   9.268740
    39  H    7.716195   8.417716   6.230631   7.034086   5.665400
    40  H    6.757735   7.649052   5.788194   5.919207   5.233998
    41  H    6.297238   7.493892   5.922743   6.494984   6.239149
    42  H    5.873623   6.418882   4.161684   5.812967   4.308047
    43  H    4.839203   5.994468   4.725237   6.026170   5.895524
    44  H    6.911652   7.476882   5.473148   7.657561   6.257681
    45  H    7.417846   8.552507   7.050956   8.406573   7.911128
                   36         37         38         39         40
    36  H    0.000000
    37  H    3.011037   0.000000
    38  H    8.133176   6.859969   0.000000
    39  H    4.265438   4.121743   4.908272   0.000000
    40  H    3.070956   3.945086   5.700388   1.729976   0.000000
    41  H    4.362206   4.202427   4.113528   2.964045   2.381591
    42  H    3.881130   2.044987   4.994131   2.542991   3.002475
    43  H    4.967160   3.569572   4.662275   4.679875   4.344312
    44  H    6.166066   3.820612   3.744612   4.172721   4.968706
    45  H    6.735417   5.456828   2.203423   4.636563   4.873341
                   41         42         43         44         45
    41  H    0.000000
    42  H    2.988472   0.000000
    43  H    2.520661   3.052015   0.000000
    44  H    3.905148   2.412769   3.051884   0.000000
    45  H    2.734945   3.979733   2.583090   2.993311   0.000000
 Stoichiometry    C12H22O11
 Framework group  C1[X(C12H22O11)]
 Deg. of freedom   129
 Full point group                 C1      NOp   1
 Largest Abelian subgroup         C1      NOp   1
 Largest concise Abelian subgroup C1      NOp   1
                         Standard orientation:                         
 ---------------------------------------------------------------------
 Center     Atomic      Atomic             Coordinates (Angstroms)
 Number     Number       Type             X           Y           Z
 ---------------------------------------------------------------------
      1          8           0       -5.016022    0.246938   -0.438462
      2          6           0       -3.852026   -0.223111    0.256891
      3          6           0       -3.117858   -1.353956   -0.444424
      4          8           0       -4.060883   -2.429722   -0.558310
      5          1           0       -4.983662   -2.077919   -0.401252
      6          6           0       -1.677896   -1.762373   -0.181790
      7          8           0       -0.958376   -2.680948   -1.017823
      8          1           0       -1.555479   -3.470678   -1.162648
      9          6           0       -3.254807    2.277008    0.751618
     10          8           0       -2.707732    3.573827    0.477185
     11          1           0       -3.210597    4.414226    0.682825
     12          6           0       -2.866498    0.929533    0.163805
     13          8           0       -1.662904    0.479719    0.802294
     14          6           0       -0.983275   -0.413340   -0.093394
     15          8           0        0.206512   -0.730263    0.643351
     16          6           0        1.312767   -0.214193   -0.111024
     17          6           0        1.547469    1.273215    0.094412
     18          8           0        0.608199    2.077371   -0.632834
     19          1           0       -0.066867    2.362502    0.047693
     20          6           0        2.852602    1.522453   -0.643176
     21          8           0        3.058888    2.921088   -0.395457
     22          1           0        2.324785    3.183437   -1.020909
     23          6           0        2.305210   -2.499364    0.342053
     24          8           0        3.292824   -3.348431    0.943553
     25          1           0        3.407380   -3.191512    1.924192
     26          6           0        2.456693   -0.997033    0.512963
     27          8           0        3.766395   -0.589794    0.091428
     28          6           0        4.052195    0.810359   -0.039715
     29          8           0        5.359985    0.831483   -0.628470
     30          1           0       -5.792476    0.112121    0.109757
     31          1           0       -3.143990    2.153952    1.808725
     32          1           0       -4.299659    2.373446    0.542132
     33          1           0       -2.648109    1.082780   -0.872400
     34          1           0       -4.071441   -0.466698    1.275430
     35          1           0       -3.052555   -0.987595   -1.447627
     36          1           0       -1.660364   -2.183505    0.801694
     37          1           0       -0.776330    0.020798   -1.049218
     38          1           0        5.992254    0.446132   -0.017454
     39          1           0        2.294641   -2.707051   -0.707544
     40          1           0        1.352123   -2.776858    0.741457
     41          1           0        2.408137   -0.807406    1.564906
     42          1           0        1.211347   -0.449273   -1.149942
     43          1           0        1.607960    1.542639    1.128168
     44          1           0        2.758354    1.321776   -1.689954
     45          1           0        4.161999    1.199339    0.951011
 ---------------------------------------------------------------------
 Rotational constants (GHZ):      0.3803038      0.1550796      0.1163432
 Standard basis: 6-31+G(d,p) (6D, 7F)
 There are   547 symmetry adapted basis functions of A   symmetry.
 Integral buffers will be    131072 words long.
 Raffenetti 2 integral format.
 Two-electron integral symmetry is turned on.
   547 basis functions,   890 primitive gaussians,   547 cartesian basis functions
    91 alpha electrons       91 beta electrons
       nuclear repulsion energy      2295.5611542496 Hartrees.
 NAtoms=   45 NActive=   45 NUniq=   45 SFac= 1.00D+00 NAtFMM=   50 NAOKFM=F Big=F
 One-electron integrals computed using PRISM.
 NBasis=   547 RedAO= T  NBF=   547
 NBsUse=   547 1.00D-06 NBFU=   547
 Harris functional with IExCor=  402 diagonalized for initial guess.
 ExpMin= 4.38D-02 ExpMax= 5.48D+03 ExpMxC= 8.25D+02 IAcc=2 IRadAn=         0 AccDes= 0.00D+00
 HarFok:  IExCor=  402 AccDes= 0.00D+00 IRadAn=         0 IDoV= 1
 ScaDFX=  1.000000  1.000000  1.000000  1.000000
 FoFCou: FMM=F IPFlag=           0 FMFlag=      100000 FMFlg1=           0
         NFxFlg=           0 DoJE=T BraDBF=F KetDBF=T FulRan=T
         Omega=  0.000000  0.000000  1.000000  0.000000  0.000000 ICntrl=     500 IOpCl=  0
         NMat0=    1 NMatS0=    1 NMatT0=    0 NMatD0=    1 NMtDS0=    0 NMtDT0=    0
         I1Cent=           4 NGrid=           0.
 Petite list used in FoFCou.
 Initial guess orbital symmetries:
       Occupied  (A) (A) (A) (A) (A) (A) (A) (A) (A) (A) (A) (A)
                 (A) (A) (A) (A) (A) (A) (A) (A) (A) (A) (A) (A)
                 (A) (A) (A) (A) (A) (A) (A) (A) (A) (A) (A) (A)
                 (A) (A) (A) (A) (A) (A) (A) (A) (A) (A) (A) (A)
                 (A) (A) (A) (A) (A) (A) (A) (A) (A) (A) (A) (A)
                 (A) (A) (A) (A) (A) (A) (A) (A) (A) (A) (A) (A)
                 (A) (A) (A) (A) (A) (A) (A) (A) (A) (A) (A) (A)
                 (A) (A) (A) (A) (A) (A) (A)
       Virtual   (A) (A) (A) (A) (A) (A) (A) (A) (A) (A) (A) (A)
                 (A) (A) (A) (A) (A) (A) (A) (A) (A) (A) (A) (A)
                 (A) (A) (A) (A) (A) (A) (A) (A) (A) (A) (A) (A)
                 (A) (A) (A) (A) (A) (A) (A) (A) (A) (A) (A) (A)
                 (A) (A) (A) (A) (A) (A) (A) (A) (A) (A) (A) (A)
                 (A) (A) (A) (A) (A) (A) (A) (A) (A) (A) (A) (A)
                 (A) (A) (A) (A) (A) (A) (A) (A) (A) (A) (A) (A)
                 (A) (A) (A) (A) (A) (A) (A) (A) (A) (A) (A) (A)
                 (A) (A) (A) (A) (A) (A) (A) (A) (A) (A) (A) (A)
                 (A) (A) (A) (A) (A) (A) (A) (A) (A) (A) (A) (A)
                 (A) (A) (A) (A) (A) (A) (A) (A) (A) (A) (A) (A)
                 (A) (A) (A) (A) (A) (A) (A) (A) (A) (A) (A) (A)
                 (A) (A) (A) (A) (A) (A) (A) (A) (A) (A) (A) (A)
                 (A) (A) (A) (A) (A) (A) (A) (A) (A) (A) (A) (A)
                 (A) (A) (A) (A) (A) (A) (A) (A) (A) (A) (A) (A)
                 (A) (A) (A) (A) (A) (A) (A) (A) (A) (A) (A) (A)
                 (A) (A) (A) (A) (A) (A) (A) (A) (A) (A) (A) (A)
                 (A) (A) (A) (A) (A) (A) (A) (A) (A) (A) (A) (A)
                 (A) (A) (A) (A) (A) (A) (A) (A) (A) (A) (A) (A)
                 (A) (A) (A) (A) (A) (A) (A) (A) (A) (A) (A) (A)
                 (A) (A) (A) (A) (A) (A) (A) (A) (A) (A) (A) (A)
                 (A) (A) (A) (A) (A) (A) (A) (A) (A) (A) (A) (A)
                 (A) (A) (A) (A) (A) (A) (A) (A) (A) (A) (A) (A)
                 (A) (A) (A) (A) (A) (A) (A) (A) (A) (A) (A) (A)
                 (A) (A) (A) (A) (A) (A) (A) (A) (A) (A) (A) (A)
                 (A) (A) (A) (A) (A) (A) (A) (A) (A) (A) (A) (A)
                 (A) (A) (A) (A) (A) (A) (A) (A) (A) (A) (A) (A)
                 (A) (A) (A) (A) (A) (A) (A) (A) (A) (A) (A) (A)
                 (A) (A) (A) (A) (A) (A) (A) (A) (A) (A) (A) (A)
                 (A) (A) (A) (A) (A) (A) (A) (A) (A) (A) (A) (A)
                 (A) (A) (A) (A) (A) (A) (A) (A) (A) (A) (A) (A)
                 (A) (A) (A) (A) (A) (A) (A) (A) (A) (A) (A) (A)
                 (A) (A) (A) (A) (A) (A) (A) (A) (A) (A) (A) (A)
                 (A) (A) (A) (A) (A) (A) (A) (A) (A) (A) (A) (A)
                 (A) (A) (A) (A) (A) (A) (A) (A) (A) (A) (A) (A)
                 (A) (A) (A) (A) (A) (A) (A) (A) (A) (A) (A) (A)
                 (A) (A) (A) (A) (A) (A) (A) (A) (A) (A) (A) (A)
                 (A) (A) (A) (A) (A) (A) (A) (A) (A) (A) (A) (A)
 The electronic state of the initial guess is 1-A.
 Requested convergence on RMS density matrix=1.00D-08 within 128 cycles.
 Requested convergence on MAX density matrix=1.00D-06.
 Requested convergence on             energy=1.00D-06.
 No special actions if energy rises.
 SCF Done:  E(RB3LYP) =  -1297.87817706     A.U. after   14 cycles
             Convg  =    0.3204D-08             -V/T =  2.0085
 Range of M.O.s used for correlation:     1   547
 NBasis=   547 NAE=    91 NBE=    91 NFC=     0 NFV=     0
 NROrb=    547 NOA=    91 NOB=    91 NVA=   456 NVB=   456

 **** Warning!!: The largest alpha MO coefficient is  0.87568725D+02

          Differentiating once with respect to electric field.
                with respect to dipole field.
          Electric field/nuclear overlap derivatives assumed to be zero.
          There are     3 degrees of freedom in the 1st order CPHF.  IDoFFX=0.
      3 vectors produced by pass  0 Test12= 1.38D-12 3.33D-08 XBig12= 1.17D+02 9.60D-01.
 AX will form     3 AO Fock derivatives at one time.
      3 vectors produced by pass  1 Test12= 1.38D-12 3.33D-08 XBig12= 2.48D+01 4.63D-01.
      3 vectors produced by pass  2 Test12= 1.38D-12 3.33D-08 XBig12= 1.00D+01 3.03D-01.
      3 vectors produced by pass  3 Test12= 1.38D-12 3.33D-08 XBig12= 9.70D-01 8.66D-02.
      3 vectors produced by pass  4 Test12= 1.38D-12 3.33D-08 XBig12= 2.49D-01 3.79D-02.
      3 vectors produced by pass  5 Test12= 1.38D-12 3.33D-08 XBig12= 4.91D-02 2.17D-02.
      3 vectors produced by pass  6 Test12= 1.38D-12 3.33D-08 XBig12= 1.86D-02 1.35D-02.
      3 vectors produced by pass  7 Test12= 1.38D-12 3.33D-08 XBig12= 2.84D-03 7.55D-03.
      3 vectors produced by pass  8 Test12= 1.38D-12 3.33D-08 XBig12= 5.73D-04 2.05D-03.
      3 vectors produced by pass  9 Test12= 1.38D-12 3.33D-08 XBig12= 1.66D-04 1.49D-03.
      3 vectors produced by pass 10 Test12= 1.38D-12 3.33D-08 XBig12= 4.34D-05 6.35D-04.
      3 vectors produced by pass 11 Test12= 1.38D-12 3.33D-08 XBig12= 5.98D-06 3.35D-04.
      3 vectors produced by pass 12 Test12= 1.38D-12 3.33D-08 XBig12= 1.07D-06 9.13D-05.
      3 vectors produced by pass 13 Test12= 1.38D-12 3.33D-08 XBig12= 1.30D-07 4.03D-05.
      3 vectors produced by pass 14 Test12= 1.38D-12 3.33D-08 XBig12= 2.86D-08 1.51D-05.
      3 vectors produced by pass 15 Test12= 1.38D-12 3.33D-08 XBig12= 6.78D-09 8.92D-06.
      3 vectors produced by pass 16 Test12= 1.38D-12 3.33D-08 XBig12= 7.15D-10 2.71D-06.
      3 vectors produced by pass 17 Test12= 1.38D-12 3.33D-08 XBig12= 1.08D-10 8.82D-07.
      3 vectors produced by pass 18 Test12= 1.38D-12 3.33D-08 XBig12= 3.56D-11 4.91D-07.
      3 vectors produced by pass 19 Test12= 1.38D-12 3.33D-08 XBig12= 1.43D-11 3.54D-07.
      3 vectors produced by pass 20 Test12= 1.38D-12 3.33D-08 XBig12= 8.70D-12 2.65D-07.
      2 vectors produced by pass 21 Test12= 1.38D-12 3.33D-08 XBig12= 1.89D-12 1.02D-07.
      1 vectors produced by pass 22 Test12= 1.38D-12 3.33D-08 XBig12= 3.31D-13 3.76D-08.
 Inverted reduced A of dimension    66 with in-core refinement.
 End of Minotr Frequency-dependent properties file   721 does not exist.
 End of Minotr Frequency-dependent properties file   722 does not exist.
 Symmetrizing basis deriv contribution to polar:
 IMax=3 JMax=2 DiffMx= 0.00D+00
 G2DrvN: will do    23 centers at a time, making    2 passes doing MaxLOS=2.
 Calling FoFCou, ICntrl=  3107 FMM=F I1Cent=   0 AccDes= 0.00D+00.
 Calling FoFCou, ICntrl=  3107 FMM=F I1Cent=   0 AccDes= 0.00D+00.
 FoFDir/FoFCou used for L=0 through L=2.
 End of G2Drv Frequency-dependent properties file   721 does not exist.
 End of G2Drv Frequency-dependent properties file   722 does not exist.
          IDoAtm=111111111111111111111111111111111111111111111
          Differentiating once with respect to electric field.
                with respect to dipole field.
          Differentiating once with respect to nuclear coordinates.
          There are   138 degrees of freedom in the 1st order CPHF.  IDoFFX=5.
 Will reuse    3 saved solutions.
    135 vectors produced by pass  0 Test12= 4.15D-14 1.00D-09 XBig12= 2.85D-01 8.52D-02.
 AX will form    68 AO Fock derivatives at one time.
    135 vectors produced by pass  1 Test12= 4.15D-14 1.00D-09 XBig12= 2.27D-02 1.77D-02.
    132 vectors produced by pass  2 Test12= 4.15D-14 1.00D-09 XBig12= 2.61D-04 1.74D-03.
    132 vectors produced by pass  3 Test12= 4.15D-14 1.00D-09 XBig12= 6.75D-07 8.01D-05.
    132 vectors produced by pass  4 Test12= 4.15D-14 1.00D-09 XBig12= 1.34D-09 2.57D-06.
    131 vectors produced by pass  5 Test12= 4.15D-14 1.00D-09 XBig12= 8.47D-12 2.58D-07.
     80 vectors produced by pass  6 Test12= 4.15D-14 1.00D-09 XBig12= 2.08D-13 2.47D-08.
 Inverted reduced A of dimension   877 with in-core refinement.
 Isotropic polarizability for W=    0.000000      185.95 Bohr**3.
 End of Minotr Frequency-dependent properties file   721 does not exist.
 End of Minotr Frequency-dependent properties file   722 does not exist.

 **********************************************************************

            Population analysis using the SCF density.

 **********************************************************************

 Orbital symmetries:
       Occupied  (A) (A) (A) (A) (A) (A) (A) (A) (A) (A) (A) (A)
                 (A) (A) (A) (A) (A) (A) (A) (A) (A) (A) (A) (A)
                 (A) (A) (A) (A) (A) (A) (A) (A) (A) (A) (A) (A)
                 (A) (A) (A) (A) (A) (A) (A) (A) (A) (A) (A) (A)
                 (A) (A) (A) (A) (A) (A) (A) (A) (A) (A) (A) (A)
                 (A) (A) (A) (A) (A) (A) (A) (A) (A) (A) (A) (A)
                 (A) (A) (A) (A) (A) (A) (A) (A) (A) (A) (A) (A)
                 (A) (A) (A) (A) (A) (A) (A)
       Virtual   (A) (A) (A) (A) (A) (A) (A) (A) (A) (A) (A) (A)
                 (A) (A) (A) (A) (A) (A) (A) (A) (A) (A) (A) (A)
                 (A) (A) (A) (A) (A) (A) (A) (A) (A) (A) (A) (A)
                 (A) (A) (A) (A) (A) (A) (A) (A) (A) (A) (A) (A)
                 (A) (A) (A) (A) (A) (A) (A) (A) (A) (A) (A) (A)
                 (A) (A) (A) (A) (A) (A) (A) (A) (A) (A) (A) (A)
                 (A) (A) (A) (A) (A) (A) (A) (A) (A) (A) (A) (A)
                 (A) (A) (A) (A) (A) (A) (A) (A) (A) (A) (A) (A)
                 (A) (A) (A) (A) (A) (A) (A) (A) (A) (A) (A) (A)
                 (A) (A) (A) (A) (A) (A) (A) (A) (A) (A) (A) (A)
                 (A) (A) (A) (A) (A) (A) (A) (A) (A) (A) (A) (A)
                 (A) (A) (A) (A) (A) (A) (A) (A) (A) (A) (A) (A)
                 (A) (A) (A) (A) (A) (A) (A) (A) (A) (A) (A) (A)
                 (A) (A) (A) (A) (A) (A) (A) (A) (A) (A) (A) (A)
                 (A) (A) (A) (A) (A) (A) (A) (A) (A) (A) (A) (A)
                 (A) (A) (A) (A) (A) (A) (A) (A) (A) (A) (A) (A)
                 (A) (A) (A) (A) (A) (A) (A) (A) (A) (A) (A) (A)
                 (A) (A) (A) (A) (A) (A) (A) (A) (A) (A) (A) (A)
                 (A) (A) (A) (A) (A) (A) (A) (A) (A) (A) (A) (A)
                 (A) (A) (A) (A) (A) (A) (A) (A) (A) (A) (A) (A)
                 (A) (A) (A) (A) (A) (A) (A) (A) (A) (A) (A) (A)
                 (A) (A) (A) (A) (A) (A) (A) (A) (A) (A) (A) (A)
                 (A) (A) (A) (A) (A) (A) (A) (A) (A) (A) (A) (A)
                 (A) (A) (A) (A) (A) (A) (A) (A) (A) (A) (A) (A)
                 (A) (A) (A) (A) (A) (A) (A) (A) (A) (A) (A) (A)
                 (A) (A) (A) (A) (A) (A) (A) (A) (A) (A) (A) (A)
                 (A) (A) (A) (A) (A) (A) (A) (A) (A) (A) (A) (A)
                 (A) (A) (A) (A) (A) (A) (A) (A) (A) (A) (A) (A)
                 (A) (A) (A) (A) (A) (A) (A) (A) (A) (A) (A) (A)
                 (A) (A) (A) (A) (A) (A) (A) (A) (A) (A) (A) (A)
                 (A) (A) (A) (A) (A) (A) (A) (A) (A) (A) (A) (A)
                 (A) (A) (A) (A) (A) (A) (A) (A) (A) (A) (A) (A)
                 (A) (A) (A) (A) (A) (A) (A) (A) (A) (A) (A) (A)
                 (A) (A) (A) (A) (A) (A) (A) (A) (A) (A) (A) (A)
                 (A) (A) (A) (A) (A) (A) (A) (A) (A) (A) (A) (A)
                 (A) (A) (A) (A) (A) (A) (A) (A) (A) (A) (A) (A)
                 (A) (A) (A) (A) (A) (A) (A) (A) (A) (A) (A) (A)
                 (A) (A) (A) (A) (A) (A) (A) (A) (A) (A) (A) (A)
 The electronic state is 1-A.
 Alpha  occ. eigenvalues --  -19.21054 -19.19379 -19.19157 -19.18523 -19.18002
 Alpha  occ. eigenvalues --  -19.17930 -19.17711 -19.16146 -19.15563 -19.15492
 Alpha  occ. eigenvalues --  -19.15182 -10.30896 -10.29308 -10.28663 -10.26988
 Alpha  occ. eigenvalues --  -10.26513 -10.26459 -10.25629 -10.25454 -10.25031
 Alpha  occ. eigenvalues --  -10.24779 -10.24180 -10.22229  -1.10511  -1.08320
 Alpha  occ. eigenvalues --   -1.06908  -1.05479  -1.05051  -1.04206  -1.03398
 Alpha  occ. eigenvalues --   -1.02910  -1.01691  -1.00865  -0.99605  -0.82585
 Alpha  occ. eigenvalues --   -0.82261  -0.79134  -0.77541  -0.72863  -0.69566
 Alpha  occ. eigenvalues --   -0.67625  -0.65011  -0.63724  -0.63072  -0.61968
 Alpha  occ. eigenvalues --   -0.60744  -0.57838  -0.55967  -0.55613  -0.54879
 Alpha  occ. eigenvalues --   -0.53741  -0.53178  -0.53143  -0.52122  -0.51013
 Alpha  occ. eigenvalues --   -0.50530  -0.50021  -0.48151  -0.48044  -0.46762
 Alpha  occ. eigenvalues --   -0.46008  -0.45417  -0.44964  -0.44114  -0.43703
 Alpha  occ. eigenvalues --   -0.42805  -0.42611  -0.41669  -0.40123  -0.39293
 Alpha  occ. eigenvalues --   -0.38696  -0.38438  -0.37727  -0.37402  -0.37211
 Alpha  occ. eigenvalues --   -0.36583  -0.34827  -0.34484  -0.33901  -0.32974
 Alpha  occ. eigenvalues --   -0.32477  -0.31622  -0.31164  -0.29930  -0.29760
 Alpha  occ. eigenvalues --   -0.29510  -0.29311  -0.28541  -0.27363  -0.26237
 Alpha  occ. eigenvalues --   -0.25616
 Alpha virt. eigenvalues --   -0.04076  -0.02556  -0.00834  -0.00314   0.00680
 Alpha virt. eigenvalues --    0.00926   0.01567   0.01827   0.02602   0.02785
 Alpha virt. eigenvalues --    0.03422   0.04126   0.04480   0.05626   0.05713
 Alpha virt. eigenvalues --    0.06243   0.06711   0.06937   0.07334   0.07974
 Alpha virt. eigenvalues --    0.08401   0.08841   0.09500   0.09540   0.09656
 Alpha virt. eigenvalues --    0.10244   0.10697   0.11150   0.11308   0.11634
 Alpha virt. eigenvalues --    0.11863   0.12027   0.12698   0.13097   0.13551
 Alpha virt. eigenvalues --    0.13745   0.14027   0.14320   0.14682   0.15075
 Alpha virt. eigenvalues --    0.15257   0.15538   0.15914   0.16058   0.16750
 Alpha virt. eigenvalues --    0.17024   0.17380   0.17985   0.18265   0.18584
 Alpha virt. eigenvalues --    0.18666   0.19202   0.19556   0.19616   0.19916
 Alpha virt. eigenvalues --    0.20363   0.20732   0.20834   0.21150   0.21495
 Alpha virt. eigenvalues --    0.21807   0.21868   0.22280   0.22939   0.23190
 Alpha virt. eigenvalues --    0.23297   0.23472   0.23891   0.24350   0.24515
 Alpha virt. eigenvalues --    0.24780   0.25283   0.25510   0.25956   0.26034
 Alpha virt. eigenvalues --    0.26327   0.26641   0.26746   0.27176   0.27658
 Alpha virt. eigenvalues --    0.27816   0.28152   0.28434   0.28693   0.29082
 Alpha virt. eigenvalues --    0.29949   0.30155   0.30239   0.30864   0.30897
 Alpha virt. eigenvalues --    0.31112   0.31658   0.31801   0.32376   0.32607
 Alpha virt. eigenvalues --    0.32782   0.33007   0.33296   0.33694   0.33999
 Alpha virt. eigenvalues --    0.34158   0.34405   0.35198   0.35338   0.36002
 Alpha virt. eigenvalues --    0.36297   0.36800   0.37174   0.37452   0.37641
 Alpha virt. eigenvalues --    0.37876   0.38517   0.38592   0.38855   0.39259
 Alpha virt. eigenvalues --    0.39689   0.39957   0.40571   0.40944   0.41134
 Alpha virt. eigenvalues --    0.41760   0.42490   0.42701   0.43016   0.43742
 Alpha virt. eigenvalues --    0.44174   0.44716   0.45434   0.46618   0.47099
 Alpha virt. eigenvalues --    0.47556   0.48180   0.48892   0.49457   0.50620
 Alpha virt. eigenvalues --    0.50814   0.51251   0.56254   0.62193   0.63791
 Alpha virt. eigenvalues --    0.66267   0.66765   0.68796   0.69554   0.70883
 Alpha virt. eigenvalues --    0.71701   0.71914   0.74015   0.74500   0.75219
 Alpha virt. eigenvalues --    0.76283   0.76920   0.77610   0.78082   0.78721
 Alpha virt. eigenvalues --    0.79584   0.80553   0.82248   0.83265   0.84284
 Alpha virt. eigenvalues --    0.85294   0.86089   0.86819   0.87783   0.89064
 Alpha virt. eigenvalues --    0.89970   0.92067   0.93040   0.94651   0.96372
 Alpha virt. eigenvalues --    0.97132   0.97588   0.98964   0.99414   0.99808
 Alpha virt. eigenvalues --    1.00436   1.01809   1.02404   1.03729   1.04498
 Alpha virt. eigenvalues --    1.05076   1.05586   1.06263   1.06357   1.07494
 Alpha virt. eigenvalues --    1.07577   1.08261   1.08986   1.09707   1.09890
 Alpha virt. eigenvalues --    1.10769   1.11604   1.12823   1.13258   1.14776
 Alpha virt. eigenvalues --    1.15742   1.16477   1.18146   1.19184   1.20046
 Alpha virt. eigenvalues --    1.21533   1.22290   1.23255   1.23943   1.24025
 Alpha virt. eigenvalues --    1.25139   1.25886   1.26291   1.27054   1.27271
 Alpha virt. eigenvalues --    1.28288   1.28644   1.29584   1.29649   1.29964
 Alpha virt. eigenvalues --    1.31307   1.32492   1.33073   1.33618   1.34552
 Alpha virt. eigenvalues --    1.35308   1.36037   1.36076   1.36944   1.38839
 Alpha virt. eigenvalues --    1.39826   1.40134   1.40799   1.41851   1.42234
 Alpha virt. eigenvalues --    1.43201   1.43732   1.45003   1.45870   1.46520
 Alpha virt. eigenvalues --    1.47660   1.48387   1.49344   1.51067   1.53423
 Alpha virt. eigenvalues --    1.53822   1.54458   1.55870   1.56560   1.56965
 Alpha virt. eigenvalues --    1.57484   1.58937   1.60170   1.60565   1.60991
 Alpha virt. eigenvalues --    1.62639   1.63103   1.63765   1.64289   1.65105
 Alpha virt. eigenvalues --    1.65315   1.66239   1.67258   1.67789   1.69002
 Alpha virt. eigenvalues --    1.69251   1.70181   1.70306   1.71830   1.73033
 Alpha virt. eigenvalues --    1.73264   1.75244   1.76502   1.76713   1.77761
 Alpha virt. eigenvalues --    1.77939   1.79468   1.79806   1.80959   1.81770
 Alpha virt. eigenvalues --    1.82422   1.83019   1.84139   1.84845   1.85441
 Alpha virt. eigenvalues --    1.87056   1.87687   1.88583   1.89445   1.90649
 Alpha virt. eigenvalues --    1.91962   1.92826   1.93415   1.93862   1.94266
 Alpha virt. eigenvalues --    1.95541   1.96554   1.98872   1.99173   2.00390
 Alpha virt. eigenvalues --    2.00846   2.01539   2.01806   2.02836   2.03291
 Alpha virt. eigenvalues --    2.04738   2.05513   2.06998   2.07325   2.08057
 Alpha virt. eigenvalues --    2.09469   2.09945   2.10879   2.11611   2.12569
 Alpha virt. eigenvalues --    2.13673   2.14347   2.15740   2.15967   2.17528
 Alpha virt. eigenvalues --    2.19068   2.19569   2.20560   2.21515   2.22576
 Alpha virt. eigenvalues --    2.23542   2.24208   2.24950   2.25867   2.26758
 Alpha virt. eigenvalues --    2.28281   2.30385   2.31195   2.32776   2.34398
 Alpha virt. eigenvalues --    2.35353   2.36285   2.36555   2.38849   2.39846
 Alpha virt. eigenvalues --    2.40329   2.40970   2.41469   2.42626   2.43855
 Alpha virt. eigenvalues --    2.44136   2.45985   2.46489   2.47301   2.47953
 Alpha virt. eigenvalues --    2.49203   2.49477   2.50953   2.52399   2.53154
 Alpha virt. eigenvalues --    2.54462   2.57173   2.58481   2.58906   2.59489
 Alpha virt. eigenvalues --    2.60153   2.62067   2.62761   2.63163   2.64515
 Alpha virt. eigenvalues --    2.65465   2.66479   2.68377   2.68755   2.69191
 Alpha virt. eigenvalues --    2.70134   2.70692   2.72454   2.73014   2.76264
 Alpha virt. eigenvalues --    2.77211   2.77853   2.78096   2.80724   2.81211
 Alpha virt. eigenvalues --    2.81946   2.82863   2.84037   2.84085   2.84581
 Alpha virt. eigenvalues --    2.85870   2.87938   2.89211   2.89851   2.90385
 Alpha virt. eigenvalues --    2.91570   2.92023   2.93358   2.93999   2.95107
 Alpha virt. eigenvalues --    2.96872   2.97375   2.98332   2.99752   2.99929
 Alpha virt. eigenvalues --    3.01374   3.02030   3.03666   3.05414   3.07045
 Alpha virt. eigenvalues --    3.07902   3.09841   3.10903   3.13246   3.14405
 Alpha virt. eigenvalues --    3.19330   3.20099   3.21645   3.26067   3.28964
 Alpha virt. eigenvalues --    3.31791   3.35967   3.38132   3.40368   3.41387
 Alpha virt. eigenvalues --    3.42972   3.44240   3.44932   3.46420   3.47845
 Alpha virt. eigenvalues --    3.49855   3.51054   3.51574   3.52295   3.53932
 Alpha virt. eigenvalues --    3.55030   3.56241   3.59253   3.61003   3.61579
 Alpha virt. eigenvalues --    3.62893   3.64918   3.65902   4.30271   4.31148
 Alpha virt. eigenvalues --    4.32014   4.35311   4.39104   4.39979   4.41862
 Alpha virt. eigenvalues --    4.45707   4.48932   4.50436   4.52556   4.56329
 Alpha virt. eigenvalues --    4.57400   4.61998   4.63269   4.64390   4.73420
 Alpha virt. eigenvalues --    4.78245   4.84256   4.85979   4.89719   4.90642
 Alpha virt. eigenvalues --    4.97601
          Condensed to atoms (all electrons):
              1          2          3          4          5          6
     1  O    8.386511  -0.032721   0.039869  -0.022145   0.031387   0.172999
     2  C   -0.032721  11.507723  -0.696986   0.041482  -0.083048  -3.509898
     3  C    0.039869  -0.696986   8.966868   0.257760  -0.004234  -1.858575
     4  O   -0.022145   0.041482   0.257760   8.301895   0.209791  -0.186091
     5  H    0.031387  -0.083048  -0.004234   0.209791   0.428435   0.023965
     6  C    0.172999  -3.509898  -1.858575  -0.186091   0.023965  17.004402
     7  O   -0.000366   0.019972  -0.107191  -0.009172   0.000286   0.096417
     8  H   -0.000109   0.010998  -0.031725   0.008918  -0.000193   0.048002
     9  C   -0.040818   0.267575  -0.551105   0.008560  -0.008676   0.537986
    10  O    0.000052   0.022022  -0.006920   0.000133  -0.000003  -0.003678
    11  H    0.000222  -0.006038   0.001042   0.000000   0.000000   0.000809
    12  C   -0.142768  -3.964906  -0.385918  -0.001994   0.053360   1.530688
    13  O    0.011373   0.050107  -0.000217  -0.005259   0.000234   0.081367
    14  C   -0.029850   1.588825   0.594346  -0.005217   0.006977  -6.900365
    15  O    0.000143  -0.024638  -0.012545  -0.000660   0.000069  -0.027399
    16  C    0.007622   0.464342  -0.212881  -0.010704   0.001035   0.149889
    17  C   -0.002230  -0.142182  -0.003834   0.001938   0.000033  -0.691404
    18  O    0.000011  -0.009018   0.001427   0.000031   0.000000   0.026413
    19  H   -0.000019   0.003066   0.001178   0.000002   0.000000  -0.016291
    20  C    0.000222   0.011431  -0.026666  -0.000032   0.000005  -0.309876
    21  O    0.000000   0.000099  -0.000113   0.000000   0.000000   0.004616
    22  H    0.000000  -0.000011  -0.000052   0.000000   0.000000   0.000109
    23  C    0.000177   0.012056  -0.036094  -0.000507  -0.000053   0.032942
    24  O    0.000000  -0.000137  -0.000403   0.000003   0.000000  -0.001814
    25  H    0.000000  -0.000013  -0.000079   0.000000   0.000000   0.003652
    26  C    0.000164  -0.058877   0.015479  -0.000316   0.000045  -0.305596
    27  O    0.000000   0.000572   0.000661  -0.000001   0.000000  -0.005297
    28  C   -0.000004   0.002333   0.000552   0.000034   0.000000   0.004146
    29  O    0.000000   0.000003   0.000032   0.000000   0.000000   0.000426
    30  H    0.216059   0.148247  -0.063761   0.000056  -0.002746  -0.015011
    31  H   -0.000827  -0.000738  -0.018289   0.000041  -0.000003   0.019759
    32  H    0.002360   0.046843   0.002695  -0.000118  -0.000002  -0.009195
    33  H    0.004502   0.049300  -0.106062   0.000413  -0.000023  -0.006941
    34  H   -0.046344   0.398862  -0.159127   0.003814  -0.001213   0.019256
    35  H   -0.014709   0.180902   0.281376  -0.062385   0.000119  -0.406630
    36  H   -0.000789   0.062067  -0.113294   0.002760  -0.000147   0.363808
    37  H    0.000490   0.019004  -0.041858  -0.000854   0.000001  -0.120293
    38  H    0.000000   0.000000  -0.000001   0.000000   0.000000   0.000008
    39  H    0.000000  -0.000109  -0.002293   0.000001   0.000000   0.016852
    40  H    0.000000   0.001793   0.004150   0.000003   0.000000  -0.052798
    41  H    0.000000  -0.000280  -0.000106   0.000000   0.000000   0.011389
    42  H   -0.000004   0.000113   0.007250   0.000019   0.000000  -0.010362
    43  H    0.000000   0.000591   0.000628   0.000000   0.000000   0.009240
    44  H    0.000000   0.000114  -0.000046   0.000000   0.000000   0.007401
    45  H    0.000000  -0.000001   0.000016   0.000000   0.000000   0.000552
              7          8          9         10         11         12
     1  O   -0.000366  -0.000109  -0.040818   0.000052   0.000222  -0.142768
     2  C    0.019972   0.010998   0.267575   0.022022  -0.006038  -3.964906
     3  C   -0.107191  -0.031725  -0.551105  -0.006920   0.001042  -0.385918
     4  O   -0.009172   0.008918   0.008560   0.000133   0.000000  -0.001994
     5  H    0.000286  -0.000193  -0.008676  -0.000003   0.000000   0.053360
     6  C    0.096417   0.048002   0.537986  -0.003678   0.000809   1.530688
     7  O    8.309640   0.182268  -0.002581  -0.000008   0.000000  -0.014067
     8  H    0.182268   0.407859   0.000973   0.000000   0.000000  -0.000923
     9  C   -0.002581   0.000973   9.206226   0.138647  -0.020969  -3.016626
    10  O   -0.000008   0.000000   0.138647   8.356081   0.232241  -0.013733
    11  H    0.000000   0.000000  -0.020969   0.232241   0.394416   0.026925
    12  C   -0.014067  -0.000923  -3.016626  -0.013733   0.026925  14.448555
    13  O    0.009151  -0.000992  -0.052078   0.004783   0.000012  -0.219445
    14  C    0.154549  -0.012847  -0.977370  -0.010703  -0.001099  -1.536782
    15  O   -0.010226   0.002351  -0.005974  -0.000898   0.000009  -0.013637
    16  C   -0.038646   0.004559  -0.337666   0.019999  -0.000820  -0.662985
    17  C    0.015538  -0.001527   0.000044  -0.010291   0.000452  -0.007837
    18  O    0.000117  -0.000020  -0.001857  -0.001463   0.000134   0.018487
    19  H   -0.000047   0.000000  -0.003854   0.006371  -0.000092   0.011585
    20  C    0.002050  -0.000631  -0.032410  -0.001502  -0.000093  -0.036965
    21  O    0.000017   0.000000   0.000579   0.000091  -0.000001  -0.000380
    22  H   -0.000002   0.000000  -0.000092  -0.000024   0.000000  -0.000099
    23  C   -0.014349  -0.001610  -0.006727   0.000038  -0.000002  -0.044345
    24  O    0.001587  -0.000016  -0.000039   0.000000   0.000000  -0.000799
    25  H    0.000048   0.000000   0.000004   0.000000   0.000000  -0.000063
    26  C   -0.024301   0.004203  -0.031195  -0.000581  -0.000012  -0.100173
    27  O   -0.000262   0.000001  -0.000378   0.000001   0.000000  -0.000677
    28  C    0.000034   0.000058  -0.001821   0.000182  -0.000003   0.003774
    29  O    0.000000   0.000000   0.000037   0.000000   0.000000   0.000208
    30  H   -0.000015   0.000000   0.006069   0.000123  -0.000003  -0.048235
    31  H    0.000001   0.000000   0.697355  -0.075505   0.000461  -0.321849
    32  H   -0.000004   0.000000   0.446985  -0.054701  -0.008630  -0.122651
    33  H   -0.000117  -0.000001   0.034367   0.000641  -0.000011   0.154334
    34  H   -0.000173   0.000002   0.019482  -0.000010   0.000002  -0.032825
    35  H    0.003556  -0.000266   0.021290   0.000046   0.000000  -0.045355
    36  H   -0.056586  -0.002642   0.010610   0.000003   0.000000   0.004153
    37  H    0.008579  -0.000101  -0.007422  -0.000423   0.000000  -0.066286
    38  H    0.000000   0.000000   0.000001   0.000000   0.000000   0.000000
    39  H    0.001301   0.000030   0.000077   0.000000   0.000000   0.000214
    40  H   -0.000312  -0.000069   0.000030   0.000000   0.000000   0.001817
    41  H    0.000415   0.000001   0.000703   0.000000   0.000000   0.001160
    42  H    0.001648   0.000000   0.000386   0.000004   0.000000   0.004165
    43  H    0.000076   0.000000   0.000898  -0.000002   0.000000   0.000043
    44  H    0.000093   0.000000   0.000107   0.000002   0.000000  -0.000296
    45  H    0.000004   0.000000   0.000056   0.000000   0.000000   0.000043
             13         14         15         16         17         18
     1  O    0.011373  -0.029850   0.000143   0.007622  -0.002230   0.000011
     2  C    0.050107   1.588825  -0.024638   0.464342  -0.142182  -0.009018
     3  C   -0.000217   0.594346  -0.012545  -0.212881  -0.003834   0.001427
     4  O   -0.005259  -0.005217  -0.000660  -0.010704   0.001938   0.000031
     5  H    0.000234   0.006977   0.000069   0.001035   0.000033   0.000000
     6  C    0.081367  -6.900365  -0.027399   0.149889  -0.691404   0.026413
     7  O    0.009151   0.154549  -0.010226  -0.038646   0.015538   0.000117
     8  H   -0.000992  -0.012847   0.002351   0.004559  -0.001527  -0.000020
     9  C   -0.052078  -0.977370  -0.005974  -0.337666   0.000044  -0.001857
    10  O    0.004783  -0.010703  -0.000898   0.019999  -0.010291  -0.001463
    11  H    0.000012  -0.001099   0.000009  -0.000820   0.000452   0.000134
    12  C   -0.219445  -1.536782  -0.013637  -0.662985  -0.007837   0.018487
    13  O    8.332694   0.271413   0.019315   0.038420  -0.015721   0.005381
    14  C    0.271413  15.070828   0.132682  -1.450387   0.419303   0.048223
    15  O    0.019315   0.132682   8.318776   0.005437  -0.002389  -0.011338
    16  C    0.038420  -1.450387   0.005437  20.133517  -4.170050  -0.247546
    17  C   -0.015721   0.419303  -0.002389  -4.170050   9.282895   0.330475
    18  O    0.005381   0.048223  -0.011338  -0.247546   0.330475   8.246581
    19  H    0.011917   0.000565  -0.000954  -0.071035   0.085248   0.218749
    20  C   -0.009062  -0.617446   0.037083  -4.171065   0.121263  -0.081601
    21  O    0.000534   0.020746  -0.001339   0.035816  -0.103669  -0.010905
    22  H   -0.000065   0.005257  -0.000057   0.017847  -0.119898   0.023565
    23  C    0.001535  -0.304840  -0.030977   0.042466  -0.314814   0.005686
    24  O   -0.000263   0.003948  -0.004327  -0.043977   0.010102   0.000127
    25  H   -0.000015  -0.004337  -0.001008   0.043361   0.006395   0.000001
    26  C   -0.046761  -1.310396   0.008506  -6.225505   1.325601   0.038801
    27  O    0.000287  -0.003530   0.003091  -0.130251   0.030864   0.002190
    28  C    0.002307   0.040122   0.019169   1.634446  -0.359767  -0.020977
    29  O    0.000017   0.006417   0.000005   0.045178  -0.003290   0.000107
    30  H   -0.001029   0.003683   0.000006   0.000292  -0.000003  -0.000001
    31  H   -0.004507  -0.004211   0.000288  -0.007591   0.005179   0.000055
    32  H    0.003601  -0.002294  -0.000133   0.001258  -0.001491  -0.000215
    33  H   -0.051412   0.122534   0.001903   0.008425   0.018242  -0.002509
    34  H    0.002545   0.043821  -0.000228  -0.002796   0.002281  -0.000039
    35  H   -0.001977   0.205131  -0.000071   0.013112   0.006467  -0.000057
    36  H    0.004285  -0.068609  -0.016193   0.034243   0.002431  -0.000287
    37  H   -0.050610   0.352106  -0.041822   0.129393  -0.000147  -0.005658
    38  H    0.000000   0.000568   0.000000   0.003131  -0.003991   0.000016
    39  H   -0.000133   0.014555  -0.003507   0.139306   0.012072   0.000073
    40  H    0.000445   0.042686  -0.000689   0.037450  -0.006072  -0.000081
    41  H   -0.000348   0.082799   0.002546   0.097111   0.001756  -0.000832
    42  H   -0.000371   0.069089  -0.048308   0.410012  -0.024005  -0.003065
    43  H    0.000746   0.027724  -0.002887   0.000911   0.386717  -0.040203
    44  H    0.000060   0.008332  -0.001627   0.199372  -0.038421   0.007618
    45  H    0.000018   0.009598  -0.000167   0.161330   0.025466  -0.000480
             19         20         21         22         23         24
     1  O   -0.000019   0.000222   0.000000   0.000000   0.000177   0.000000
     2  C    0.003066   0.011431   0.000099  -0.000011   0.012056  -0.000137
     3  C    0.001178  -0.026666  -0.000113  -0.000052  -0.036094  -0.000403
     4  O    0.000002  -0.000032   0.000000   0.000000  -0.000507   0.000003
     5  H    0.000000   0.000005   0.000000   0.000000  -0.000053   0.000000
     6  C   -0.016291  -0.309876   0.004616   0.000109   0.032942  -0.001814
     7  O   -0.000047   0.002050   0.000017  -0.000002  -0.014349   0.001587
     8  H    0.000000  -0.000631   0.000000   0.000000  -0.001610  -0.000016
     9  C   -0.003854  -0.032410   0.000579  -0.000092  -0.006727  -0.000039
    10  O    0.006371  -0.001502   0.000091  -0.000024   0.000038   0.000000
    11  H   -0.000092  -0.000093  -0.000001   0.000000  -0.000002   0.000000
    12  C    0.011585  -0.036965  -0.000380  -0.000099  -0.044345  -0.000799
    13  O    0.011917  -0.009062   0.000534  -0.000065   0.001535  -0.000263
    14  C    0.000565  -0.617446   0.020746   0.005257  -0.304840   0.003948
    15  O   -0.000954   0.037083  -0.001339  -0.000057  -0.030977  -0.004327
    16  C   -0.071035  -4.171065   0.035816   0.017847   0.042466  -0.043977
    17  C    0.085248   0.121263  -0.103669  -0.119898  -0.314814   0.010102
    18  O    0.218749  -0.081601  -0.010905   0.023565   0.005686   0.000127
    19  H    0.370136   0.004950  -0.000381  -0.001975  -0.001055   0.000000
    20  C    0.004950  10.398693   0.262264   0.078569   0.100736  -0.002855
    21  O   -0.000381   0.262264   8.185007   0.212944  -0.001667  -0.000063
    22  H   -0.001975   0.078569   0.212944   0.415447   0.001293   0.000001
    23  C   -0.001055   0.100736  -0.001667   0.001293   6.683153   0.189331
    24  O    0.000000  -0.002855  -0.000063   0.000001   0.189331   8.215086
    25  H    0.000000  -0.005890  -0.000001   0.000000  -0.037811   0.238858
    26  C   -0.002883   2.173395  -0.005438  -0.005865  -1.258419   0.028513
    27  O   -0.000124  -0.089230   0.005341  -0.001101  -0.055479   0.003305
    28  C    0.002541  -1.200238  -0.143231   0.023662   0.010756  -0.007106
    29  O   -0.000004  -0.166198   0.002030  -0.000116  -0.003068   0.001016
    30  H    0.000000   0.000000   0.000000   0.000000  -0.000002   0.000000
    31  H    0.000119   0.000058   0.000002   0.000000  -0.000011   0.000000
    32  H    0.000047  -0.000059   0.000000   0.000000   0.000006   0.000000
    33  H    0.000349   0.001056   0.000004   0.000000  -0.000143   0.000000
    34  H    0.000003   0.000042   0.000000   0.000000   0.000086   0.000000
    35  H    0.000005   0.000580   0.000000   0.000000  -0.000346   0.000000
    36  H    0.000005   0.001632   0.000000   0.000000   0.007155  -0.000088
    37  H   -0.000732   0.016891   0.000006  -0.000002  -0.001156  -0.000015
    38  H    0.000000   0.049713  -0.000887   0.000018  -0.001235   0.000004
    39  H    0.000000  -0.021867  -0.000002   0.000000   0.501657  -0.054850
    40  H    0.000000   0.007649  -0.000014   0.000000   0.421006  -0.055188
    41  H    0.000048  -0.084335  -0.000034  -0.000002  -0.018988  -0.006921
    42  H    0.000148  -0.052477  -0.000168  -0.000033   0.001389   0.000205
    43  H   -0.008622  -0.097639  -0.000893  -0.000226   0.008757   0.000028
    44  H    0.000007   0.125677  -0.029116  -0.012555   0.008913  -0.000026
    45  H    0.000032  -0.313361   0.008814  -0.000066   0.003032  -0.000138
             25         26         27         28         29         30
     1  O    0.000000   0.000164   0.000000  -0.000004   0.000000   0.216059
     2  C   -0.000013  -0.058877   0.000572   0.002333   0.000003   0.148247
     3  C   -0.000079   0.015479   0.000661   0.000552   0.000032  -0.063761
     4  O    0.000000  -0.000316  -0.000001   0.000034   0.000000   0.000056
     5  H    0.000000   0.000045   0.000000   0.000000   0.000000  -0.002746
     6  C    0.003652  -0.305596  -0.005297   0.004146   0.000426  -0.015011
     7  O    0.000048  -0.024301  -0.000262   0.000034   0.000000  -0.000015
     8  H    0.000000   0.004203   0.000001   0.000058   0.000000   0.000000
     9  C    0.000004  -0.031195  -0.000378  -0.001821   0.000037   0.006069
    10  O    0.000000  -0.000581   0.000001   0.000182   0.000000   0.000123
    11  H    0.000000  -0.000012   0.000000  -0.000003   0.000000  -0.000003
    12  C   -0.000063  -0.100173  -0.000677   0.003774   0.000208  -0.048235
    13  O   -0.000015  -0.046761   0.000287   0.002307   0.000017  -0.001029
    14  C   -0.004337  -1.310396  -0.003530   0.040122   0.006417   0.003683
    15  O   -0.001008   0.008506   0.003091   0.019169   0.000005   0.000006
    16  C    0.043361  -6.225505  -0.130251   1.634446   0.045178   0.000292
    17  C    0.006395   1.325601   0.030864  -0.359767  -0.003290  -0.000003
    18  O    0.000001   0.038801   0.002190  -0.020977   0.000107  -0.000001
    19  H    0.000000  -0.002883  -0.000124   0.002541  -0.000004   0.000000
    20  C   -0.005890   2.173395  -0.089230  -1.200238  -0.166198   0.000000
    21  O   -0.000001  -0.005438   0.005341  -0.143231   0.002030   0.000000
    22  H    0.000000  -0.005865  -0.001101   0.023662  -0.000116   0.000000
    23  C   -0.037811  -1.258419  -0.055479   0.010756  -0.003068  -0.000002
    24  O    0.238858   0.028513   0.003305  -0.007106   0.001016   0.000000
    25  H    0.433827  -0.013606  -0.005641   0.003750  -0.000012   0.000000
    26  C   -0.013606  13.564295   0.234284  -1.283355  -0.049753   0.000001
    27  O   -0.005641   0.234284   8.511921   0.033923  -0.068334   0.000000
    28  C    0.003750  -1.283355   0.033923   5.945309   0.388204   0.000000
    29  O   -0.000012  -0.049753  -0.068334   0.388204   8.154061   0.000000
    30  H    0.000000   0.000001   0.000000   0.000000   0.000000   0.405597
    31  H    0.000000   0.000204   0.000000  -0.000020   0.000000   0.000062
    32  H    0.000000  -0.000063   0.000000   0.000001   0.000000  -0.001114
    33  H    0.000000   0.003047  -0.000001  -0.000087   0.000000  -0.000044
    34  H    0.000000  -0.000106   0.000000  -0.000005   0.000000  -0.011316
    35  H    0.000000   0.000134   0.000000   0.000014   0.000000   0.000407
    36  H    0.000000  -0.003687   0.000017  -0.000080   0.000000   0.000012
    37  H    0.000000   0.047099   0.000166   0.000075  -0.000006   0.000001
    38  H    0.000001  -0.006038  -0.004738  -0.022626   0.237056   0.000000
    39  H    0.006938  -0.309951  -0.001835   0.012644  -0.000159   0.000000
    40  H   -0.005110  -0.093144   0.008855  -0.002593   0.000067   0.000000
    41  H    0.004342   0.132874  -0.062985   0.053692  -0.000972   0.000000
    42  H    0.000009  -0.134231   0.004077   0.020869  -0.000495   0.000000
    43  H    0.000000  -0.032372   0.003380   0.009532  -0.000027   0.000000
    44  H    0.000000  -0.038213   0.005303  -0.004371   0.000038   0.000000
    45  H    0.000003  -0.077947  -0.075591   0.536154  -0.057948   0.000000
             31         32         33         34         35         36
     1  O   -0.000827   0.002360   0.004502  -0.046344  -0.014709  -0.000789
     2  C   -0.000738   0.046843   0.049300   0.398862   0.180902   0.062067
     3  C   -0.018289   0.002695  -0.106062  -0.159127   0.281376  -0.113294
     4  O    0.000041  -0.000118   0.000413   0.003814  -0.062385   0.002760
     5  H   -0.000003  -0.000002  -0.000023  -0.001213   0.000119  -0.000147
     6  C    0.019759  -0.009195  -0.006941   0.019256  -0.406630   0.363808
     7  O    0.000001  -0.000004  -0.000117  -0.000173   0.003556  -0.056586
     8  H    0.000000   0.000000  -0.000001   0.000002  -0.000266  -0.002642
     9  C    0.697355   0.446985   0.034367   0.019482   0.021290   0.010610
    10  O   -0.075505  -0.054701   0.000641  -0.000010   0.000046   0.000003
    11  H    0.000461  -0.008630  -0.000011   0.000002   0.000000   0.000000
    12  C   -0.321849  -0.122651   0.154334  -0.032825  -0.045355   0.004153
    13  O   -0.004507   0.003601  -0.051412   0.002545  -0.001977   0.004285
    14  C   -0.004211  -0.002294   0.122534   0.043821   0.205131  -0.068609
    15  O    0.000288  -0.000133   0.001903  -0.000228  -0.000071  -0.016193
    16  C   -0.007591   0.001258   0.008425  -0.002796   0.013112   0.034243
    17  C    0.005179  -0.001491   0.018242   0.002281   0.006467   0.002431
    18  O    0.000055  -0.000215  -0.002509  -0.000039  -0.000057  -0.000287
    19  H    0.000119   0.000047   0.000349   0.000003   0.000005   0.000005
    20  C    0.000058  -0.000059   0.001056   0.000042   0.000580   0.001632
    21  O    0.000002   0.000000   0.000004   0.000000   0.000000   0.000000
    22  H    0.000000   0.000000   0.000000   0.000000   0.000000   0.000000
    23  C   -0.000011   0.000006  -0.000143   0.000086  -0.000346   0.007155
    24  O    0.000000   0.000000   0.000000   0.000000   0.000000  -0.000088
    25  H    0.000000   0.000000   0.000000   0.000000   0.000000   0.000000
    26  C    0.000204  -0.000063   0.003047  -0.000106   0.000134  -0.003687
    27  O    0.000000   0.000000  -0.000001   0.000000   0.000000   0.000017
    28  C   -0.000020   0.000001  -0.000087  -0.000005   0.000014  -0.000080
    29  O    0.000000   0.000000   0.000000   0.000000   0.000000   0.000000
    30  H    0.000062  -0.001114  -0.000044  -0.011316   0.000407   0.000012
    31  H    0.605212  -0.045019   0.007293   0.002447  -0.000004  -0.000003
    32  H   -0.045019   0.610335  -0.003006  -0.000245  -0.000039   0.000000
    33  H    0.007293  -0.003006   0.607272   0.005471   0.005874   0.000046
    34  H    0.002447  -0.000245   0.005471   0.587808   0.007097   0.002118
    35  H   -0.000004  -0.000039   0.005874   0.007097   0.658289   0.009305
    36  H   -0.000003   0.000000   0.000046   0.002118   0.009305   0.607957
    37  H    0.000018  -0.000017   0.008097  -0.000026   0.003401   0.004794
    38  H    0.000000   0.000000   0.000000   0.000000   0.000000   0.000000
    39  H    0.000000   0.000000   0.000000   0.000000   0.000000  -0.000021
    40  H    0.000000   0.000000   0.000000   0.000000   0.000002   0.000539
    41  H    0.000000   0.000000   0.000000   0.000000   0.000000  -0.000020
    42  H    0.000000   0.000000  -0.000014   0.000000  -0.000001   0.000048
    43  H   -0.000002   0.000000  -0.000007   0.000000   0.000000  -0.000001
    44  H    0.000000   0.000000  -0.000001   0.000000   0.000000   0.000000
    45  H    0.000000   0.000000   0.000000   0.000000   0.000000   0.000000
             37         38         39         40         41         42
     1  O    0.000490   0.000000   0.000000   0.000000   0.000000  -0.000004
     2  C    0.019004   0.000000  -0.000109   0.001793  -0.000280   0.000113
     3  C   -0.041858  -0.000001  -0.002293   0.004150  -0.000106   0.007250
     4  O   -0.000854   0.000000   0.000001   0.000003   0.000000   0.000019
     5  H    0.000001   0.000000   0.000000   0.000000   0.000000   0.000000
     6  C   -0.120293   0.000008   0.016852  -0.052798   0.011389  -0.010362
     7  O    0.008579   0.000000   0.001301  -0.000312   0.000415   0.001648
     8  H   -0.000101   0.000000   0.000030  -0.000069   0.000001   0.000000
     9  C   -0.007422   0.000001   0.000077   0.000030   0.000703   0.000386
    10  O   -0.000423   0.000000   0.000000   0.000000   0.000000   0.000004
    11  H    0.000000   0.000000   0.000000   0.000000   0.000000   0.000000
    12  C   -0.066286   0.000000   0.000214   0.001817   0.001160   0.004165
    13  O   -0.050610   0.000000  -0.000133   0.000445  -0.000348  -0.000371
    14  C    0.352106   0.000568   0.014555   0.042686   0.082799   0.069089
    15  O   -0.041822   0.000000  -0.003507  -0.000689   0.002546  -0.048308
    16  C    0.129393   0.003131   0.139306   0.037450   0.097111   0.410012
    17  C   -0.000147  -0.003991   0.012072  -0.006072   0.001756  -0.024005
    18  O   -0.005658   0.000016   0.000073  -0.000081  -0.000832  -0.003065
    19  H   -0.000732   0.000000   0.000000   0.000000   0.000048   0.000148
    20  C    0.016891   0.049713  -0.021867   0.007649  -0.084335  -0.052477
    21  O    0.000006  -0.000887  -0.000002  -0.000014  -0.000034  -0.000168
    22  H   -0.000002   0.000018   0.000000   0.000000  -0.000002  -0.000033
    23  C   -0.001156  -0.001235   0.501657   0.421006  -0.018988   0.001389
    24  O   -0.000015   0.000004  -0.054850  -0.055188  -0.006921   0.000205
    25  H    0.000000   0.000001   0.006938  -0.005110   0.004342   0.000009
    26  C    0.047099  -0.006038  -0.309951  -0.093144   0.132874  -0.134231
    27  O    0.000166  -0.004738  -0.001835   0.008855  -0.062985   0.004077
    28  C    0.000075  -0.022626   0.012644  -0.002593   0.053692   0.020869
    29  O   -0.000006   0.237056  -0.000159   0.000067  -0.000972  -0.000495
    30  H    0.000001   0.000000   0.000000   0.000000   0.000000   0.000000
    31  H    0.000018   0.000000   0.000000   0.000000   0.000000   0.000000
    32  H   -0.000017   0.000000   0.000000   0.000000   0.000000   0.000000
    33  H    0.008097   0.000000   0.000000   0.000000   0.000000  -0.000014
    34  H   -0.000026   0.000000   0.000000   0.000000   0.000000   0.000000
    35  H    0.003401   0.000000   0.000000   0.000002   0.000000  -0.000001
    36  H    0.004794   0.000000  -0.000021   0.000539  -0.000020   0.000048
    37  H    0.588649   0.000000  -0.000008   0.000036  -0.000058   0.003440
    38  H    0.000000   0.402364   0.000001   0.000000  -0.000024   0.000002
    39  H   -0.000008   0.000001   0.569919  -0.039347   0.007247   0.005105
    40  H    0.000036   0.000000  -0.039347   0.581698  -0.005962  -0.000348
    41  H   -0.000058  -0.000024   0.007247  -0.005962   0.656195   0.006334
    42  H    0.003440   0.000002   0.005105  -0.000348   0.006334   0.593984
    43  H    0.000099  -0.000004   0.000002  -0.000024   0.002509   0.004348
    44  H   -0.000071  -0.000059  -0.000021   0.000000   0.000009   0.001044
    45  H   -0.000001  -0.008687   0.000004   0.000014   0.004993   0.000001
             43         44         45
     1  O    0.000000   0.000000   0.000000
     2  C    0.000591   0.000114  -0.000001
     3  C    0.000628  -0.000046   0.000016
     4  O    0.000000   0.000000   0.000000
     5  H    0.000000   0.000000   0.000000
     6  C    0.009240   0.007401   0.000552
     7  O    0.000076   0.000093   0.000004
     8  H    0.000000   0.000000   0.000000
     9  C    0.000898   0.000107   0.000056
    10  O   -0.000002   0.000002   0.000000
    11  H    0.000000   0.000000   0.000000
    12  C    0.000043  -0.000296   0.000043
    13  O    0.000746   0.000060   0.000018
    14  C    0.027724   0.008332   0.009598
    15  O   -0.002887  -0.001627  -0.000167
    16  C    0.000911   0.199372   0.161330
    17  C    0.386717  -0.038421   0.025466
    18  O   -0.040203   0.007618  -0.000480
    19  H   -0.008622   0.000007   0.000032
    20  C   -0.097639   0.125677  -0.313361
    21  O   -0.000893  -0.029116   0.008814
    22  H   -0.000226  -0.012555  -0.000066
    23  C    0.008757   0.008913   0.003032
    24  O    0.000028  -0.000026  -0.000138
    25  H    0.000000   0.000000   0.000003
    26  C   -0.032372  -0.038213  -0.077947
    27  O    0.003380   0.005303  -0.075591
    28  C    0.009532  -0.004371   0.536154
    29  O   -0.000027   0.000038  -0.057948
    30  H    0.000000   0.000000   0.000000
    31  H   -0.000002   0.000000   0.000000
    32  H    0.000000   0.000000   0.000000
    33  H   -0.000007  -0.000001   0.000000
    34  H    0.000000   0.000000   0.000000
    35  H    0.000000   0.000000   0.000000
    36  H   -0.000001   0.000000   0.000000
    37  H    0.000099  -0.000071  -0.000001
    38  H   -0.000004  -0.000059  -0.008687
    39  H    0.000002  -0.000021   0.000004
    40  H   -0.000024   0.000000   0.000014
    41  H    0.002509   0.000009   0.004993
    42  H    0.004348   0.001044   0.000001
    43  H    0.556270   0.004228   0.002354
    44  H    0.004228   0.595336   0.006425
    45  H    0.002354   0.006425   0.668062
 Mulliken atomic charges:
              1
     1  O   -0.540460
     2  C   -0.380840
     3  C    0.265043
     4  O   -0.532197
     5  H    0.344599
     6  C    0.270420
     7  O   -0.528921
     8  H    0.383449
     9  C   -0.299388
    10  O   -0.601018
    11  H    0.381047
    12  C    0.543108
    13  O   -0.392280
    14  C   -0.106547
    15  O   -0.287384
    16  C   -0.095376
    17  C   -0.067731
    18  O   -0.536112
    19  H    0.390998
    20  C   -0.072461
    21  O   -0.440609
    22  H    0.363531
    23  C    0.101530
    24  O   -0.513091
    25  H    0.332400
    26  C   -0.157859
    27  O   -0.342784
    28  C    0.297999
    29  O   -0.484521
    30  H    0.362664
    31  H    0.140025
    32  H    0.134869
    33  H    0.137210
    34  H    0.159319
    35  H    0.134732
    36  H    0.144461
    37  H    0.155226
    38  H    0.355407
    39  H    0.146105
    40  H    0.153513
    41  H    0.115744
    42  H    0.140190
    43  H    0.163829
    44  H    0.154742
    45  H    0.107419
 Sum of Mulliken atomic charges =   0.00000
 Mulliken charges with hydrogens summed into heavy atoms:
              1
     1  O   -0.177796
     2  C   -0.221521
     3  C    0.399775
     4  O   -0.187598
     6  C    0.414882
     7  O   -0.145473
     9  C   -0.024494
    10  O   -0.219971
    12  C    0.680317
    13  O   -0.392280
    14  C    0.048679
    15  O   -0.287384
    16  C    0.044814
    17  C    0.096098
    18  O   -0.145114
    20  C    0.082280
    21  O   -0.077077
    23  C    0.401148
    24  O   -0.180691
    26  C   -0.042115
    27  O   -0.342784
    28  C    0.405418
    29  O   -0.129114
 Sum of Mulliken charges with hydrogens summed into heavy atoms =   0.00000
 APT atomic charges:
              1
     1  O   -0.633349
     2  C    0.466748
     3  C    0.340453
     4  O   -0.673683
     5  H    0.257230
     6  C    0.398128
     7  O   -0.576965
     8  H    0.269267
     9  C    0.476123
    10  O   -0.710616
    11  H    0.292248
    12  C    0.419590
    13  O   -0.761706
    14  C    0.842074
    15  O   -0.817762
    16  C    0.397748
    17  C    0.367341
    18  O   -0.641319
    19  H    0.287159
    20  C    0.325370
    21  O   -0.611935
    22  H    0.291977
    23  C    0.483888
    24  O   -0.627802
    25  H    0.240027
    26  C    0.440286
    27  O   -0.814019
    28  C    0.959252
    29  O   -0.688989
    30  H    0.261602
    31  H   -0.043710
    32  H   -0.031818
    33  H   -0.027455
    34  H   -0.040546
    35  H   -0.060924
    36  H   -0.039449
    37  H   -0.020432
    38  H    0.283437
    39  H   -0.010406
    40  H   -0.018633
    41  H   -0.082763
    42  H   -0.028485
    43  H   -0.009689
    44  H   -0.028542
    45  H   -0.098951
 Sum of APT charges=   0.00000
 APT Atomic charges with hydrogens summed into heavy atoms:
[...]
 00000884,-0.00000302,-0.00005916,0.00002128,-0.00001746,0.00068416,0.0
 0012747,0.00014426,-0.00202452,-0.00125763,-0.00452691,-0.01986894,0.0
 0831159,0.01036644,-0.23857802,0.15069500,-0.03188310,0.00718405,-0.00
 755174,0.00042262,0.00107101,0.00092793,0.00056401,0.00006534,-0.00005
 959,0.00004508,-0.00032743,0.00022265,0.00042236,0.00004419,-0.0003007
 3,-0.00001585,-0.00002099,0.00004528,0.00013442,0.00014959,0.00149206,
 0.00019270,0.00049267,-0.00035186,0.00004571,0.00017824,0.00021556,0.0
 0010955,-0.01644010,0.01048088,-0.00253945,0.00218337,-0.00020189,-0.0
 0037805,-0.00041143,-0.00043372,-0.00016984,0.00013214,0.00005429,-0.0
 0004632,-0.00000138,-0.00000346,-0.00000494,0.00000941,-0.00000271,-0.
 00000966,0.00000849,0.00003050,0.00001204,0.00002732,0.00002662,0.0000
 6828,0.00000205,-0.00000647,-0.00000937,0.00002537,0.00000212,0.000032
 55,0.00013341,0.00009457,-0.00018572,0.00171518,-0.00015779,-0.0004718
 3,-0.00000878,0.00000995,0.00001252,0.00017070,-0.00097859,-0.00009092
 ,0.00011250,0.00007655,0.00002915,-0.00165401,-0.00109260,-0.00197247,
 0.26446156,0.00000163,-0.00001094,0.00003080,-0.00000802,0.00003338,-0
 .00002815,0.00008297,0.00011940,-0.00007300,-0.00002277,-0.00005616,-0
 .00000653,-0.00000109,0.00001154,-0.00001527,-0.00043970,0.00028260,-0
 .00024427,0.00010718,-0.00025974,-0.00000769,-0.00002520,-0.00001924,-
 0.00005737,-0.00001490,-0.00005213,0.00001469,-0.00001452,0.00005469,-
 0.00001726,0.00000964,-0.00001119,0.00000737,0.00000497,-0.00004343,-0
 .00019001,-0.00042141,0.00015609,0.00033856,0.00148290,0.00129308,0.00
 034331,-0.00445638,0.00526999,-0.00185419,0.15111722,-0.16269923,0.024
 72503,0.02643375,-0.01945594,0.00641563,-0.00026776,0.00351676,-0.0003
 3338,0.00015563,0.00025879,0.00012112,0.00165105,-0.00074090,-0.000980
 64,-0.00109764,0.00037522,0.00037611,0.00009739,-0.00014825,0.00002417
 ,-0.00112501,0.00119385,-0.00004882,0.00028602,-0.00006214,0.00014509,
 0.00012127,-0.00001766,0.00007248,-0.01044988,0.00840621,-0.00152219,0
 .00063370,-0.00004288,0.00086689,0.00003558,-0.00024447,-0.00001043,-0
 .00000330,0.00010569,0.00005335,-0.00000093,-0.00000104,-0.00000555,-0
 .00000893,0.00000808,0.00000394,0.00000209,0.00000884,0.00000306,-0.00
 001808,-0.00001666,-0.00002722,-0.00000351,-0.00000561,0.00000961,-0.0
 0003165,0.00000745,-0.00001353,-0.00001152,-0.00014778,0.00008831,-0.0
 0048444,0.00015884,-0.00090868,-0.00000929,0.00000207,0.00000538,0.000
 39647,-0.00001207,-0.00015700,-0.00002218,0.00002299,0.00007193,-0.002
 13938,-0.00047170,-0.00170614,-0.15801537,0.16734705,-0.00001732,0.000
 01559,-0.00006575,-0.00002085,-0.00004157,0.00005877,0.00003331,0.0000
 2782,0.00008992,-0.00002625,0.00003930,-0.00002775,-0.00000042,-0.0000
 0515,-0.00000099,0.00075030,-0.00040226,-0.00022018,-0.00026283,0.0001
 2555,0.00012343,-0.00007446,0.00002302,0.00008543,-0.00000351,0.000081
 03,-0.00010564,-0.00003255,-0.00005201,0.00003417,0.00000259,0.0000072
 2,0.00000364,0.00001126,-0.00007229,0.00009710,-0.00093975,-0.00053276
 ,-0.00086112,0.00701506,-0.00169229,0.00092072,0.02997084,-0.01438982,
 -0.01177758,-0.03799283,0.02730405,-0.04677210,-0.00623074,0.00185037,
 0.00118498,0.00116928,-0.00006853,0.00031776,0.00003023,-0.00006989,-0
 .00017499,-0.00050672,0.00118982,-0.00033299,0.00005892,-0.00023404,0.
 00001941,-0.00001977,0.00002743,0.00008795,0.00062590,0.00143773,0.000
 51910,0.00032880,-0.00024488,0.00001171,0.00020624,0.00022824,0.000050
 44,-0.02210815,0.01528105,-0.00146181,0.00196167,-0.00046123,0.0014465
 2,-0.00029575,0.00001237,-0.00019194,0.00009605,-0.00002454,-0.0001530
 3,-0.00000200,0.00000462,-0.00000146,0.00000258,0.00000953,0.00001252,
 -0.00000467,-0.00004192,-0.00001204,-0.00006722,-0.00001284,-0.0000752
 9,-0.00000603,0.00000746,0.00001439,-0.00005493,-0.00001087,-0.0000576
 0,-0.00020323,0.00003468,0.00002662,-0.00004022,-0.00056717,-0.0020518
 6,0.00000761,0.00001679,0.00000733,0.00016342,-0.00067799,0.00014263,-
 0.00008285,-0.00024509,-0.00005946,-0.00308302,-0.00179171,-0.00330999
 ,0.02863420,-0.02750223,0.06251141,-0.00000027,0.00000906,-0.00000416,
 0.00003155,-0.00002190,0.00002936,-0.00002407,-0.00001287,0.00001805,0
 .00001170,0.00003308,-0.00001026,-0.00000352,-0.00000735,0.00000434,0.
 00012598,-0.00010311,-0.00005137,-0.00000686,0.00002968,0.00006305,-0.
 00001427,0.00000148,0.00001060,-0.00007721,-0.00000681,0.00006752,0.00
 007148,-0.00007732,-0.00003853,-0.00000308,0.00002250,-0.00003751,-0.0
 0012429,-0.00003033,0.00003060,0.00015757,0.00011230,0.00010766,-0.000
 18483,0.00003735,-0.00017367,0.00074166,0.00083706,-0.00089973,0.00855
 800,-0.00801068,0.00157439,-0.23451509,0.15736621,-0.01505699,-0.02196
 374,0.00765193,-0.00989561,-0.00028547,0.00034259,0.00086915,-0.009736
 18,0.00914145,0.00099463,0.00187755,0.00009378,-0.00084071,-0.00013178
 ,0.00040054,-0.00056287,0.00031741,-0.00010334,0.00014481,-0.00007027,
 0.00004212,-0.00002100,-0.00000151,0.00001027,-0.00001936,0.00095195,0
 .00021016,0.00038689,0.00008241,0.00017355,0.00015286,-0.00082755,0.00
 002137,-0.00095552,0.00031520,-0.00031134,-0.00007878,0.00000132,-0.00
 000111,0.00000791,0.00002489,-0.00000210,-0.00000969,0.00000616,0.0000
 0350,-0.00000791,0.00004158,-0.00004201,0.00003949,0.00000588,0.000008
 84,-0.00001141,0.00001262,-0.00000485,0.00000026,0.00000391,0.00003357
 ,-0.00002480,-0.00000927,-0.00016697,0.00004157,0.00001673,0.00004266,
 0.00007618,-0.00015893,-0.00003744,-0.00002972,-0.00000503,-0.00000900
 ,-0.00000245,0.00008038,0.00003046,0.00002899,-0.00046418,-0.00241556,
 0.00059029,0.25494656,-0.00000614,0.00001900,-0.00003781,-0.00000680,-
 0.00004962,0.00001622,0.00000741,0.00001994,0.00000847,-0.00000763,0.0
 0002728,-0.00001366,0.00000187,-0.00000517,0.00000002,0.00002517,-0.00
 014714,-0.00015033,-0.00006186,0.00002964,0.00008241,-0.00002026,0.000
 01218,0.00002551,0.00000730,0.00004019,0.00000894,0.00001755,-0.000075
 02,0.00001659,-0.00000365,0.00001524,-0.00001532,0.00003785,0.00011029
 ,0.00010409,-0.00004928,0.00014483,-0.00011271,0.00023393,-0.00017606,
 -0.00007465,-0.00085120,0.00313839,-0.00041524,0.02418594,-0.01880146,
 -0.00059619,0.16310484,-0.17673253,0.01072441,-0.01727289,0.00866043,-
 0.00493411,-0.00058309,0.00242323,0.00097440,-0.00001239,-0.00191023,0
 .00111995,-0.00168803,0.00118064,0.00076125,-0.00020190,0.00006107,-0.
 00028685,-0.00033041,0.00007928,0.00000269,-0.00014887,-0.00002054,-0.
 00003690,-0.00002426,-0.00005991,-0.00001368,0.00241481,0.00033235,0.0
 0088826,-0.00048735,0.00001842,-0.00023462,0.00091183,-0.00022157,0.00
 017235,-0.00023964,0.00017702,0.00009138,-0.00000009,0.00000106,0.0000
 0078,0.00000290,0.00000520,0.00000126,-0.00000724,-0.00000898,-0.00000
 341,-0.00000684,-0.00002246,-0.00000869,-0.00000054,0.00000669,0.00000
 054,-0.00000395,-0.00000209,-0.00000390,-0.00001972,0.00000746,0.00001
 464,-0.00013439,-0.00008700,-0.00015044,0.00000786,-0.00005700,-0.0000
 4315,-0.00004087,0.00030362,-0.00002448,0.00000398,0.00000339,0.000014
 87,-0.00117200,0.00043508,-0.00036796,-0.00203170,-0.00435675,0.000974
 30,-0.16491210,0.18514870,0.00001391,-0.00001409,0.00005420,0.00003407
 ,0.00001338,-0.00000705,-0.00002079,-0.00001286,-0.00000883,0.00001004
 ,-0.00000812,0.00001938,-0.00000274,0.00000162,0.00000223,0.00003514,0
 .00004108,0.00003292,0.00002684,-0.00004980,-0.00001049,0.00000306,-0.
 00000331,-0.00000775,-0.00010777,-0.00001690,0.00004700,0.00012683,-0.
 00000637,-0.00001305,-0.00002085,-0.00000067,-0.00001393,-0.00020472,-
 0.00004693,-0.00011680,0.00028944,-0.00004321,0.00015373,-0.00061999,0
 .00023370,-0.00031490,-0.00066159,-0.00156505,0.00092005,-0.00630657,0
 .00845467,0.00024731,-0.01141889,0.01113501,-0.04468222,-0.02524861,0.
 00830953,-0.00804004,-0.00202274,0.00153629,0.00169849,0.02323032,-0.0
 1949158,0.00178189,-0.00262600,-0.00114380,0.00236516,0.00025007,-0.00
 025066,-0.00046598,0.00014032,-0.00005987,0.00007746,0.00005661,0.0000
 5530,-0.00001994,-0.00000464,0.00000416,0.00000780,0.00010716,-0.00050
 792,-0.00009400,-0.00033677,0.00012069,-0.00036461,0.00166765,-0.00086
 787,0.00170283,-0.00043648,0.00037964,0.00002853,0.00000209,-0.0000008
 9,-0.00000117,0.00003796,-0.00001151,-0.00003134,0.00001903,0.00001100
 ,0.00000400,0.00005905,-0.00003552,0.00005301,0.00000840,0.00000668,-0
 .00001311,0.00001601,-0.00000485,0.00000567,0.00002883,0.00002434,-0.0
 0001618,0.00007882,-0.00013837,0.00009219,-0.00004497,-0.00001618,-0.0
 0004052,-0.00003396,-0.00007448,-0.00000026,0.00000690,0.00000705,-0.0
 0002070,0.00013489,-0.00020762,0.00019847,0.00033610,0.00151542,0.0001
 7585,0.02172969,-0.00806078,0.04960727,-0.00000357,-0.00001251,-0.0000
 1429,0.00000280,0.00001717,0.00001179,-0.00000713,-0.00001391,0.000020
 66,0.00000911,0.00000219,-0.00002367,-0.00000294,0.00000144,0.00000208
 ,0.00000114,0.00002715,0.00002455,0.00002750,-0.00001105,-0.00001032,-
 0.00000311,-0.00000697,-0.00000392,-0.00000742,0.00001773,-0.00000490,
 0.00000492,-0.00002518,0.00000394,-0.00000347,0.00000482,-0.00000456,-
 0.00000533,-0.00000308,0.00002215,0.00006652,-0.00006883,-0.00005379,-
 0.00009203,0.00012982,0.00010498,0.00050512,-0.00056715,-0.00004184,-0
 .00094551,0.00200991,-0.00008041,-0.01489423,0.00894803,-0.00320568,0.
 00195500,-0.00126779,-0.00109779,0.00023692,-0.00022486,-0.00031845,-0
 .26934973,0.14633280,-0.02401221,0.01373435,-0.01109949,0.00190949,0.0
 0272713,0.00026370,0.00060365,-0.00009674,0.00007751,-0.00000452,0.000
 04460,-0.00003053,0.00004202,0.00001571,0.00001872,-0.00001093,-0.0003
 5966,-0.00016704,-0.00031764,0.00141495,-0.00122681,0.00111304,-0.0160
 3614,0.01353145,-0.00189753,0.00169126,-0.00104335,-0.00023584,-0.0000
 0059,0.00000282,0.00000306,0.00000478,-0.00000312,-0.00000337,0.000000
 62,-0.00000206,-0.00000091,0.00000683,0.00000078,0.00000469,0.00000243
 ,-0.00000137,-0.00000474,0.00000746,0.00000056,0.00000254,0.00000893,0
 .00000236,-0.00000779,0.00001780,0.00001306,0.00005040,0.00014149,0.00
 007266,0.00023372,0.00000215,-0.00009311,0.00001297,0.00000350,-0.0000
 3994,0.00001321,0.00023026,0.00006879,0.00005879,0.00050479,-0.0009239
 4,0.00033958,-0.00049513,-0.00034283,0.00238388,0.28043907,0.00000374,
 0.00000853,0.00001697,-0.00000344,-0.00000362,-0.00000981,0.00000795,0
 .00000858,-0.00002030,-0.00000651,-0.00000481,0.00001810,0.00000196,-0
 .00000060,-0.00000190,-0.00000835,0.00001495,-0.00001709,-0.00000335,-
 0.00000973,0.00001404,-0.00000110,0.00000227,-0.00000162,-0.00001133,-
 0.00003783,0.00000934,0.00000085,0.00006074,-0.00002257,0.00000456,-0.
 00001375,0.00001479,0.00000161,-0.00001553,-0.00003593,-0.00001967,0.0
 0003039,0.00006532,0.00003492,-0.00003107,-0.00010226,-0.00007640,0.00
 029115,-0.00005646,-0.00060379,-0.00071218,0.00063528,0.00143962,0.001
 20510,-0.00097106,0.00041074,0.00047332,0.00000551,-0.00029359,-0.0000
 1474,0.00011136,0.14223175,-0.13349919,0.01324749,0.01836695,-0.034366
 30,0.00489814,0.00228395,-0.00185705,0.00291709,0.00001568,0.00004070,
 0.00004001,-0.00001664,-0.00000910,-0.00001704,0.00000606,0.00000457,-
 0.00000117,0.00007492,0.00003963,0.00007825,0.00131902,0.00089149,0.00
 005466,-0.01065933,0.00871619,-0.00099199,0.00113163,-0.00002695,0.000
 65084,0.00000045,-0.00000362,-0.00000217,-0.00000061,0.00000222,-0.000
 00074,0.00000412,0.00000572,-0.00000176,-0.00000362,0.00000400,0.00000
 006,-0.00000221,-0.00000070,0.00000308,-0.00000460,0.00000079,-0.00000
 018,-0.00000499,-0.00000268,0.00000112,0.00000236,0.00000755,-0.000015
 72,-0.00003067,0.00000493,0.00024758,-0.00000601,-0.00001025,0.0000082
 3,0.00000051,-0.00000684,-0.00000250,0.00000606,-0.00003957,-0.0000264
 6,-0.00078505,0.00021474,0.00052866,-0.00021781,0.00013218,0.00052338,
 -0.15278697,0.15920463,-0.00000346,0.00000153,-0.00001101,-0.00001103,
 -0.00000312,-0.00000559,0.00001539,0.00000859,-0.00000103,-0.00000729,
 -0.00000421,-0.00000277,0.00000133,0.00000135,-0.00000272,-0.00002225,
 -0.00000919,-0.00001252,-0.00000774,0.00000637,-0.00000938,-0.00000021
 ,0.00000525,0.00000194,0.00003083,0.00001509,-0.00002272,-0.00003145,0
 .00000002,0.00001663,0.00000418,-0.00000179,0.00000511,0.00006437,0.00
 002652,0.00001926,-0.00008353,-0.00000373,-0.00005327,0.00019127,-0.00
 003658,0.00011338,-0.00037529,0.00048643,-0.00020339,0.00038016,-0.001
 16889,0.00042557,0.02613207,-0.01505128,0.00129176,-0.00078669,0.00126
 754,0.00276402,0.00015056,0.00017493,0.00057835,-0.02530879,0.01330167
 ,-0.04925866,-0.00620386,0.00749382,0.00154260,0.00047107,-0.00116250,
 0.00034724,-0.00001455,-0.00001616,0.00013131,0.00002184,0.00002648,0.
 00002525,0.00000461,0.00000733,-0.00001346,0.00021610,-0.00003150,-0.0
 0059044,0.00173308,-0.00102149,0.00105480,-0.02405064,0.01643247,-0.00
 187205,0.00225142,-0.00018002,0.00156464,-0.00000070,0.00000135,-0.000
 00186,-0.00001011,0.00000272,0.00000615,-0.00000423,-0.00000410,0.0000
 0121,-0.00001551,0.00000790,-0.00001450,-0.00000275,-0.00000267,0.0000
 0507,-0.00000895,0.00000351,-0.00000348,-0.00000650,-0.00000921,0.0000
 0824,-0.00000390,0.00001672,-0.00006046,0.00023416,0.00005713,0.000331
 52,0.00000622,0.00001341,0.00000951,-0.00001794,-0.00003613,0.00000113
 ,-0.00011118,0.00006485,-0.00009218,0.00032941,0.00060566,-0.00032213,
 0.00149148,-0.00011163,-0.00455265,0.02676961,-0.01982034,0.05015513,0
 .00000341,-0.00000715,-0.00000265,-0.00000290,0.00000304,0.00000179,-0
 .00000812,-0.00000126,0.00000587,0.00000887,-0.00000231,-0.00000628,-0
 .00000328,0.00000207,-0.00000014,-0.00001172,0.00000523,-0.00000062,0.
 00002455,-0.00000714,0.00000484,-0.00000875,0.00000066,-0.00000145,-0.
 00001147,0.00001669,0.00000239,0.00001482,-0.00003311,0.00000678,-0.00
 000835,0.00000812,-0.00001206,-0.00000898,0.00000928,0.00001358,0.0000
 4432,-0.00001082,-0.00001395,-0.00007233,0.00003327,0.00002374,0.00019
 770,0.00008884,0.00000775,-0.00047822,-0.00015839,0.00027946,-0.000808
 01,0.00046435,0.00132847,0.00048503,-0.00077240,-0.00018368,-0.0000125
 5,-0.00001609,-0.00023158,-0.01769229,0.01792963,-0.00827319,0.0020936
 6,-0.00003417,0.00161002,0.00053850,0.00038183,0.00023001,-0.00016990,
 -0.00012946,0.00017121,0.00003150,0.00003800,-0.00002994,-0.00001702,0
 .00001106,0.00002365,0.00253595,-0.00044753,-0.00241197,0.01456730,-0.
 02203205,0.00659205,-0.20503816,0.15252002,-0.03718395,-0.01015315,0.0
 1399841,0.01288532,-0.00000165,0.00000319,0.00000015,0.00000558,-0.000
 00144,-0.00000217,-0.00000014,-0.00000093,0.00000054,0.00000647,-0.000
 00393,0.00000283,0.00000284,0.00000076,-0.00000395,0.00000627,-0.00000
 027,0.00000182,0.00000497,0.00000157,-0.00000725,0.00000889,-0.0000030
 7,0.00001455,0.00068412,-0.00077015,0.00016889,-0.00006620,0.00009876,
 0.00001443,-0.00013077,-0.00002224,0.00001107,-0.00042826,0.00100898,-
 0.00070440,-0.00003424,-0.00018710,0.00007793,0.00072006,-0.00029531,-
 0.00071504,-0.00150439,-0.00180334,-0.00341063,0.21468600,0.00001045,0
 .00002492,0.00002752,0.00000158,-0.00003071,-0.00001037,-0.00000777,0.
 00000689,-0.00002137,-0.00000089,0.00001077,0.00003568,0.00000137,-0.0
 0000527,-0.00000102,0.00001268,-0.00006040,-0.00002549,0.00002644,0.00
 005828,0.00006434,-0.00001117,0.00000111,-0.00001111,-0.00001664,-0.00
 004731,0.00003363,0.00001249,0.00004451,-0.00003089,0.00000447,-0.0000
 0554,0.00000181,-0.00003584,-0.00000589,-0.00001998,0.00003029,0.00014
 483,0.00008938,-0.00012199,-0.00013144,-0.00016836,0.00026199,0.000262
 73,0.00048400,-0.00081718,-0.00049149,0.00003505,-0.00002774,-0.000116
 37,0.00006670,-0.00002737,0.00008005,-0.00031252,0.00009619,-0.0000518
 4,0.00007446,-0.00636973,0.00580531,-0.00323600,0.00025974,0.00162408,
 0.00009173,-0.00027015,0.00078243,-0.00016190,-0.00048793,0.00033531,0
 .00087982,-0.00015301,-0.00007705,-0.00006264,0.00005003,-0.00001128,0
 .00005347,0.00308742,-0.00122199,-0.00378996,0.00478513,-0.04119844,0.
 01425534,0.15400971,-0.18031275,0.02599600,0.00824113,-0.00039940,-0.0
 0693696,0.00000149,-0.00000651,-0.00000305,0.00000128,0.00000274,0.000
 00072,0.00000296,0.00000763,-0.00000218,0.00000054,-0.00000515,0.00000
 483,-0.00000138,0.00000253,0.00000182,0.00000260,-0.00000069,0.0000022
 5,-0.00000021,0.00000581,-0.00001275,0.00000373,-0.00000869,0.00002945
 ,0.00039891,-0.00024671,-0.00016980,0.00007374,0.00030110,-0.00016707,
 -0.00029964,-0.00028163,0.00007839,-0.00113526,0.00034911,0.00114273,0
 .00003468,0.00002858,-0.00008558,-0.00016150,0.00020072,0.00026626,-0.
 00158158,-0.00069828,-0.00135409,-0.15988409,0.21533537,-0.00000758,-0
 .00000454,-0.00002700,0.00000082,0.00000501,0.00002027,-0.00000342,-0.
 00000856,0.00002368,0.00000519,0.00001302,-0.00003077,-0.00000169,-0.0
 0000121,0.00000255,0.00000161,-0.00000946,0.00000003,-0.00000024,0.000
 01377,-0.00001065,0.00000192,-0.00000805,-0.00000083,-0.00000643,0.000
 01279,-0.00000101,0.00000141,-0.00002478,-0.00000460,-0.00000032,0.000
 00642,-0.00000416,0.00001271,0.00000973,0.00003616,0.00001549,-0.00003
 533,-0.00007168,0.00001482,0.00002711,0.00011849,0.00012759,0.00003333
 ,-0.00024996,-0.00020320,-0.00005083,-0.00000707,-0.00107771,0.0011034
 1,0.00074743,0.00024181,-0.00042227,-0.00006889,0.00006526,-0.00002061
 ,-0.00004258,-0.02308327,0.01564797,-0.00444886,0.00195597,-0.00038685
 ,0.00118496,0.00040691,0.00064098,0.00005236,0.00026473,-0.00001147,-0
 .00000603,0.00002329,0.00003677,-0.00001333,-0.00001961,0.00000444,0.0
 0000417,-0.00130274,-0.00023263,0.00233971,-0.00099034,0.01401509,0.00
 139219,-0.04019838,0.02969102,-0.04880090,0.03377790,-0.02989109,-0.01
 931780,-0.00000052,0.00000146,0.00000450,0.00000325,-0.00000056,0.0000
 0060,-0.00000114,-0.00000341,-0.00000381,0.00000343,-0.00000236,0.0000
 0167,0.00000174,0.00000006,-0.00000356,0.00000369,-0.00000063,0.000000
 41,-0.00000006,0.00000205,-0.00000115,-0.00000090,-0.00000991,0.000015
 50,0.00172211,0.00003965,0.00186809,-0.00000078,-0.00014322,0.00001936
 ,0.00005211,0.00001940,-0.00001397,0.00048932,-0.00051804,-0.00012288,
 0.00009290,-0.00012837,0.00009388,0.00027225,-0.00030680,-0.00043991,-
 0.00237567,-0.00197023,-0.00329352,0.02971574,-0.02713228,0.06905891\\
 -0.00415188,-0.02121404,0.00071774,0.01238808,0.03701665,-0.02585584,0
 .04132579,-0.04245071,0.04851828,-0.01989953,-0.00511681,0.01805189,0.
 00375238,-0.01490236,-0.02896912,-0.02538179,0.01988821,0.01906036,0.0
 1076637,-0.00621648,0.03864969,0.00545934,0.02028968,-0.01864655,-0.02
 073262,0.03056544,0.04207832,0.02642413,-0.00153552,-0.03436925,-0.015
 45730,-0.04005962,0.00028068,0.00691462,0.03093245,-0.03484149,0.02111
 211,-0.01343411,-0.00076531,-0.07239853,-0.00440940,-0.02178329,0.0453
 8577,0.00530988,0.00803869,-0.04390824,0.00714286,-0.00578067,0.025316
 75,-0.05061220,-0.00330115,-0.02643832,0.02081600,0.02539350,0.0204801
 0,-0.01395782,-0.01361148,-0.01446862,0.03575173,-0.04094325,0.0453863
 9,-0.00989009,0.01567036,-0.01370805,0.02791800,-0.02060420,-0.0114138
 5,0.00057918,-0.00686943,-0.01379627,0.01549132,-0.01100376,0.02826519
 ,-0.01127169,0.00875227,-0.00267543,0.00048396,-0.03018768,0.00958353,
 -0.01421090,0.00640544,-0.03209539,-0.03082889,-0.01401307,0.02846286,
 0.01225883,0.03333883,-0.00185005,0.00112173,0.00486165,-0.02253609,0.
 00355694,0.00166325,-0.00005853,-0.00292880,0.02040521,0.02121241,-0.0
 0690318,-0.00081202,-0.01738001,0.00407325,0.00561953,0.02781046,-0.00
 029190,0.00011053,-0.02086129,0.00427307,-0.00429506,0.01533698,0.0042
 8002,-0.00157889,-0.00813947,-0.00020237,0.00269814,0.01005093,-0.0153
 0316,-0.00461831,-0.00265717,0.00090005,0.01614541,-0.01927121,0.01596
 150,0.00361192,0.01468961,-0.00985236,0.00207991,-0.01153295,0.0097181
 2,-0.00158142,0.01454737,-0.01191764,0.00278409,-0.01385858,0.01918121
 ,-0.00050443\\\@


 Sometimes the fool who rushes in gets the job done.
                                    -- Al Bernstein
 Job cpu time:  0 days 13 hours 15 minutes 18.8 seconds.
 File lengths (MBytes):  RWF=   1327 Int=      0 D2E=      0 Chk=     19 Scr=      1
 Normal termination of Gaussian 09 at Thu Jan 21 18:24:20 2016.
Gaussian '09 finished on node017 at Thu Jan 21 18:24:20 EST 2016.
