Gaussian '09 started on node026 at Mon Feb 29 14:22:26 EST 2016.
 Entering Gaussian System, Link 0=/usr/local/gaussian/g09/g09
 Initial command:
 /usr/local/gaussian/g09/l1.exe /home/srmcgrat/thesis/gaussian/cellobiose/280/9000/2/gdp/gaussian1809/Gau-1845.inp -scrdir=/home/srmcgrat/thesis/gaussian/cellobiose/280/9000/2/gdp/gaussian1809/
 Entering Link 1 = /usr/local/gaussian/g09/l1.exe PID=      1847.
  
 Copyright (c) 1988,1990,1992,1993,1995,1998,2003,2009,2010,
            Gaussian, Inc.  All Rights Reserved.
  
 This is part of the Gaussian(R) 09 program.  It is based on
 the Gaussian(R) 03 system (copyright 2003, Gaussian, Inc.),
 the Gaussian(R) 98 system (copyright 1998, Gaussian, Inc.),
 the Gaussian(R) 94 system (copyright 1995, Gaussian, Inc.),
 the Gaussian 92(TM) system (copyright 1992, Gaussian, Inc.),
 the Gaussian 90(TM) system (copyright 1990, Gaussian, Inc.),
 the Gaussian 88(TM) system (copyright 1988, Gaussian, Inc.),
 the Gaussian 86(TM) system (copyright 1986, Carnegie Mellon
 University), and the Gaussian 82(TM) system (copyright 1983,
 Carnegie Mellon University). Gaussian is a federally registered
 trademark of Gaussian, Inc.
  
 This software contains proprietary and confidential information,
 including trade secrets, belonging to Gaussian, Inc.
  
 This software is provided under written license and may be
 used, copied, transmitted, or stored only in accord with that
 written license.
  
 The following legend is applicable only to US Government
 contracts under FAR:
  
                    RESTRICTED RIGHTS LEGEND
  
 Use, reproduction and disclosure by the US Government is
 subject to restrictions as set forth in subparagraphs (a)
 and (c) of the Commercial Computer Software - Restricted
 Rights clause in FAR 52.227-19.
  
 Gaussian, Inc.
 340 Quinnipiac St., Bldg. 40, Wallingford CT 06492
  
  
 ---------------------------------------------------------------
 Warning -- This program may not be used in any manner that
 competes with the business of Gaussian, Inc. or will provide
 assistance to any competitor of Gaussian, Inc.  The licensee
 of this program is prohibited from giving any competitor of
 Gaussian, Inc. access to this program.  By using this program,
 the user acknowledges that Gaussian, Inc. is engaged in the
 business of creating and licensing software in the field of
 computational chemistry and represents and warrants to the
 licensee that it is not a competitor of Gaussian, Inc. and that
 it will not use this program in any manner prohibited above.
 ---------------------------------------------------------------
  

 Cite this work as:
 Gaussian 09, Revision B.01,
 M. J. Frisch, G. W. Trucks, H. B. Schlegel, G. E. Scuseria, 
 M. A. Robb, J. R. Cheeseman, G. Scalmani, V. Barone, B. Mennucci, 
 G. A. Petersson, H. Nakatsuji, M. Caricato, X. Li, H. P. Hratchian, 
 A. F. Izmaylov, J. Bloino, G. Zheng, J. L. Sonnenberg, M. Hada, 
 M. Ehara, K. Toyota, R. Fukuda, J. Hasegawa, M. Ishida, T. Nakajima, 
 Y. Honda, O. Kitao, H. Nakai, T. Vreven, J. A. Montgomery, Jr., 
 J. E. Peralta, F. Ogliaro, M. Bearpark, J. J. Heyd, E. Brothers, 
 K. N. Kudin, V. N. Staroverov, T. Keith, R. Kobayashi, J. Normand, 
 K. Raghavachari, A. Rendell, J. C. Burant, S. S. Iyengar, J. Tomasi, 
 M. Cossi, N. Rega, J. M. Millam, M. Klene, J. E. Knox, J. B. Cross, 
 V. Bakken, C. Adamo, J. Jaramillo, R. Gomperts, R. E. Stratmann, 
 O. Yazyev, A. J. Austin, R. Cammi, C. Pomelli, J. W. Ochterski, 
 R. L. Martin, K. Morokuma, V. G. Zakrzewski, G. A. Voth, 
 P. Salvador, J. J. Dannenberg, S. Dapprich, A. D. Daniels, 
 O. Farkas, J. B. Foresman, J. V. Ortiz, J. Cioslowski, 
 and D. J. Fox, Gaussian, Inc., Wallingford CT, 2010.
 
 ******************************************
 Gaussian 09:  EM64L-G09RevB.01 12-Aug-2010
                29-Feb-2016 
 ******************************************
 ------------------------------------------------
 # freq=raman b3lyp/6-31+g(d,p) geom=connectivity
 ------------------------------------------------
 1/10=4,30=1,38=1,57=2/1,3;
 2/12=2,17=6,18=5,40=1/2;
 3/5=1,6=6,7=111,11=2,16=1,25=1,30=1,71=2,74=-5/1,2,3;
 4//1;
 5/5=2,38=5,98=1/2;
 8/6=4,10=90,11=11/1;
 10/13=10,15=4/2;
 11/6=3,8=1,9=11,15=111,16=1/1,2,10;
 10/6=1/2;
 6/7=2,8=2,9=2,10=2,18=1,28=1/1;
 7/8=1,10=1,25=1/1,2,3,16;
 1/10=4,30=1/3;
 99//99;
 ------------
 280 9000.com
 ------------
 Symbolic Z-matrix:
 Charge =  0 Multiplicity = 1
 O                     7.606     7.608     22.627 
 C                     8.338     7.848     23.837 
 C                     7.762     9.088     24.502 
 O                     7.731     10.162    23.55 
 H                     7.782     9.741     22.644 
 C                     8.319     9.552     25.838 
 O                     7.508     10.62     26.35 
 H                     7.926     10.897    27.215 
 C                     8.632     5.392     24.606 
 O                     8.251     4.628     23.453 
 H                     8.129     3.696     23.794 
 C                     8.138     6.796     24.916 
 O                     8.704     7.124     26.193 
 C                     8.195     8.344     26.751 
 O                     8.936     8.55      27.963 
 C                     8.168     8.41      29.167 
 C                     8.453     6.96      29.52 
 O                     7.901     6.018     28.589 
 H                     8.256     6.264     27.687 
 C                     8.167     6.651     30.981 
 O                     8.79      5.392     31.275 
 H                     8.671     5.225     32.254 
 C                     8.146     10.812    30.127 
 O                     8.238     11.525    28.886 
 H                     8.114     12.489    29.121 
 C                     8.63      9.376     30.246 
 O                     8.177     9.036     31.565 
 C                     8.588     7.723     31.973 
 O                     7.863     7.566     33.201 
 H                     8.22107   7.4646    21.904 
 H                     8.48231   7.47298   33.9286 
 H                     8.37565   4.79381   25.45532 
 H                     9.69998   5.45282   24.58104 
 H                     7.08094   6.71903   25.06298 
 H                     9.37904   7.98254   23.62953 
 H                     6.73751   8.84882   24.69722 
 H                     9.34027   9.85653   25.74228 
 H                     7.16314   8.20495   26.99763 
 H                     8.68344   11.38314   30.85492 
 H                     7.11522   10.81804   30.41399 
 H                     9.69997   9.38242   30.24969 
 H                     7.12657   8.54624   28.96266 
 H                     9.51307   6.85503   29.41932 
 H                     7.10978   6.51996   31.08102 
 H                     9.64317   7.69096   32.1476 
 

 GradGradGradGradGradGradGradGradGradGradGradGradGradGradGradGradGradGrad
 Berny optimization.
 Initialization pass.
 Trust Radius=3.00D-01 FncErr=1.00D-07 GrdErr=1.00D-07
 Number of steps in this run=      2 maximum allowed number of steps=      2.
 GradGradGradGradGradGradGradGradGradGradGradGradGradGradGradGradGradGrad

                          Input orientation:                          
 ---------------------------------------------------------------------
 Center     Atomic      Atomic             Coordinates (Angstroms)
 Number     Number       Type             X           Y           Z
 ---------------------------------------------------------------------
      1          8           0        7.606000    7.608000   22.627000
      2          6           0        8.338000    7.848000   23.837000
      3          6           0        7.762000    9.088000   24.502000
      4          8           0        7.731000   10.162000   23.550000
      5          1           0        7.782000    9.741000   22.644000
      6          6           0        8.319000    9.552000   25.838000
      7          8           0        7.508000   10.620000   26.350000
      8          1           0        7.926000   10.897000   27.215000
      9          6           0        8.632000    5.392000   24.606000
     10          8           0        8.251000    4.628000   23.453000
     11          1           0        8.129000    3.696000   23.794000
     12          6           0        8.138000    6.796000   24.916000
     13          8           0        8.704000    7.124000   26.193000
     14          6           0        8.195000    8.344000   26.751000
     15          8           0        8.936000    8.550000   27.963000
     16          6           0        8.168000    8.410000   29.167000
     17          6           0        8.453000    6.960000   29.520000
     18          8           0        7.901000    6.018000   28.589000
     19          1           0        8.256000    6.264000   27.687000
     20          6           0        8.167000    6.651000   30.981000
     21          8           0        8.790000    5.392000   31.275000
     22          1           0        8.671000    5.225000   32.254000
     23          6           0        8.146000   10.812000   30.127000
     24          8           0        8.238000   11.525000   28.886000
     25          1           0        8.114000   12.489000   29.121000
     26          6           0        8.630000    9.376000   30.246000
     27          8           0        8.177000    9.036000   31.565000
     28          6           0        8.588000    7.723000   31.973000
     29          8           0        7.863000    7.566000   33.201000
     30          1           0        8.221071    7.464596   21.904004
     31          1           0        8.482313    7.472977   33.928597
     32          1           0        8.375648    4.793810   25.455324
     33          1           0        9.699978    5.452818   24.581038
     34          1           0        7.080941    6.719034   25.062978
     35          1           0        9.379036    7.982542   23.629532
     36          1           0        6.737508    8.848824   24.697219
     37          1           0        9.340273    9.856530   25.742279
     38          1           0        7.163138    8.204946   26.997626
     39          1           0        8.683439   11.383138   30.854915
     40          1           0        7.115222   10.818036   30.413985
     41          1           0        9.699974    9.382420   30.249692
     42          1           0        7.126566    8.546240   28.962660
     43          1           0        9.513068    6.855028   29.419323
     44          1           0        7.109776    6.519955   31.081023
     45          1           0        9.643173    7.690964   32.147598
 ---------------------------------------------------------------------
                    Distance matrix (angstroms):
                    1          2          3          4          5
     1  O    0.000000
     2  C    1.434407   0.000000
     3  C    2.393817   1.520395   0.000000
     4  O    2.718542   2.409443   1.435528   0.000000
     5  H    2.140316   2.305609   1.969511   1.000339   0.000000
     6  C    3.820736   2.628303   1.520013   2.439834   3.244338
     7  O    4.789831   3.832500   2.413844   2.845961   3.818659
     8  H    5.654172   4.569139   3.264927   3.743057   4.717109
     9  C    3.143211   2.590315   3.798438   4.967881   4.846209
    10  O    3.158908   3.243983   4.607724   5.559223   5.197808
    11  H    4.115721   4.157479   5.450653   6.482831   6.163192
    12  C    2.486340   1.520179   2.359245   3.655347   3.736542
    13  O    3.762475   2.491760   2.757561   4.142659   4.504906
    14  C    4.230366   2.959368   2.408117   3.710367   4.357709
    15  O    5.579351   4.227799   3.694082   4.850272   5.571531
    16  C    6.612915   5.362242   4.731463   5.900098   6.668590
    17  C    6.975010   5.753109   5.494196   6.812855   7.447387
    18  O    6.177424   5.110907   5.113491   6.526343   7.015548
    19  H    5.275646   4.163926   4.285235   5.708310   6.143782
    20  C    8.427330   7.245605   6.934006   8.230248   8.899545
    21  O    9.005577   7.846023   7.784005   9.140569   9.717203
    22  H    9.974570   8.822523   8.708763  10.050731  10.655359
    23  C    8.173568   6.956023   5.895783   6.622058   7.568013
    24  O    7.410627   6.246818   5.038353   5.530616   6.507930
    25  H    8.139672   7.036314   5.746814   6.049600   7.043668
    26  C    7.888191   6.595099   5.816348   6.801648   7.657854
    27  O    9.069348   7.820438   7.075373   8.105986   8.957527
    28  C    9.398152   8.140800   7.639460   8.810794   9.578737
    29  O   10.577206   9.380280   8.831720   9.994921  10.779028
    30  H    0.960000   1.974119   3.097704   3.197728   2.433597
    31  H   11.336325  10.099594   9.591032  10.747586  11.531544
    32  H    4.063428   3.456656   4.441336   5.732652   5.721071
    33  H    3.584385   2.854028   4.120261   5.207332   5.081266
    34  H    2.645740   2.087531   2.527952   3.816503   3.933856
    35  H    2.070992   1.070000   2.144305   2.733566   2.571764
    36  H    2.565099   2.074416   1.070000   2.006881   2.470355
    37  H    4.215277   2.944289   2.149390   2.736633   3.470000
    38  H    4.433378   3.390762   2.714142   4.004829   4.657951
    39  H    9.116531   7.865600   6.817349   7.467269   8.421896
    40  H    8.436962   7.319360   6.193780   6.922706   7.872564
    41  H    8.101773   6.732907   6.072758   7.026413   7.851991
    42  H    6.422674   5.312956   4.538146   5.680925   6.463939
    43  H    7.095035   5.790432   5.677364   6.968556   7.565079
    44  H    8.538184   7.466465   7.092517   8.388487   9.055958
    45  H    9.736465   8.413928   7.996605   9.147739   9.898737
                    6          7          8          9         10
     6  C    0.000000
     7  O    1.435440   0.000000
     8  H    1.964587   0.999839   0.000000
     9  C    4.349873   5.624669   6.132727   0.000000
    10  O    5.471620   6.696919   7.318376   1.434666   0.000000
    11  H    6.205383   7.406791   7.974889   1.946476   0.999894
    12  C    2.911766   4.132340   4.706224   1.520313   2.617893
    13  O    2.483835   3.698254   3.985636   2.350229   3.734009
    14  C    1.519279   2.411005   2.608729   3.675092   4.968762
    15  O    2.429057   2.987617   2.662332   4.618964   6.015930
    16  C    3.522670   3.640768   3.170810   5.488747   6.852752
    17  C    4.504836   4.933308   4.592464   5.161207   6.502885
    18  O    4.497986   5.132833   5.068840   4.097624   5.332269
    19  H    3.772759   4.617554   4.668659   3.224022   4.539083
    20  C    5.906721   6.134607   5.680612   6.514747   7.795535
    21  O    6.862100   7.295967   6.894572   6.670871   7.877684
    22  H    7.746734   8.081820   7.623525   7.649922   8.831218
    23  C    4.473595   3.835314   2.921535   7.752034   9.099184
    24  O    3.631748   2.789842   1.812172   7.489147   8.779879
    25  H    4.409771   3.396887   2.490511   8.427393   9.692281
    26  C    4.422461   4.240900   3.463527   6.905205   8.296505
    27  O    5.751952   5.491160   4.738019   7.868510   9.232577
    28  C    6.407482   6.416941   5.757698   7.727107   9.070997
    29  O    7.639758   7.509270   6.850673   8.898970  10.188518
    30  H    4.454567   5.498357   6.330493   3.430058   3.232114
    31  H    8.355045   8.263666   7.556839   9.553203  10.857511
    32  H    4.773890   5.957999   6.367698   1.070000   2.013041
    33  H    4.504481   5.885046   6.302688   1.070000   2.013041
    34  H    3.187342   4.129933   4.775010   2.091801   2.886778
    35  H    2.909331   4.225862   4.843652   2.867483   3.543527
    36  H    2.072910   2.542126   3.456408   3.942975   4.653396
    37  H    1.070000   2.075918   2.291648   4.660988   5.810753
    38  H    2.120213   2.524051   2.806486   3.973676   5.151928
    39  H    5.353067   4.717870   3.749537   8.657097  10.030316
    40  H    4.898119   4.087722   3.301076   8.091673   9.384127
    41  H    4.625892   4.641547   3.827570   6.993946   8.420158
    42  H    3.492413   3.357374   3.036360   5.585343   6.853708
    43  H    4.639540   5.255098   4.869842   5.107329   6.492263
    44  H    6.176148   6.273080   5.896683   6.746508   7.941575
    45  H    6.710285   6.837424   6.128448   7.948799   9.322871
                   11         12         13         14         15
    11  H    0.000000
    12  C    3.296811   0.000000
    13  O    4.223388   1.434806   0.000000
    14  C    5.509275   2.401412   1.434868   0.000000
    15  O    6.449273   3.605209   2.284776   1.435431   0.000000
    16  C    7.147898   4.547186   3.284169   2.417052   1.434936
    17  C    6.598920   4.617677   3.340483   3.106345   2.277200
    18  O    5.332513   3.761965   2.758416   2.979086   2.806087
    19  H    4.665426   2.824073   1.781106   2.281714   2.400911
    20  C    7.770871   6.066802   4.841182   4.556307   3.647723
    21  O    7.699266   6.544708   5.369725   5.434603   4.578605
    22  H    8.614128   7.523189   6.351615   6.343323   5.434936
    23  C    9.525998   6.578970   5.421168   4.182200   3.228566
    24  O    9.339892   6.175301   5.180560   3.831297   3.192140
    25  H   10.280759   7.077630   6.140400   4.775404   4.187167
    26  C    8.610558   5.942000   4.637218   3.670051   2.447039
    27  O    9.429016   7.016290   5.726417   4.863516   3.713042
    28  C    9.128168   7.131836   5.812113   5.273459   4.109152
    29  O   10.175427   8.325248   7.072108   6.505229   5.436564
    30  H    4.216975   3.086428   4.329516   4.926195   6.196826
    31  H   10.821296   9.044543   7.746638   7.235961   6.078994
    32  H    2.006495   2.087130   2.466124   3.783551   4.550977
    33  H    2.484716   2.087130   2.526508   3.915690   4.649071
    34  H    3.442015   1.070000   2.018729   2.594429   3.899206
    35  H    4.468118   2.145472   2.786420   3.357999   4.392862
    36  H    5.413285   2.494660   3.013216   2.568491   3.948162
    37  H    6.573820   3.390434   2.841604   2.148701   2.608076
    38  H    5.614865   2.696044   2.046979   1.070000   2.047938
    39  H   10.452561   7.523965   6.314597   5.130015   4.056308
    40  H    9.776264   6.888446   5.829823   4.550190   3.803491
    41  H    8.745244   6.130057   4.748597   3.947671   2.550596
    42  H    7.158544   4.523472   3.490284   2.464527   2.067217
    43  H    6.598436   4.708950   3.337079   3.327805   2.307989
    44  H    7.881259   6.256273   5.176793   4.822235   4.144664
    45  H    9.382700   7.440599   6.054811   5.625561   4.330000
                   16         17         18         19         20
    16  C    0.000000
    17  C    1.519320   0.000000
    18  O    2.475285   1.434862   0.000000
    19  H    2.608344   1.970562   1.000072   0.000000
    20  C    2.526792   1.520460   2.488596   3.317850   0.000000
    21  O    3.733480   2.377439   2.897722   3.730856   1.435147
    22  H    4.463945   3.245382   3.828051   4.702046   1.976872
    23  C    2.586830   3.911598   5.040625   5.162364   4.247785
    24  O    3.128432   4.613828   5.525290   5.395929   5.305652
    25  H    4.079617   5.553734   6.496325   6.389612   6.127369
    26  C    1.520145   2.528925   3.814873   4.046344   2.860108
    27  O    2.478379   2.927111   4.247479   4.767506   2.455480
    28  C    2.919247   2.572470   3.851032   4.539681   1.520029
    29  O    4.132616   3.776916   4.865007   5.679247   2.420339
    30  H    7.324460   7.636217   6.847208   5.906411   9.113546
    31  H    4.863087   4.438438   5.564727   6.361633   3.076264
    32  H    5.186182   4.606512   3.397625   2.675098   5.833162
    33  H    5.667709   5.312240   4.429392   3.519956   6.689184
    34  H    4.569908   4.669652   3.687380   2.910895   6.017236
    35  H    5.684442   6.049855   5.535372   4.547268   7.568759
    36  H    4.713578   5.456169   4.951084   4.233902   6.808801
    37  H    3.898126   4.842346   4.990956   4.226566   6.252694
    38  H    2.399579   3.094512   2.803506   2.331707   4.392011
    39  H    3.457497   4.625933   5.876333   6.035227   4.761905
    40  H    2.908943   4.180107   5.195032   5.429278   4.334966
    41  H    2.113000   2.820552   4.160953   4.286840   3.216438
    42  H    1.070000   2.141544   2.670462   2.848078   2.957724
    43  H    2.071428   1.070000   1.997202   2.220468   2.071802
    44  H    2.890604   2.105869   2.662362   3.591481   1.070000
    45  H    3.402516   2.975751   4.300883   4.884405   2.149782
                   21         22         23         24         25
    21  O    0.000000
    22  H    1.000245   0.000000
    23  C    5.577548   6.001193   0.000000
    24  O    6.604976   7.156879   1.434195   0.000000
    25  H    7.447422   7.930425   1.955860   0.999948   0.000000
    26  C    4.117851   4.611350   1.520037   2.573221   3.350022
    27  O    3.706562   3.904162   2.285384   3.657305   4.230876
    28  C    2.441632   2.515125   3.625604   4.909916   5.574346
    29  O    3.048784   2.651406   4.479518   5.868009   6.398854
    30  H    9.614307  10.599087   8.878537   8.076846   8.794381
    31  H    3.386254   2.809498   5.070930   6.473513   6.957668
    32  H    5.864993   6.818735   7.622067   7.556282   8.527695
    33  H    6.755804   7.745001   7.867234   7.585609   8.522584
    34  H    6.578078   7.514733   6.597806   6.249127   7.129324
    35  H    8.093890   9.082225   7.193282   6.440608   7.215587
    36  H    7.709057   8.600897   5.943099   5.192232   5.891981
    37  H    7.130626   8.018822   4.643811   3.725826   4.455266
    38  H    5.371711   6.227616   4.189956   3.967876   4.875035
    39  H    6.006793   6.315082   1.070000   2.023652   2.133929
    40  H    5.743526   6.090004   1.070000   2.023652   2.336983
    41  H    4.219332   4.728655   2.115086   2.930474   3.666074
    42  H    4.250078   4.924310   2.743829   3.180278   4.067610
    43  H    2.471198   3.376606   4.245858   4.870202   5.812747
    44  H    2.032994   2.343119   4.517252   5.580456   6.362362
    45  H    2.602800   2.652813   4.008143   5.226124   5.875357
                   26         27         28         29         30
    26  C    0.000000
    27  O    1.435469   0.000000
    28  C    2.390963   1.435045   0.000000
    29  O    3.549143   2.221709   1.434663   0.000000
    30  H    8.567939   9.788059  10.078992  11.303124   0.000000
    31  H    4.147871   2.850062   1.974346   0.960000  12.027434
    32  H    6.634134   7.440684   7.148800   8.242775   4.446220
    33  H    6.973378   7.995898   7.812255   9.063320   3.660728
    34  H    6.026837   6.988989   7.143359   8.219268   3.440186
    35  H    6.802972   8.094833   8.384901   9.699736   2.141634
    36  H    5.886290   7.019514   7.591363   8.673330   3.452405
    37  H    4.584637   5.994210   6.628706   7.941119   4.659004
    38  H    3.751664   4.751786   5.197774   6.275341   5.254743
    39  H    2.098151   2.503949   3.828294   4.554973   9.782002
    40  H    2.098151   2.372311   3.765481   4.347684   9.213481
    41  H    1.070000   2.041934   2.638172   3.922254   8.689978
    42  H    2.143776   2.848762   3.446108   4.412112   7.224439
    43  H    2.796159   3.338510   2.851385   4.186799   7.649892
    44  H    3.341457   2.775551   2.104302   2.481101   9.292201
    45  H    2.735314   2.073211   1.070000   2.072266  10.344314
                   31         32         33         34         35
    31  H    0.000000
    32  H    8.887388   0.000000
    33  H    9.640571   1.718290   0.000000
    34  H    9.007301   2.353017   2.948716   0.000000
    35  H   10.350581   3.808979   2.721740   2.988722   0.000000
    36  H    9.495032   4.438622   4.508058   2.188089   2.977931
    37  H    8.569319   5.161781   4.568430   3.925547   2.824365
    38  H    7.093262   3.935064   4.455297   2.440810   4.037787
    39  H    4.977684   8.524645   8.692732   7.607128   8.015864
    40  H    5.040918   7.903688   8.336054   6.740643   7.693743
    41  H    4.320071   6.767211   6.897493   6.391788   6.774155
    42  H    5.258372   5.286052   5.948977   4.306772   5.816668
    43  H    4.666677   4.610383   5.040846   4.991139   5.900079
    44  H    3.301634   6.019177   7.077975   6.021405   7.925492
    45  H    2.137071   7.401800   7.890840   7.596151   8.527147
                   36         37         38         39         40
    36  H    0.000000
    37  H    2.980270   0.000000
    38  H    2.426440   3.007248   0.000000
    39  H    6.937335   5.375966   5.224069   0.000000
    40  H    6.058207   5.263096   4.301400   1.724257   0.000000
    41  H    6.315923   4.546530   4.289279   2.324331   2.961238
    42  H    4.293822   4.121675   1.994788   3.748662   2.695835
    43  H    5.828998   4.749686   3.634428   4.822136   4.737557
    44  H    6.805524   6.679074   4.417711   5.116453   4.349536
    45  H    8.080326   6.768274   5.739074   4.027936   4.378873
                   41         42         43         44         45
    41  H    0.000000
    42  H    2.996344   0.000000
    43  H    2.666862   2.960427   0.000000
    44  H    3.948917   2.931480   2.940975   0.000000
    45  H    2.542892   4.148329   2.856432   2.987799   0.000000
 Stoichiometry    C12H22O11
 Framework group  C1[X(C12H22O11)]
 Deg. of freedom   129
 Full point group                 C1      NOp   1
 Largest Abelian subgroup         C1      NOp   1
 Largest concise Abelian subgroup C1      NOp   1
                         Standard orientation:                         
 ---------------------------------------------------------------------
 Center     Atomic      Atomic             Coordinates (Angstroms)
 Number     Number       Type             X           Y           Z
 ---------------------------------------------------------------------
      1          8           0        5.056473   -0.067288   -0.454312
      2          6           0        3.809010    0.039486    0.245659
      3          6           0        3.083320    1.274611   -0.263695
      4          8           0        3.962577    2.406203   -0.179172
      5          1           0        4.892215    2.040975   -0.123859
      6          6           0        1.701326    1.609479    0.273330
      7          8           0        1.147606    2.700876   -0.476828
      8          1           0        0.252426    2.890059   -0.073667
      9          6           0        3.194847   -2.475571    0.329458
     10          8           0        4.408232   -3.133872   -0.061186
     11          1           0        4.134079   -4.073802   -0.264065
     12          6           0        2.809513   -1.060871   -0.072404
     13          8           0        1.495059   -0.858269    0.465956
     14          6           0        0.875114    0.358701    0.026072
     15          8           0       -0.372397    0.430835    0.732452
     16          6           0       -1.537627    0.272907   -0.089945
     17          6           0       -1.803287   -1.213941    0.074500
     18          8           0       -0.793671   -2.050590   -0.508184
     19          1           0        0.077438   -1.775237   -0.101374
     20          6           0       -3.230019   -1.592706   -0.289878
     21          8           0       -3.461006   -2.911213    0.227646
     22          1           0       -4.422170   -3.130633    0.058801
     23          6           0       -2.653344    2.603869    0.026164
     24          8           0       -1.466161    3.385311    0.218147
     25          1           0       -1.760151    4.339031    0.155812
     26          6           0       -2.693358    1.130821    0.399046
     27          8           0       -3.970744    0.742816   -0.128502
     28          6           0       -4.304618   -0.620691    0.169374
     29          8           0       -5.494120   -0.800302   -0.612345
     30          1           0        5.766018   -0.210418    0.176290
     31          1           0       -6.234620   -0.985784   -0.030232
     32          1           0        2.396241   -3.105489   -0.002705
     33          1           0        3.179347   -2.493964    1.399188
     34          1           0        2.704034   -1.067123   -1.137174
     35          1           0        3.971542    0.108085    1.301016
     36          1           0        2.939371    1.101419   -1.309728
     37          1           0        1.741831    1.841628    1.317057
     38          1           0        0.673520    0.282433   -1.021995
     39          1           0       -3.435375    3.085465    0.575158
     40          1           0       -2.904835    2.669337   -1.011798
     41          1           0       -2.733897    1.056323    1.465679
     42          1           0       -1.307421    0.499967   -1.109920
     43          1           0       -1.732030   -1.391909    1.127187
     44          1           0       -3.285084   -1.649778   -1.356935
     45          1           0       -4.512537   -0.743200    1.211804
 ---------------------------------------------------------------------
 Rotational constants (GHZ):      0.4071253      0.1466023      0.1105166
 Standard basis: 6-31+G(d,p) (6D, 7F)
 There are   547 symmetry adapted basis functions of A   symmetry.
 Integral buffers will be    131072 words long.
 Raffenetti 2 integral format.
 Two-electron integral symmetry is turned on.
   547 basis functions,   890 primitive gaussians,   547 cartesian basis functions
    91 alpha electrons       91 beta electrons
       nuclear repulsion energy      2287.3305163273 Hartrees.
 NAtoms=   45 NActive=   45 NUniq=   45 SFac= 1.00D+00 NAtFMM=   50 NAOKFM=F Big=F
 One-electron integrals computed using PRISM.
 NBasis=   547 RedAO= T  NBF=   547
 NBsUse=   547 1.00D-06 NBFU=   547
 Harris functional with IExCor=  402 diagonalized for initial guess.
 ExpMin= 4.38D-02 ExpMax= 5.48D+03 ExpMxC= 8.25D+02 IAcc=2 IRadAn=         0 AccDes= 0.00D+00
 HarFok:  IExCor=  402 AccDes= 0.00D+00 IRadAn=         0 IDoV= 1
 ScaDFX=  1.000000  1.000000  1.000000  1.000000
 FoFCou: FMM=F IPFlag=           0 FMFlag=      100000 FMFlg1=           0
         NFxFlg=           0 DoJE=T BraDBF=F KetDBF=T FulRan=T
         Omega=  0.000000  0.000000  1.000000  0.000000  0.000000 ICntrl=     500 IOpCl=  0
         NMat0=    1 NMatS0=    1 NMatT0=    0 NMatD0=    1 NMtDS0=    0 NMtDT0=    0
         I1Cent=           4 NGrid=           0.
 Petite list used in FoFCou.
 Initial guess orbital symmetries:
       Occupied  (A) (A) (A) (A) (A) (A) (A) (A) (A) (A) (A) (A)
                 (A) (A) (A) (A) (A) (A) (A) (A) (A) (A) (A) (A)
                 (A) (A) (A) (A) (A) (A) (A) (A) (A) (A) (A) (A)
                 (A) (A) (A) (A) (A) (A) (A) (A) (A) (A) (A) (A)
                 (A) (A) (A) (A) (A) (A) (A) (A) (A) (A) (A) (A)
                 (A) (A) (A) (A) (A) (A) (A) (A) (A) (A) (A) (A)
                 (A) (A) (A) (A) (A) (A) (A) (A) (A) (A) (A) (A)
                 (A) (A) (A) (A) (A) (A) (A)
       Virtual   (A) (A) (A) (A) (A) (A) (A) (A) (A) (A) (A) (A)
                 (A) (A) (A) (A) (A) (A) (A) (A) (A) (A) (A) (A)
                 (A) (A) (A) (A) (A) (A) (A) (A) (A) (A) (A) (A)
                 (A) (A) (A) (A) (A) (A) (A) (A) (A) (A) (A) (A)
                 (A) (A) (A) (A) (A) (A) (A) (A) (A) (A) (A) (A)
                 (A) (A) (A) (A) (A) (A) (A) (A) (A) (A) (A) (A)
                 (A) (A) (A) (A) (A) (A) (A) (A) (A) (A) (A) (A)
                 (A) (A) (A) (A) (A) (A) (A) (A) (A) (A) (A) (A)
                 (A) (A) (A) (A) (A) (A) (A) (A) (A) (A) (A) (A)
                 (A) (A) (A) (A) (A) (A) (A) (A) (A) (A) (A) (A)
                 (A) (A) (A) (A) (A) (A) (A) (A) (A) (A) (A) (A)
                 (A) (A) (A) (A) (A) (A) (A) (A) (A) (A) (A) (A)
                 (A) (A) (A) (A) (A) (A) (A) (A) (A) (A) (A) (A)
                 (A) (A) (A) (A) (A) (A) (A) (A) (A) (A) (A) (A)
                 (A) (A) (A) (A) (A) (A) (A) (A) (A) (A) (A) (A)
                 (A) (A) (A) (A) (A) (A) (A) (A) (A) (A) (A) (A)
                 (A) (A) (A) (A) (A) (A) (A) (A) (A) (A) (A) (A)
                 (A) (A) (A) (A) (A) (A) (A) (A) (A) (A) (A) (A)
                 (A) (A) (A) (A) (A) (A) (A) (A) (A) (A) (A) (A)
                 (A) (A) (A) (A) (A) (A) (A) (A) (A) (A) (A) (A)
                 (A) (A) (A) (A) (A) (A) (A) (A) (A) (A) (A) (A)
                 (A) (A) (A) (A) (A) (A) (A) (A) (A) (A) (A) (A)
                 (A) (A) (A) (A) (A) (A) (A) (A) (A) (A) (A) (A)
                 (A) (A) (A) (A) (A) (A) (A) (A) (A) (A) (A) (A)
                 (A) (A) (A) (A) (A) (A) (A) (A) (A) (A) (A) (A)
                 (A) (A) (A) (A) (A) (A) (A) (A) (A) (A) (A) (A)
                 (A) (A) (A) (A) (A) (A) (A) (A) (A) (A) (A) (A)
                 (A) (A) (A) (A) (A) (A) (A) (A) (A) (A) (A) (A)
                 (A) (A) (A) (A) (A) (A) (A) (A) (A) (A) (A) (A)
                 (A) (A) (A) (A) (A) (A) (A) (A) (A) (A) (A) (A)
                 (A) (A) (A) (A) (A) (A) (A) (A) (A) (A) (A) (A)
                 (A) (A) (A) (A) (A) (A) (A) (A) (A) (A) (A) (A)
                 (A) (A) (A) (A) (A) (A) (A) (A) (A) (A) (A) (A)
                 (A) (A) (A) (A) (A) (A) (A) (A) (A) (A) (A) (A)
                 (A) (A) (A) (A) (A) (A) (A) (A) (A) (A) (A) (A)
                 (A) (A) (A) (A) (A) (A) (A) (A) (A) (A) (A) (A)
                 (A) (A) (A) (A) (A) (A) (A) (A) (A) (A) (A) (A)
                 (A) (A) (A) (A) (A) (A) (A) (A) (A) (A) (A) (A)
 The electronic state of the initial guess is 1-A.
 Requested convergence on RMS density matrix=1.00D-08 within 128 cycles.
 Requested convergence on MAX density matrix=1.00D-06.
 Requested convergence on             energy=1.00D-06.
 No special actions if energy rises.
 SCF Done:  E(RB3LYP) =  -1297.93707296     A.U. after   13 cycles
             Convg  =    0.8727D-08             -V/T =  2.0087
 Range of M.O.s used for correlation:     1   547
 NBasis=   547 NAE=    91 NBE=    91 NFC=     0 NFV=     0
 NROrb=    547 NOA=    91 NOB=    91 NVA=   456 NVB=   456

 **** Warning!!: The largest alpha MO coefficient is  0.79710787D+02

          Differentiating once with respect to electric field.
                with respect to dipole field.
          Electric field/nuclear overlap derivatives assumed to be zero.
          There are     3 degrees of freedom in the 1st order CPHF.  IDoFFX=0.
      3 vectors produced by pass  0 Test12= 1.38D-12 3.33D-08 XBig12= 1.20D+02 1.05D+00.
 AX will form     3 AO Fock derivatives at one time.
      3 vectors produced by pass  1 Test12= 1.38D-12 3.33D-08 XBig12= 2.16D+01 3.62D-01.
      3 vectors produced by pass  2 Test12= 1.38D-12 3.33D-08 XBig12= 9.09D+00 2.40D-01.
      3 vectors produced by pass  3 Test12= 1.38D-12 3.33D-08 XBig12= 8.04D-01 8.98D-02.
      3 vectors produced by pass  4 Test12= 1.38D-12 3.33D-08 XBig12= 2.36D-01 4.36D-02.
      3 vectors produced by pass  5 Test12= 1.38D-12 3.33D-08 XBig12= 5.82D-02 2.06D-02.
      3 vectors produced by pass  6 Test12= 1.38D-12 3.33D-08 XBig12= 1.68D-02 1.31D-02.
      3 vectors produced by pass  7 Test12= 1.38D-12 3.33D-08 XBig12= 2.04D-03 6.88D-03.
      3 vectors produced by pass  8 Test12= 1.38D-12 3.33D-08 XBig12= 4.62D-04 2.44D-03.
      3 vectors produced by pass  9 Test12= 1.38D-12 3.33D-08 XBig12= 1.10D-04 1.19D-03.
      3 vectors produced by pass 10 Test12= 1.38D-12 3.33D-08 XBig12= 3.15D-05 5.06D-04.
      3 vectors produced by pass 11 Test12= 1.38D-12 3.33D-08 XBig12= 6.28D-06 2.94D-04.
      3 vectors produced by pass 12 Test12= 1.38D-12 3.33D-08 XBig12= 7.97D-07 7.98D-05.
      3 vectors produced by pass 13 Test12= 1.38D-12 3.33D-08 XBig12= 2.86D-07 4.14D-05.
      3 vectors produced by pass 14 Test12= 1.38D-12 3.33D-08 XBig12= 3.39D-08 1.70D-05.
      3 vectors produced by pass 15 Test12= 1.38D-12 3.33D-08 XBig12= 8.51D-09 9.86D-06.
      3 vectors produced by pass 16 Test12= 1.38D-12 3.33D-08 XBig12= 7.84D-10 3.17D-06.
      3 vectors produced by pass 17 Test12= 1.38D-12 3.33D-08 XBig12= 8.88D-11 7.05D-07.
      3 vectors produced by pass 18 Test12= 1.38D-12 3.33D-08 XBig12= 4.01D-11 3.73D-07.
      3 vectors produced by pass 19 Test12= 1.38D-12 3.33D-08 XBig12= 2.01D-11 3.23D-07.
      3 vectors produced by pass 20 Test12= 1.38D-12 3.33D-08 XBig12= 9.25D-12 3.12D-07.
      2 vectors produced by pass 21 Test12= 1.38D-12 3.33D-08 XBig12= 2.91D-12 1.53D-07.
      1 vectors produced by pass 22 Test12= 1.38D-12 3.33D-08 XBig12= 7.74D-13 5.97D-08.
 Inverted reduced A of dimension    66 with in-core refinement.
 End of Minotr Frequency-dependent properties file   721 does not exist.
 End of Minotr Frequency-dependent properties file   722 does not exist.
 Symmetrizing basis deriv contribution to polar:
 IMax=3 JMax=2 DiffMx= 0.00D+00
 G2DrvN: will do    23 centers at a time, making    2 passes doing MaxLOS=2.
 Calling FoFCou, ICntrl=  3107 FMM=F I1Cent=   0 AccDes= 0.00D+00.
 Calling FoFCou, ICntrl=  3107 FMM=F I1Cent=   0 AccDes= 0.00D+00.
 FoFDir/FoFCou used for L=0 through L=2.
 End of G2Drv Frequency-dependent properties file   721 does not exist.
 End of G2Drv Frequency-dependent properties file   722 does not exist.
          IDoAtm=111111111111111111111111111111111111111111111
          Differentiating once with respect to electric field.
                with respect to dipole field.
          Differentiating once with respect to nuclear coordinates.
          There are   138 degrees of freedom in the 1st order CPHF.  IDoFFX=5.
 Will reuse    3 saved solutions.
    135 vectors produced by pass  0 Test12= 4.15D-14 1.00D-09 XBig12= 2.77D-01 1.46D-01.
 AX will form    68 AO Fock derivatives at one time.
    135 vectors produced by pass  1 Test12= 4.15D-14 1.00D-09 XBig12= 3.58D-02 1.50D-02.
    132 vectors produced by pass  2 Test12= 4.15D-14 1.00D-09 XBig12= 2.41D-04 1.87D-03.
    132 vectors produced by pass  3 Test12= 4.15D-14 1.00D-09 XBig12= 6.87D-07 8.31D-05.
    132 vectors produced by pass  4 Test12= 4.15D-14 1.00D-09 XBig12= 9.77D-10 2.22D-06.
    132 vectors produced by pass  5 Test12= 4.15D-14 1.00D-09 XBig12= 3.62D-12 2.02D-07.
     78 vectors produced by pass  6 Test12= 4.15D-14 1.00D-09 XBig12= 1.32D-13 2.03D-08.
 Inverted reduced A of dimension   876 with in-core refinement.
 Isotropic polarizability for W=    0.000000      187.06 Bohr**3.
 End of Minotr Frequency-dependent properties file   721 does not exist.
 End of Minotr Frequency-dependent properties file   722 does not exist.

 **********************************************************************

            Population analysis using the SCF density.

 **********************************************************************

 Orbital symmetries:
       Occupied  (A) (A) (A) (A) (A) (A) (A) (A) (A) (A) (A) (A)
                 (A) (A) (A) (A) (A) (A) (A) (A) (A) (A) (A) (A)
                 (A) (A) (A) (A) (A) (A) (A) (A) (A) (A) (A) (A)
                 (A) (A) (A) (A) (A) (A) (A) (A) (A) (A) (A) (A)
                 (A) (A) (A) (A) (A) (A) (A) (A) (A) (A) (A) (A)
                 (A) (A) (A) (A) (A) (A) (A) (A) (A) (A) (A) (A)
                 (A) (A) (A) (A) (A) (A) (A) (A) (A) (A) (A) (A)
                 (A) (A) (A) (A) (A) (A) (A)
       Virtual   (A) (A) (A) (A) (A) (A) (A) (A) (A) (A) (A) (A)
                 (A) (A) (A) (A) (A) (A) (A) (A) (A) (A) (A) (A)
                 (A) (A) (A) (A) (A) (A) (A) (A) (A) (A) (A) (A)
                 (A) (A) (A) (A) (A) (A) (A) (A) (A) (A) (A) (A)
                 (A) (A) (A) (A) (A) (A) (A) (A) (A) (A) (A) (A)
                 (A) (A) (A) (A) (A) (A) (A) (A) (A) (A) (A) (A)
                 (A) (A) (A) (A) (A) (A) (A) (A) (A) (A) (A) (A)
                 (A) (A) (A) (A) (A) (A) (A) (A) (A) (A) (A) (A)
                 (A) (A) (A) (A) (A) (A) (A) (A) (A) (A) (A) (A)
                 (A) (A) (A) (A) (A) (A) (A) (A) (A) (A) (A) (A)
                 (A) (A) (A) (A) (A) (A) (A) (A) (A) (A) (A) (A)
                 (A) (A) (A) (A) (A) (A) (A) (A) (A) (A) (A) (A)
                 (A) (A) (A) (A) (A) (A) (A) (A) (A) (A) (A) (A)
                 (A) (A) (A) (A) (A) (A) (A) (A) (A) (A) (A) (A)
                 (A) (A) (A) (A) (A) (A) (A) (A) (A) (A) (A) (A)
                 (A) (A) (A) (A) (A) (A) (A) (A) (A) (A) (A) (A)
                 (A) (A) (A) (A) (A) (A) (A) (A) (A) (A) (A) (A)
                 (A) (A) (A) (A) (A) (A) (A) (A) (A) (A) (A) (A)
                 (A) (A) (A) (A) (A) (A) (A) (A) (A) (A) (A) (A)
                 (A) (A) (A) (A) (A) (A) (A) (A) (A) (A) (A) (A)
                 (A) (A) (A) (A) (A) (A) (A) (A) (A) (A) (A) (A)
                 (A) (A) (A) (A) (A) (A) (A) (A) (A) (A) (A) (A)
                 (A) (A) (A) (A) (A) (A) (A) (A) (A) (A) (A) (A)
                 (A) (A) (A) (A) (A) (A) (A) (A) (A) (A) (A) (A)
                 (A) (A) (A) (A) (A) (A) (A) (A) (A) (A) (A) (A)
                 (A) (A) (A) (A) (A) (A) (A) (A) (A) (A) (A) (A)
                 (A) (A) (A) (A) (A) (A) (A) (A) (A) (A) (A) (A)
                 (A) (A) (A) (A) (A) (A) (A) (A) (A) (A) (A) (A)
                 (A) (A) (A) (A) (A) (A) (A) (A) (A) (A) (A) (A)
                 (A) (A) (A) (A) (A) (A) (A) (A) (A) (A) (A) (A)
                 (A) (A) (A) (A) (A) (A) (A) (A) (A) (A) (A) (A)
                 (A) (A) (A) (A) (A) (A) (A) (A) (A) (A) (A) (A)
                 (A) (A) (A) (A) (A) (A) (A) (A) (A) (A) (A) (A)
                 (A) (A) (A) (A) (A) (A) (A) (A) (A) (A) (A) (A)
                 (A) (A) (A) (A) (A) (A) (A) (A) (A) (A) (A) (A)
                 (A) (A) (A) (A) (A) (A) (A) (A) (A) (A) (A) (A)
                 (A) (A) (A) (A) (A) (A) (A) (A) (A) (A) (A) (A)
                 (A) (A) (A) (A) (A) (A) (A) (A) (A) (A) (A) (A)
 The electronic state is 1-A.
 Alpha  occ. eigenvalues --  -19.20444 -19.19656 -19.19204 -19.19155 -19.19031
 Alpha  occ. eigenvalues --  -19.18710 -19.17494 -19.17106 -19.15015 -19.14922
 Alpha  occ. eigenvalues --  -19.14795 -10.31596 -10.30833 -10.26843 -10.26372
 Alpha  occ. eigenvalues --  -10.26333 -10.25863 -10.25571 -10.24952 -10.24744
 Alpha  occ. eigenvalues --  -10.24483 -10.24281 -10.24013  -1.10564  -1.09643
 Alpha  occ. eigenvalues --   -1.06284  -1.05572  -1.04831  -1.03685  -1.03173
 Alpha  occ. eigenvalues --   -1.02969  -1.01908  -1.00761  -1.00004  -0.82388
 Alpha  occ. eigenvalues --   -0.80898  -0.79563  -0.78331  -0.71925  -0.70377
 Alpha  occ. eigenvalues --   -0.67743  -0.65348  -0.63550  -0.62635  -0.61257
 Alpha  occ. eigenvalues --   -0.60383  -0.56719  -0.55935  -0.55625  -0.54732
 Alpha  occ. eigenvalues --   -0.54597  -0.53445  -0.53092  -0.52351  -0.51689
 Alpha  occ. eigenvalues --   -0.51153  -0.50023  -0.49037  -0.48740  -0.46373
 Alpha  occ. eigenvalues --   -0.45712  -0.45635  -0.44521  -0.43625  -0.43191
 Alpha  occ. eigenvalues --   -0.42621  -0.42208  -0.41471  -0.40562  -0.39545
 Alpha  occ. eigenvalues --   -0.39130  -0.38255  -0.37760  -0.37126  -0.36085
 Alpha  occ. eigenvalues --   -0.36012  -0.35327  -0.34527  -0.34262  -0.33987
 Alpha  occ. eigenvalues --   -0.33181  -0.31559  -0.30857  -0.30353  -0.30280
 Alpha  occ. eigenvalues --   -0.29572  -0.28824  -0.28468  -0.27858  -0.27005
 Alpha  occ. eigenvalues --   -0.26047
 Alpha virt. eigenvalues --   -0.02308  -0.02208  -0.02134  -0.00592   0.00370
 Alpha virt. eigenvalues --    0.01215   0.02061   0.02479   0.02968   0.03396
 Alpha virt. eigenvalues --    0.03991   0.04170   0.05252   0.05496   0.05582
 Alpha virt. eigenvalues --    0.06087   0.06759   0.07509   0.07573   0.07846
 Alpha virt. eigenvalues --    0.08510   0.08645   0.09017   0.09477   0.10080
 Alpha virt. eigenvalues --    0.10334   0.11131   0.11450   0.11720   0.12079
 Alpha virt. eigenvalues --    0.12595   0.12969   0.13152   0.13586   0.14030
 Alpha virt. eigenvalues --    0.14460   0.14662   0.14710   0.15148   0.15430
 Alpha virt. eigenvalues --    0.15862   0.16262   0.16394   0.16923   0.17058
 Alpha virt. eigenvalues --    0.17109   0.17492   0.17766   0.18012   0.18497
 Alpha virt. eigenvalues --    0.18582   0.19470   0.19484   0.19709   0.19918
 Alpha virt. eigenvalues --    0.20139   0.20947   0.21201   0.21499   0.21950
 Alpha virt. eigenvalues --    0.22000   0.22098   0.22599   0.23240   0.23429
 Alpha virt. eigenvalues --    0.23451   0.23953   0.24044   0.24456   0.24534
 Alpha virt. eigenvalues --    0.25024   0.25071   0.25375   0.25669   0.26142
 Alpha virt. eigenvalues --    0.26475   0.26577   0.26746   0.27133   0.27453
 Alpha virt. eigenvalues --    0.27850   0.28165   0.28401   0.28558   0.28971
 Alpha virt. eigenvalues --    0.29131   0.29332   0.29568   0.30110   0.30511
 Alpha virt. eigenvalues --    0.30983   0.31336   0.31540   0.32014   0.32442
 Alpha virt. eigenvalues --    0.32636   0.33319   0.33502   0.33828   0.34230
 Alpha virt. eigenvalues --    0.34479   0.34862   0.35412   0.35862   0.36218
 Alpha virt. eigenvalues --    0.36575   0.36736   0.36818   0.37522   0.37691
 Alpha virt. eigenvalues --    0.37995   0.38578   0.38873   0.39285   0.39947
 Alpha virt. eigenvalues --    0.39994   0.40518   0.41407   0.41594   0.41734
 Alpha virt. eigenvalues --    0.42014   0.42688   0.43010   0.43412   0.43855
 Alpha virt. eigenvalues --    0.45283   0.45991   0.46100   0.46667   0.47161
 Alpha virt. eigenvalues --    0.47558   0.48697   0.49181   0.49344   0.50493
 Alpha virt. eigenvalues --    0.51235   0.51947   0.55021   0.62286   0.63585
 Alpha virt. eigenvalues --    0.64631   0.65223   0.67893   0.68893   0.69015
 Alpha virt. eigenvalues --    0.70052   0.71593   0.72472   0.73051   0.75185
 Alpha virt. eigenvalues --    0.75465   0.76059   0.76969   0.77513   0.78358
 Alpha virt. eigenvalues --    0.79079   0.80176   0.81200   0.81810   0.84433
 Alpha virt. eigenvalues --    0.85076   0.85488   0.86653   0.86988   0.89161
 Alpha virt. eigenvalues --    0.90302   0.91661   0.92787   0.93552   0.94882
 Alpha virt. eigenvalues --    0.95069   0.96277   0.98576   0.99031   0.99419
 Alpha virt. eigenvalues --    1.00790   1.01412   1.03108   1.03808   1.04456
 Alpha virt. eigenvalues --    1.05264   1.06215   1.06751   1.07336   1.08035
 Alpha virt. eigenvalues --    1.08641   1.09440   1.09660   1.10187   1.10824
 Alpha virt. eigenvalues --    1.11685   1.12253   1.12857   1.13899   1.15006
 Alpha virt. eigenvalues --    1.15658   1.17567   1.18088   1.19659   1.21072
 Alpha virt. eigenvalues --    1.21617   1.22272   1.23448   1.24026   1.24419
 Alpha virt. eigenvalues --    1.25329   1.26460   1.27052   1.27478   1.28570
 Alpha virt. eigenvalues --    1.29301   1.30042   1.30354   1.31002   1.31382
 Alpha virt. eigenvalues --    1.32100   1.32474   1.32916   1.33566   1.34471
 Alpha virt. eigenvalues --    1.35268   1.35743   1.36699   1.37721   1.38206
 Alpha virt. eigenvalues --    1.38576   1.40122   1.41308   1.41886   1.42349
 Alpha virt. eigenvalues --    1.43677   1.44532   1.45169   1.46809   1.47652
 Alpha virt. eigenvalues --    1.49300   1.49574   1.50738   1.51449   1.52618
 Alpha virt. eigenvalues --    1.54183   1.55123   1.55428   1.56844   1.56963
 Alpha virt. eigenvalues --    1.58176   1.58770   1.60084   1.60246   1.61735
 Alpha virt. eigenvalues --    1.62308   1.62869   1.63740   1.65205   1.65934
 Alpha virt. eigenvalues --    1.66882   1.67339   1.67767   1.68302   1.69789
 Alpha virt. eigenvalues --    1.70198   1.71331   1.71551   1.72376   1.73650
 Alpha virt. eigenvalues --    1.74856   1.75329   1.76240   1.77864   1.78272
 Alpha virt. eigenvalues --    1.78817   1.79191   1.81485   1.81982   1.82384
 Alpha virt. eigenvalues --    1.83942   1.84126   1.84807   1.85891   1.86543
 Alpha virt. eigenvalues --    1.87822   1.88149   1.89571   1.90094   1.91846
 Alpha virt. eigenvalues --    1.91984   1.92468   1.92881   1.93768   1.95053
 Alpha virt. eigenvalues --    1.95351   1.95652   1.96280   1.97510   1.98053
 Alpha virt. eigenvalues --    1.99025   2.00512   2.00869   2.01121   2.02130
 Alpha virt. eigenvalues --    2.03214   2.03460   2.05165   2.06305   2.07097
 Alpha virt. eigenvalues --    2.08513   2.08602   2.10149   2.10828   2.12275
 Alpha virt. eigenvalues --    2.12813   2.13860   2.14346   2.14667   2.15125
 Alpha virt. eigenvalues --    2.16655   2.18044   2.18589   2.19256   2.20123
 Alpha virt. eigenvalues --    2.21871   2.22205   2.23822   2.25440   2.28164
 Alpha virt. eigenvalues --    2.29395   2.30066   2.31823   2.33042   2.35717
 Alpha virt. eigenvalues --    2.36323   2.37504   2.38451   2.39053   2.39325
 Alpha virt. eigenvalues --    2.40296   2.40821   2.41823   2.43181   2.44725
 Alpha virt. eigenvalues --    2.46630   2.47080   2.47812   2.48982   2.49903
 Alpha virt. eigenvalues --    2.50344   2.51840   2.53624   2.55890   2.56499
 Alpha virt. eigenvalues --    2.56880   2.57999   2.58916   2.59480   2.59941
 Alpha virt. eigenvalues --    2.60978   2.61382   2.62743   2.64441   2.64913
 Alpha virt. eigenvalues --    2.65447   2.67236   2.68104   2.68640   2.69204
 Alpha virt. eigenvalues --    2.70053   2.70587   2.71914   2.74741   2.75236
 Alpha virt. eigenvalues --    2.77110   2.77295   2.78759   2.79892   2.80809
 Alpha virt. eigenvalues --    2.81322   2.81754   2.84219   2.85152   2.85524
 Alpha virt. eigenvalues --    2.87094   2.87490   2.87890   2.88673   2.89285
 Alpha virt. eigenvalues --    2.90007   2.91250   2.92804   2.92875   2.93691
 Alpha virt. eigenvalues --    2.94164   2.95267   2.97234   2.98330   2.99606
 Alpha virt. eigenvalues --    3.00764   3.03464   3.03955   3.05580   3.05989
 Alpha virt. eigenvalues --    3.07975   3.08850   3.10048   3.11160   3.12690
 Alpha virt. eigenvalues --    3.14828   3.16991   3.24753   3.26503   3.28969
 Alpha virt. eigenvalues --    3.33090   3.36011   3.37275   3.38155   3.41518
 Alpha virt. eigenvalues --    3.43201   3.45333   3.47319   3.47956   3.48704
 Alpha virt. eigenvalues --    3.50877   3.51126   3.52178   3.53139   3.54774
 Alpha virt. eigenvalues --    3.55264   3.57325   3.59984   3.61512   3.64624
 Alpha virt. eigenvalues --    3.65551   3.67881   3.71790   4.29622   4.31976
 Alpha virt. eigenvalues --    4.32495   4.35374   4.42591   4.43156   4.46043
 Alpha virt. eigenvalues --    4.47339   4.48408   4.49617   4.50640   4.53602
 Alpha virt. eigenvalues --    4.57767   4.60042   4.61601   4.66795   4.73131
 Alpha virt. eigenvalues --    4.79200   4.81421   4.84476   4.87233   4.89860
 Alpha virt. eigenvalues --    4.92830
          Condensed to atoms (all electrons):
              1          2          3          4          5          6
     1  O    8.313881  -0.001296  -0.031771  -0.033802   0.036091   0.224303
     2  C   -0.001296  11.102721  -1.508694   0.147212  -0.140099  -4.755165
     3  C   -0.031771  -1.508694   9.159043   0.213936   0.062322   0.452319
     4  O   -0.033802   0.147212   0.213936   8.270128   0.188966  -0.296293
     5  H    0.036091  -0.140099   0.062322   0.188966   0.436333   0.014749
     6  C    0.224303  -4.755165   0.452319  -0.296293   0.014749  19.109006
     7  O   -0.002357   0.081426  -0.123708   0.017061  -0.000713   0.125762
     8  H    0.000041  -0.019727   0.012658  -0.001533   0.000011   0.127265
     9  C   -0.077232   0.090473  -0.689650   0.012013  -0.004057   0.187518
    10  O    0.011526   0.044420   0.017526   0.000128  -0.000056  -0.001546
    11  H    0.000302  -0.014500  -0.000853   0.000002   0.000000   0.000771
    12  C   -0.042319  -2.187374  -0.374895  -0.017347   0.038409   1.095498
    13  O    0.005428  -0.064424   0.057135  -0.001283  -0.000196   0.000428
    14  C   -0.042495   2.369782  -0.848640   0.038954   0.020191  -8.078798
    15  O    0.000489  -0.020372  -0.037702  -0.000181   0.000068  -0.019253
    16  C    0.004290   0.030284   0.052877  -0.005391   0.000776  -0.169118
    17  C   -0.001794   0.113449  -0.117179   0.005431   0.000144  -0.952243
    18  O    0.000005  -0.002197   0.006995  -0.000040   0.000000   0.027224
    19  H   -0.000027   0.008633   0.000599  -0.000002   0.000000   0.010861
    20  C    0.000026   0.046342  -0.066291   0.000597   0.000009  -0.530265
    21  O    0.000000  -0.000034  -0.000274   0.000000   0.000000  -0.000185
    22  H    0.000000   0.000003   0.000000   0.000000   0.000000  -0.000181
    23  C   -0.000014   0.004408  -0.003374   0.000657  -0.000030  -0.137617
    24  O   -0.000008   0.004615  -0.008324   0.000039  -0.000003   0.008283
    25  H    0.000000  -0.000083   0.000582  -0.000002   0.000000  -0.000898
    26  C   -0.000014  -0.004067   0.000891  -0.001918   0.000058   0.054445
    27  O    0.000000   0.000095   0.000623   0.000000   0.000000   0.003958
    28  C    0.000014   0.000214   0.000039   0.000005   0.000000   0.019712
    29  O    0.000000  -0.000002   0.000064   0.000000   0.000000   0.000302
    30  H    0.225355   0.134097  -0.046918   0.002734  -0.004980  -0.009116
    31  H    0.000000   0.000000   0.000000   0.000000   0.000000   0.000009
    32  H    0.000652   0.001259  -0.008534   0.000040   0.000000   0.001046
    33  H   -0.000555  -0.029976  -0.011018  -0.000008   0.000000   0.019858
    34  H    0.004316   0.042275  -0.079870   0.000560  -0.000021  -0.024026
    35  H   -0.046680   0.441220  -0.131897   0.003541  -0.001027  -0.021785
    36  H   -0.014029   0.238216   0.190790  -0.043057   0.000482  -0.506798
    37  H   -0.001120   0.109288  -0.164737   0.011034   0.000073   0.072409
    38  H   -0.000113   0.041902  -0.038605  -0.000075  -0.000002  -0.208656
    39  H    0.000000   0.000012  -0.000166   0.000000   0.000000  -0.001172
    40  H    0.000000   0.000013   0.000542   0.000001   0.000000  -0.000842
    41  H    0.000000   0.000124   0.000378   0.000000   0.000000   0.001210
    42  H   -0.000003   0.001656   0.001252   0.000031   0.000000  -0.022461
    43  H    0.000000  -0.001335   0.000322  -0.000001   0.000000   0.016803
    44  H    0.000000   0.000013  -0.000024   0.000000   0.000000   0.002248
    45  H    0.000000  -0.000001  -0.000014   0.000000   0.000000   0.000499
              7          8          9         10         11         12
     1  O   -0.002357   0.000041  -0.077232   0.011526   0.000302  -0.042319
     2  C    0.081426  -0.019727   0.090473   0.044420  -0.014500  -2.187374
     3  C   -0.123708   0.012658  -0.689650   0.017526  -0.000853  -0.374895
     4  O    0.017061  -0.001533   0.012013   0.000128   0.000002  -0.017347
     5  H   -0.000713   0.000011  -0.004057  -0.000056   0.000000   0.038409
     6  C    0.125762   0.127265   0.187518  -0.001546   0.000771   1.095498
     7  O    8.211651   0.201201   0.001504   0.000022   0.000000   0.008103
     8  H    0.201201   0.354881   0.000610   0.000000   0.000000   0.001806
     9  C    0.001504   0.000610   9.314826   0.168757   0.018632  -3.245462
    10  O    0.000022   0.000000   0.168757   8.306501   0.208049  -0.124402
    11  H    0.000000   0.000000   0.018632   0.208049   0.436924   0.019031
    12  C    0.008103   0.001806  -3.245462  -0.124402   0.019031  12.665744
    13  O    0.006256   0.000019   0.028319  -0.002688  -0.000358  -0.194266
    14  C    0.055858  -0.119666  -0.604555   0.001383  -0.004848  -1.337801
    15  O   -0.012343   0.014221  -0.013064   0.000002   0.000003   0.020826
    16  C   -0.005527   0.019941  -0.273373  -0.001415  -0.000328  -0.282152
    17  C    0.017644  -0.002938   0.058237   0.000354  -0.000026  -0.100898
    18  O   -0.000210  -0.000056   0.003368  -0.000104  -0.000006   0.002344
    19  H   -0.000062  -0.000008  -0.012098   0.000052  -0.000003   0.006589
    20  C    0.005827  -0.000371  -0.028219   0.000062  -0.000011  -0.013153
    21  O   -0.000008  -0.000001   0.000354   0.000000   0.000000  -0.000625
    22  H    0.000000   0.000000  -0.000017   0.000000   0.000000   0.000081
    23  C    0.009692   0.010862  -0.001640  -0.000003   0.000000   0.010564
    24  O   -0.021885   0.002889   0.000306   0.000000   0.000000   0.002822
    25  H    0.001442  -0.000557  -0.000005   0.000000   0.000000  -0.000130
    26  C   -0.037764  -0.021074  -0.002048   0.000029  -0.000002   0.014377
    27  O    0.000124   0.000015  -0.000016   0.000000   0.000000  -0.000851
    28  C    0.000658  -0.000184  -0.002395   0.000003   0.000000  -0.013984
    29  O   -0.000006   0.000000   0.000015   0.000000   0.000000   0.000117
    30  H    0.000026   0.000000   0.010582  -0.001059   0.000011  -0.065534
    31  H    0.000000   0.000000   0.000000   0.000000   0.000000  -0.000001
    32  H   -0.000011   0.000000   0.436387  -0.038934  -0.017293  -0.065726
    33  H    0.000003   0.000000   0.729045  -0.072668   0.002290  -0.347899
    34  H   -0.000231   0.000003   0.061452   0.006132  -0.000032   0.134054
    35  H    0.000023   0.000003   0.028546  -0.000776   0.000007  -0.122553
    36  H    0.009681  -0.000204   0.039088  -0.000071   0.000001  -0.023459
    37  H   -0.031828  -0.008364   0.010577   0.000007   0.000000   0.007442
    38  H   -0.001037  -0.001157   0.005337   0.000095   0.000000  -0.012904
    39  H   -0.000451   0.000134  -0.000001   0.000000   0.000000   0.000074
    40  H    0.000686   0.000275   0.000006   0.000000   0.000000  -0.000029
    41  H    0.000046   0.000028   0.000125   0.000000   0.000000   0.000577
    42  H   -0.001155  -0.000286   0.000234   0.000000   0.000000   0.005486
    43  H   -0.000003   0.000003   0.001744  -0.000001   0.000000   0.000511
    44  H    0.000006   0.000000  -0.000036   0.000000   0.000000  -0.000001
    45  H    0.000001   0.000000   0.000007   0.000000   0.000000   0.000014
             13         14         15         16         17         18
     1  O    0.005428  -0.042495   0.000489   0.004290  -0.001794   0.000005
     2  C   -0.064424   2.369782  -0.020372   0.030284   0.113449  -0.002197
     3  C    0.057135  -0.848640  -0.037702   0.052877  -0.117179   0.006995
     4  O   -0.001283   0.038954  -0.000181  -0.005391   0.005431  -0.000040
     5  H   -0.000196   0.020191   0.000068   0.000776   0.000144   0.000000
     6  C    0.000428  -8.078798  -0.019253  -0.169118  -0.952243   0.027224
     7  O    0.006256   0.055858  -0.012343  -0.005527   0.017644  -0.000210
     8  H    0.000019  -0.119666   0.014221   0.019941  -0.002938  -0.000056
     9  C    0.028319  -0.604555  -0.013064  -0.273373   0.058237   0.003368
    10  O   -0.002688   0.001383   0.000002  -0.001415   0.000354  -0.000104
    11  H   -0.000358  -0.004848   0.000003  -0.000328  -0.000026  -0.000006
    12  C   -0.194266  -1.337801   0.020826  -0.282152  -0.100898   0.002344
    13  O    8.529868   0.184636  -0.023556  -0.013079  -0.002629   0.007462
    14  C    0.184636  15.365637   0.254617  -1.918191   1.589639   0.031236
    15  O   -0.023556   0.254617   8.290472   0.057307  -0.017169  -0.012879
    16  C   -0.013079  -1.918191   0.057307  14.507335  -3.954130  -0.208353
    17  C   -0.002629   1.589639  -0.017169  -3.954130  13.572769   0.327409
    18  O    0.007462   0.031236  -0.012879  -0.208353   0.327409   8.234316
    19  H    0.016577  -0.024690   0.022067  -0.061808   0.021852   0.179167
    20  C    0.013316  -1.432700   0.062305  -0.977290  -4.836805  -0.079369
    21  O    0.000427   0.002335  -0.001658   0.148735   0.190143   0.012640
    22  H   -0.000002  -0.001791   0.000082  -0.034716  -0.080839  -0.000619
    23  C    0.010369   0.122979  -0.025706   0.196694  -0.224157   0.003463
    24  O    0.000576  -0.013749   0.002460   0.079917   0.009684   0.000187
    25  H    0.000014  -0.001959   0.000601  -0.009459  -0.002546  -0.000001
    26  C   -0.060081  -0.747848  -0.020720  -3.183730   0.126022   0.069294
    27  O   -0.000014  -0.002300   0.003665  -0.060577  -0.058747  -0.000413
    28  C    0.001134  -0.127070  -0.004883   1.004382  -0.040718  -0.009188
    29  O    0.000008   0.009100   0.000477   0.010984   0.013873  -0.000289
    30  H   -0.000580  -0.000250  -0.000004   0.000292  -0.000066   0.000000
    31  H    0.000000   0.000340   0.000002  -0.004974   0.022767  -0.000026
    32  H    0.000718   0.002455   0.000101   0.005741  -0.000766  -0.000277
    33  H    0.007631  -0.002343  -0.000182  -0.006139   0.002710   0.000083
    34  H   -0.050534   0.115690   0.000176   0.004594   0.013136   0.000113
    35  H    0.009548   0.079388  -0.000263  -0.003085   0.003137   0.000028
    36  H    0.000983   0.296713   0.000158   0.000472   0.012266   0.000175
    37  H    0.008913   0.190282  -0.006780   0.016802   0.019212   0.000057
    38  H   -0.071285   0.431862  -0.060298   0.043863   0.029970  -0.000718
    39  H    0.000005   0.005952  -0.000035  -0.009067  -0.005683   0.000018
    40  H    0.000018   0.000393   0.001325   0.049079   0.015504  -0.000006
    41  H   -0.000034   0.056421   0.004609   0.066772   0.040408  -0.000790
    42  H    0.002549   0.075181  -0.065290   0.333287   0.035476  -0.004124
    43  H    0.003489   0.107117  -0.022171   0.017171   0.491203  -0.051396
    44  H    0.000174   0.008311  -0.001595   0.173648  -0.156414   0.002976
    45  H    0.000012   0.006586  -0.000054   0.125943   0.047961  -0.000556
             19         20         21         22         23         24
     1  O   -0.000027   0.000026   0.000000   0.000000  -0.000014  -0.000008
     2  C    0.008633   0.046342  -0.000034   0.000003   0.004408   0.004615
     3  C    0.000599  -0.066291  -0.000274   0.000000  -0.003374  -0.008324
     4  O   -0.000002   0.000597   0.000000   0.000000   0.000657   0.000039
     5  H    0.000000   0.000009   0.000000   0.000000  -0.000030  -0.000003
     6  C    0.010861  -0.530265  -0.000185  -0.000181  -0.137617   0.008283
     7  O   -0.000062   0.005827  -0.000008   0.000000   0.009692  -0.021885
     8  H   -0.000008  -0.000371  -0.000001   0.000000   0.010862   0.002889
     9  C   -0.012098  -0.028219   0.000354  -0.000017  -0.001640   0.000306
    10  O    0.000052   0.000062   0.000000   0.000000  -0.000003   0.000000
    11  H   -0.000003  -0.000011   0.000000   0.000000   0.000000   0.000000
    12  C    0.006589  -0.013153  -0.000625   0.000081   0.010564   0.002822
    13  O    0.016577   0.013316   0.000427  -0.000002   0.010369   0.000576
    14  C   -0.024690  -1.432700   0.002335  -0.001791   0.122979  -0.013749
    15  O    0.022067   0.062305  -0.001658   0.000082  -0.025706   0.002460
    16  C   -0.061808  -0.977290   0.148735  -0.034716   0.196694   0.079917
    17  C    0.021852  -4.836805   0.190143  -0.080839  -0.224157   0.009684
    18  O    0.179167  -0.079369   0.012640  -0.000619   0.003463   0.000187
    19  H    0.370364   0.050500  -0.000669   0.000022  -0.002510  -0.000054
    20  C    0.050500  14.317899  -0.287869   0.142692   0.240993  -0.003361
    21  O   -0.000669  -0.287869   8.331016   0.166008  -0.002103   0.000033
    22  H    0.000022   0.142692   0.166008   0.458978  -0.000091   0.000000
    23  C   -0.002510   0.240993  -0.002103  -0.000091   6.149277   0.022606
    24  O   -0.000054  -0.003361   0.000033   0.000000   0.022606   8.455468
    25  H    0.000000   0.000379   0.000000   0.000000  -0.022049   0.210553
    26  C    0.008952   0.979224  -0.015667   0.000243  -1.204909  -0.051659
    27  O    0.000030  -0.152096   0.004185   0.000846  -0.103175   0.002703
    28  C   -0.003336  -1.393675   0.008189   0.003992  -0.079912   0.008652
    29  O    0.000016  -0.106019  -0.013112   0.014984   0.007291  -0.000004
    30  H    0.000000   0.000001   0.000000   0.000000   0.000001   0.000000
    31  H    0.000000  -0.039320   0.000977  -0.002096   0.000968  -0.000001
    32  H    0.001297  -0.000370  -0.000001   0.000000   0.000006   0.000000
    33  H   -0.000052   0.000204   0.000001   0.000000  -0.000015   0.000000
    34  H   -0.000077   0.002579   0.000001   0.000000  -0.000203   0.000004
    35  H   -0.000016   0.000154   0.000000   0.000000   0.000009   0.000005
    36  H   -0.000008   0.001119   0.000000   0.000000   0.000177   0.000136
    37  H   -0.000033   0.002998   0.000000   0.000000   0.002729   0.001495
    38  H   -0.001093   0.032590   0.000025   0.000000   0.000786   0.000635
    39  H    0.000000   0.002699   0.000000   0.000000   0.442158  -0.051628
    40  H    0.000000  -0.004836  -0.000012   0.000000   0.565345  -0.058707
    41  H    0.000004  -0.067283  -0.000123   0.000005   0.019890   0.007603
    42  H   -0.000397  -0.000984  -0.000584   0.000010   0.058021   0.000944
    43  H   -0.008847  -0.242724  -0.002833  -0.000082   0.025301   0.000139
    44  H   -0.000094   0.311451  -0.043673  -0.006801   0.014320   0.000017
    45  H    0.000005  -0.236851   0.006017  -0.002157  -0.000235   0.000044
             25         26         27         28         29         30
     1  O    0.000000  -0.000014   0.000000   0.000014   0.000000   0.225355
     2  C   -0.000083  -0.004067   0.000095   0.000214  -0.000002   0.134097
     3  C    0.000582   0.000891   0.000623   0.000039   0.000064  -0.046918
     4  O   -0.000002  -0.001918   0.000000   0.000005   0.000000   0.002734
     5  H    0.000000   0.000058   0.000000   0.000000   0.000000  -0.004980
     6  C   -0.000898   0.054445   0.003958   0.019712   0.000302  -0.009116
     7  O    0.001442  -0.037764   0.000124   0.000658  -0.000006   0.000026
     8  H   -0.000557  -0.021074   0.000015  -0.000184   0.000000   0.000000
     9  C   -0.000005  -0.002048  -0.000016  -0.002395   0.000015   0.010582
    10  O    0.000000   0.000029   0.000000   0.000003   0.000000  -0.001059
    11  H    0.000000  -0.000002   0.000000   0.000000   0.000000   0.000011
    12  C   -0.000130   0.014377  -0.000851  -0.013984   0.000117  -0.065534
    13  O    0.000014  -0.060081  -0.000014   0.001134   0.000008  -0.000580
    14  C   -0.001959  -0.747848  -0.002300  -0.127070   0.009100  -0.000250
    15  O    0.000601  -0.020720   0.003665  -0.004883   0.000477  -0.000004
    16  C   -0.009459  -3.183730  -0.060577   1.004382   0.010984   0.000292
    17  C   -0.002546   0.126022  -0.058747  -0.040718   0.013873  -0.000066
    18  O   -0.000001   0.069294  -0.000413  -0.009188  -0.000289   0.000000
    19  H    0.000000   0.008952   0.000030  -0.003336   0.000016   0.000000
    20  C    0.000379   0.979224  -0.152096  -1.393675  -0.106019   0.000001
    21  O    0.000000  -0.015667   0.004185   0.008189  -0.013112   0.000000
    22  H    0.000000   0.000243   0.000846   0.003992   0.014984   0.000000
    23  C   -0.022049  -1.204909  -0.103175  -0.079912   0.007291   0.000001
    24  O    0.210553  -0.051659   0.002703   0.008652  -0.000004   0.000000
    25  H    0.401758   0.047551  -0.000202  -0.001175   0.000001   0.000000
    26  C    0.047551  11.634825   0.232765  -1.048339  -0.074716  -0.000001
    27  O   -0.000202   0.232765   8.420076   0.186346  -0.091942   0.000000
    28  C   -0.001175  -1.048339   0.186346   6.417212   0.381453   0.000000
    29  O    0.000001  -0.074716  -0.091942   0.381453   8.208074   0.000000
    30  H    0.000000  -0.000001   0.000000   0.000000   0.000000   0.391838
    31  H    0.000000   0.005986  -0.003113   0.020990   0.238587   0.000000
    32  H    0.000000  -0.000019   0.000000   0.000037   0.000000  -0.000031
    33  H    0.000000  -0.000150   0.000000   0.000001   0.000000   0.000124
    34  H    0.000000   0.000698   0.000000   0.000023   0.000000  -0.000076
    35  H    0.000000  -0.000129   0.000000  -0.000003   0.000000  -0.010744
    36  H    0.000000  -0.000733   0.000000  -0.000030   0.000000   0.000251
    37  H    0.000005  -0.006156   0.000005  -0.000024   0.000000   0.000013
    38  H    0.000004   0.018045   0.000287   0.000724  -0.000009   0.000003
    39  H   -0.008969  -0.040803  -0.004222  -0.004254  -0.000024   0.000000
    40  H   -0.003571  -0.288210   0.007352   0.013122  -0.000369   0.000000
    41  H   -0.000243   0.093055  -0.040647   0.050667  -0.001188   0.000000
    42  H   -0.000027  -0.203332   0.006952   0.004539  -0.000076   0.000000
    43  H    0.000000  -0.097009   0.001283  -0.005630  -0.000039   0.000000
    44  H    0.000000  -0.051848   0.004892  -0.011082  -0.009812   0.000000
    45  H    0.000000  -0.098651  -0.058235   0.494732  -0.055167   0.000000
             31         32         33         34         35         36
     1  O    0.000000   0.000652  -0.000555   0.004316  -0.046680  -0.014029
     2  C    0.000000   0.001259  -0.029976   0.042275   0.441220   0.238216
     3  C    0.000000  -0.008534  -0.011018  -0.079870  -0.131897   0.190790
     4  O    0.000000   0.000040  -0.000008   0.000560   0.003541  -0.043057
     5  H    0.000000   0.000000   0.000000  -0.000021  -0.001027   0.000482
     6  C    0.000009   0.001046   0.019858  -0.024026  -0.021785  -0.506798
     7  O    0.000000  -0.000011   0.000003  -0.000231   0.000023   0.009681
     8  H    0.000000   0.000000   0.000000   0.000003   0.000003  -0.000204
     9  C    0.000000   0.436387   0.729045   0.061452   0.028546   0.039088
    10  O    0.000000  -0.038934  -0.072668   0.006132  -0.000776  -0.000071
    11  H    0.000000  -0.017293   0.002290  -0.000032   0.000007   0.000001
    12  C   -0.000001  -0.065726  -0.347899   0.134054  -0.122553  -0.023459
    13  O    0.000000   0.000718   0.007631  -0.050534   0.009548   0.000983
    14  C    0.000340   0.002455  -0.002343   0.115690   0.079388   0.296713
    15  O    0.000002   0.000101  -0.000182   0.000176  -0.000263   0.000158
    16  C   -0.004974   0.005741  -0.006139   0.004594  -0.003085   0.000472
    17  C    0.022767  -0.000766   0.002710   0.013136   0.003137   0.012266
    18  O   -0.000026  -0.000277   0.000083   0.000113   0.000028   0.000175
    19  H    0.000000   0.001297  -0.000052  -0.000077  -0.000016  -0.000008
    20  C   -0.039320  -0.000370   0.000204   0.002579   0.000154   0.001119
    21  O    0.000977  -0.000001   0.000001   0.000001   0.000000   0.000000
    22  H   -0.002096   0.000000   0.000000   0.000000   0.000000   0.000000
    23  C    0.000968   0.000006  -0.000015  -0.000203   0.000009   0.000177
    24  O   -0.000001   0.000000   0.000000   0.000004   0.000005   0.000136
    25  H    0.000000   0.000000   0.000000   0.000000   0.000000   0.000000
    26  C    0.005986  -0.000019  -0.000150   0.000698  -0.000129  -0.000733
    27  O   -0.003113   0.000000   0.000000   0.000000   0.000000   0.000000
    28  C    0.020990   0.000037   0.000001   0.000023  -0.000003  -0.000030
    29  O    0.238587   0.000000   0.000000   0.000000   0.000000   0.000000
    30  H    0.000000  -0.000031   0.000124  -0.000076  -0.010744   0.000251
    31  H    0.408395   0.000000   0.000000   0.000000   0.000000   0.000000
    32  H    0.000000   0.610450  -0.046552  -0.009946  -0.000043   0.000005
    33  H    0.000000  -0.046552   0.603739   0.007383   0.003792  -0.000009
    34  H    0.000000  -0.009946   0.007383   0.619084   0.006487   0.005603
    35  H    0.000000  -0.000043   0.003792   0.006487   0.612239   0.006792
    36  H    0.000000   0.000005  -0.000009   0.005603   0.006792   0.643283
    37  H    0.000000   0.000001  -0.000008   0.000030   0.002517   0.007693
    38  H    0.000000   0.000001  -0.000004   0.007117   0.000025   0.004420
    39  H   -0.000003   0.000000   0.000000   0.000000   0.000000   0.000000
    40  H    0.000000   0.000000   0.000000   0.000000   0.000000   0.000000
    41  H    0.000025   0.000000   0.000000   0.000000   0.000000   0.000000
    42  H    0.000001   0.000000   0.000000  -0.000009   0.000000   0.000001
    43  H    0.000011  -0.000002  -0.000001  -0.000004   0.000000   0.000000
    44  H    0.000430   0.000000   0.000000   0.000000   0.000000   0.000000
    45  H   -0.007563   0.000000   0.000000   0.000000   0.000000   0.000000
             37         38         39         40         41         42
     1  O   -0.001120  -0.000113   0.000000   0.000000   0.000000  -0.000003
     2  C    0.109288   0.041902   0.000012   0.000013   0.000124   0.001656
     3  C   -0.164737  -0.038605  -0.000166   0.000542   0.000378   0.001252
     4  O    0.011034  -0.000075   0.000000   0.000001   0.000000   0.000031
     5  H    0.000073  -0.000002   0.000000   0.000000   0.000000   0.000000
     6  C    0.072409  -0.208656  -0.001172  -0.000842   0.001210  -0.022461
     7  O   -0.031828  -0.001037  -0.000451   0.000686   0.000046  -0.001155
     8  H   -0.008364  -0.001157   0.000134   0.000275   0.000028  -0.000286
     9  C    0.010577   0.005337  -0.000001   0.000006   0.000125   0.000234
    10  O    0.000007   0.000095   0.000000   0.000000   0.000000   0.000000
    11  H    0.000000   0.000000   0.000000   0.000000   0.000000   0.000000
    12  C    0.007442  -0.012904   0.000074  -0.000029   0.000577   0.005486
    13  O    0.008913  -0.071285   0.000005   0.000018  -0.000034   0.002549
    14  C    0.190282   0.431862   0.005952   0.000393   0.056421   0.075181
    15  O   -0.006780  -0.060298  -0.000035   0.001325   0.004609  -0.065290
    16  C    0.016802   0.043863  -0.009067   0.049079   0.066772   0.333287
    17  C    0.019212   0.029970  -0.005683   0.015504   0.040408   0.035476
    18  O    0.000057  -0.000718   0.000018  -0.000006  -0.000790  -0.004124
    19  H   -0.000033  -0.001093   0.000000   0.000000   0.000004  -0.000397
    20  C    0.002998   0.032590   0.002699  -0.004836  -0.067283  -0.000984
    21  O    0.000000   0.000025   0.000000  -0.000012  -0.000123  -0.000584
    22  H    0.000000   0.000000   0.000000   0.000000   0.000005   0.000010
    23  C    0.002729   0.000786   0.442158   0.565345   0.019890   0.058021
    24  O    0.001495   0.000635  -0.051628  -0.058707   0.007603   0.000944
    25  H    0.000005   0.000004  -0.008969  -0.003571  -0.000243  -0.000027
    26  C   -0.006156   0.018045  -0.040803  -0.288210   0.093055  -0.203332
    27  O    0.000005   0.000287  -0.004222   0.007352  -0.040647   0.006952
    28  C   -0.000024   0.000724  -0.004254   0.013122   0.050667   0.004539
    29  O    0.000000  -0.000009  -0.000024  -0.000369  -0.001188  -0.000076
    30  H    0.000013   0.000003   0.000000   0.000000   0.000000   0.000000
    31  H    0.000000   0.000000  -0.000003   0.000000   0.000025   0.000001
    32  H    0.000001   0.000001   0.000000   0.000000   0.000000   0.000000
    33  H   -0.000008  -0.000004   0.000000   0.000000   0.000000   0.000000
    34  H    0.000030   0.007117   0.000000   0.000000   0.000000  -0.000009
    35  H    0.002517   0.000025   0.000000   0.000000   0.000000   0.000000
    36  H    0.007693   0.004420   0.000000   0.000000   0.000000   0.000001
    37  H    0.606984   0.005248   0.000001   0.000000  -0.000007   0.000007
    38  H    0.005248   0.621065   0.000000   0.000007  -0.000013   0.011395
    39  H    0.000001   0.000000   0.595213  -0.047304  -0.010284   0.000035
    40  H    0.000000   0.000007  -0.047304   0.584878   0.006563   0.003416
    41  H   -0.000007  -0.000013  -0.010284   0.006563   0.619996   0.006381
    42  H    0.000007   0.011395   0.000035   0.003416   0.006381   0.605299
    43  H   -0.000007  -0.000065   0.000006   0.000000   0.002680   0.006197
    44  H    0.000000  -0.000025   0.000002  -0.000004   0.000081   0.001364
    45  H    0.000000   0.000000   0.000010  -0.000007   0.006264   0.000024
             43         44         45
     1  O    0.000000   0.000000   0.000000
     2  C   -0.001335   0.000013  -0.000001
     3  C    0.000322  -0.000024  -0.000014
     4  O   -0.000001   0.000000   0.000000
     5  H    0.000000   0.000000   0.000000
     6  C    0.016803   0.002248   0.000499
     7  O   -0.000003   0.000006   0.000001
     8  H    0.000003   0.000000   0.000000
     9  C    0.001744  -0.000036   0.000007
    10  O   -0.000001   0.000000   0.000000
    11  H    0.000000   0.000000   0.000000
    12  C    0.000511  -0.000001   0.000014
    13  O    0.003489   0.000174   0.000012
    14  C    0.107117   0.008311   0.006586
    15  O   -0.022171  -0.001595  -0.000054
    16  C    0.017171   0.173648   0.125943
    17  C    0.491203  -0.156414   0.047961
    18  O   -0.051396   0.002976  -0.000556
    19  H   -0.008847  -0.000094   0.000005
    20  C   -0.242724   0.311451  -0.236851
    21  O   -0.002833  -0.043673   0.006017
    22  H   -0.000082  -0.006801  -0.002157
    23  C    0.025301   0.014320  -0.000235
    24  O    0.000139   0.000017   0.000044
    25  H    0.000000   0.000000   0.000000
    26  C   -0.097009  -0.051848  -0.098651
    27  O    0.001283   0.004892  -0.058235
    28  C   -0.005630  -0.011082   0.494732
    29  O   -0.000039  -0.009812  -0.055167
    30  H    0.000000   0.000000   0.000000
    31  H    0.000011   0.000430  -0.007563
    32  H   -0.000002   0.000000   0.000000
    33  H   -0.000001   0.000000   0.000000
    34  H   -0.000004   0.000000   0.000000
    35  H    0.000000   0.000000   0.000000
    36  H    0.000000   0.000000   0.000000
    37  H   -0.000007   0.000000   0.000000
    38  H   -0.000065  -0.000025   0.000000
    39  H    0.000006   0.000002   0.000010
    40  H    0.000000  -0.000004  -0.000007
    41  H    0.002680   0.000081   0.006264
    42  H    0.006197   0.001364   0.000024
    43  H    0.604828   0.007181   0.002458
    44  H    0.007181   0.594321   0.005704
    45  H    0.002458   0.005704   0.630604
 Mulliken atomic charges:
              1
     1  O   -0.531091
     2  C   -0.304808
     3  C    0.062247
     4  O   -0.512138
     5  H    0.352503
     6  C    0.159932
     7  O   -0.515403
     8  H    0.429261
     9  C   -0.254193
    10  O   -0.521325
    11  H    0.352237
    12  C    0.539296
    13  O   -0.411002
    14  C   -0.113341
    15  O   -0.369875
    16  C    0.230716
    17  C   -0.224653
    18  O   -0.536940
    19  H    0.418295
    20  C    0.285894
    21  O   -0.501656
    22  H    0.341445
    23  C   -0.111821
    24  O   -0.613430
    25  H    0.388985
    26  C   -0.024860
    27  O   -0.299652
    28  C    0.129042
    29  O   -0.532571
    30  H    0.374033
    31  H    0.357608
    32  H    0.128311
    33  H    0.140714
    34  H    0.133518
    35  H    0.141539
    36  H    0.129893
    37  H    0.143239
    38  H    0.140655
    39  H    0.137750
    40  H    0.155372
    41  H    0.136702
    42  H    0.138990
    43  H    0.143703
    44  H    0.154271
    45  H    0.132610
 Sum of Mulliken atomic charges =   0.00000
 Mulliken charges with hydrogens summed into heavy atoms:
              1
     1  O   -0.157058
     2  C   -0.163269
     3  C    0.192140
     4  O   -0.159635
     6  C    0.303171
     7  O   -0.086142
     9  C    0.014832
    10  O   -0.169088
    12  C    0.672813
    13  O   -0.411002
    14  C    0.027314
    15  O   -0.369875
    16  C    0.369706
    17  C   -0.080951
    18  O   -0.118645
    20  C    0.440165
    21  O   -0.160211
    23  C    0.181301
    24  O   -0.224445
    26  C    0.111842
    27  O   -0.299652
    28  C    0.261652
    29  O   -0.174964
 Sum of Mulliken charges with hydrogens summed into heavy atoms =   0.00000
 APT atomic charges:
              1
     1  O   -0.629357
     2  C    0.403235
     3  C    0.393614
     4  O   -0.649038
     5  H    0.269878
     6  C    0.367600
     7  O   -0.682854
     8  H    0.427876
     9  C    0.473550
    10  O   -0.610963
    11  H    0.253304
    12  C    0.449640
    13  O   -0.891510
    14  C    0.916037
    15  O   -0.846770
    16  C    0.370045
    17  C    0.426819
    18  O   -0.719076
    19  H    0.416565
    20  C    0.347494
    21  O   -0.585899
    22  H    0.238328
    23  C    0.470561
    24  O   -0.663600
    25  H    0.257456
    26  C    0.446692
    27  O   -0.768436
    28  C    0.906544
    29  O   -0.663717
    30  H    0.275146
    31  H    0.262340
    32  H   -0.045592
    33  H   -0.054119
    34  H   -0.049843
    35  H   -0.047059
    36  H   -0.052253
    37  H   -0.036892
    38  H   -0.043806
    39  H   -0.052574
    40  H   -0.036161
    41  H   -0.056302
    42  H   -0.027303
    43  H   -0.039053
    44  H   -0.037369
    45  H   -0.083179
 Sum of APT charges=   0.00000
 APT Atomic charges with hydrogens summed into heavy atoms:
              1
[...]
 2530,-0.00001020,-0.00000222,0.00000393,-0.00004886,0.00007104,0.00003
 686,0.00055114,-0.00002483,-0.00001518,-0.00086980,-0.00092578,-0.0055
 9134,-0.02110268,0.00126705,0.00911028,-0.33848869,0.04123620,-0.06307
 161,-0.00453348,0.00129797,-0.00262019,0.00152841,-0.00044261,0.000644
 20,-0.00030031,0.00005069,0.00002610,-0.00059335,0.00050416,0.00045130
 ,0.00024420,-0.00004787,-0.00022022,-0.00005130,0.00006733,-0.00004786
 ,0.00059837,0.00068796,0.00001383,0.00021505,-0.00008145,0.00017295,0.
 00005898,-0.00004256,0.00005881,-0.00902113,0.00086988,-0.00217850,0.0
 0109678,0.00029511,-0.00111021,-0.00006725,-0.00032077,0.00002923,0.00
 007193,0.00003974,-0.00007481,-0.00000068,-0.00000199,-0.00000391,0.00
 000370,0.00000108,0.00000427,-0.00000250,0.00000194,-0.00000173,0.0000
 1088,-0.00000014,-0.00000932,0.00002362,0.00002235,0.00003450,0.000007
 69,-0.00000143,-0.00000937,0.00002447,0.00000957,0.00002697,0.00005691
 ,0.00017724,-0.00025684,0.00181617,0.00033461,0.00050184,0.00024371,0.
 00015723,-0.00001957,0.00025733,-0.00087527,-0.00022821,0.00031335,-0.
 00060960,-0.00068160,0.36672232,0.00000694,-0.00003204,0.00002646,-0.0
 0001908,0.00004672,-0.00002919,0.00005847,0.00006876,-0.00004490,-0.00
 000048,-0.00005140,-0.00000937,-0.00000628,0.00001031,-0.00000525,-0.0
 0044128,0.00027849,-0.00006553,0.00025373,-0.00019800,-0.00039739,-0.0
 0018747,-0.00011562,0.00026786,0.00001476,-0.00002890,-0.00000213,-0.0
 0001042,0.00002775,0.00002248,0.00000677,-0.00000594,-0.00000159,-0.00
 000593,0.00000738,-0.00012619,-0.00009569,0.00005497,0.00033204,0.0007
 8800,0.00128060,-0.00120454,-0.00807737,0.00149427,0.00003572,0.043507
 60,-0.05062491,0.00847145,0.03420136,-0.00531386,0.00833744,-0.0023534
 7,0.00454357,0.00009634,0.00039329,-0.00031965,-0.00033585,0.00085291,
 0.00048055,-0.00153949,-0.00038158,-0.00040560,0.00051540,-0.00014537,
 -0.00014673,0.00014804,-0.00107739,0.00133483,0.00066696,0.00011247,-0
 .00011908,0.00007997,0.00005943,-0.00002950,0.00006544,-0.02449762,0.0
 0220041,-0.00632579,0.00118465,0.00063127,0.00036294,0.00019800,-0.000
 84462,-0.00003801,0.00000332,0.00017393,0.00005910,0.00000025,0.000000
 51,-0.00000577,-0.00002124,0.00000445,0.00000033,0.00001017,-0.0000144
 6,-0.00000109,-0.00001101,0.00000168,0.00000746,-0.00001045,0.00000112
 ,-0.00000495,-0.00000236,-0.00000713,0.00000566,-0.00001908,0.00000609
 ,0.00000530,0.00007013,-0.00007754,0.00001544,-0.00003572,0.00036687,-
 0.00050020,0.00024109,0.00038425,0.00002091,0.00060789,-0.00010575,-0.
 00016573,-0.00173453,-0.00245039,-0.00327233,-0.04394080,0.05319598,-0
 .00001097,0.00000381,-0.00003505,0.00000397,-0.00001725,0.00003326,0.0
 0003972,0.00005484,0.00002356,-0.00003858,0.00001217,-0.00002338,-0.00
 000348,-0.00000004,-0.00000258,0.00036690,-0.00013083,-0.00032509,-0.0
 0026353,-0.00003016,0.00017762,0.00010867,-0.00000351,0.00001977,-0.00
 004024,0.00004342,-0.00002247,0.00000175,-0.00004160,-0.00001969,0.000
 00236,0.00000287,-0.00000540,-0.00000506,-0.00007197,0.00000482,-0.001
 00167,-0.00050680,-0.00044615,0.00825798,0.00091493,0.00222834,0.03418
 868,-0.00327548,-0.01058734,-0.07263702,0.00959202,-0.05798829,-0.0119
 0535,-0.00021935,-0.00018385,0.00170110,-0.00064144,0.00062309,0.00023
 342,0.00016642,-0.00013179,-0.00055832,-0.00043525,0.00060074,0.000222
 76,0.00014046,-0.00006251,0.00004231,-0.00001772,-0.00003523,-0.000036
 00,0.00119360,0.00095011,0.00014144,-0.00024913,0.00003276,-0.00003174
 ,-0.00003083,0.00007610,-0.02451281,0.00177932,-0.00308260,0.00150614,
 0.00024119,0.00149247,-0.00028726,0.00003168,0.00007643,0.00009841,0.0
 0003540,-0.00019864,-0.00000312,0.00000374,0.00000275,0.00001131,-0.00
 000168,0.00001415,-0.00000389,-0.00000578,-0.00000165,-0.00000030,0.00
 000844,0.00000538,-0.00003850,-0.00003459,-0.00008684,-0.00000802,0.00
 000600,0.00001116,-0.00004965,-0.00002184,-0.00004503,-0.00019438,-0.0
 0008214,0.00003078,-0.00067483,-0.00034147,-0.00172514,0.00016908,0.00
 026224,-0.00005633,0.00062145,-0.00037553,-0.00013752,-0.00106611,-0.0
 0270386,-0.00311609,0.06523000,-0.00747975,0.07245877,0.00000121,0.000
 03067,-0.00003050,-0.00000260,-0.00004112,0.00001288,-0.00002915,-0.00
 010635,0.00001418,0.00001311,0.00004689,0.00003035,-0.00000116,-0.0000
 2090,0.00001022,0.00015837,0.00008568,0.00015766,0.00004837,0.00006068
 ,0.00003036,-0.00005411,0.00001431,-0.00003161,-0.00004996,-0.00003969
 ,0.00009867,0.00003583,-0.00000710,-0.00005463,-0.00002278,0.00001574,
 0.00002138,-0.00001576,0.00003085,0.00003229,0.00008742,0.00067521,-0.
 00041048,0.00003255,-0.00096842,-0.00059045,0.00288976,-0.00265754,0.0
 0223665,-0.01040742,0.00395128,0.00207854,-0.34432403,0.03772323,0.035
 96166,-0.01789353,-0.01169331,-0.01312046,-0.00000725,-0.00099010,0.00
 143746,-0.00957579,0.00230584,0.00454368,0.00175903,0.00014511,-0.0009
 8942,0.00037512,0.00004532,-0.00025168,0.00042138,0.00025782,0.0002511
 1,0.00004350,-0.00009102,0.00001904,-0.00000865,-0.00001452,-0.0000022
 0,-0.00061866,-0.00011334,-0.00056052,0.00026480,0.00015107,-0.0000047
 3,-0.00075851,-0.00077243,-0.00032401,0.00034660,0.00006619,0.00031582
 ,-0.00000520,-0.00000365,0.00000715,-0.00003464,0.00006698,0.00012123,
 -0.00001217,0.00005651,-0.00000450,0.00002970,0.00000744,-0.00002738,0
 .00004563,-0.00002386,0.00004671,0.00000875,0.00000895,-0.00001395,0.0
 0001576,0.00000129,-0.00000096,0.00000371,0.00003576,-0.00004118,0.000
 11660,-0.00004940,0.00033141,-0.00003277,0.00013955,0.00000774,0.00005
 244,-0.00018346,-0.00003647,0.00064293,0.00037807,0.00033837,0.0003762
 3,0.00100028,0.00007531,0.37502199,-0.00001217,0.00001835,-0.00005593,
 0.00001011,-0.00004132,0.00003545,0.00000870,0.00002270,0.00001873,-0.
 00001625,0.00004138,-0.00004990,0.00000011,-0.00000517,-0.00000107,0.0
 0005950,-0.00022225,-0.00018371,-0.00012765,0.00005630,0.00021292,0.00
 010574,0.00004101,-0.00013850,-0.00003665,0.00002112,0.00005382,0.0000
 2548,-0.00004198,-0.00004159,-0.00001726,0.00001405,0.00000683,0.00002
 385,0.00006293,0.00010113,0.00000210,0.00021549,-0.00029074,0.00037666
 ,0.00010102,0.00048062,0.00058845,0.00186551,-0.00221224,0.03525455,-0
 .01152768,-0.00021645,0.03777361,-0.04198966,-0.00138001,-0.03403473,-
 0.00764727,-0.01241280,-0.00031543,0.00036543,0.00160876,-0.00840872,0
 .00221656,0.00350429,-0.00078232,0.00074053,-0.00067184,0.00003267,0.0
 0002958,-0.00024110,-0.00020086,-0.00008222,0.00007182,-0.00005008,-0.
 00001475,0.00001072,-0.00001026,0.00002052,-0.00003344,0.00125734,0.00
 217841,0.00053131,-0.00029615,-0.00041296,-0.00040645,0.00044639,-0.00
 024847,-0.00008298,0.00005700,0.00002908,0.00019599,-0.00000390,0.0000
 0296,0.00000842,0.00001567,0.00007549,0.00004841,-0.00003226,0.0000337
 1,0.00000286,0.00002484,0.00000931,-0.00002499,0.00002437,-0.00002831,
 0.00001564,0.00000215,0.00001076,-0.00000723,0.00000271,-0.00000578,-0
 .00000764,-0.00003183,-0.00000138,0.00002375,-0.00022102,-0.00014433,-
 0.00012112,-0.00005698,-0.00011252,0.00003580,-0.00015393,0.00017052,0
 .00005457,-0.00058349,-0.00044416,-0.00034435,0.00010502,-0.00545685,0
 .00204179,-0.03016120,0.06009913,0.00001133,-0.00000366,0.00002388,0.0
 0000945,0.00002067,-0.00000743,-0.00000909,-0.00000476,-0.00000814,0.0
 0001310,-0.00000414,0.00000090,-0.00000324,0.00000210,0.00000106,-0.00
 006916,0.00003165,0.00001871,0.00006153,-0.00002881,-0.00006961,-0.000
 03425,-0.00000790,0.00005569,-0.00004814,-0.00005215,0.00002205,0.0000
 4552,0.00003288,0.00001873,-0.00001971,-0.00000110,0.00001163,-0.00007
 483,-0.00006471,-0.00006527,0.00041085,0.00014496,-0.00010589,-0.00080
 427,0.00027544,-0.00056622,-0.00191307,0.00117812,-0.00001945,-0.00875
 134,0.00595752,0.00088645,0.04181486,-0.00242947,-0.04443966,-0.032305
 13,-0.01247623,-0.00794504,-0.00170427,-0.00018155,0.00133200,0.037190
 54,-0.00158310,-0.00939543,-0.00136219,-0.00153971,0.00266998,-0.00005
 474,-0.00044925,0.00047752,0.00005552,0.00002882,0.00009125,0.00001072
 ,-0.00000590,-0.00000843,0.00000818,-0.00001320,0.00001222,0.00045915,
 -0.00012246,-0.00038747,-0.00020896,-0.00052004,-0.00019451,0.00121492
 ,0.00075083,0.00149407,-0.00051948,-0.00006767,-0.00025578,-0.00000063
 ,-0.00000310,-0.00000200,-0.00008586,-0.00013898,-0.00010715,-0.000028
 74,0.00001837,0.00000120,0.00003496,0.00000720,-0.00003308,0.00005796,
 -0.00000531,0.00005530,0.00000670,0.00000451,-0.00001158,0.00001042,0.
 00000161,0.00000478,0.00002019,0.00002432,-0.00001856,0.00021582,-0.00
 003726,-0.00003157,0.00000951,0.00007823,-0.00000294,-0.00000820,-0.00
 000722,-0.00003456,0.00001615,-0.00015005,0.00012116,-0.00031687,0.001
 49176,-0.00040719,-0.03331307,0.00832601,0.06323309,0.00000518,-0.0000
 0357,-0.00000085,-0.00000193,0.00000027,-0.00000292,-0.00001178,-0.000
 01664,0.00000599,0.00001003,-0.00000079,0.00000151,-0.00000291,0.00000
 028,0.00000154,0.00000670,0.00003094,0.00003446,0.00002698,-0.00000991
 ,-0.00001792,-0.00001566,0.00000504,0.00001051,-0.00001348,0.00000222,
 -0.00000662,0.00001593,-0.00000069,0.00000690,-0.00000936,0.00000096,-
 0.00000140,-0.00001573,0.00001122,-0.00000074,0.00003331,-0.00000412,-
 0.00005314,-0.00010788,-0.00003341,-0.00001675,0.00028159,-0.00031058,
 0.00028444,-0.00055050,0.00061484,0.00029314,-0.00747716,-0.00271998,0
 .00278159,0.00133561,0.00044523,0.00001823,0.00013588,0.00002935,-0.00
 006739,-0.34582576,-0.04989486,0.03065814,-0.01600578,0.01392425,-0.00
 278204,-0.00017734,0.00032296,0.00037407,-0.00005749,-0.00000528,0.000
 00472,0.00003702,0.00001449,-0.00002062,-0.00001482,-0.00000638,0.0000
 0080,-0.00011509,-0.00005796,-0.00012642,0.00157361,-0.00099275,0.0002
 1930,-0.01292909,-0.00251505,0.00111289,0.00193115,0.00062378,0.001121
 63,-0.00000172,0.00000184,-0.00000028,0.00040692,0.00042847,0.00048650
 ,-0.00000792,-0.00000149,0.00000070,0.00000891,0.00000173,-0.00000479,
 0.00000841,-0.00000233,0.00000170,0.00000291,0.00000123,-0.00000295,0.
 00000560,0.00000246,0.00000101,0.00000623,0.00000433,-0.00000681,0.000
 01976,0.00000109,0.00002803,0.00002286,-0.00000545,0.00000621,0.000034
 93,-0.00004719,-0.00000503,0.00007779,0.00009429,-0.00001804,0.0003115
 1,-0.00041519,0.00021051,0.00065869,-0.00060943,0.00046273,0.37622605,
 0.00000403,-0.00000200,0.00001981,0.00000156,0.00000631,-0.00001036,-0
 .00000680,0.00000411,-0.00001167,0.00000433,-0.00001036,0.00001432,-0.
 00000078,0.00000173,-0.00000153,-0.00000581,0.00002048,-0.00000068,0.0
 0001784,-0.00001372,-0.00000099,-0.00001128,0.00000405,-0.00000636,0.0
 0000449,-0.00000781,-0.00001467,-0.00000324,0.00001544,0.00001643,0.00
 000498,-0.00000518,-0.00000235,-0.00001211,-0.00001573,-0.00003642,0.0
 0000795,-0.00001819,0.00007119,-0.00003764,0.00003123,-0.00007086,0.00
 022893,-0.00002500,0.00004454,-0.00041483,0.00018101,-0.00036495,-0.00
 999748,0.00132390,0.00126342,0.00134537,0.00039248,0.00012458,-0.00005
 086,-0.00013579,-0.00019540,-0.05222209,-0.04658468,0.00370147,0.04357
 132,-0.01391926,0.00137039,0.00051086,0.00084143,-0.00095706,-0.000078
 13,0.00004071,-0.00003953,0.00002119,-0.00003039,0.00000925,-0.0000057
 8,0.00000471,0.00000345,-0.00017691,-0.00015234,0.00011148,0.00156925,
 0.00183673,0.00021841,-0.02780142,-0.00363992,0.00006561,0.00159700,0.
 00115805,0.00198438,0.00000136,-0.00000109,-0.00000333,0.00006202,0.00
 018194,0.00042202,0.00000455,-0.00000699,0.00000069,-0.00000253,-0.000
 00272,0.00000273,0.00000130,0.00000455,0.00000122,-0.00000034,-0.00000
 170,0.00000089,-0.00000137,0.00000135,0.00000009,0.00000161,-0.0000011
 7,-0.00000036,0.00000872,0.00001523,0.00002195,0.00001277,-0.00002565,
 -0.00000592,0.00003344,-0.00006386,0.00000387,0.00012040,0.00010767,-0
 .00005183,0.00014297,-0.00018316,0.00024393,0.00031162,-0.00012082,0.0
 0181750,0.04194238,0.06163154,-0.00000555,-0.00000953,-0.00000828,-0.0
 0000028,0.00001023,0.00000939,0.00001863,0.00003399,0.00000890,-0.0000
 0987,-0.00000284,-0.00002730,-0.00000002,0.00000512,-0.00000309,-0.000
 03100,-0.00005818,-0.00006355,-0.00002059,0.00001132,-0.00000277,0.000
 01153,-0.00003175,-0.00000675,0.00001505,0.00002218,-0.00001418,-0.000
 01701,-0.00001401,-0.00000083,0.00000885,-0.00000072,-0.00000589,0.000
 02480,-0.00000366,0.00002207,-0.00007599,-0.00022874,0.00011968,0.0001
 6093,0.00030473,0.00029381,-0.00072611,0.00060808,-0.00073975,0.000288
 05,-0.00101019,0.00053556,0.03706000,0.00557508,-0.00615641,-0.0021709
 5,-0.00031666,0.00370749,0.00002327,0.00030079,0.00011896,0.03526068,0
 .00398031,-0.04775192,-0.01012279,0.00437115,0.00368715,-0.00116989,-0
 .00025361,0.00025575,0.00005515,-0.00000018,0.00004722,-0.00001041,-0.
 00002530,0.00003496,-0.00000140,0.00000024,0.00000840,0.00023980,0.000
 17647,-0.00052915,0.00125325,0.00036725,0.00041878,-0.02517725,-0.0077
 8384,-0.00053563,0.00010284,0.00102438,0.00222813,0.00000045,0.0000018
 8,0.00000092,-0.00010809,0.00011862,0.00034189,0.00000470,-0.00001045,
 0.00000118,-0.00001068,-0.00000173,0.00000865,-0.00001554,0.00000426,-
 0.00001641,-0.00000256,-0.00000248,0.00000395,-0.00000609,-0.00000072,
 -0.00000151,-0.00000423,-0.00001050,0.00000987,-0.00004489,0.00000486,
 -0.00005629,-0.00001257,0.00003024,0.00000848,-0.00001882,0.00002486,0
 .00001057,-0.00007736,-0.00003269,-0.00010313,-0.00029072,0.00050034,-
 0.00021083,0.00105217,0.00148551,-0.00602653,-0.03417561,-0.00656012,0
 .05335907,-0.00000071,-0.00000662,-0.00002724,-0.00001048,0.00000349,0
 .00001520,0.00000494,-0.00000711,0.00002335,0.00000564,0.00000903,-0.0
 0002943,-0.00000386,0.,0.00000294,-0.00003374,0.00000448,0.00001113,0.
 00001840,-0.00001499,-0.00006048,-0.00000452,0.00000837,0.00006927,-0.
 00001602,0.00001380,0.00000847,0.00000888,-0.00001886,-0.00001251,-0.0
 0000537,0.00000508,0.00000091,0.00001339,0.00001347,0.00003711,0.00003
 396,-0.00003421,-0.00010980,0.00002479,0.00004753,0.00010804,0.0000507
 3,0.00000749,-0.00028730,-0.00007156,0.00008864,0.00011903,-0.00063709
 ,-0.00041932,0.00046480,0.00034518,-0.00003052,-0.00026041,-0.00008351
 ,-0.00004619,-0.00000572,-0.00990017,0.00210383,-0.00269916,0.00281400
 ,-0.00001317,0.00156471,-0.00069866,-0.00056783,0.00002266,0.00046099,
 -0.00020070,-0.00019656,0.00000537,0.00024970,-0.00014122,-0.00001401,
 -0.00000940,-0.00003032,0.00002411,-0.00025856,0.00078845,-0.00422329,
 0.01109556,-0.00430470,-0.35002452,-0.00371499,-0.05435453,-0.01508944
 ,-0.00214493,0.00634246,-0.00000344,0.00000226,0.00000415,0.00045523,0
 .00013660,0.00059749,-0.00000348,0.00000296,0.00000012,0.00000699,0.00
 000092,-0.00000372,0.00000239,-0.00000160,-0.00000084,0.00000375,0.000
 00100,-0.00000406,0.00000459,0.00000164,0.00000035,0.00000638,0.000000
 20,-0.00000338,0.00000963,-0.00000217,0.00000254,-0.00002233,0.0000047
 5,0.00000445,0.00007605,-0.00026616,0.00006566,0.00023438,0.00063836,-
 0.00120161,0.00002227,-0.00008170,0.00013756,0.00040466,-0.00003442,-0
 .00050485,0.00015782,-0.00070281,-0.00127389,0.37565167,0.00000234,0.0
 0001708,0.00001018,0.00000218,-0.00001887,-0.00000569,-0.00001036,0.00
 000007,-0.00001278,-0.00000142,0.00000887,0.00001703,0.00000134,-0.000
 00407,-0.00000172,0.00003713,-0.00004924,-0.00002299,-0.00000846,0.000
 07495,0.00009963,-0.00001702,-0.00005514,-0.00014286,-0.00000167,-0.00
 001670,0.00001579,0.00000454,0.00001035,-0.00000425,-0.00000390,0.0000
 0001,0.00000406,-0.00000790,0.00001775,0.00000561,0.00002847,0.0001640
 5,-0.00002268,-0.00010007,-0.00010746,-0.00013924,0.00012627,0.0003799
 6,0.00029297,-0.00042936,-0.00081729,0.00006918,-0.00085484,-0.0005585
 3,0.00135777,0.00037636,0.00005786,-0.00075634,-0.00001322,-0.00019557
 ,0.00008625,-0.02260892,0.00114366,-0.00668767,0.00087162,0.00343848,0
 .00101690,-0.00062556,-0.00047873,0.00016187,0.00019120,0.00008639,-0.
 00004739,-0.00021374,-0.00037184,0.00035950,0.00000884,0.00003044,0.00
 003591,0.00349193,0.00163223,-0.00455008,0.03642192,-0.01652365,0.0144
 2593,-0.00289530,-0.04179877,-0.00190821,-0.00547203,0.00418599,0.0014
 9440,0.00000028,-0.00000279,-0.00000179,-0.00017546,0.00013228,-0.0006
 5489,0.00000133,0.00001033,-0.00000113,0.00000176,0.00000163,-0.000001
 66,0.00000263,-0.00000382,0.00000384,0.00000011,0.00000076,-0.00000022
 ,0.00000215,-0.00000093,0.00000138,-0.00000529,0.00000675,-0.00000423,
 0.00001080,-0.00000445,0.00001146,-0.00001672,-0.00002749,-0.00001855,
 -0.00031058,0.00008334,0.00012871,-0.00142008,0.00025611,0.00028555,-0
 .00000291,-0.00006364,-0.00006029,0.00032506,0.00010603,-0.00029475,-0
 .00085056,-0.00283709,-0.00260401,-0.00586287,0.05209072,-0.00000521,-
 0.00000209,-0.00003486,-0.00000646,-0.00000043,0.00002180,0.00000863,-
 0.00000749,0.00002533,-0.00000078,0.00001642,-0.00003400,-0.00000170,-
 0.00000170,0.00000391,-0.00001965,-0.00001556,-0.00000013,0.00000593,0
 .00001092,-0.00003667,-0.00000419,-0.00000461,0.00003933,-0.00000955,0
 .00001606,0.00001982,0.00000216,-0.00002319,-0.00002359,-0.00000226,0.
 00000606,0.00000369,0.00001959,0.00001982,0.00005184,0.00002499,-0.000
 00427,-0.00014264,0.00005464,0.00002910,0.00011546,0.00009690,0.000064
 03,-0.00036486,-0.00004313,-0.00020878,-0.00002641,-0.00093155,0.00037
 252,0.00201748,0.00044193,-0.00014107,-0.00043685,0.00000472,-0.000056
 86,0.00007019,-0.02566734,-0.00103049,-0.00077470,0.00243683,0.0015263
 8,0.00129794,0.00002452,-0.00044689,0.00003016,0.00001257,0.00009589,0
 .00010978,0.00007440,0.00013411,-0.00016744,-0.00000685,-0.00001851,-0
 .00000434,-0.00205566,-0.00064807,0.00291287,-0.01059971,0.00837640,-0
 .00131597,-0.06180840,-0.00438151,-0.05856916,0.03978669,0.00137067,-0
 .00961465,-0.00000249,0.00000135,0.00000583,0.00208790,0.00017644,0.00
 349141,-0.00000099,0.00000685,-0.00000086,0.00000395,-0.00000018,-0.00
 000296,-0.00000016,-0.00000219,-0.00000106,0.00000231,0.00000102,-0.00
 000380,0.00000415,0.00000071,-0.00000020,0.00000346,0.00000181,-0.0000
 0360,0.00000848,-0.00000678,0.00000954,0.00000636,-0.00000328,-0.00001
 153,0.00016544,-0.00006026,-0.00008402,0.00091059,-0.00009174,-0.00004
 586,0.00009880,0.00002017,0.00007464,0.00057615,0.00004894,-0.00038815
 ,-0.00081691,-0.00319922,-0.00298063,0.05512085,-0.00194052,0.06476791
 \\0.00034437,-0.00240869,-0.01364003,0.00013489,-0.00763130,-0.0251142
 5,0.01067058,-0.03500553,0.03460902,-0.01282235,0.00480197,0.01927994,
 0.00709708,-0.01180385,-0.02681433,0.01360389,0.00559309,0.00564455,-0
 .01845609,0.00994401,-0.01011082,0.01151837,0.00181000,0.01575460,-0.0
 1845239,0.01718402,-0.00720696,0.01604259,0.01259928,-0.00611366,-0.00
 202237,-0.02997865,0.01500692,0.01901531,0.03037124,0.02116535,-0.0123
 2551,-0.00900712,0.01317468,-0.02542986,-0.00698948,-0.02094433,0.0127
 2711,-0.02244852,0.02298097,-0.00690329,0.02407102,0.00346132,-0.00817
 726,0.00802275,-0.01191274,0.00487679,-0.01380525,0.00004702,0.0044329
 1,0.00976690,-0.02046665,0.00820671,0.02499701,0.01052406,-0.00211700,
 -0.00229758,-0.03312143,-0.00061411,-0.00217555,0.02862220,0.00897250,
 -0.01234620,0.00014582,-0.00737273,-0.01878577,-0.00142968,-0.00350473
 ,0.02987018,0.01188204,-0.00309240,-0.01181864,0.00745396,-0.00322427,
 0.01411820,0.01522279,0.03232482,-0.02001407,-0.01204282,-0.00916366,0
 .01348432,0.01453454,-0.00317580,0.00643030,0.00184340,-0.00333450,-0.
 00265973,-0.00454273,0.00214867,0.00529679,-0.01873555,-0.02217930,-0.
 00207246,-0.00215278,0.02273037,0.00015319,-0.00031944,-0.01897926,-0.
 00163811,0.00488437,0.02236602,0.00525521,-0.00408407,-0.01872227,-0.0
 0468497,0.00065331,0.01873487,0.00232807,-0.00193434,-0.00903398,-0.00
 593115,-0.01519514,0.01868695,0.00285268,-0.00741355,-0.02204066,0.002
 18423,0.00242830,0.01801488,-0.00418005,0.00246644,-0.02249864,-0.0021
 1410,-0.00074203,0.02160422,-0.00095085,-0.00504844,-0.02061148,-0.000
 38682,-0.00269982\\\@


 LIFE CAN ONLY BE UNDERSTOOD BACKWARD, BUT MUST
 BE LIVED FORWARD. -- KIRKEGAARD
 Job cpu time:  0 days 13 hours 10 minutes 10.3 seconds.
 File lengths (MBytes):  RWF=   1324 Int=      0 D2E=      0 Chk=     19 Scr=      1
 Normal termination of Gaussian 09 at Tue Mar  1 03:33:51 2016.
Gaussian '09 finished on node026 at Tue Mar  1 03:33:52 EST 2016.
