[running at reduced cpu priority]
Job furfural_raman_1 started on alcatraz.chem.umass.edu at Fri Mar  6 12:43:02 2015
jobid: alcatraz-0-54f9e725 
Jaguar version 8.5, release  13
Molecular Point Group: Cs      
Point Group used: C1 (symmetry turned off)
pre (input checking) done.
onee (1-electron integrals) done.
hfig (HF initial guess) done.
probe (project orbitals) done.
grid (grid generation) done.
rwr (Q operators) done.
scf type: DFT=Becke_3_Parameter/HF+Slater+Becke88+VWN+LYP (B3LYP)
  
       i  u  d  i  g
       t  p  i  c  r                                 RMS    maximum
       e  d  i  u  i                       energy  density   DIIS  
       r  t  s  t  d       total energy    change  change    error 
  
etot    1  N  N  4  M    -338.59070196024           6.6E-03  2.9E-01
etot    2  Y  Y  6  M    -340.87960661497  2.3E+00  8.9E-03  9.7E-02
etot    3  Y  Y  6  M    -341.24148181394  3.6E-01  5.6E-03  7.3E-02
etot    4  N  Y  1  U    -341.35585408605  1.1E-01  5.5E-03  4.8E-02
etot    5  Y  Y  6  M    -341.39933045507  4.3E-02  1.9E-03  1.4E-02
etot    6  N  Y  1  U    -341.40167541474  2.3E-03  1.1E-03  6.2E-03
etot    7  Y  Y  6  M    -341.40247404510  8.0E-04  1.4E-04  2.9E-03
etot    8  Y  Y  6  M    -341.40264088260  1.7E-04  2.8E-05  6.3E-04
etot    9  N  Y  1  U    -341.40244280124 -2.0E-04  1.1E-05  9.1E-05
etot   10  N  Y  1  U    -341.40244296425  1.6E-07  2.3E-06  2.7E-05
etot   11  N  N  1  U    -341.40244294006 -2.4E-08  0.0E+00  0.0E+00
scf (DFT) done.
--------gas phase calculation complete----------------------
ch (properties) done.
post (output conversion) done.
pbf (Poisson-Boltzmann solver) done.
solv (solvation checking) done.
  
       i  u  d  i  g
       t  p  i  c  r                                 RMS    maximum
       e  d  i  u  i                       energy  density   DIIS  
       r  t  s  t  d       total energy    change  change    error 
  
etot    1  N  N  1  U    -341.42047692057           1.0E-03  9.8E-03
etot    2  Y  Y  6  M    -341.42158085091  1.1E-03  3.1E-04  9.8E-03
etot    3  Y  Y  6  M    -341.42293082799  1.3E-03  5.8E-05  1.6E-03
etot    4  Y  Y  6  M    -341.42296959632  3.9E-05  1.7E-05  2.4E-04
etot    5  N  Y  1  U    -341.42226464547 -7.0E-04  7.4E-06  1.8E-04
etot    6  N  Y  1  U    -341.42226514155  5.0E-07  3.4E-06  4.3E-05
etot    7  N  N  1  U    -341.42226517193  3.0E-08  0.0E+00  0.0E+00
scf (DFT) done.
sole (solvation energy) done.
----------solvation iteration  1 complete------------------
ch (properties) done.
post (output conversion) done.
pbf (Poisson-Boltzmann solver) done.
solv (solvation checking) done.
  
       i  u  d  i  g
       t  p  i  c  r                                 RMS    maximum
       e  d  i  u  i                       energy  density   DIIS  
       r  t  s  t  d       total energy    change  change    error 
  
etot    1  N  N  1  U    -341.42681151693           2.3E-04  2.6E-03
etot    2  Y  Y  6  M    -341.42750051404  6.9E-04  8.7E-05  3.0E-03
etot    3  Y  Y  6  M    -341.42761036409  1.1E-04  1.6E-05  3.6E-04
etot    4  N  Y  1  U    -341.42692496621 -6.9E-04  4.9E-06  6.9E-05
etot    5  N  N  1  U    -341.42692499554  2.9E-08  0.0E+00  0.0E+00
scf (DFT) done.
sole (solvation energy) done.
----------solvation iteration  2 complete------------------
ch (properties) done.
post (output conversion) done.
pbf (Poisson-Boltzmann solver) done.
solv (solvation checking) done.
  
       i  u  d  i  g
       t  p  i  c  r                                 RMS    maximum
       e  d  i  u  i                       energy  density   DIIS  
       r  t  s  t  d       total energy    change  change    error 
  
etot    1  N  N  1  U    -341.42811389901           6.4E-05  7.2E-04
etot    2  Y  Y  6  M    -341.42879878291  6.8E-04  2.6E-05  8.7E-04
etot    3  N  Y  1  U    -341.42812243814 -6.8E-04  4.7E-06  9.4E-05
etot    4  N  N  1  U    -341.42812265860  2.2E-07  0.0E+00  0.0E+00
scf (DFT) done.
sole (solvation energy) done.
----------solvation iteration  3 complete------------------
ch (properties) done.
post (output conversion) done.
pbf (Poisson-Boltzmann solver) done.
solv (solvation checking) done.
  
       i  u  d  i  g
       t  p  i  c  r                                 RMS    maximum
       e  d  i  u  i                       energy  density   DIIS  
       r  t  s  t  d       total energy    change  change    error 
  
etot    1  N  N  1  U    -341.42844986298           1.8E-05  1.9E-04
etot    2  N  Y  1  U    -341.42844970817 -1.5E-07  7.5E-06  2.3E-04
etot    3  N  Y  1  U    -341.42845047496  7.7E-07  1.4E-06  3.5E-05
etot    4  N  N  1  U    -341.42845049920  2.4E-08  0.0E+00  0.0E+00
scf (DFT) done.
sole (solvation energy) done.
----final solvation iteration  4 complete------------------
cutabab2 (abab integrals) done.
der2a (1-e JK-1st deriv.) done.
der2b (2-e JK-1st deriv.) done.
der2nda (1-e 2nd deriv.) done.
der2ndb (2-e 2nd deriv.) done.
rwr (Q operators) done.
cphfa (gradient of wave function) done.
rwr (Q operators) done.
scf type: DFT=Becke_3_Parameter/HF+Slater+Becke88+VWN+LYP (B3LYP)
  
       i  u  d  i  g
       t  p  i  c  r                                 RMS    maximum
       e  d  i  u  i                       energy  density   DIIS  
       r  t  s  t  d       total energy    change  change    error 
  
etot    1  N  N  4  M    -341.42890652566           1.6E-03  2.4E-03
etot    2  Y  Y  6  M    -341.42888145146 -2.5E-05  9.1E-06  7.9E-05
etot    3  N  Y  1  U    -341.42838207360 -5.0E-04  4.6E-04  2.6E-03
etot    4  Y  Y  6  M    -341.42842626631  4.4E-05  4.1E-04  2.0E-03
etot    5  Y  Y  6  M    -341.42845494118  2.9E-05  4.0E-04  1.3E-03
etot    6  N  Y  1  U    -341.42845071905 -4.2E-06  9.5E-05  6.1E-04
etot    7  Y  Y  6  M    -341.42845338014  2.7E-06  3.8E-05  4.5E-04
etot    8  N  Y  1  U    -341.42845180638 -1.6E-06  1.9E-05  3.8E-04
etot    9  N  Y  1  U    -341.42845185608  5.0E-08  1.2E-05  3.5E-04
etot   10  N  Y  1  U    -341.42845186563  9.5E-09  9.4E-06  3.2E-04
etot   11  N  Y  1  U    -341.42845188454  1.9E-08  2.3E-04  3.1E-04
etot   12  Y  Y  6  M    -341.42845348803  1.6E-06  5.8E-05  9.9E-05
etot   13  Y  Y  6  M    -341.42845404500  5.6E-07  2.7E-07  8.5E-06
etot   14  N  N  1  U    -341.42845050135 -3.5E-06  0.0E+00  0.0E+00
scf (DFT) done.
der1a (1-e 1st deriv.) done.
rwr (1st deriv. Q) done.
der1b (2-e 1st deriv.) done.
----------------------------------------------------------------
  calculation with applied electric field    1 of  18 follows...
raman (gradient of polarizabilities) done.
rwr (Q operators) done.
scf type: DFT=Becke_3_Parameter/HF+Slater+Becke88+VWN+LYP (B3LYP)
  
       i  u  d  i  g
       t  p  i  c  r                                 RMS    maximum
       e  d  i  u  i                       energy  density   DIIS  
       r  t  s  t  d       total energy    change  change    error 
  
etot    1  N  N  4  M    -341.26628349899           3.8E-03  1.4E-02
etot    2  Y  Y  6  M    -341.27535541199  9.1E-03  7.1E-04  1.5E-02
etot    3  N  Y  1  U    -341.27828066137  2.9E-03  7.0E-04  4.6E-03
etot    4  Y  Y  6  M    -341.27888343040  6.0E-04  4.3E-04  1.6E-03
etot    5  Y  Y  6  M    -341.27891770965  3.4E-05  2.3E-04  1.2E-03
etot    6  N  Y  1  U    -341.27890282909 -1.5E-05  3.6E-05  5.6E-04
etot    7  N  Y  1  U    -341.27890587905  3.0E-06  5.7E-06  1.1E-04
etot    8  N  Y  1  U    -341.27890620016  3.2E-07  3.6E-06  1.6E-05
etot    9  N  N  1  U    -341.27890627291  7.3E-08  0.0E+00  0.0E+00
scf (DFT) done.
der1a (1-e 1st deriv.) done.
rwr (1st deriv. Q) done.
der1b (2-e 1st deriv.) done.
----------------------------------------------------------------
  calculation with applied electric field    2 of  18 follows...
raman (gradient of polarizabilities) done.
rwr (Q operators) done.
scf type: DFT=Becke_3_Parameter/HF+Slater+Becke88+VWN+LYP (B3LYP)
  
       i  u  d  i  g
       t  p  i  c  r                                 RMS    maximum
       e  d  i  u  i                       energy  density   DIIS  
       r  t  s  t  d       total energy    change  change    error 
  
etot    1  N  N  4  M    -341.26521185687           4.6E-03  1.4E-02
etot    2  Y  Y  6  M    -341.27390116276  8.7E-03  6.5E-04  1.6E-02
etot    3  N  Y  1  U    -341.27698443900  3.1E-03  1.4E-03  4.9E-03
etot    4  Y  Y  6  M    -341.27752131010  5.4E-04  6.7E-04  1.0E-03
etot    5  N  Y  1  U    -341.27752291408  1.6E-06  2.9E-04  5.5E-04
etot    6  Y  Y  6  M    -341.27752527215  2.4E-06  2.3E-05  6.7E-04
etot    7  N  Y  1  U    -341.27752766576  2.4E-06  6.3E-06  1.1E-04
etot    8  N  Y  1  U    -341.27752802758  3.6E-07  3.2E-06  1.4E-05
etot    9  N  N  1  U    -341.27752806927  4.2E-08  0.0E+00  0.0E+00
scf (DFT) done.
der1a (1-e 1st deriv.) done.
rwr (1st deriv. Q) done.
der1b (2-e 1st deriv.) done.
----------------------------------------------------------------
  calculation with applied electric field    3 of  18 follows...
raman (gradient of polarizabilities) done.
rwr (Q operators) done.
scf type: DFT=Becke_3_Parameter/HF+Slater+Becke88+VWN+LYP (B3LYP)
  
       i  u  d  i  g
       t  p  i  c  r                                 RMS    maximum
       e  d  i  u  i                       energy  density   DIIS  
       r  t  s  t  d       total energy    change  change    error 
  
etot    1  N  N  4  M    -341.31150826729           2.1E-03  3.0E-02
etot    2  Y  Y  6  M    -341.32116729776  9.7E-03  8.7E-04  2.2E-02
etot    3  N  Y  1  U    -341.32695875489  5.8E-03  9.3E-04  5.5E-03
etot    4  Y  Y  6  M    -341.32765333641  6.9E-04  3.4E-04  1.1E-03
etot    5  Y  Y  6  M    -341.32767275207  1.9E-05  1.3E-04  7.3E-04
etot    6  N  Y  1  U    -341.32765556791 -1.7E-05  1.1E-05  2.4E-04
etot    7  N  Y  1  U    -341.32765662757  1.1E-06  3.3E-06  6.2E-05
etot    8  N  N  1  U    -341.32765678150  1.5E-07  0.0E+00  0.0E+00
scf (DFT) done.
der1a (1-e 1st deriv.) done.
rwr (1st deriv. Q) done.
der1b (2-e 1st deriv.) done.
----------------------------------------------------------------
  calculation with applied electric field    4 of  18 follows...
raman (gradient of polarizabilities) done.
rwr (Q operators) done.
scf type: DFT=Becke_3_Parameter/HF+Slater+Becke88+VWN+LYP (B3LYP)
  
       i  u  d  i  g
       t  p  i  c  r                                 RMS    maximum
       e  d  i  u  i                       energy  density   DIIS  
       r  t  s  t  d       total energy    change  change    error 
  
etot    1  N  N  4  M    -341.21998708857           5.6E-03  3.0E-02
etot    2  Y  Y  6  M    -341.22030474710  3.2E-04  2.1E-03  3.9E-02
etot    3  N  Y  1  U    -341.23592717668  1.6E-02  1.5E-03  5.7E-03
etot    4  Y  Y  6  M    -341.23665808013  7.3E-04  5.6E-04  2.2E-03
etot    5  N  Y  1  U    -341.23668680838  2.9E-05  2.7E-04  1.2E-03
etot    6  Y  Y  6  M    -341.23670580592  1.9E-05  1.0E-05  1.6E-04
etot    7  N  Y  1  U    -341.23670319029 -2.6E-06  4.6E-06  1.0E-04
etot    8  N  N  1  U    -341.23670352121  3.3E-07  0.0E+00  0.0E+00
scf (DFT) done.
der1a (1-e 1st deriv.) done.
rwr (1st deriv. Q) done.
der1b (2-e 1st deriv.) done.
----------------------------------------------------------------
  calculation with applied electric field    5 of  18 follows...
raman (gradient of polarizabilities) done.
rwr (Q operators) done.
scf type: DFT=Becke_3_Parameter/HF+Slater+Becke88+VWN+LYP (B3LYP)
  
       i  u  d  i  g
       t  p  i  c  r                                 RMS    maximum
       e  d  i  u  i                       energy  density   DIIS  
       r  t  s  t  d       total energy    change  change    error 
  
etot    1  N  N  4  M    -341.26575248682           2.5E-03  1.2E-02
etot    2  Y  Y  6  M    -341.27047323558  4.7E-03  2.9E-04  8.7E-03
etot    3  N  Y  1  U    -341.27143870042  9.7E-04  1.2E-03  2.6E-03
etot    4  Y  Y  6  M    -341.27153669403  9.8E-05  5.3E-04  8.6E-04
etot    5  N  Y  1  U    -341.27151662383 -2.0E-05  1.5E-05  3.6E-04
etot    6  N  Y  1  U    -341.27151919568  2.6E-06  7.6E-06  1.1E-04
etot    7  N  Y  1  U    -341.27151945011  2.5E-07  4.5E-06  2.2E-05
etot    8  N  N  1  U    -341.27151953666  8.7E-08  0.0E+00  0.0E+00
scf (DFT) done.
der1a (1-e 1st deriv.) done.
rwr (1st deriv. Q) done.
der1b (2-e 1st deriv.) done.
----------------------------------------------------------------
  calculation with applied electric field    6 of  18 follows...
raman (gradient of polarizabilities) done.
rwr (Q operators) done.
scf type: DFT=Becke_3_Parameter/HF+Slater+Becke88+VWN+LYP (B3LYP)
  
       i  u  d  i  g
       t  p  i  c  r                                 RMS    maximum
       e  d  i  u  i                       energy  density   DIIS  
       r  t  s  t  d       total energy    change  change    error 
  
etot    1  N  N  4  M    -341.26574286903           2.8E-03  1.2E-02
etot    2  Y  Y  6  M    -341.26937219533  3.6E-03  4.8E-04  1.1E-02
etot    3  N  Y  1  U    -341.27142895928  2.1E-03  1.2E-03  2.6E-03
etot    4  Y  Y  6  M    -341.27152674768  9.8E-05  5.2E-04  8.6E-04
etot    5  N  Y  1  U    -341.27150668788 -2.0E-05  1.5E-05  3.7E-04
etot    6  N  Y  1  U    -341.27150950167  2.8E-06  7.4E-06  1.1E-04
etot    7  N  Y  1  U    -341.27150976923  2.7E-07  4.6E-06  2.3E-05
etot    8  N  N  1  U    -341.27150984824  7.9E-08  0.0E+00  0.0E+00
scf (DFT) done.
der1a (1-e 1st deriv.) done.
rwr (1st deriv. Q) done.
der1b (2-e 1st deriv.) done.
----------------------------------------------------------------
  calculation with applied electric field    7 of  18 follows...
raman (gradient of polarizabilities) done.
rwr (Q operators) done.
scf type: DFT=Becke_3_Parameter/HF+Slater+Becke88+VWN+LYP (B3LYP)
  
       i  u  d  i  g
       t  p  i  c  r                                 RMS    maximum
       e  d  i  u  i                       energy  density   DIIS  
       r  t  s  t  d       total energy    change  change    error 
  
etot    1  N  N  4  M    -341.28889588314           1.8E-03  2.0E-02
etot    2  Y  Y  6  M    -341.29454197843  5.6E-03  6.3E-04  1.4E-02
etot    3  N  Y  1  U    -341.29582727647  1.3E-03  8.0E-04  5.7E-03
etot    4  Y  Y  6  M    -341.29641340089  5.9E-04  3.3E-04  1.4E-03
etot    5  Y  Y  6  M    -341.29644337409  3.0E-05  2.5E-04  6.3E-04
etot    6  Y  Y  6  M    -341.29645455423  1.1E-05  8.1E-06  2.2E-04
etot    7  N  Y  1  U    -341.29642442752 -3.0E-05  6.8E-06  7.2E-05
etot    8  N  Y  1  U    -341.29642458508  1.6E-07  3.1E-06  4.3E-05
etot    9  N  N  1  U    -341.29642463881  5.4E-08  0.0E+00  0.0E+00
scf (DFT) done.
der1a (1-e 1st deriv.) done.
rwr (1st deriv. Q) done.
der1b (2-e 1st deriv.) done.
----------------------------------------------------------------
  calculation with applied electric field    8 of  18 follows...
raman (gradient of polarizabilities) done.
rwr (Q operators) done.
scf type: DFT=Becke_3_Parameter/HF+Slater+Becke88+VWN+LYP (B3LYP)
  
       i  u  d  i  g
       t  p  i  c  r                                 RMS    maximum
       e  d  i  u  i                       energy  density   DIIS  
       r  t  s  t  d       total energy    change  change    error 
  
etot    1  N  N  4  M    -341.24259947272           4.0E-03  2.0E-02
etot    2  Y  Y  6  M    -341.24642246098  3.8E-03  9.4E-04  2.1E-02
etot    3  N  Y  1  U    -341.24958698094  3.2E-03  1.1E-03  5.5E-03
etot    4  Y  Y  6  M    -341.25014396823  5.6E-04  5.8E-04  1.2E-03
etot    5  N  Y  1  U    -341.25015167254  7.7E-06  3.7E-04  7.1E-04
etot    6  Y  Y  6  M    -341.25016305656  1.1E-05  1.8E-05  2.5E-04
etot    7  N  Y  1  U    -341.25015879631 -4.3E-06  1.1E-05  4.7E-05
etot    8  N  Y  1  U    -341.25015908748  2.9E-07  4.2E-06  8.8E-06
etot    9  N  N  1  U    -341.25015915868  7.1E-08  0.0E+00  0.0E+00
scf (DFT) done.
der1a (1-e 1st deriv.) done.
rwr (1st deriv. Q) done.
der1b (2-e 1st deriv.) done.
----------------------------------------------------------------
  calculation with applied electric field    9 of  18 follows...
raman (gradient of polarizabilities) done.
rwr (Q operators) done.
scf type: DFT=Becke_3_Parameter/HF+Slater+Becke88+VWN+LYP (B3LYP)
  
       i  u  d  i  g
       t  p  i  c  r                                 RMS    maximum
       e  d  i  u  i                       energy  density   DIIS  
       r  t  s  t  d       total energy    change  change    error 
  
etot    1  N  N  4  M    -341.28836006208           2.2E-03  1.3E-02
etot    2  Y  Y  6  M    -341.29235001974  4.0E-03  7.3E-04  1.1E-02
etot    3  N  Y  1  U    -341.29419934325  1.8E-03  1.1E-03  4.6E-03
etot    4  Y  Y  6  M    -341.29467294282  4.7E-04  4.1E-04  1.1E-03
etot    5  Y  Y  6  M    -341.29469847150  2.6E-05  2.9E-04  6.0E-04
etot    6  N  Y  1  U    -341.29467933461 -1.9E-05  1.0E-05  2.6E-04
etot    7  N  Y  1  U    -341.29468058458  1.2E-06  6.6E-06  4.1E-05
etot    8  N  Y  1  U    -341.29468072758  1.4E-07  3.6E-06  9.9E-06
etot    9  N  N  1  U    -341.29468078076  5.3E-08  0.0E+00  0.0E+00
scf (DFT) done.
der1a (1-e 1st deriv.) done.
rwr (1st deriv. Q) done.
der1b (2-e 1st deriv.) done.
----------------------------------------------------------------
  calculation with applied electric field   10 of  18 follows...
raman (gradient of polarizabilities) done.
rwr (Q operators) done.
scf type: DFT=Becke_3_Parameter/HF+Slater+Becke88+VWN+LYP (B3LYP)
  
       i  u  d  i  g
       t  p  i  c  r                                 RMS    maximum
       e  d  i  u  i                       energy  density   DIIS  
       r  t  s  t  d       total energy    change  change    error 
  
etot    1  N  N  4  M    -341.24313529378           3.4E-03  1.3E-02
etot    2  Y  Y  6  M    -341.24432479155  1.2E-03  9.6E-04  1.7E-02
etot    3  N  Y  1  U    -341.24910944288  4.8E-03  9.6E-04  4.5E-03
etot    4  Y  Y  6  M    -341.24959518018  4.9E-04  4.6E-04  1.2E-03
etot    5  Y  Y  6  M    -341.24962549483  3.0E-05  2.9E-04  5.8E-04
etot    6  N  Y  1  U    -341.24959998538 -2.6E-05  1.5E-05  1.9E-04
etot    7  N  Y  1  U    -341.24960106066  1.1E-06  5.6E-06  3.4E-05
etot    8  N  Y  1  U    -341.24960119775  1.4E-07  3.8E-06  1.5E-05
etot    9  N  N  1  U    -341.24960126958  7.2E-08  0.0E+00  0.0E+00
scf (DFT) done.
der1a (1-e 1st deriv.) done.
rwr (1st deriv. Q) done.
der1b (2-e 1st deriv.) done.
----------------------------------------------------------------
  calculation with applied electric field   11 of  18 follows...
raman (gradient of polarizabilities) done.
rwr (Q operators) done.
scf type: DFT=Becke_3_Parameter/HF+Slater+Becke88+VWN+LYP (B3LYP)
  
       i  u  d  i  g
       t  p  i  c  r                                 RMS    maximum
       e  d  i  u  i                       energy  density   DIIS  
       r  t  s  t  d       total energy    change  change    error 
  
etot    1  N  N  4  M    -341.26601799290           2.2E-03  7.2E-03
etot    2  Y  Y  6  M    -341.26969951477  3.7E-03  2.5E-04  6.2E-03
etot    3  N  Y  1  U    -341.27015008626  4.5E-04  7.6E-04  2.9E-03
etot    4  Y  Y  6  M    -341.27034146869  1.9E-04  4.1E-04  1.5E-03
etot    5  Y  Y  6  M    -341.27036364604  2.2E-05  2.8E-04  6.5E-04
etot    6  Y  Y  6  M    -341.27037147329  7.8E-06  3.2E-05  6.9E-04
etot    7  N  Y  1  U    -341.27034293192 -2.9E-05  1.3E-05  8.0E-05
etot    8  N  Y  1  U    -341.27034325131  3.2E-07  3.9E-06  4.1E-05
etot    9  N  N  1  U    -341.27034334059  8.9E-08  0.0E+00  0.0E+00
scf (DFT) done.
der1a (1-e 1st deriv.) done.
rwr (1st deriv. Q) done.
der1b (2-e 1st deriv.) done.
----------------------------------------------------------------
  calculation with applied electric field   12 of  18 follows...
raman (gradient of polarizabilities) done.
rwr (Q operators) done.
scf type: DFT=Becke_3_Parameter/HF+Slater+Becke88+VWN+LYP (B3LYP)
  
       i  u  d  i  g
       t  p  i  c  r                                 RMS    maximum
       e  d  i  u  i                       energy  density   DIIS  
       r  t  s  t  d       total energy    change  change    error 
  
etot    1  N  N  4  M    -341.26547736295           3.0E-03  7.1E-03
etot    2  Y  Y  6  M    -341.26860490616  3.1E-03  3.7E-04  7.6E-03
etot    3  N  Y  1  U    -341.26957751362  9.7E-04  1.1E-03  2.4E-03
etot    4  Y  Y  6  M    -341.26976760114  1.9E-04  4.9E-04  1.1E-03
etot    5  Y  Y  6  M    -341.26978810722  2.1E-05  3.7E-04  4.7E-04
etot    6  N  Y  1  U    -341.26976510242 -2.3E-05  1.4E-05  5.8E-04
etot    7  N  Y  1  U    -341.26976894662  3.8E-06  1.4E-05  7.7E-05
etot    8  N  Y  1  U    -341.26976927368  3.3E-07  5.2E-06  2.0E-05
etot    9  N  Y  1  U    -341.26976935208  7.8E-08  2.4E-06  8.8E-06
etot   10  N  N  1  U    -341.26976938645  3.4E-08  0.0E+00  0.0E+00
scf (DFT) done.
der1a (1-e 1st deriv.) done.
rwr (1st deriv. Q) done.
der1b (2-e 1st deriv.) done.
----------------------------------------------------------------
  calculation with applied electric field   13 of  18 follows...
raman (gradient of polarizabilities) done.
rwr (Q operators) done.
scf type: DFT=Becke_3_Parameter/HF+Slater+Becke88+VWN+LYP (B3LYP)
  
       i  u  d  i  g
       t  p  i  c  r                                 RMS    maximum
       e  d  i  u  i                       energy  density   DIIS  
       r  t  s  t  d       total energy    change  change    error 
  
etot    1  N  N  4  M    -341.26548217184           3.0E-03  7.1E-03
etot    2  Y  Y  6  M    -341.26860978320  3.1E-03  3.7E-04  7.6E-03
etot    3  N  Y  1  U    -341.26958233687  9.7E-04  1.1E-03  2.4E-03
etot    4  Y  Y  6  M    -341.26977243314  1.9E-04  4.9E-04  1.1E-03
etot    5  Y  Y  6  M    -341.26979312297  2.1E-05  3.7E-04  4.7E-04
etot    6  N  Y  1  U    -341.26976995508 -2.3E-05  1.4E-05  5.8E-04
etot    7  N  Y  1  U    -341.26977382676  3.9E-06  1.4E-05  7.7E-05
etot    8  N  Y  1  U    -341.26977413061  3.0E-07  5.2E-06  2.0E-05
etot    9  N  Y  1  U    -341.26977421277  8.2E-08  2.4E-06  8.8E-06
etot   10  N  N  1  U    -341.26977425031  3.8E-08  0.0E+00  0.0E+00
scf (DFT) done.
der1a (1-e 1st deriv.) done.
rwr (1st deriv. Q) done.
der1b (2-e 1st deriv.) done.
----------------------------------------------------------------
  calculation with applied electric field   14 of  18 follows...
raman (gradient of polarizabilities) done.
rwr (Q operators) done.
scf type: DFT=Becke_3_Parameter/HF+Slater+Becke88+VWN+LYP (B3LYP)
  
       i  u  d  i  g
       t  p  i  c  r                                 RMS    maximum
       e  d  i  u  i                       energy  density   DIIS  
       r  t  s  t  d       total energy    change  change    error 
  
etot    1  N  N  4  M    -341.26601318401           2.4E-03  7.2E-03
etot    2  Y  Y  6  M    -341.26916556102  3.2E-03  3.9E-04  7.4E-03
etot    3  N  Y  1  U    -341.27014483366  9.8E-04  7.6E-04  2.9E-03
etot    4  Y  Y  6  M    -341.27033662553  1.9E-04  4.1E-04  1.5E-03
etot    5  Y  Y  6  M    -341.27035890535  2.2E-05  2.8E-04  6.5E-04
etot    6  Y  Y  6  M    -341.27036681294  7.9E-06  3.2E-05  6.9E-04
etot    7  N  Y  1  U    -341.27033814801 -2.9E-05  1.3E-05  8.0E-05
etot    8  N  Y  1  U    -341.27033848300  3.3E-07  3.9E-06  4.1E-05
etot    9  N  N  1  U    -341.27033857196  8.9E-08  0.0E+00  0.0E+00
scf (DFT) done.
der1a (1-e 1st deriv.) done.
rwr (1st deriv. Q) done.
der1b (2-e 1st deriv.) done.
----------------------------------------------------------------
  calculation with applied electric field   15 of  18 follows...
raman (gradient of polarizabilities) done.
rwr (Q operators) done.
scf type: DFT=Becke_3_Parameter/HF+Slater+Becke88+VWN+LYP (B3LYP)
  
       i  u  d  i  g
       t  p  i  c  r                                 RMS    maximum
       e  d  i  u  i                       energy  density   DIIS  
       r  t  s  t  d       total energy    change  change    error 
  
etot    1  N  N  4  M    -341.28863037705           1.6E-03  1.5E-02
etot    2  Y  Y  6  M    -341.29186715303  3.2E-03  6.2E-04  1.3E-02
etot    3  N  Y  1  U    -341.29344590913  1.6E-03  9.0E-04  4.5E-03
etot    4  Y  Y  6  M    -341.29388292319  4.4E-04  4.0E-04  1.3E-03
etot    5  Y  Y  6  M    -341.29391404655  3.1E-05  2.4E-04  4.7E-04
etot    6  N  Y  1  U    -341.29388838134 -2.6E-05  1.0E-05  3.8E-04
etot    7  N  Y  1  U    -341.29389057285  2.2E-06  9.2E-06  6.0E-05
etot    8  N  Y  1  U    -341.29389079732  2.2E-07  3.8E-06  1.4E-05
etot    9  N  N  1  U    -341.29389086188  6.5E-08  0.0E+00  0.0E+00
scf (DFT) done.
der1a (1-e 1st deriv.) done.
rwr (1st deriv. Q) done.
der1b (2-e 1st deriv.) done.
----------------------------------------------------------------
  calculation with applied electric field   16 of  18 follows...
raman (gradient of polarizabilities) done.
rwr (Q operators) done.
scf type: DFT=Becke_3_Parameter/HF+Slater+Becke88+VWN+LYP (B3LYP)
  
       i  u  d  i  g
       t  p  i  c  r                                 RMS    maximum
       e  d  i  u  i                       energy  density   DIIS  
       r  t  s  t  d       total energy    change  change    error 
  
etot    1  N  N  4  M    -341.24286497880           3.4E-03  1.5E-02
etot    2  Y  Y  6  M    -341.24428440988  1.4E-03  8.8E-04  1.8E-02
etot    3  N  Y  1  U    -341.24774292660  3.5E-03  9.9E-04  4.5E-03
etot    4  Y  Y  6  M    -341.24821272039  4.7E-04  5.7E-04  1.2E-03
etot    5  N  Y  1  U    -341.24822091405  8.2E-06  3.1E-04  4.9E-04
etot    6  Y  Y  6  M    -341.24822532875  4.4E-06  1.5E-05  4.3E-04
etot    7  N  Y  1  U    -341.24822314298 -2.2E-06  1.1E-05  8.4E-05
etot    8  N  Y  1  U    -341.24822340410  2.6E-07  2.5E-06  1.1E-05
etot    9  N  N  1  U    -341.24822344833  4.4E-08  0.0E+00  0.0E+00
scf (DFT) done.
der1a (1-e 1st deriv.) done.
rwr (1st deriv. Q) done.
der1b (2-e 1st deriv.) done.
----------------------------------------------------------------
  calculation with applied electric field   17 of  18 follows...
raman (gradient of polarizabilities) done.
rwr (Q operators) done.
scf type: DFT=Becke_3_Parameter/HF+Slater+Becke88+VWN+LYP (B3LYP)
  
       i  u  d  i  g
       t  p  i  c  r                                 RMS    maximum
       e  d  i  u  i                       energy  density   DIIS  
       r  t  s  t  d       total energy    change  change    error 
  
etot    1  N  N  4  M    -341.24286978769           3.4E-03  1.5E-02
etot    2  Y  Y  6  M    -341.24428943644  1.4E-03  8.8E-04  1.8E-02
etot    3  N  Y  1  U    -341.24774794628  3.5E-03  9.9E-04  4.5E-03
etot    4  Y  Y  6  M    -341.24821775430  4.7E-04  5.7E-04  1.2E-03
etot    5  N  Y  1  U    -341.24822597636  8.2E-06  3.1E-04  4.9E-04
etot    6  Y  Y  6  M    -341.24823044766  4.5E-06  1.5E-05  4.3E-04
etot    7  N  Y  1  U    -341.24822820061 -2.2E-06  1.1E-05  8.4E-05
etot    8  N  Y  1  U    -341.24822847574  2.8E-07  2.5E-06  1.1E-05
etot    9  N  N  1  U    -341.24822851998  4.4E-08  0.0E+00  0.0E+00
scf (DFT) done.
der1a (1-e 1st deriv.) done.
rwr (1st deriv. Q) done.
der1b (2-e 1st deriv.) done.
----------------------------------------------------------------
  calculation with applied electric field   18 of  18 follows...
raman (gradient of polarizabilities) done.
rwr (Q operators) done.
scf type: DFT=Becke_3_Parameter/HF+Slater+Becke88+VWN+LYP (B3LYP)
  
       i  u  d  i  g
       t  p  i  c  r                                 RMS    maximum
       e  d  i  u  i                       energy  density   DIIS  
       r  t  s  t  d       total energy    change  change    error 
  
etot    1  N  N  4  M    -341.28862556816           1.6E-03  1.5E-02
etot    2  Y  Y  6  M    -341.29186241437  3.2E-03  6.2E-04  1.3E-02
etot    3  N  Y  1  U    -341.29344130179  1.6E-03  9.0E-04  4.5E-03
etot    4  Y  Y  6  M    -341.29387830203  4.4E-04  4.0E-04  1.3E-03
etot    5  Y  Y  6  M    -341.29390956321  3.1E-05  2.4E-04  4.7E-04
etot    6  N  Y  1  U    -341.29388377747 -2.6E-05  1.0E-05  3.8E-04
etot    7  N  Y  1  U    -341.29388594907  2.2E-06  9.1E-06  6.0E-05
etot    8  N  Y  1  U    -341.29388617354  2.2E-07  3.8E-06  1.4E-05
etot    9  N  N  1  U    -341.29388623661  6.3E-08  0.0E+00  0.0E+00
scf (DFT) done.
der1a (1-e 1st deriv.) done.
rwr (1st deriv. Q) done.
der1b (2-e 1st deriv.) done.
-------------------------------------------------------
gradient of polarizability calculations complete
raman (gradient of polarizabilities) done.
freq (vib. frequencies) done.
post (output conversion) done.
Job furfural_raman_1 completed on alcatraz.chem.umass.edu at Fri Mar  6 13:27:43 2015
