Gaussian '09 started on node002 at Fri Apr  1 16:53:49 EDT 2016.
 Entering Gaussian System, Link 0=/usr/local/gaussian/g09/g09
 Initial command:
 /usr/local/gaussian/g09/l1.exe /home/srmcgrat/thesis/gaussian/cellobiose/550K/6233ps/1/2dp/gaussian6345/Gau-6381.inp -scrdir=/home/srmcgrat/thesis/gaussian/cellobiose/550K/6233ps/1/2dp/gaussian6345/
 Entering Link 1 = /usr/local/gaussian/g09/l1.exe PID=      6383.
  
 Copyright (c) 1988,1990,1992,1993,1995,1998,2003,2009,2010,
            Gaussian, Inc.  All Rights Reserved.
  
 This is part of the Gaussian(R) 09 program.  It is based on
 the Gaussian(R) 03 system (copyright 2003, Gaussian, Inc.),
 the Gaussian(R) 98 system (copyright 1998, Gaussian, Inc.),
 the Gaussian(R) 94 system (copyright 1995, Gaussian, Inc.),
 the Gaussian 92(TM) system (copyright 1992, Gaussian, Inc.),
 the Gaussian 90(TM) system (copyright 1990, Gaussian, Inc.),
 the Gaussian 88(TM) system (copyright 1988, Gaussian, Inc.),
 the Gaussian 86(TM) system (copyright 1986, Carnegie Mellon
 University), and the Gaussian 82(TM) system (copyright 1983,
 Carnegie Mellon University). Gaussian is a federally registered
 trademark of Gaussian, Inc.
  
 This software contains proprietary and confidential information,
 including trade secrets, belonging to Gaussian, Inc.
  
 This software is provided under written license and may be
 used, copied, transmitted, or stored only in accord with that
 written license.
  
 The following legend is applicable only to US Government
 contracts under FAR:
  
                    RESTRICTED RIGHTS LEGEND
  
 Use, reproduction and disclosure by the US Government is
 subject to restrictions as set forth in subparagraphs (a)
 and (c) of the Commercial Computer Software - Restricted
 Rights clause in FAR 52.227-19.
  
 Gaussian, Inc.
 340 Quinnipiac St., Bldg. 40, Wallingford CT 06492
  
  
 ---------------------------------------------------------------
 Warning -- This program may not be used in any manner that
 competes with the business of Gaussian, Inc. or will provide
 assistance to any competitor of Gaussian, Inc.  The licensee
 of this program is prohibited from giving any competitor of
 Gaussian, Inc. access to this program.  By using this program,
 the user acknowledges that Gaussian, Inc. is engaged in the
 business of creating and licensing software in the field of
 computational chemistry and represents and warrants to the
 licensee that it is not a competitor of Gaussian, Inc. and that
 it will not use this program in any manner prohibited above.
 ---------------------------------------------------------------
  

 Cite this work as:
 Gaussian 09, Revision B.01,
 M. J. Frisch, G. W. Trucks, H. B. Schlegel, G. E. Scuseria, 
 M. A. Robb, J. R. Cheeseman, G. Scalmani, V. Barone, B. Mennucci, 
 G. A. Petersson, H. Nakatsuji, M. Caricato, X. Li, H. P. Hratchian, 
 A. F. Izmaylov, J. Bloino, G. Zheng, J. L. Sonnenberg, M. Hada, 
 M. Ehara, K. Toyota, R. Fukuda, J. Hasegawa, M. Ishida, T. Nakajima, 
 Y. Honda, O. Kitao, H. Nakai, T. Vreven, J. A. Montgomery, Jr., 
 J. E. Peralta, F. Ogliaro, M. Bearpark, J. J. Heyd, E. Brothers, 
 K. N. Kudin, V. N. Staroverov, T. Keith, R. Kobayashi, J. Normand, 
 K. Raghavachari, A. Rendell, J. C. Burant, S. S. Iyengar, J. Tomasi, 
 M. Cossi, N. Rega, J. M. Millam, M. Klene, J. E. Knox, J. B. Cross, 
 V. Bakken, C. Adamo, J. Jaramillo, R. Gomperts, R. E. Stratmann, 
 O. Yazyev, A. J. Austin, R. Cammi, C. Pomelli, J. W. Ochterski, 
 R. L. Martin, K. Morokuma, V. G. Zakrzewski, G. A. Voth, 
 P. Salvador, J. J. Dannenberg, S. Dapprich, A. D. Daniels, 
 O. Farkas, J. B. Foresman, J. V. Ortiz, J. Cioslowski, 
 and D. J. Fox, Gaussian, Inc., Wallingford CT, 2010.
 
 ******************************************
 Gaussian 09:  EM64L-G09RevB.01 12-Aug-2010
                 1-Apr-2016 
 ******************************************
 -------------------------------------------------
 # freq=raman b3lyp/6-31+g(2d,p) geom=connectivity
 -------------------------------------------------
 1/10=4,30=1,38=1,57=2/1,3;
 2/12=2,17=6,18=5,40=1/2;
 3/5=1,6=6,7=112,11=2,16=1,25=1,30=1,71=2,74=-5/1,2,3;
 4//1;
 5/5=2,38=5,98=1/2;
 8/6=4,10=90,11=11/1;
 10/13=10,15=4/2;
 11/6=3,8=1,9=11,15=111,16=1/1,2,10;
 10/6=1/2;
 6/7=2,8=2,9=2,10=2,18=1,28=1/1;
 7/8=1,10=1,25=1/1,2,3,16;
 1/10=4,30=1/3;
 99//99;
 -----------------
 550 6233/6233.com
 -----------------
 Symbolic Z-matrix:
 Charge =  0 Multiplicity = 1
 O                     9.368     7.688     11.212 
 C                     10.186    7.529     12.38 
 C                     10.334    8.944     12.918 
 O                     11.201    9.642     12.013 
 H                     11.03     9.429     11.05 
 C                     10.867    9.066     14.336 
 O                     11.015    10.335    14.99 
 H                     11.446    10.978    14.358 
 C                     9.125     5.335     13.217 
 O                     8.517     4.301     14.003 
 H                     8.212     3.449     13.577 
 C                     9.435     6.8       13.482 
 O                     10.189    6.918     14.697 
 C                     10.169    8.19      15.363 
 O                     11.039    7.8       16.435 
 C                     10.526    7.632     17.764 
 C                     9.914     6.313     18.209 
 O                     9.51      5.555     17.06 
 H                     9.75      6.114     16.266 
 C                     9.034     6.512     19.432 
 O                     8.255     5.356     19.771 
 H                     7.484     5.329     19.134 
 C                     12.029    9.497     18.536 
 O                     11.194    10.569    18.075 
 H                     10.855    10.418    17.146 
 C                     11.54     8.083     18.802 
 O                     10.756    8.137     20.003 
 C                     10.037    6.987     20.471 
 O                     9.247     7.379     21.603 
 H                     9.82642   7.62947   22.32628 
 H                     10.71112   6.19909   20.73493 
 H                     8.35851   7.31677   19.22961 
 H                     10.7431   5.75559   18.59213 
 H                     9.72406   8.3371    17.83203 
 H                     12.35098   7.39077   18.89166 
 H                     12.821    9.40857   17.82199 
 H                     12.47091   9.83584   19.44968 
 H                     9.92916   7.79306   10.44021 
 H                     8.53792   5.35534   12.32267 
 H                     10.07034   4.9202    12.93561 
 H                     8.50321   7.30568   13.62676 
 H                     11.13136   7.07842   12.16053 
 H                     9.37249   9.41235   12.88558 
 H                     11.86252   8.67886   14.27298 
 H                     9.19326   8.51316   15.66033 
 

 GradGradGradGradGradGradGradGradGradGradGradGradGradGradGradGradGradGrad
 Berny optimization.
 Initialization pass.
 Trust Radius=3.00D-01 FncErr=1.00D-07 GrdErr=1.00D-07
 Number of steps in this run=      2 maximum allowed number of steps=      2.
 GradGradGradGradGradGradGradGradGradGradGradGradGradGradGradGradGradGrad

                          Input orientation:                          
 ---------------------------------------------------------------------
 Center     Atomic      Atomic             Coordinates (Angstroms)
 Number     Number       Type             X           Y           Z
 ---------------------------------------------------------------------
      1          8           0        9.368000    7.688000   11.212000
      2          6           0       10.186000    7.529000   12.380000
      3          6           0       10.334000    8.944000   12.918000
      4          8           0       11.201000    9.642000   12.013000
      5          1           0       11.030000    9.429000   11.050000
      6          6           0       10.867000    9.066000   14.336000
      7          8           0       11.015000   10.335000   14.990000
      8          1           0       11.446000   10.978000   14.358000
      9          6           0        9.125000    5.335000   13.217000
     10          8           0        8.517000    4.301000   14.003000
     11          1           0        8.212000    3.449000   13.577000
     12          6           0        9.435000    6.800000   13.482000
     13          8           0       10.189000    6.918000   14.697000
     14          6           0       10.169000    8.190000   15.363000
     15          8           0       11.039000    7.800000   16.435000
     16          6           0       10.526000    7.632000   17.764000
     17          6           0        9.914000    6.313000   18.209000
     18          8           0        9.510000    5.555000   17.060000
     19          1           0        9.750000    6.114000   16.266000
     20          6           0        9.034000    6.512000   19.432000
     21          8           0        8.255000    5.356000   19.771000
     22          1           0        7.484000    5.329000   19.134000
     23          6           0       12.029000    9.497000   18.536000
     24          8           0       11.194000   10.569000   18.075000
     25          1           0       10.855000   10.418000   17.146000
     26          6           0       11.540000    8.083000   18.802000
     27          8           0       10.756000    8.137000   20.003000
     28          6           0       10.037000    6.987000   20.471000
     29          8           0        9.247000    7.379000   21.603000
     30          1           0        9.826421    7.629465   22.326283
     31          1           0       10.711123    6.199093   20.734934
     32          1           0        8.358513    7.316770   19.229608
     33          1           0       10.743101    5.755593   18.592131
     34          1           0        9.724064    8.337103   17.832034
     35          1           0       12.350975    7.390771   18.891658
     36          1           0       12.821001    9.408568   17.821987
     37          1           0       12.470905    9.835840   19.449678
     38          1           0        9.929157    7.793064   10.440207
     39          1           0        8.537923    5.355337   12.322670
     40          1           0       10.070337    4.920198   12.935614
     41          1           0        8.503208    7.305676   13.626758
     42          1           0       11.131360    7.078417   12.160527
     43          1           0        9.372494    9.412354   12.885582
     44          1           0       11.862516    8.678861   14.272982
     45          1           0        9.193264    8.513162   15.660330
 ---------------------------------------------------------------------
                    Distance matrix (angstroms):
                    1          2          3          4          5
     1  O    0.000000
     2  C    1.434792   0.000000
     3  C    2.328332   1.521043   0.000000
     4  O    2.796356   2.372695   1.434545   0.000000
     5  H    2.412378   2.468043   2.051601   1.000989   0.000000
     6  C    3.728976   2.579160   1.519769   2.416539   3.310005
     7  O    4.898214   3.920839   2.586856   3.062250   4.042853
     8  H    5.003948   4.170813   2.728974   2.709972   3.676319
     9  C    3.100916   2.576805   3.817848   4.930481   5.008568
    10  O    4.470531   3.979909   5.102564   6.300019   6.428978
    11  H    4.989858   4.687844   5.927241   7.052196   7.077235
    12  C    2.438428   1.519818   2.392286   3.654269   3.920496
    13  O    3.662262   2.396209   2.700100   3.955778   4.506996
    14  C    4.257277   3.055405   2.563936   3.794183   4.569290
    15  O    5.484935   4.152599   3.764977   4.793046   5.626006
    16  C    6.653781   5.395708   5.024134   6.129415   6.968574
    17  C    7.151696   5.960695   5.923955   7.150456   7.887090
    18  O    6.226472   5.124066   5.414837   6.710831   7.310156
    19  H    5.307195   4.158523   4.422563   5.713160   6.311440
    20  C    8.310411   7.217486   7.073671   8.338726   9.096748
    21  O    8.940552   7.942139   8.009968   9.339983  10.017275
    22  H    8.477760   7.599824   7.734945   9.117384   9.733199
    23  C    7.999649   6.720566   5.894129   6.576940   7.552670
    24  O    7.663890   6.533811   5.474931   6.132473   7.118786
    25  H    6.698987   5.613256   4.507782   5.202844   6.178184
    26  C    7.904537   6.586525   6.067719   6.973946   7.884499
    27  O    8.911219   7.668422   7.143288   8.142675   9.049892
    28  C    9.309567   8.110502   7.808064   8.941011   9.782876
    29  O   10.396298   9.271890   8.891570  10.045267  10.897128
    30  H   11.123887   9.953288   9.513224  10.597338  11.482225
    31  H    9.731757   8.476398   8.293442   9.389660  10.214300
    32  H    8.089432   7.092382   6.810787   8.097274   8.860268
    33  H    7.751866   6.484281   6.521431   7.654985   8.394043
    34  H    6.661304   5.530922   4.988795   6.143717   6.992403
    35  H    8.244006   6.863521   6.493482   7.328466   8.209200
    36  H    7.653463   6.331764   5.518160   6.035166   7.004849
    37  H    9.060937   7.779630   6.929975   7.546815   8.532076
    38  H    0.960000   1.974461   2.761885   2.740406   2.063974
    39  H    2.713656   2.728416   4.056946   5.056021   4.942152
    40  H    3.335393   2.669818   4.032469   4.942168   4.980541
    41  H    2.593278   2.106197   2.556999   3.916721   4.187226
    42  H    2.093021   1.070000   2.165629   2.568769   2.601689
    43  H    2.402976   2.112919   1.070000   2.039012   2.473250
    44  H    4.071121   2.777817   2.059766   2.544162   3.412243
    45  H    4.527590   3.565763   3.001212   4.313734   5.046534
                    6          7          8          9         10
     6  C    0.000000
     7  O    1.435263   0.000000
     8  H    1.997866   0.999317   0.000000
     9  C    4.266976   5.631663   6.207445   0.000000
    10  O    5.323402   6.604796   7.299822   1.434091   0.000000
    11  H    6.259057   7.567719   8.231316   2.126068   1.000202
    12  C    2.813307   4.155321   4.718811   1.520707   2.712778
    13  O    2.281208   3.527607   4.263633   2.414205   3.182123
    14  C    1.519641   2.335780   3.227026   3.721059   4.438809
    15  O    2.457263   2.918017   3.818280   4.482761   4.951576
    16  C    3.731464   3.903896   4.862402   5.283391   5.410801
    17  C    4.846375   5.267888   6.240148   5.147725   4.867257
    18  O    4.646369   5.422022   6.360647   3.868498   3.450190
    19  H    3.699580   4.587509   5.493212   3.208406   3.150941
    20  C    5.987656   6.186360   7.176934   6.326123   5.884713
    21  O    7.079962   7.434111   8.431485   6.611525   5.869539
    22  H    6.959214   7.395994   8.391592   6.140342   5.333951
    23  C    4.379042   3.782136   4.470899   7.351682   7.738259
    24  O    4.043026   3.099036   3.747916   7.434762   7.939480
    25  H    3.118357   2.163521   2.904449   6.653332   7.263772
    26  C    4.622161   4.458528   5.304620   6.676523   6.817071
    27  O    5.743714   5.479822   6.357154   7.520715   7.465120
    28  C    6.530648   6.496688   7.435195   7.495423   7.166591
    29  O    7.634111   7.456241   8.383223   8.632370   8.232070
    30  H    8.184806   7.909089   8.793705   9.419957   9.059266
    31  H    7.013544   7.085360   8.002704   7.731867   7.330475
    32  H    5.770590   5.843022   6.831526   6.377019   6.036341
    33  H    5.393403   5.832687   6.759842   5.629137   5.303913
    34  H    3.749647   3.706112   4.691302   5.538054   5.692858
    35  H    5.075687   5.067174   5.851602   6.843600   6.938662
    36  H    4.010933   3.484260   4.043879   7.173583   7.693916
    37  H    5.414321   4.717791   5.317908   8.384445   8.714019
    38  H    4.204417   5.323637   5.271976   3.794645   5.184804
    39  H    4.821526   6.168274   6.649347   1.070000   1.983828
    40  H    4.447856   5.867961   6.372801   1.070000   1.983828
    41  H    3.031382   4.164652   4.762426   2.106678   3.028173
    42  H    2.958557   4.315645   4.487164   2.860265   4.235992
    43  H    2.111214   2.824479   2.986418   4.098281   5.301550
    44  H    1.070000   1.993789   2.338109   4.448651   5.516433
    45  H    2.204739   2.662172   3.584175   4.009393   4.576722
                   11         12         13         14         15
    11  H    0.000000
    12  C    3.568467   0.000000
    13  O    4.146913   1.434805   0.000000
    14  C    5.431089   2.451330   1.435946   0.000000
    15  O    5.923791   3.506141   2.126280   1.434637   0.000000
    16  C    6.354766   4.496446   3.166994   2.490706   1.434446
    17  C    5.705675   4.776101   3.574324   3.418753   2.573688
    18  O    4.272157   3.789160   2.811153   3.202704   2.787201
    19  H    4.086366   2.884524   1.816837   2.302335   2.129009
    20  C    6.658729   5.970448   4.890714   4.545401   3.828966
    21  O    6.481060   6.559654   5.650281   5.579016   4.985247
    22  H    5.911399   6.157544   5.434051   5.441965   5.101810
    23  C    8.702843   6.288526   4.977425   3.903303   2.876475
    24  O    8.934133   6.196377   5.074516   3.750361   3.221954
    25  H    8.263787   5.341462   4.323327   2.934905   2.719063
    26  C    7.736289   5.863405   4.475874   3.703756   2.435935
    27  O    8.351213   6.786461   5.473672   4.677283   3.595036
    28  C    7.960861   7.017371   5.776412   5.249409   4.237248
    29  O    8.996266   8.143785   6.985179   6.359670   5.486049
    30  H    9.830188   8.891713   7.670958   6.994202   6.017196
    31  H    8.065026   7.388818   6.102957   5.754588   4.599982
    32  H    6.850773   5.870338   4.904512   4.357872   3.902352
    33  H    6.072757   5.377300   4.102470   4.084509   2.986698
    34  H    6.654713   4.622666   3.472529   2.513113   1.992295
    35  H    7.804760   6.173842   4.742658   4.225070   2.814945
    36  H    8.647500   6.091397   4.784966   3.816364   2.772499
    37  H    9.665316   7.351614   6.025681   4.970764   3.909383
    38  H    5.626632   3.237727   4.353567   4.944591   6.096667
    39  H    2.305145   2.058117   3.287159   4.465348   5.398428
    40  H    2.455446   2.058117   2.666041   4.073517   4.634358
    41  H    3.867975   1.070000   2.034111   2.563480   3.815864
    42  H    4.868442   2.168282   2.710622   3.523860   4.335935
    43  H    6.114441   2.680301   3.189000   2.875095   4.239728
    44  H    6.415770   3.169953   2.465984   2.072467   2.474853
    45  H    5.563171   2.781813   2.112827   1.070000   2.124960
                   16         17         18         19         20
    16  C    0.000000
    17  C    1.520635   0.000000
    18  O    2.416982   1.434566   0.000000
    19  H    2.269472   1.960037   1.000258   0.000000
    20  C    2.502536   1.519780   2.601693   3.270262   0.000000
    21  O    3.790207   2.471432   2.994019   3.885179   1.434607
    22  H    4.053945   2.780069   2.908131   3.738503   1.972509
    23  C    2.516589   3.836406   4.905436   4.668129   4.322391
    24  O    3.028021   4.446335   5.385748   5.020422   4.792317
    25  H    2.872623   4.343556   5.046305   4.529883   4.878388
    26  C    1.519553   2.475566   3.680523   3.675916   3.024066
    27  O    2.306739   2.693395   4.108587   4.366891   2.435559
    28  C    2.825419   2.363482   3.736746   4.304245   1.520248
    29  O    4.054352   3.619459   4.902550   5.507886   2.347403
    30  H    4.615608   4.323514   5.668974   6.247360   3.202114
    31  H    3.303625   2.651173   3.919527   4.571911   2.146693
    32  H    2.635408   2.113938   3.022740   3.487960   1.070000
    33  H    2.062483   1.070000   1.976917   2.554523   2.049038
    34  H    1.070000   2.067649   2.895161   2.719434   2.523307
    35  H    2.158782   2.750720   3.846579   3.910153   3.473692
    36  H    2.902858   4.264150   5.137445   4.765115   5.032258
    37  H    3.388374   4.526306   5.727400   5.602787   4.781270
    38  H    7.349837   7.908538   7.000449   6.065577   9.126597
    39  H    6.224445   6.120424   4.840155   4.194586   7.219871
    40  H    5.556511   5.456459   4.210405   3.552359   6.768372
    41  H    4.616811   4.896191   3.983171   3.152805   5.883239
    42  H    5.663199   6.217062   5.380933   4.437698   7.589076
    43  H    5.319699   6.183689   5.685407   4.738024   7.168139
    44  H    3.881932   4.988612   4.802115   3.874707   6.269869
    45  H    2.641601   3.443238   3.287874   2.536290   4.272646
                   21         22         23         24         25
    21  O    0.000000
    22  H    1.000469   0.000000
    23  C    5.737263   6.195712   0.000000
    24  O    6.220089   6.507164   1.434897   0.000000
    25  H    6.266935   6.419790   2.039269   1.000381   0.000000
    26  C    4.377981   4.913845   1.519629   2.613129   2.943431
    27  O    3.747371   4.398410   2.371122   3.134271   3.657214
    28  C    2.515091   3.324807   3.743313   4.462083   4.847320
    29  O    2.903931   3.661507   4.651015   5.139425   5.629035
    30  H    3.763971   4.579274   4.765006   5.346451   5.972372
    31  H    2.769931   3.705992   4.177116   5.138531   5.540787
    32  H    2.036772   2.173740   4.325155   4.466554   4.493495
    33  H    2.782095   3.331268   3.956616   4.862059   4.882812
    34  H    3.847689   3.970099   2.674632   2.683488   2.465723
    35  H    4.657311   5.291227   2.160176   3.479463   3.801234
    36  H    6.408613   6.844548   1.070000   2.014386   2.311076
    37  H    6.160038   6.729077   1.070000   2.014386   2.873498
    38  H    9.788043   9.361220   8.535491   8.221661   7.260519
    39  H    7.453702   6.892436   8.242965   8.205262   7.366405
    40  H    7.085752   6.728763   7.493184   7.719124   6.969137
    41  H    6.450935   5.939339   6.429134   6.138119   5.253813
    42  H    8.316217   8.061825   6.877642   6.867975   6.007007
    43  H    8.069187   7.699540   6.244311   5.620123   4.621722
    44  H    7.367753   7.349998   4.344006   4.298242   3.506269
    45  H    5.267411   5.012669   4.156779   3.749673   2.932063
                   26         27         28         29         30
    26  C    0.000000
    27  O    1.435261   0.000000
    28  C    2.499157   1.434742   0.000000
    29  O    3.687691   2.326294   1.434987   0.000000
    30  H    3.944948   2.553302   1.974634   0.960000   0.000000
    31  H    2.823539   2.072009   1.070000   2.071081   2.315395
    32  H    3.300275   2.649312   2.113556   2.535009   3.441210
    33  H    2.468990   2.767998   2.354802   3.733511   4.277334
    34  H    2.074373   2.412058   2.980746   3.919915   4.550769
    35  H    1.070000   2.082278   2.830518   4.121429   4.269308
    36  H    2.087707   3.261584   4.542237   5.584683   5.693979
    37  H    2.087707   2.476514   3.883669   4.589817   4.487342
    38  H    8.520473   9.604633  10.063706  11.191280  11.887646
    39  H    7.644235   8.464336   8.444220   9.524838  10.339447
    40  H    6.824787   7.795248   7.813759   9.046943   9.776722
    41  H    6.050576   6.813416   7.021234   8.011182   8.805536
    42  H    6.729438   7.922492   8.382717   9.633351  10.263972
    43  H    6.439664   7.361947   7.991400   8.952299   9.618294
    44  H    4.579418   5.860981   6.679096   7.890483   8.372728
    45  H    3.944908   4.630596   5.116992   6.050168   6.754016
                   31         32         33         34         35
    31  H    0.000000
    32  H    3.008319   0.000000
    33  H    2.188451   2.920601   0.000000
    34  H    3.737940   2.204319   2.877564   0.000000
    35  H    2.739868   4.007423   2.312744   2.986471   0.000000
    36  H    4.820536   5.125506   4.272588   3.277065   2.331657
    37  H    4.239651   4.827620   4.513214   3.522516   2.510802
    38  H   10.446704   8.941328   8.442017   7.414658   8.800800
    39  H    8.729313   7.182284   6.658015   6.375810   7.863458
    40  H    7.929412   6.948975   5.757316   5.980809   6.839555
    41  H    7.524997   5.604729   5.663462   4.498742   6.521636
    42  H    8.629615   7.597197   6.577700   5.977522   6.847858
    43  H    8.586576   6.757684   6.914851   5.074166   7.002221
    44  H    7.016536   6.221050   5.334194   4.166129   4.819745
    45  H    5.780174   3.855892   4.312961   2.242553   4.655361
                   36         37         38         39         40
    36  H    0.000000
    37  H    1.718867   0.000000
    38  H    8.090939   9.581440   0.000000
    39  H    8.063246   9.291798   3.379602   0.000000
    40  H    7.182497   8.506427   3.807932   1.706850   0.000000
    41  H    6.376946   7.486705   3.524909   2.346417   2.936678
    42  H    6.351112   7.907559   2.217096   3.117886   2.526744
    43  H    6.021654   7.270960   2.985269   4.180043   4.546311
    44  H    3.747880   5.339187   4.383227   5.089445   4.373558
    45  H    4.316827   5.181850   5.320692   4.641261   4.593770
                   41         42         43         44         45
    41  H    0.000000
    42  H    3.018057   0.000000
    43  H    2.396474   3.011076   0.000000
    44  H    3.686217   2.749268   2.943315   0.000000
    45  H    2.463659   4.250098   2.922311   3.012822   0.000000
 Stoichiometry    C12H22O11
 Framework group  C1[X(C12H22O11)]
 Deg. of freedom   129
 Full point group                 C1      NOp   1
 Largest Abelian subgroup         C1      NOp   1
 Largest concise Abelian subgroup C1      NOp   1
                         Standard orientation:                         
 ---------------------------------------------------------------------
 Center     Atomic      Atomic             Coordinates (Angstroms)
 Number     Number       Type             X           Y           Z
 ---------------------------------------------------------------------
      1          8           0       -5.041088    0.547548   -0.604212
      2          6           0       -3.869113    0.231374    0.160731
      3          6           0       -3.412488   -1.104501   -0.405400
      4          8           0       -4.358793   -2.087022    0.038532
      5          1           0       -5.307559   -1.768819    0.014664
      6          6           0       -2.005698   -1.541412   -0.031572
      7          8           0       -1.425011   -2.755631   -0.530026
      8          1           0       -2.093977   -3.493440   -0.447824
      9          6           0       -2.905434    2.618675    0.270486
     10          8           0       -2.059946    3.775845    0.218308
     11          1           0       -2.435957    4.689744    0.372615
     12          6           0       -2.724817    1.174837   -0.171398
     13          8           0       -1.521322    0.645065    0.402715
     14          6           0       -0.928180   -0.491224   -0.244565
     15          8           0        0.160801   -0.625692    0.679677
     16          6           0        1.499126   -0.299200    0.279772
     17          6           0        2.020278    1.126503    0.369788
     18          8           0        0.917495    2.043173    0.409371
     19          1           0        0.092267    1.479377    0.368761
     20          6           0        3.233444    1.314976   -0.526001
     21          8           0        3.640196    2.684334   -0.658318
     22          1           0        3.008698    3.113122   -1.305071
     23          6           0        2.158759   -2.695056    0.677232
     24          8           0        1.641132   -3.204945   -0.560105
     25          1           0        0.723453   -2.861509   -0.761797
     26          6           0        2.506095   -1.236560    0.925069
     27          8           0        3.705120   -0.966605    0.183830
     28          6           0        4.240097    0.361901    0.098061
     29          8           0        5.351160    0.342871   -0.809885
     30          1           0        6.056911   -0.193103   -0.440769
     31          1           0        4.545540    0.711320    1.062172
     32          1           0        2.988496    0.948317   -1.500918
     33          1           0        2.431110    1.193464    1.355502
     34          1           0        1.530286   -0.531529   -0.764236
     35          1           0        2.631612   -1.027943    1.967002
     36          1           0        1.447855   -2.963771    1.430430
     37          1           0        3.050134   -3.251602    0.878743
     38          1           0       -5.819728    0.224204   -0.145118
     39          1           0       -3.797229    2.930433   -0.231916
     40          1           0       -3.166555    2.538935    1.305067
     41          1           0       -2.605291    1.175616   -1.234701
     42          1           0       -4.066398    0.179721    1.211116
     43          1           0       -3.467632   -1.047653   -1.472465
     44          1           0       -2.050557   -1.680779    1.028364
     45          1           0       -0.645846   -0.317518   -1.261921
 ---------------------------------------------------------------------
 Rotational constants (GHZ):      0.3918038      0.1554963      0.1163397
 Standard basis: 6-31+G(2d,p) (6D, 7F)
 There are   685 symmetry adapted basis functions of A   symmetry.
 Integral buffers will be    131072 words long.
 Raffenetti 2 integral format.
 Two-electron integral symmetry is turned on.
   685 basis functions,  1028 primitive gaussians,   685 cartesian basis functions
    91 alpha electrons       91 beta electrons
       nuclear repulsion energy      2298.0936221937 Hartrees.
 NAtoms=   45 NActive=   45 NUniq=   45 SFac= 1.00D+00 NAtFMM=   50 NAOKFM=F Big=F
 One-electron integrals computed using PRISM.
 NBasis=   685 RedAO= T  NBF=   685
 NBsUse=   685 1.00D-06 NBFU=   685
 Harris functional with IExCor=  402 diagonalized for initial guess.
 ExpMin= 4.38D-02 ExpMax= 5.48D+03 ExpMxC= 8.25D+02 IAcc=2 IRadAn=         0 AccDes= 0.00D+00
 HarFok:  IExCor=  402 AccDes= 0.00D+00 IRadAn=         0 IDoV= 1
 ScaDFX=  1.000000  1.000000  1.000000  1.000000
 FoFCou: FMM=F IPFlag=           0 FMFlag=      100000 FMFlg1=           0
         NFxFlg=           0 DoJE=T BraDBF=F KetDBF=T FulRan=T
         Omega=  0.000000  0.000000  1.000000  0.000000  0.000000 ICntrl=     500 IOpCl=  0
         NMat0=    1 NMatS0=    1 NMatT0=    0 NMatD0=    1 NMtDS0=    0 NMtDT0=    0
         I1Cent=           4 NGrid=           0.
 Petite list used in FoFCou.
 Initial guess orbital symmetries:
       Occupied  (A) (A) (A) (A) (A) (A) (A) (A) (A) (A) (A) (A)
                 (A) (A) (A) (A) (A) (A) (A) (A) (A) (A) (A) (A)
                 (A) (A) (A) (A) (A) (A) (A) (A) (A) (A) (A) (A)
                 (A) (A) (A) (A) (A) (A) (A) (A) (A) (A) (A) (A)
                 (A) (A) (A) (A) (A) (A) (A) (A) (A) (A) (A) (A)
                 (A) (A) (A) (A) (A) (A) (A) (A) (A) (A) (A) (A)
                 (A) (A) (A) (A) (A) (A) (A) (A) (A) (A) (A) (A)
                 (A) (A) (A) (A) (A) (A) (A)
       Virtual   (A) (A) (A) (A) (A) (A) (A) (A) (A) (A) (A) (A)
                 (A) (A) (A) (A) (A) (A) (A) (A) (A) (A) (A) (A)
                 (A) (A) (A) (A) (A) (A) (A) (A) (A) (A) (A) (A)
                 (A) (A) (A) (A) (A) (A) (A) (A) (A) (A) (A) (A)
                 (A) (A) (A) (A) (A) (A) (A) (A) (A) (A) (A) (A)
                 (A) (A) (A) (A) (A) (A) (A) (A) (A) (A) (A) (A)
                 (A) (A) (A) (A) (A) (A) (A) (A) (A) (A) (A) (A)
                 (A) (A) (A) (A) (A) (A) (A) (A) (A) (A) (A) (A)
                 (A) (A) (A) (A) (A) (A) (A) (A) (A) (A) (A) (A)
                 (A) (A) (A) (A) (A) (A) (A) (A) (A) (A) (A) (A)
                 (A) (A) (A) (A) (A) (A) (A) (A) (A) (A) (A) (A)
                 (A) (A) (A) (A) (A) (A) (A) (A) (A) (A) (A) (A)
                 (A) (A) (A) (A) (A) (A) (A) (A) (A) (A) (A) (A)
                 (A) (A) (A) (A) (A) (A) (A) (A) (A) (A) (A) (A)
                 (A) (A) (A) (A) (A) (A) (A) (A) (A) (A) (A) (A)
                 (A) (A) (A) (A) (A) (A) (A) (A) (A) (A) (A) (A)
                 (A) (A) (A) (A) (A) (A) (A) (A) (A) (A) (A) (A)
                 (A) (A) (A) (A) (A) (A) (A) (A) (A) (A) (A) (A)
                 (A) (A) (A) (A) (A) (A) (A) (A) (A) (A) (A) (A)
                 (A) (A) (A) (A) (A) (A) (A) (A) (A) (A) (A) (A)
                 (A) (A) (A) (A) (A) (A) (A) (A) (A) (A) (A) (A)
                 (A) (A) (A) (A) (A) (A) (A) (A) (A) (A) (A) (A)
                 (A) (A) (A) (A) (A) (A) (A) (A) (A) (A) (A) (A)
                 (A) (A) (A) (A) (A) (A) (A) (A) (A) (A) (A) (A)
                 (A) (A) (A) (A) (A) (A) (A) (A) (A) (A) (A) (A)
                 (A) (A) (A) (A) (A) (A) (A) (A) (A) (A) (A) (A)
                 (A) (A) (A) (A) (A) (A) (A) (A) (A) (A) (A) (A)
                 (A) (A) (A) (A) (A) (A) (A) (A) (A) (A) (A) (A)
                 (A) (A) (A) (A) (A) (A) (A) (A) (A) (A) (A) (A)
                 (A) (A) (A) (A) (A) (A) (A) (A) (A) (A) (A) (A)
                 (A) (A) (A) (A) (A) (A) (A) (A) (A) (A) (A) (A)
                 (A) (A) (A) (A) (A) (A) (A) (A) (A) (A) (A) (A)
                 (A) (A) (A) (A) (A) (A) (A) (A) (A) (A) (A) (A)
                 (A) (A) (A) (A) (A) (A) (A) (A) (A) (A) (A) (A)
                 (A) (A) (A) (A) (A) (A) (A) (A) (A) (A) (A) (A)
                 (A) (A) (A) (A) (A) (A) (A) (A) (A) (A) (A) (A)
                 (A) (A) (A) (A) (A) (A) (A) (A) (A) (A) (A) (A)
                 (A) (A) (A) (A) (A) (A) (A) (A) (A) (A) (A) (A)
                 (A) (A) (A) (A) (A) (A) (A) (A) (A) (A) (A) (A)
                 (A) (A) (A) (A) (A) (A) (A) (A) (A) (A) (A) (A)
                 (A) (A) (A) (A) (A) (A) (A) (A) (A) (A) (A) (A)
                 (A) (A) (A) (A) (A) (A) (A) (A) (A) (A) (A) (A)
                 (A) (A) (A) (A) (A) (A) (A) (A) (A) (A) (A) (A)
                 (A) (A) (A) (A) (A) (A) (A) (A) (A) (A) (A) (A)
                 (A) (A) (A) (A) (A) (A) (A) (A) (A) (A) (A) (A)
                 (A) (A) (A) (A) (A) (A) (A) (A) (A) (A) (A) (A)
                 (A) (A) (A) (A) (A) (A) (A) (A) (A) (A) (A) (A)
                 (A) (A) (A) (A) (A) (A) (A) (A) (A) (A) (A) (A)
                 (A) (A) (A) (A) (A) (A) (A) (A) (A) (A) (A) (A)
                 (A) (A) (A) (A) (A) (A)
 The electronic state of the initial guess is 1-A.
 Requested convergence on RMS density matrix=1.00D-08 within 128 cycles.
 Requested convergence on MAX density matrix=1.00D-06.
 Requested convergence on             energy=1.00D-06.
 No special actions if energy rises.
 SCF Done:  E(RB3LYP) =  -1297.92528347     A.U. after   14 cycles
             Convg  =    0.2531D-08             -V/T =  2.0064
 Range of M.O.s used for correlation:     1   685
 NBasis=   685 NAE=    91 NBE=    91 NFC=     0 NFV=     0
 NROrb=    685 NOA=    91 NOB=    91 NVA=   594 NVB=   594

 **** Warning!!: The largest alpha MO coefficient is  0.74559037D+02

          Differentiating once with respect to electric field.
                with respect to dipole field.
          Electric field/nuclear overlap derivatives assumed to be zero.
          There are     3 degrees of freedom in the 1st order CPHF.  IDoFFX=0.
      3 vectors produced by pass  0 Test12= 1.80D-12 3.33D-08 XBig12= 1.25D+02 9.76D-01.
 AX will form     3 AO Fock derivatives at one time.
      3 vectors produced by pass  1 Test12= 1.80D-12 3.33D-08 XBig12= 2.49D+01 3.84D-01.
      3 vectors produced by pass  2 Test12= 1.80D-12 3.33D-08 XBig12= 9.95D+00 2.00D-01.
      3 vectors produced by pass  3 Test12= 1.80D-12 3.33D-08 XBig12= 1.24D+00 8.07D-02.
      3 vectors produced by pass  4 Test12= 1.80D-12 3.33D-08 XBig12= 3.74D-01 4.21D-02.
      3 vectors produced by pass  5 Test12= 1.80D-12 3.33D-08 XBig12= 6.80D-02 2.09D-02.
      3 vectors produced by pass  6 Test12= 1.80D-12 3.33D-08 XBig12= 2.49D-02 2.00D-02.
      3 vectors produced by pass  7 Test12= 1.80D-12 3.33D-08 XBig12= 4.05D-03 1.20D-02.
      3 vectors produced by pass  8 Test12= 1.80D-12 3.33D-08 XBig12= 8.72D-04 4.69D-03.
      3 vectors produced by pass  9 Test12= 1.80D-12 3.33D-08 XBig12= 2.36D-04 2.72D-03.
      3 vectors produced by pass 10 Test12= 1.80D-12 3.33D-08 XBig12= 6.90D-05 1.51D-03.
      3 vectors produced by pass 11 Test12= 1.80D-12 3.33D-08 XBig12= 1.62D-05 8.86D-04.
      3 vectors produced by pass 12 Test12= 1.80D-12 3.33D-08 XBig12= 1.91D-06 2.52D-04.
      3 vectors produced by pass 13 Test12= 1.80D-12 3.33D-08 XBig12= 5.94D-07 1.09D-04.
      3 vectors produced by pass 14 Test12= 1.80D-12 3.33D-08 XBig12= 1.17D-07 5.23D-05.
      3 vectors produced by pass 15 Test12= 1.80D-12 3.33D-08 XBig12= 3.34D-08 2.40D-05.
      3 vectors produced by pass 16 Test12= 1.80D-12 3.33D-08 XBig12= 5.02D-09 1.08D-05.
      3 vectors produced by pass 17 Test12= 1.80D-12 3.33D-08 XBig12= 2.84D-10 2.21D-06.
      3 vectors produced by pass 18 Test12= 1.80D-12 3.33D-08 XBig12= 3.86D-11 7.01D-07.
      3 vectors produced by pass 19 Test12= 1.80D-12 3.33D-08 XBig12= 1.84D-11 3.78D-07.
      2 vectors produced by pass 20 Test12= 1.80D-12 3.33D-08 XBig12= 1.09D-11 2.46D-07.
      2 vectors produced by pass 21 Test12= 1.80D-12 3.33D-08 XBig12= 5.23D-12 1.80D-07.
      1 vectors produced by pass 22 Test12= 1.80D-12 3.33D-08 XBig12= 9.89D-13 9.31D-08.
 Inverted reduced A of dimension    65 with in-core refinement.
 End of Minotr Frequency-dependent properties file   721 does not exist.
 End of Minotr Frequency-dependent properties file   722 does not exist.
 Symmetrizing basis deriv contribution to polar:
 IMax=3 JMax=2 DiffMx= 0.00D+00
 G2DrvN: will do    16 centers at a time, making    3 passes doing MaxLOS=2.
 Calling FoFCou, ICntrl=  3107 FMM=F I1Cent=   0 AccDes= 0.00D+00.
 Calling FoFCou, ICntrl=  3107 FMM=F I1Cent=   0 AccDes= 0.00D+00.
 Calling FoFCou, ICntrl=  3107 FMM=F I1Cent=   0 AccDes= 0.00D+00.
 FoFDir/FoFCou used for L=0 through L=2.
 End of G2Drv Frequency-dependent properties file   721 does not exist.
 End of G2Drv Frequency-dependent properties file   722 does not exist.
          IDoAtm=111111111111111111111111111111111111111111111
          Differentiating once with respect to electric field.
                with respect to dipole field.
          Differentiating once with respect to nuclear coordinates.
          There are   138 degrees of freedom in the 1st order CPHF.  IDoFFX=5.
 Will reuse    3 saved solutions.
    135 vectors produced by pass  0 Test12= 5.41D-14 1.00D-09 XBig12= 1.82D-01 7.21D-02.
 AX will form    45 AO Fock derivatives at one time.
    135 vectors produced by pass  1 Test12= 5.41D-14 1.00D-09 XBig12= 1.69D-02 1.38D-02.
    132 vectors produced by pass  2 Test12= 5.41D-14 1.00D-09 XBig12= 1.87D-04 1.95D-03.
    132 vectors produced by pass  3 Test12= 5.41D-14 1.00D-09 XBig12= 7.29D-07 6.81D-05.
    132 vectors produced by pass  4 Test12= 5.41D-14 1.00D-09 XBig12= 1.49D-09 2.75D-06.
    132 vectors produced by pass  5 Test12= 5.41D-14 1.00D-09 XBig12= 3.77D-12 1.01D-07.
     83 vectors produced by pass  6 Test12= 5.41D-14 1.00D-09 XBig12= 1.37D-13 1.95D-08.
 Inverted reduced A of dimension   881 with in-core refinement.
 Isotropic polarizability for W=    0.000000      192.59 Bohr**3.
 End of Minotr Frequency-dependent properties file   721 does not exist.
 End of Minotr Frequency-dependent properties file   722 does not exist.

 **********************************************************************

            Population analysis using the SCF density.

 **********************************************************************

 Orbital symmetries:
       Occupied  (A) (A) (A) (A) (A) (A) (A) (A) (A) (A) (A) (A)
                 (A) (A) (A) (A) (A) (A) (A) (A) (A) (A) (A) (A)
                 (A) (A) (A) (A) (A) (A) (A) (A) (A) (A) (A) (A)
                 (A) (A) (A) (A) (A) (A) (A) (A) (A) (A) (A) (A)
                 (A) (A) (A) (A) (A) (A) (A) (A) (A) (A) (A) (A)
                 (A) (A) (A) (A) (A) (A) (A) (A) (A) (A) (A) (A)
                 (A) (A) (A) (A) (A) (A) (A) (A) (A) (A) (A) (A)
                 (A) (A) (A) (A) (A) (A) (A)
       Virtual   (A) (A) (A) (A) (A) (A) (A) (A) (A) (A) (A) (A)
                 (A) (A) (A) (A) (A) (A) (A) (A) (A) (A) (A) (A)
                 (A) (A) (A) (A) (A) (A) (A) (A) (A) (A) (A) (A)
                 (A) (A) (A) (A) (A) (A) (A) (A) (A) (A) (A) (A)
                 (A) (A) (A) (A) (A) (A) (A) (A) (A) (A) (A) (A)
                 (A) (A) (A) (A) (A) (A) (A) (A) (A) (A) (A) (A)
                 (A) (A) (A) (A) (A) (A) (A) (A) (A) (A) (A) (A)
                 (A) (A) (A) (A) (A) (A) (A) (A) (A) (A) (A) (A)
                 (A) (A) (A) (A) (A) (A) (A) (A) (A) (A) (A) (A)
                 (A) (A) (A) (A) (A) (A) (A) (A) (A) (A) (A) (A)
                 (A) (A) (A) (A) (A) (A) (A) (A) (A) (A) (A) (A)
                 (A) (A) (A) (A) (A) (A) (A) (A) (A) (A) (A) (A)
                 (A) (A) (A) (A) (A) (A) (A) (A) (A) (A) (A) (A)
                 (A) (A) (A) (A) (A) (A) (A) (A) (A) (A) (A) (A)
                 (A) (A) (A) (A) (A) (A) (A) (A) (A) (A) (A) (A)
                 (A) (A) (A) (A) (A) (A) (A) (A) (A) (A) (A) (A)
                 (A) (A) (A) (A) (A) (A) (A) (A) (A) (A) (A) (A)
                 (A) (A) (A) (A) (A) (A) (A) (A) (A) (A) (A) (A)
                 (A) (A) (A) (A) (A) (A) (A) (A) (A) (A) (A) (A)
                 (A) (A) (A) (A) (A) (A) (A) (A) (A) (A) (A) (A)
                 (A) (A) (A) (A) (A) (A) (A) (A) (A) (A) (A) (A)
                 (A) (A) (A) (A) (A) (A) (A) (A) (A) (A) (A) (A)
                 (A) (A) (A) (A) (A) (A) (A) (A) (A) (A) (A) (A)
                 (A) (A) (A) (A) (A) (A) (A) (A) (A) (A) (A) (A)
                 (A) (A) (A) (A) (A) (A) (A) (A) (A) (A) (A) (A)
                 (A) (A) (A) (A) (A) (A) (A) (A) (A) (A) (A) (A)
                 (A) (A) (A) (A) (A) (A) (A) (A) (A) (A) (A) (A)
                 (A) (A) (A) (A) (A) (A) (A) (A) (A) (A) (A) (A)
                 (A) (A) (A) (A) (A) (A) (A) (A) (A) (A) (A) (A)
                 (A) (A) (A) (A) (A) (A) (A) (A) (A) (A) (A) (A)
                 (A) (A) (A) (A) (A) (A) (A) (A) (A) (A) (A) (A)
                 (A) (A) (A) (A) (A) (A) (A) (A) (A) (A) (A) (A)
                 (A) (A) (A) (A) (A) (A) (A) (A) (A) (A) (A) (A)
                 (A) (A) (A) (A) (A) (A) (A) (A) (A) (A) (A) (A)
                 (A) (A) (A) (A) (A) (A) (A) (A) (A) (A) (A) (A)
                 (A) (A) (A) (A) (A) (A) (A) (A) (A) (A) (A) (A)
                 (A) (A) (A) (A) (A) (A) (A) (A) (A) (A) (A) (A)
                 (A) (A) (A) (A) (A) (A) (A) (A) (A) (A) (A) (A)
                 (A) (A) (A) (A) (A) (A) (A) (A) (A) (A) (A) (A)
                 (A) (A) (A) (A) (A) (A) (A) (A) (A) (A) (A) (A)
                 (A) (A) (A) (A) (A) (A) (A) (A) (A) (A) (A) (A)
                 (A) (A) (A) (A) (A) (A) (A) (A) (A) (A) (A) (A)
                 (A) (A) (A) (A) (A) (A) (A) (A) (A) (A) (A) (A)
                 (A) (A) (A) (A) (A) (A) (A) (A) (A) (A) (A) (A)
                 (A) (A) (A) (A) (A) (A) (A) (A) (A) (A) (A) (A)
                 (A) (A) (A) (A) (A) (A) (A) (A) (A) (A) (A) (A)
                 (A) (A) (A) (A) (A) (A) (A) (A) (A) (A) (A) (A)
                 (A) (A) (A) (A) (A) (A) (A) (A) (A) (A) (A) (A)
                 (A) (A) (A) (A) (A) (A) (A) (A) (A) (A) (A) (A)
                 (A) (A) (A) (A) (A) (A)
 The electronic state is 1-A.
 Alpha  occ. eigenvalues --  -19.19880 -19.18864 -19.18677 -19.18527 -19.18249
 Alpha  occ. eigenvalues --  -19.15849 -19.15530 -19.15489 -19.15021 -19.14046
 Alpha  occ. eigenvalues --  -19.13118 -10.32227 -10.29108 -10.28137 -10.27385
 Alpha  occ. eigenvalues --  -10.27304 -10.26760 -10.24810 -10.24642 -10.24429
 Alpha  occ. eigenvalues --  -10.23666 -10.22658 -10.22357  -1.11214  -1.08481
 Alpha  occ. eigenvalues --   -1.07036  -1.05714  -1.04338  -1.03989  -1.01865
 Alpha  occ. eigenvalues --   -1.01770  -1.01000  -1.00015  -0.99545  -0.83274
 Alpha  occ. eigenvalues --   -0.81869  -0.79154  -0.78409  -0.72785  -0.70063
 Alpha  occ. eigenvalues --   -0.68412  -0.65049  -0.63556  -0.62919  -0.61473
 Alpha  occ. eigenvalues --   -0.60364  -0.57967  -0.56850  -0.56154  -0.54290
 Alpha  occ. eigenvalues --   -0.53468  -0.53251  -0.53105  -0.52290  -0.51039
 Alpha  occ. eigenvalues --   -0.50179  -0.49396  -0.49066  -0.48534  -0.47534
 Alpha  occ. eigenvalues --   -0.46670  -0.45174  -0.44117  -0.43493  -0.43362
 Alpha  occ. eigenvalues --   -0.43117  -0.42235  -0.40631  -0.40356  -0.39932
 Alpha  occ. eigenvalues --   -0.39400  -0.38014  -0.37147  -0.36793  -0.35985
 Alpha  occ. eigenvalues --   -0.34738  -0.34316  -0.33857  -0.33115  -0.32396
 Alpha  occ. eigenvalues --   -0.32092  -0.31787  -0.30528  -0.30457  -0.30250
 Alpha  occ. eigenvalues --   -0.29731  -0.28271  -0.28032  -0.27569  -0.26558
 Alpha  occ. eigenvalues --   -0.25077
 Alpha virt. eigenvalues --   -0.04721  -0.01826  -0.01045  -0.00342   0.00603
 Alpha virt. eigenvalues --    0.00810   0.01544   0.02043   0.02470   0.03108
 Alpha virt. eigenvalues --    0.03602   0.04367   0.04839   0.05275   0.05759
 Alpha virt. eigenvalues --    0.06150   0.06429   0.06787   0.06846   0.07851
 Alpha virt. eigenvalues --    0.07914   0.08472   0.09168   0.09448   0.09849
 Alpha virt. eigenvalues --    0.10134   0.10802   0.11064   0.11504   0.11760
 Alpha virt. eigenvalues --    0.11969   0.12146   0.12341   0.13033   0.13401
 Alpha virt. eigenvalues --    0.13798   0.14093   0.14237   0.14686   0.14859
 Alpha virt. eigenvalues --    0.15183   0.15222   0.15911   0.16375   0.16716
 Alpha virt. eigenvalues --    0.17061   0.17465   0.17704   0.17781   0.18492
 Alpha virt. eigenvalues --    0.18870   0.19064   0.19348   0.19881   0.20078
 Alpha virt. eigenvalues --    0.20354   0.20583   0.20939   0.21099   0.21514
 Alpha virt. eigenvalues --    0.21923   0.22077   0.22262   0.22378   0.22914
 Alpha virt. eigenvalues --    0.23139   0.23218   0.23737   0.24055   0.24264
 Alpha virt. eigenvalues --    0.24966   0.25278   0.25429   0.25634   0.25914
 Alpha virt. eigenvalues --    0.26357   0.26583   0.26877   0.27094   0.27274
 Alpha virt. eigenvalues --    0.27530   0.27866   0.28235   0.28638   0.28697
 Alpha virt. eigenvalues --    0.29333   0.29564   0.29811   0.30344   0.30385
 Alpha virt. eigenvalues --    0.30777   0.31260   0.31386   0.31815   0.32397
 Alpha virt. eigenvalues --    0.32742   0.33345   0.33485   0.33581   0.33850
 Alpha virt. eigenvalues --    0.33984   0.34676   0.34794   0.35043   0.35661
 Alpha virt. eigenvalues --    0.35791   0.36183   0.36527   0.37115   0.37254
 Alpha virt. eigenvalues --    0.37887   0.38396   0.38752   0.38969   0.39043
 Alpha virt. eigenvalues --    0.39743   0.40177   0.40271   0.40673   0.41051
 Alpha virt. eigenvalues --    0.41570   0.42159   0.42663   0.43150   0.43556
 Alpha virt. eigenvalues --    0.44341   0.45096   0.45470   0.45890   0.46545
 Alpha virt. eigenvalues --    0.46834   0.48310   0.49233   0.50040   0.50813
 Alpha virt. eigenvalues --    0.51401   0.53118   0.54280   0.58242   0.58835
 Alpha virt. eigenvalues --    0.59570   0.60432   0.60563   0.62190   0.62603
 Alpha virt. eigenvalues --    0.63584   0.64558   0.65304   0.65919   0.67170
 Alpha virt. eigenvalues --    0.67889   0.68362   0.69648   0.70453   0.70733
 Alpha virt. eigenvalues --    0.70938   0.72073   0.72940   0.73212   0.73411
 Alpha virt. eigenvalues --    0.73823   0.75300   0.75771   0.76595   0.77249
 Alpha virt. eigenvalues --    0.77711   0.79985   0.80539   0.81172   0.82305
 Alpha virt. eigenvalues --    0.83039   0.83505   0.84185   0.85079   0.85691
 Alpha virt. eigenvalues --    0.85892   0.87268   0.87448   0.88476   0.89256
 Alpha virt. eigenvalues --    0.89364   0.90204   0.91284   0.91419   0.92134
 Alpha virt. eigenvalues --    0.92419   0.92724   0.93363   0.93547   0.94093
 Alpha virt. eigenvalues --    0.94387   0.94900   0.95144   0.95914   0.96275
 Alpha virt. eigenvalues --    0.96720   0.97540   0.98171   0.98500   0.99233
 Alpha virt. eigenvalues --    0.99659   1.00549   1.00879   1.01870   1.02030
 Alpha virt. eigenvalues --    1.03247   1.03538   1.03854   1.04433   1.04751
 Alpha virt. eigenvalues --    1.05956   1.06316   1.06679   1.06960   1.07996
 Alpha virt. eigenvalues --    1.08579   1.09048   1.09338   1.10084   1.10343
 Alpha virt. eigenvalues --    1.11973   1.12455   1.13175   1.13474   1.14147
 Alpha virt. eigenvalues --    1.15188   1.15664   1.16428   1.16782   1.16900
 Alpha virt. eigenvalues --    1.17425   1.17992   1.18604   1.18936   1.19553
 Alpha virt. eigenvalues --    1.19801   1.20513   1.21361   1.21825   1.22694
 Alpha virt. eigenvalues --    1.23178   1.23816   1.24451   1.24906   1.25458
 Alpha virt. eigenvalues --    1.26076   1.26419   1.26786   1.27739   1.28580
 Alpha virt. eigenvalues --    1.29196   1.29673   1.30478   1.30739   1.31512
 Alpha virt. eigenvalues --    1.31613   1.32496   1.32791   1.33537   1.34046
 Alpha virt. eigenvalues --    1.34620   1.35193   1.35980   1.36495   1.37063
 Alpha virt. eigenvalues --    1.37657   1.38285   1.39090   1.39428   1.40043
 Alpha virt. eigenvalues --    1.41262   1.41679   1.42457   1.42961   1.43593
 Alpha virt. eigenvalues --    1.45314   1.46612   1.46810   1.48086   1.48715
 Alpha virt. eigenvalues --    1.49784   1.51056   1.51579   1.51900   1.52797
 Alpha virt. eigenvalues --    1.53232   1.53797   1.55126   1.56017   1.56773
 Alpha virt. eigenvalues --    1.57856   1.58346   1.58991   1.59867   1.60216
 Alpha virt. eigenvalues --    1.62276   1.63040   1.63815   1.64931   1.66096
 Alpha virt. eigenvalues --    1.66676   1.67184   1.67607   1.69174   1.69916
 Alpha virt. eigenvalues --    1.71825   1.72163   1.72448   1.73365   1.74711
 Alpha virt. eigenvalues --    1.75369   1.75950   1.76190   1.77845   1.78184
 Alpha virt. eigenvalues --    1.78973   1.80185   1.81812   1.83691   1.83990
 Alpha virt. eigenvalues --    1.84996   1.86191   1.87554   1.88611   1.90459
 Alpha virt. eigenvalues --    1.91569   1.92109   1.93430   1.94239   1.95200
 Alpha virt. eigenvalues --    1.96881   1.97370   1.97614   1.99467   2.00048
 Alpha virt. eigenvalues --    2.00416   2.01642   2.02959   2.05094   2.05118
 Alpha virt. eigenvalues --    2.06991   2.07873   2.08616   2.09715   2.11540
 Alpha virt. eigenvalues --    2.12773   2.14542   2.15015   2.17557   2.19573
 Alpha virt. eigenvalues --    2.20451   2.21697   2.23229   2.23974   2.26010
 Alpha virt. eigenvalues --    2.26701   2.28235   2.29411   2.30153   2.31112
 Alpha virt. eigenvalues --    2.31502   2.33320   2.34885   2.36160   2.37607
 Alpha virt. eigenvalues --    2.40097   2.42189   2.43175   2.47703   2.51685
 Alpha virt. eigenvalues --    2.53335   2.55173   2.55958   2.56376   2.58432
 Alpha virt. eigenvalues --    2.58530   2.61593   2.62082   2.62641   2.66864
 Alpha virt. eigenvalues --    2.67185   2.67348   2.68554   2.70188   2.71336
 Alpha virt. eigenvalues --    2.72862   2.75378   2.76002   2.77471   2.78446
 Alpha virt. eigenvalues --    2.80145   2.81696   2.84219   2.85432   2.87173
 Alpha virt. eigenvalues --    2.87587   2.88010   2.89922   2.90216   2.90707
 Alpha virt. eigenvalues --    2.92381   2.93500   2.94051   2.94924   2.95325
 Alpha virt. eigenvalues --    2.96809   2.98138   3.00370   3.00841   3.01549
 Alpha virt. eigenvalues --    3.02307   3.02794   3.04159   3.04424   3.05012
 Alpha virt. eigenvalues --    3.06979   3.07967   3.08264   3.08690   3.10386
 Alpha virt. eigenvalues --    3.10918   3.11669   3.12450   3.14500   3.15386
 Alpha virt. eigenvalues --    3.15864   3.16582   3.19540   3.22072   3.22558
 Alpha virt. eigenvalues --    3.23985   3.27990   3.33365   3.71980   3.79704
 Alpha virt. eigenvalues --    3.97448   3.99549   4.04158   4.10288   4.12085
 Alpha virt. eigenvalues --    4.12906   4.14203   4.14787   4.15474   4.17001
 Alpha virt. eigenvalues --    4.17894   4.18259   4.20018   4.21222   4.21494
 Alpha virt. eigenvalues --    4.23216   4.23579   4.25211   4.25898   4.26145
 Alpha virt. eigenvalues --    4.27953   4.28648   4.28808   4.29892   4.30353
 Alpha virt. eigenvalues --    4.30563   4.30653   4.31164   4.31773   4.32502
 Alpha virt. eigenvalues --    4.32825   4.33768   4.34309   4.34923   4.35240
 Alpha virt. eigenvalues --    4.36165   4.36458   4.36856   4.38057   4.38524
 Alpha virt. eigenvalues --    4.40083   4.40966   4.41558   4.42467   4.44406
 Alpha virt. eigenvalues --    4.44886   4.45468   4.46877   4.48160   4.49399
 Alpha virt. eigenvalues --    4.50792   4.51549   4.53157   4.54148   4.55175
 Alpha virt. eigenvalues --    4.55258   4.56300   4.57434   4.59310   4.59635
 Alpha virt. eigenvalues --    4.61879   4.62091   4.62476   4.62847   4.63503
 Alpha virt. eigenvalues --    4.64651   4.65826   4.66456   4.67041   4.67673
 Alpha virt. eigenvalues --    4.67883   4.68903   4.69654   4.70003   4.71521
 Alpha virt. eigenvalues --    4.72033   4.72461   4.73206   4.73686   4.74652
 Alpha virt. eigenvalues --    4.74961   4.76303   4.77049   4.78204   4.78548
 Alpha virt. eigenvalues --    4.78995   4.79339   4.79836   4.81544   4.81799
 Alpha virt. eigenvalues --    4.82743   4.83367   4.85011   4.85333   4.87013
 Alpha virt. eigenvalues --    4.89050   4.89695   4.90219   4.90889   4.92849
 Alpha virt. eigenvalues --    4.94432   4.94747   4.95677   4.96501   4.98376
 Alpha virt. eigenvalues --    4.99768   5.00587   5.01540   5.03442   5.04879
 Alpha virt. eigenvalues --    5.06426   5.09115   5.11682   5.14903   5.17784
 Alpha virt. eigenvalues --    5.18147   5.23206   5.27014   5.31917   5.45147
 Alpha virt. eigenvalues --    5.47935   5.92447   6.13837   6.39589   6.53858
 Alpha virt. eigenvalues --    6.71453   6.74635   6.78241   6.79722   6.84363
 Alpha virt. eigenvalues --    6.90587   6.95232   6.95865   6.98426   7.09569
 Alpha virt. eigenvalues --    7.11038  11.80640  11.91911  11.99226  12.06955
 Alpha virt. eigenvalues --   12.28093  12.45462  12.65602  12.74006  12.79807
 Alpha virt. eigenvalues --   13.05239  13.13485  13.17052  13.22306  13.25324
 Alpha virt. eigenvalues --   13.30064  13.36168  13.40737  13.45657  13.51337
 Alpha virt. eigenvalues --   13.53745  13.69131  13.84713  14.03860
          Condensed to atoms (all electrons):
              1          2          3          4          5          6
     1  O    8.233005   0.018066   0.072764  -0.020965   0.017239   0.024756
     2  C    0.018066   8.323236  -0.953642   0.090465  -0.024266  -2.046190
     3  C    0.072764  -0.953642   6.541792   0.047352   0.036073   0.028910
     4  O   -0.020965   0.090465   0.047352   8.264426   0.220079  -0.003347
     5  H    0.017239  -0.024266   0.036073   0.220079   0.459100  -0.042443
     6  C    0.024756  -2.046190   0.028910  -0.003347  -0.042443  10.548590
     7  O   -0.000277   0.033676  -0.000947  -0.002876  -0.000017  -0.005646
     8  H   -0.000020  -0.007429  -0.009310   0.007085  -0.000193  -0.003904
     9  C   -0.026396   0.335335  -0.382119   0.007186  -0.006166   0.386136
    10  O   -0.000827   0.005813   0.005926   0.000008   0.000001  -0.007488
    11  H    0.000067  -0.002188   0.000009   0.000000   0.000000   0.000540
    12  C    0.002312  -1.796368   0.613989  -0.010200   0.005739   0.803848
    13  O    0.002366   0.041250  -0.088319  -0.005690   0.000088  -0.047204
    14  C   -0.026480   1.232474   0.014577   0.008155   0.017382  -3.477660
    15  O   -0.000224  -0.026430   0.031829   0.000764   0.000012   0.013591
    16  C    0.000389   0.198453  -0.116789  -0.003731   0.000767  -0.179691
    17  C   -0.000059  -0.078345  -0.014753   0.000136   0.000048   0.093676
    18  O    0.000000  -0.003142  -0.001813  -0.000014   0.000000   0.021314
    19  H   -0.000030  -0.005305   0.010191   0.000004   0.000000  -0.004955
    20  C    0.000026  -0.003336  -0.004282  -0.000076  -0.000001   0.068416
    21  O    0.000000   0.000095  -0.000098   0.000000   0.000000  -0.000203
    22  H    0.000000  -0.000061   0.000033   0.000000   0.000000   0.000031
    23  C    0.000068   0.000302  -0.015082  -0.000249  -0.000011  -0.008558
    24  O   -0.000004   0.000681   0.002754   0.000099  -0.000001  -0.014662
    25  H    0.000000  -0.001257  -0.000100  -0.000043   0.000000   0.011388
    26  C   -0.000117   0.059308   0.008081   0.001262   0.000002  -0.329829
    27  O    0.000000   0.000328  -0.000571   0.000001   0.000000  -0.006000
    28  C    0.000000   0.003258   0.001384   0.000010   0.000000  -0.025142
    29  O    0.000000   0.000006  -0.000001   0.000000   0.000000  -0.000225
    30  H    0.000000   0.000000   0.000001   0.000000   0.000000   0.000016
    31  H    0.000000   0.000005  -0.000004   0.000000   0.000000  -0.000218
    32  H    0.000000   0.000098  -0.000055   0.000000   0.000000   0.001115
    33  H    0.000000  -0.000571   0.000381   0.000000   0.000000   0.005635
    34  H    0.000000  -0.000391   0.001177   0.000001   0.000000  -0.004075
    35  H    0.000000   0.000020   0.000030   0.000000   0.000000  -0.004743
    36  H    0.000000   0.000072  -0.000772  -0.000004   0.000000  -0.008252
    37  H    0.000000  -0.000033  -0.000335   0.000000   0.000000   0.000610
    38  H    0.246167   0.078283  -0.054154  -0.002917   0.004126  -0.016856
    39  H   -0.000023   0.049335  -0.006621  -0.000084  -0.000002  -0.007746
    40  H   -0.000284   0.047005  -0.019489   0.000055  -0.000002   0.019499
    41  H    0.001482   0.103722  -0.089356   0.000764  -0.000011  -0.018504
    42  H   -0.016603   0.377774  -0.084437   0.002446  -0.000193  -0.014401
    43  H   -0.006828   0.078327   0.321774  -0.026108  -0.002251  -0.229675
    44  H    0.000111   0.030796  -0.123130   0.003104  -0.000303   0.428867
    45  H    0.000094   0.011722  -0.050925   0.000028   0.000001  -0.002696
              7          8          9         10         11         12
     1  O   -0.000277  -0.000020  -0.026396  -0.000827   0.000067   0.002312
     2  C    0.033676  -0.007429   0.335335   0.005813  -0.002188  -1.796368
     3  C   -0.000947  -0.009310  -0.382119   0.005926   0.000009   0.613989
     4  O   -0.002876   0.007085   0.007186   0.000008   0.000000  -0.010200
     5  H   -0.000017  -0.000193  -0.006166   0.000001   0.000000   0.005739
     6  C   -0.005646  -0.003904   0.386136  -0.007488   0.000540   0.803848
     7  O    8.300337   0.242053  -0.000132  -0.000015   0.000000  -0.012807
     8  H    0.242053   0.403718   0.000440   0.000000   0.000000   0.005405
     9  C   -0.000132   0.000440   7.629127   0.214364  -0.045416  -2.183994
    10  O   -0.000015   0.000000   0.214364   8.218860   0.248300  -0.051359
    11  H    0.000000   0.000000  -0.045416   0.248300   0.416445   0.034384
    12  C   -0.012807   0.005405  -2.183994  -0.051359   0.034384   9.466943
    13  O   -0.001075  -0.000613  -0.039434   0.013593  -0.000183   0.052653
    14  C    0.054253   0.013534  -0.555345  -0.004881   0.000139  -0.874526
    15  O   -0.002690   0.000510  -0.002561  -0.001296   0.000014   0.002463
    16  C    0.009959  -0.007865  -0.066483   0.017955  -0.000624  -0.074374
    17  C    0.001397  -0.000530  -0.046856  -0.015014   0.000529   0.029627
    18  O   -0.000010  -0.000002   0.017753  -0.001989   0.000513  -0.019566
    19  H   -0.000117   0.000001  -0.005994   0.000804  -0.000050  -0.005148
    20  C   -0.000554  -0.000043   0.009726   0.002333  -0.000185  -0.012821
    21  O    0.000001   0.000000   0.000190   0.000017   0.000000   0.000178
    22  H    0.000000   0.000000   0.000105   0.000006   0.000000  -0.000230
    23  C   -0.007969  -0.001089  -0.000825   0.000122   0.000000  -0.003647
    24  O   -0.016577   0.002130   0.000297   0.000000   0.000000   0.001184
    25  H    0.012235  -0.000746   0.000080   0.000000   0.000000   0.001059
    26  C    0.020516   0.000742  -0.013532   0.000598  -0.000042  -0.028543
    27  O    0.000229  -0.000002  -0.000152   0.000002   0.000000   0.000532
    28  C    0.000188   0.000008  -0.003293   0.000444  -0.000006   0.003052
    29  O    0.000003   0.000000  -0.000014   0.000000   0.000000   0.000006
    30  H    0.000000   0.000000   0.000000   0.000000   0.000000   0.000000
    31  H    0.000001   0.000000  -0.000006   0.000000   0.000000   0.000040
    32  H    0.000010   0.000000  -0.000134   0.000002   0.000000   0.000188
    33  H   -0.000006   0.000000  -0.000187  -0.000020   0.000000  -0.001085
    34  H   -0.002021  -0.000002  -0.000486   0.000011   0.000000  -0.000960
    35  H   -0.000092   0.000000   0.000005   0.000000   0.000000   0.000185
    36  H   -0.001243  -0.000032  -0.000017   0.000000   0.000000   0.000107
    37  H   -0.000082   0.000001   0.000014   0.000000   0.000000   0.000078
    38  H   -0.000027   0.000000   0.002373   0.000018  -0.000001  -0.013319
    39  H   -0.000008   0.000000   0.386271  -0.040331  -0.007302  -0.064619
    40  H    0.000004   0.000000   0.741286  -0.064582  -0.000635  -0.426452
    41  H    0.000033   0.000000   0.150032  -0.001294  -0.000053   0.042836
    42  H    0.000339  -0.000002  -0.020305   0.000001  -0.000001  -0.031513
    43  H    0.008085  -0.000265   0.005601   0.000010   0.000000   0.003800
    44  H   -0.041387  -0.002998   0.016256  -0.000013   0.000000   0.044938
    45  H    0.005158  -0.000365   0.016543  -0.000170   0.000000   0.039518
             13         14         15         16         17         18
     1  O    0.002366  -0.026480  -0.000224   0.000389  -0.000059   0.000000
     2  C    0.041250   1.232474  -0.026430   0.198453  -0.078345  -0.003142
     3  C   -0.088319   0.014577   0.031829  -0.116789  -0.014753  -0.001813
     4  O   -0.005690   0.008155   0.000764  -0.003731   0.000136  -0.000014
     5  H    0.000088   0.017382   0.000012   0.000767   0.000048   0.000000
     6  C   -0.047204  -3.477660   0.013591  -0.179691   0.093676   0.021314
     7  O   -0.001075   0.054253  -0.002690   0.009959   0.001397  -0.000010
     8  H   -0.000613   0.013534   0.000510  -0.007865  -0.000530  -0.000002
     9  C   -0.039434  -0.555345  -0.002561  -0.066483  -0.046856   0.017753
    10  O    0.013593  -0.004881  -0.001296   0.017955  -0.015014  -0.001989
    11  H   -0.000183   0.000139   0.000014  -0.000624   0.000529   0.000513
    12  C    0.052653  -0.874526   0.002463  -0.074374   0.029627  -0.019566
    13  O    8.235285   0.138394  -0.078503   0.035345  -0.004845  -0.005619
    14  C    0.138394  10.079128   0.109943  -0.204327  -0.298707   0.047352
    15  O   -0.078503   0.109943   8.210004   0.013039   0.046728  -0.011365
    16  C    0.035345  -0.204327   0.013039  13.033810  -2.216320   0.031987
    17  C   -0.004845  -0.298707   0.046728  -2.216320   7.498835   0.117232
    18  O   -0.005619   0.047352  -0.011365   0.031987   0.117232   8.312836
    19  H    0.010297   0.036843   0.013375  -0.053170  -0.002754   0.225008
    20  C   -0.006295   0.003253  -0.004237  -0.947880   0.722799  -0.064540
    21  O    0.000371  -0.009736  -0.000547  -0.020175  -0.107501   0.002385
    22  H   -0.000034   0.005343   0.000076  -0.010580  -0.027226   0.004570
    23  C    0.008401   0.084322  -0.049346   0.344088  -0.174548   0.008885
    24  O   -0.000428   0.045671   0.003832  -0.014168   0.022645  -0.000015
    25  H   -0.000355   0.026808   0.008805   0.028808  -0.000033  -0.000014
    26  C   -0.010569  -0.907923   0.092287  -4.300974   0.534126  -0.047663
    27  O    0.000768  -0.007775   0.001648   0.015495  -0.023485  -0.000535
    28  C    0.003993  -0.028597   0.012159   0.403651  -0.383765   0.003612
    29  O    0.000016  -0.003531   0.000066  -0.067471   0.000119  -0.000393
    30  H    0.000000   0.000446   0.000001   0.021765   0.003856   0.000006
    31  H    0.000019  -0.002866  -0.000047   0.024955  -0.038678   0.000704
    32  H   -0.000036  -0.011718  -0.000427   0.063426  -0.145456   0.006492
    33  H   -0.002312   0.019410  -0.003033  -0.256320   0.350932  -0.039007
    34  H   -0.004554  -0.031583  -0.029066   0.122831  -0.034317   0.000443
    35  H   -0.000295   0.011223   0.000540  -0.016185  -0.042003  -0.000291
    36  H    0.000078   0.010329  -0.001294  -0.038327   0.006769   0.000025
    37  H   -0.000016   0.012052  -0.002167   0.143466  -0.005262   0.000026
    38  H   -0.000441   0.008722   0.000020   0.000219   0.000007   0.000000
    39  H   -0.000600   0.004161  -0.000271   0.001275  -0.000690  -0.000164
    40  H   -0.000341  -0.011289   0.000339  -0.002241   0.000109   0.000415
    41  H   -0.021621   0.078313  -0.002135   0.001195   0.000920   0.000322
    42  H    0.002111   0.062714  -0.000911  -0.001421   0.000527   0.000050
    43  H    0.003216   0.089331  -0.000196  -0.001387   0.000163   0.000032
    44  H    0.007213  -0.109118  -0.010152   0.002791  -0.001634   0.000158
    45  H   -0.011837   0.224397  -0.034916   0.058775  -0.008347   0.000477
             19         20         21         22         23         24
     1  O   -0.000030   0.000026   0.000000   0.000000   0.000068  -0.000004
     2  C   -0.005305  -0.003336   0.000095  -0.000061   0.000302   0.000681
     3  C    0.010191  -0.004282  -0.000098   0.000033  -0.015082   0.002754
     4  O    0.000004  -0.000076   0.000000   0.000000  -0.000249   0.000099
     5  H    0.000000  -0.000001   0.000000   0.000000  -0.000011  -0.000001
     6  C   -0.004955   0.068416  -0.000203   0.000031  -0.008558  -0.014662
     7  O   -0.000117  -0.000554   0.000001   0.000000  -0.007969  -0.016577
     8  H    0.000001  -0.000043   0.000000   0.000000  -0.001089   0.002130
     9  C   -0.005994   0.009726   0.000190   0.000105  -0.000825   0.000297
    10  O    0.000804   0.002333   0.000017   0.000006   0.000122   0.000000
    11  H   -0.000050  -0.000185   0.000000   0.000000   0.000000   0.000000
    12  C   -0.005148  -0.012821   0.000178  -0.000230  -0.003647   0.001184
    13  O    0.010297  -0.006295   0.000371  -0.000034   0.008401  -0.000428
    14  C    0.036843   0.003253  -0.009736   0.005343   0.084322   0.045671
    15  O    0.013375  -0.004237  -0.000547   0.000076  -0.049346   0.003832
    16  C   -0.053170  -0.947880  -0.020175  -0.010580   0.344088  -0.014168
    17  C   -0.002754   0.722799  -0.107501  -0.027226  -0.174548   0.022645
    18  O    0.225008  -0.064540   0.002385   0.004570   0.008885  -0.000015
    19  H    0.368429   0.001736  -0.000935  -0.000015  -0.003554   0.000049
    20  C    0.001736   5.700406   0.291000   0.033808  -0.015878  -0.000242
    21  O   -0.000935   0.291000   8.191564   0.238398   0.000333  -0.000066
    22  H   -0.000015   0.033808   0.238398   0.424079   0.000031  -0.000001
    23  C   -0.003554  -0.015878   0.000333   0.000031   5.628939   0.235465
    24  O    0.000049  -0.000242  -0.000066  -0.000001   0.235465   8.125067
    25  H   -0.000012   0.002075  -0.000001   0.000000  -0.020802   0.261382
    26  C    0.007104   0.064069   0.028664  -0.008178  -0.562304  -0.096229
    27  O   -0.000244   0.033580   0.002085  -0.000229  -0.065144   0.009139
    28  C    0.000103   0.029183  -0.074742   0.007838  -0.005210   0.005284
    29  O    0.000001   0.002129  -0.005586  -0.000270  -0.002953   0.000149
    30  H    0.000000  -0.004058  -0.000970   0.000022  -0.001231   0.000034
    31  H   -0.000006  -0.124653   0.005571  -0.000207   0.010570  -0.000012
    32  H   -0.000054   0.288630  -0.024091  -0.008230   0.011438  -0.000107
    33  H    0.004412   0.000931   0.000143  -0.000067   0.008524  -0.000190
    34  H    0.000655   0.057236   0.000197   0.000016  -0.010450   0.000030
    35  H    0.000031  -0.013295   0.000029  -0.000001  -0.000193   0.004018
    36  H    0.000000   0.000677  -0.000002   0.000000   0.439714  -0.045060
    37  H    0.000000   0.001292  -0.000005   0.000000   0.479835  -0.044521
    38  H    0.000000  -0.000001   0.000000   0.000000  -0.000002   0.000000
    39  H    0.000021   0.000060   0.000000   0.000000   0.000004   0.000000
    40  H   -0.000151   0.000060   0.000000   0.000000  -0.000002   0.000000
    41  H   -0.000210   0.000437   0.000001   0.000000   0.000253  -0.000002
    42  H   -0.000020   0.000010   0.000000   0.000000   0.000132   0.000000
    43  H   -0.000006  -0.000053   0.000000   0.000000   0.000053   0.000022
    44  H   -0.000035   0.000202   0.000000   0.000000   0.003276  -0.000253
    45  H   -0.002417   0.003302   0.000029  -0.000001   0.001300  -0.001282
             25         26         27         28         29         30
     1  O    0.000000  -0.000117   0.000000   0.000000   0.000000   0.000000
     2  C   -0.001257   0.059308   0.000328   0.003258   0.000006   0.000000
     3  C   -0.000100   0.008081  -0.000571   0.001384  -0.000001   0.000001
     4  O   -0.000043   0.001262   0.000001   0.000010   0.000000   0.000000
     5  H    0.000000   0.000002   0.000000   0.000000   0.000000   0.000000
     6  C    0.011388  -0.329829  -0.006000  -0.025142  -0.000225   0.000016
     7  O    0.012235   0.020516   0.000229   0.000188   0.000003   0.000000
     8  H   -0.000746   0.000742  -0.000002   0.000008   0.000000   0.000000
     9  C    0.000080  -0.013532  -0.000152  -0.003293  -0.000014   0.000000
    10  O    0.000000   0.000598   0.000002   0.000444   0.000000   0.000000
    11  H    0.000000  -0.000042   0.000000  -0.000006   0.000000   0.000000
    12  C    0.001059  -0.028543   0.000532   0.003052   0.000006   0.000000
    13  O   -0.000355  -0.010569   0.000768   0.003993   0.000016   0.000000
    14  C    0.026808  -0.907923  -0.007775  -0.028597  -0.003531   0.000446
    15  O    0.008805   0.092287   0.001648   0.012159   0.000066   0.000001
    16  C    0.028808  -4.300974   0.015495   0.403651  -0.067471   0.021765
    17  C   -0.000033   0.534126  -0.023485  -0.383765   0.000119   0.003856
    18  O   -0.000014  -0.047663  -0.000535   0.003612  -0.000393   0.000006
    19  H   -0.000012   0.007104  -0.000244   0.000103   0.000001   0.000000
    20  C    0.002075   0.064069   0.033580   0.029183   0.002129  -0.004058
    21  O   -0.000001   0.028664   0.002085  -0.074742  -0.005586  -0.000970
    22  H    0.000000  -0.008178  -0.000229   0.007838  -0.000270   0.000022
    23  C   -0.020802  -0.562304  -0.065144  -0.005210  -0.002953  -0.001231
    24  O    0.261382  -0.096229   0.009139   0.005284   0.000149   0.000034
    25  H    0.382349  -0.066164  -0.001219  -0.002247  -0.000003   0.000000
    26  C   -0.066164  11.056382   0.156109  -0.216269   0.065999  -0.024562
    27  O   -0.001219   0.156109   8.189259   0.096341  -0.025785   0.002697
    28  C   -0.002247  -0.216269   0.096341   5.171065   0.183209   0.005305
    29  O   -0.000003   0.065999  -0.025785   0.183209   8.140544   0.240625
    30  H    0.000000  -0.024562   0.002697   0.005305   0.240625   0.441241
    31  H    0.000000   0.026716  -0.054906   0.440165  -0.024812  -0.006524
    32  H   -0.000002   0.045159  -0.006416   0.016633   0.000343  -0.000054
    33  H   -0.000005   0.148268  -0.004139  -0.039504   0.001145  -0.000002
    34  H   -0.000827   0.150835   0.003551   0.006215  -0.000970   0.000015
    35  H    0.000008   0.302657  -0.028055   0.040983  -0.000679   0.000002
    36  H   -0.004414  -0.053372   0.002098   0.002348  -0.000026   0.000000
    37  H    0.005517  -0.254814  -0.002146  -0.005655  -0.000036   0.000002
    38  H    0.000000   0.000007   0.000000   0.000000   0.000000   0.000000
    39  H    0.000000   0.000002   0.000000   0.000008   0.000000   0.000000
    40  H    0.000000  -0.000073   0.000000  -0.000020   0.000000   0.000000
    41  H    0.000000  -0.000234   0.000000  -0.000043   0.000000   0.000000
    42  H    0.000000  -0.000367   0.000000  -0.000003   0.000000   0.000000
    43  H   -0.000002  -0.000019   0.000000   0.000003   0.000000   0.000000
    44  H    0.000067  -0.005557   0.000016   0.000007   0.000000   0.000000
    45  H   -0.000410   0.019848   0.000339   0.000617  -0.000001   0.000000
             31         32         33         34         35         36
     1  O    0.000000   0.000000   0.000000   0.000000   0.000000   0.000000
     2  C    0.000005   0.000098  -0.000571  -0.000391   0.000020   0.000072
     3  C   -0.000004  -0.000055   0.000381   0.001177   0.000030  -0.000772
     4  O    0.000000   0.000000   0.000000   0.000001   0.000000  -0.000004
     5  H    0.000000   0.000000   0.000000   0.000000   0.000000   0.000000
     6  C   -0.000218   0.001115   0.005635  -0.004075  -0.004743  -0.008252
     7  O    0.000001   0.000010  -0.000006  -0.002021  -0.000092  -0.001243
     8  H    0.000000   0.000000   0.000000  -0.000002   0.000000  -0.000032
     9  C   -0.000006  -0.000134  -0.000187  -0.000486   0.000005  -0.000017
    10  O    0.000000   0.000002  -0.000020   0.000011   0.000000   0.000000
    11  H    0.000000   0.000000   0.000000   0.000000   0.000000   0.000000
    12  C    0.000040   0.000188  -0.001085  -0.000960   0.000185   0.000107
    13  O    0.000019  -0.000036  -0.002312  -0.004554  -0.000295   0.000078
    14  C   -0.002866  -0.011718   0.019410  -0.031583   0.011223   0.010329
    15  O   -0.000047  -0.000427  -0.003033  -0.029066   0.000540  -0.001294
    16  C    0.024955   0.063426  -0.256320   0.122831  -0.016185  -0.038327
    17  C   -0.038678  -0.145456   0.350932  -0.034317  -0.042003   0.006769
    18  O    0.000704   0.006492  -0.039007   0.000443  -0.000291   0.000025
    19  H   -0.000006  -0.000054   0.004412   0.000655   0.000031   0.000000
    20  C   -0.124653   0.288630   0.000931   0.057236  -0.013295   0.000677
    21  O    0.005571  -0.024091   0.000143   0.000197   0.000029  -0.000002
    22  H   -0.000207  -0.008230  -0.000067   0.000016  -0.000001   0.000000
    23  C    0.010570   0.011438   0.008524  -0.010450  -0.000193   0.439714
    24  O   -0.000012  -0.000107  -0.000190   0.000030   0.004018  -0.045060
    25  H    0.000000  -0.000002  -0.000005  -0.000827   0.000008  -0.004414
    26  C    0.026716   0.045159   0.148268   0.150835   0.302657  -0.053372
    27  O   -0.054906  -0.006416  -0.004139   0.003551  -0.028055   0.002098
    28  C    0.440165   0.016633  -0.039504   0.006215   0.040983   0.002348
    29  O   -0.024812   0.000343   0.001145  -0.000970  -0.000679  -0.000026
    30  H   -0.006524  -0.000054  -0.000002   0.000015   0.000002   0.000000
    31  H    0.604636   0.005273   0.005025  -0.000038   0.002714   0.000001
    32  H    0.005273   0.627402   0.008253   0.005698  -0.000074   0.000001
    33  H    0.005025   0.008253   0.697564   0.008891   0.003507  -0.000020
    34  H   -0.000038   0.005698   0.008891   0.638959   0.005909   0.000164
    35  H    0.002714  -0.000074   0.003507   0.005909   0.610371  -0.001950
    36  H    0.000001   0.000001  -0.000020   0.000164  -0.001950   0.586636
    37  H   -0.000017  -0.000005  -0.000032   0.000121   0.001200  -0.036413
    38  H    0.000000   0.000000   0.000000   0.000000   0.000000   0.000000
    39  H    0.000000   0.000000   0.000000   0.000000   0.000000   0.000000
    40  H    0.000000   0.000000   0.000000   0.000000   0.000000   0.000000
    41  H    0.000000   0.000000   0.000000  -0.000010   0.000000   0.000000
    42  H    0.000000   0.000000   0.000000   0.000000   0.000000   0.000000
    43  H    0.000000   0.000000   0.000000  -0.000001   0.000000   0.000000
    44  H    0.000000   0.000000   0.000000   0.000015   0.000001   0.000014
    45  H    0.000000  -0.000005  -0.000018   0.004331  -0.000004  -0.000018
             37         38         39         40         41         42
     1  O    0.000000   0.246167  -0.000023  -0.000284   0.001482  -0.016603
     2  C   -0.000033   0.078283   0.049335   0.047005   0.103722   0.377774
     3  C   -0.000335  -0.054154  -0.006621  -0.019489  -0.089356  -0.084437
     4  O    0.000000  -0.002917  -0.000084   0.000055   0.000764   0.002446
     5  H    0.000000   0.004126  -0.000002  -0.000002  -0.000011  -0.000193
     6  C    0.000610  -0.016856  -0.007746   0.019499  -0.018504  -0.014401
     7  O   -0.000082  -0.000027  -0.000008   0.000004   0.000033   0.000339
     8  H    0.000001   0.000000   0.000000   0.000000   0.000000  -0.000002
     9  C    0.000014   0.002373   0.386271   0.741286   0.150032  -0.020305
    10  O    0.000000   0.000018  -0.040331  -0.064582  -0.001294   0.000001
    11  H    0.000000  -0.000001  -0.007302  -0.000635  -0.000053  -0.000001
    12  C    0.000078  -0.013319  -0.064619  -0.426452   0.042836  -0.031513
    13  O   -0.000016  -0.000441  -0.000600  -0.000341  -0.021621   0.002111
    14  C    0.012052   0.008722   0.004161  -0.011289   0.078313   0.062714
    15  O   -0.002167   0.000020  -0.000271   0.000339  -0.002135  -0.000911
    16  C    0.143466   0.000219   0.001275  -0.002241   0.001195  -0.001421
    17  C   -0.005262   0.000007  -0.000690   0.000109   0.000920   0.000527
    18  O    0.000026   0.000000  -0.000164   0.000415   0.000322   0.000050
    19  H    0.000000   0.000000   0.000021  -0.000151  -0.000210  -0.000020
    20  C    0.001292  -0.000001   0.000060   0.000060   0.000437   0.000010
    21  O   -0.000005   0.000000   0.000000   0.000000   0.000001   0.000000
    22  H    0.000000   0.000000   0.000000   0.000000   0.000000   0.000000
    23  C    0.479835  -0.000002   0.000004  -0.000002   0.000253   0.000132
    24  O   -0.044521   0.000000   0.000000   0.000000  -0.000002   0.000000
    25  H    0.005517   0.000000   0.000000   0.000000   0.000000   0.000000
    26  C   -0.254814   0.000007   0.000002  -0.000073  -0.000234  -0.000367
    27  O   -0.002146   0.000000   0.000000   0.000000   0.000000   0.000000
    28  C   -0.005655   0.000000   0.000008  -0.000020  -0.000043  -0.000003
    29  O   -0.000036   0.000000   0.000000   0.000000   0.000000   0.000000
    30  H    0.000002   0.000000   0.000000   0.000000   0.000000   0.000000
    31  H   -0.000017   0.000000   0.000000   0.000000   0.000000   0.000000
    32  H   -0.000005   0.000000   0.000000   0.000000   0.000000   0.000000
    33  H   -0.000032   0.000000   0.000000   0.000000   0.000000   0.000000
    34  H    0.000121   0.000000   0.000000   0.000000  -0.000010   0.000000
    35  H    0.001200   0.000000   0.000000   0.000000   0.000000   0.000000
    36  H   -0.036413   0.000000   0.000000   0.000000   0.000000   0.000000
    37  H    0.559150   0.000000   0.000000   0.000000   0.000000   0.000000
    38  H    0.000000   0.437750  -0.000089  -0.000060  -0.000256  -0.010317
    39  H    0.000000  -0.000089   0.584662  -0.043949  -0.005069  -0.000054
    40  H    0.000000  -0.000060  -0.043949   0.617642   0.007705   0.004039
    41  H    0.000000  -0.000256  -0.005069   0.007705   0.625377   0.005802
    42  H    0.000000  -0.010317  -0.000054   0.004039   0.005802   0.573865
    43  H    0.000000   0.000275  -0.000025  -0.000010   0.001717   0.004632
    44  H   -0.000001   0.000014   0.000000  -0.000013  -0.000060   0.001286
    45  H   -0.000001   0.000000  -0.000002  -0.000004   0.002627  -0.000037
             43         44         45
     1  O   -0.006828   0.000111   0.000094
     2  C    0.078327   0.030796   0.011722
     3  C    0.321774  -0.123130  -0.050925
     4  O   -0.026108   0.003104   0.000028
     5  H   -0.002251  -0.000303   0.000001
     6  C   -0.229675   0.428867  -0.002696
     7  O    0.008085  -0.041387   0.005158
     8  H   -0.000265  -0.002998  -0.000365
     9  C    0.005601   0.016256   0.016543
    10  O    0.000010  -0.000013  -0.000170
    11  H    0.000000   0.000000   0.000000
    12  C    0.003800   0.044938   0.039518
    13  O    0.003216   0.007213  -0.011837
    14  C    0.089331  -0.109118   0.224397
    15  O   -0.000196  -0.010152  -0.034916
    16  C   -0.001387   0.002791   0.058775
    17  C    0.000163  -0.001634  -0.008347
    18  O    0.000032   0.000158   0.000477
    19  H   -0.000006  -0.000035  -0.002417
    20  C   -0.000053   0.000202   0.003302
    21  O    0.000000   0.000000   0.000029
    22  H    0.000000   0.000000  -0.000001
    23  C    0.000053   0.003276   0.001300
    24  O    0.000022  -0.000253  -0.001282
[...]
 2924,-0.01468340,0.00716347,0.00396579,0.00179120,-0.00027541,0.000013
 44,0.00009345,-0.00050103,-0.00016460,0.00011020,0.00006258,0.00006345
 ,-0.00001081,0.00002148,0.00000524,-0.00000338,0.00000410,-0.00000441,
 0.00003124,-0.00002507,-0.00000995,-0.00003251,0.00002435,0.00000012,-
 0.00001131,0.00000272,0.00000360,0.00001040,-0.00000059,-0.00000329,-0
 .00000592,0.00000474,-0.00000156,-0.00000168,-0.00000157,0.00000374,0.
 00000679,-0.00000022,-0.00001176,-0.00000891,0.00000198,0.00001971,-0.
 00001237,0.00000204,0.00000759,0.00001172,0.00000357,-0.00000808,-0.00
 000887,-0.00000300,0.00000647,0.00000522,-0.00000252,-0.00000608,-0.00
 000071,0.00000044,0.00000115,0.00000206,-0.00000002,0.00000069,0.00000
 186,-0.00000350,-0.00000066,0.00000271,0.00000053,0.00000506,0.0000012
 6,-0.00000412,0.00000132,0.00000255,-0.00000094,0.00000109,0.00000325,
 0.00000058,0.00000078,-0.00000037,0.00000051,-0.00000141,0.00081189,-0
 .00045840,-0.00004623,0.00000490,0.00004450,0.00004528,0.00051514,-0.0
 0105178,-0.00025252,-0.00065638,-0.00130042,0.00194771,0.31001372,0.00
 080753,0.00082543,0.00227164,0.11763931,-0.10101155,-0.02874530,0.0268
 7909,-0.01467284,-0.00942352,-0.00014041,0.00496313,-0.00014803,0.0004
 7479,-0.00080113,0.00070362,0.00144908,-0.00012972,0.00155988,-0.00080
 480,0.00002692,-0.00042949,0.00017838,-0.00000586,-0.00002940,-0.00101
 212,0.00206418,0.00018208,0.00049581,0.00001745,-0.00019807,-0.0000125
 3,-0.00001166,-0.00003636,-0.01732047,0.00849877,0.00454943,0.00061141
 ,0.00004739,-0.00139770,0.00000615,-0.00053760,-0.00005528,0.00005025,
 0.00009398,0.00000216,-0.00000304,0.00003359,-0.00001306,-0.00000484,-
 0.00001166,-0.00002117,0.00001907,-0.00000995,0.00001581,-0.00002870,0
 .00001516,-0.00003647,0.00000133,0.00000289,0.00000064,0.00000014,-0.0
 0000169,0.00000053,0.00000040,0.00000240,-0.00000241,0.00002735,-0.000
 03242,0.00000822,-0.00001915,0.00002539,-0.00003709,-0.00000387,-0.000
 01185,0.00005208,-0.00000105,0.00000173,-0.00000245,-0.00000152,0.0000
 0255,0.00000194,-0.00000116,-0.00000357,-0.00000094,-0.00000019,0.0000
 0165,0.00000152,0.00000030,-0.00000045,0.00000041,0.00000013,0.0000009
 1,0.00000020,-0.00000020,-0.00000131,-0.00000039,0.00000291,0.00000354
 ,0.00000462,-0.00000532,-0.00000328,0.00000863,0.00000021,0.00000410,-
 0.00000221,-0.00000413,0.00000087,0.00000496,-0.00000315,0.00000430,-0
 .00000295,0.00068978,0.00079460,0.00033191,-0.00009015,-0.00005066,-0.
 00005420,0.00066066,-0.00017015,-0.00010692,-0.00193161,-0.00139708,0.
 00276768,-0.12706336,0.10559880,-0.03550257,0.01456305,-0.00534167,0.0
 6747834,-0.03301116,-0.06192887,0.01310594,-0.00329258,-0.00205419,-0.
 00092922,0.00199866,0.00089592,-0.00055641,-0.00000217,0.00014341,0.00
 100833,0.00010402,0.00069167,-0.00038585,0.00009250,-0.00003527,0.0000
 6425,-0.00001629,-0.00000038,-0.00037253,-0.00176924,0.00006250,-0.000
 18993,0.00012001,0.00006804,-0.00005037,0.00002259,0.00000521,0.020551
 00,-0.00961723,-0.00416913,-0.00092435,0.00014023,0.00210645,0.0002385
 6,-0.00019594,-0.00000945,-0.00013980,0.00003738,-0.00019682,-0.000027
 56,-0.00002913,0.00003839,0.00001812,-0.00000082,0.00002878,-0.0000619
 6,0.00001035,-0.00001850,0.00007162,-0.00001067,0.00000502,-0.00000142
 ,-0.00000641,0.00000567,0.00000242,0.00000754,-0.00001112,-0.00000172,
 -0.00000485,0.00000940,0.00002464,-0.00001103,-0.00000279,-0.00002451,
 0.00000332,-0.00001194,0.00001237,0.00000694,0.00001437,0.00002820,0.0
 0000395,0.00000913,-0.00001525,-0.00000067,-0.00001877,0.00000695,-0.0
 0000020,0.00002036,0.00000021,-0.00000169,-0.00001437,0.00000014,-0.00
 000119,0.00000266,-0.00000192,0.00000060,-0.00000248,-0.00000414,0.000
 00511,0.00000250,-0.00000979,0.00000278,-0.00001442,-0.00000462,0.0000
 0713,0.00000947,-0.00000656,0.00000382,-0.00000681,-0.00000411,0.00000
 010,0.00000400,-0.00000292,-0.00000165,-0.00000261,-0.00108699,-0.0000
 8968,0.00332891,0.00005466,0.00017903,0.00003377,-0.00042245,0.0006633
 2,0.00035111,0.00173989,0.00208537,-0.00332392,-0.06255612,0.03018057,
 0.07021029,0.00178182,-0.00161852,-0.00055171,0.00116221,-0.00165879,-
 0.00155071,-0.28559106,0.12832514,-0.01695171,-0.02562746,-0.00261321,
 0.01361633,-0.00087498,-0.00009399,-0.00059587,-0.01137763,0.00907997,
 -0.00401944,0.00141913,-0.00153279,0.00057911,-0.00050437,0.00000721,-
 0.00002784,0.00065008,0.00001702,-0.00031499,-0.00008752,0.00001810,0.
 00014106,0.00001745,0.00004069,-0.00001220,-0.00033532,-0.00025482,0.0
 0004237,0.00022426,0.00010493,0.00019656,-0.00077044,-0.00063033,0.000
 26804,0.00024976,0.00006206,-0.00049790,-0.00005943,0.00011739,0.00006
 025,0.00000257,-0.00004091,-0.00007723,0.00003430,0.00000089,0.0000433
 2,-0.00003309,-0.00000541,-0.00003104,-0.00002167,0.00002218,0.0000148
 2,0.00002424,0.00000850,-0.00000612,-0.00000580,0.00000365,-0.00000592
 ,-0.00004974,0.00004258,0.00000394,0.00005841,-0.00003616,0.00001759,-
 0.00005147,0.00002070,-0.00001119,0.00000048,0.00000198,0.00001556,0.0
 0002314,0.00000706,-0.00003641,-0.00002304,-0.00001667,0.00001275,0.00
 001079,-0.00000211,-0.00000624,-0.00000193,0.00000087,0.00000106,0.000
 00337,0.00000099,0.00000090,0.00000390,-0.00000432,-0.00000152,0.00000
 600,-0.00000077,0.00000618,0.00001120,-0.00000557,-0.00002095,0.000002
 62,-0.00000709,0.00000370,0.00001863,-0.00000268,-0.00000348,0.0000060
 6,-0.00000450,0.00000038,0.00004250,-0.00039166,-0.00032764,0.00001075
 ,0.00001159,-0.00000337,-0.00015343,-0.00025859,-0.00000494,0.00085790
 ,-0.00049109,-0.00013562,0.00014480,-0.00081405,-0.00064563,0.31841066
 ,0.00018699,0.00331910,0.00284850,0.02867662,-0.01951492,0.00030571,0.
 12667198,-0.10765763,0.00352569,-0.02490147,0.00661154,0.00627736,-0.0
 0036861,0.00052575,-0.00059231,-0.00115973,0.00255754,-0.00108639,0.00
 021544,0.00134718,0.00162161,-0.00022012,-0.00005469,0.00010001,-0.000
 13269,0.00002057,-0.00001010,-0.00022499,-0.00010738,0.00006350,0.0000
 0110,-0.00000091,0.00002392,0.00300747,0.00083108,-0.00143430,-0.00061
 756,-0.00048269,0.00055764,0.00048116,0.00003511,-0.00017167,-0.000115
 09,0.00005817,-0.00012201,0.00000597,0.00000702,0.00001229,-0.00000335
 ,-0.00002090,-0.00001971,-0.00003457,0.00000233,0.00006353,0.00003896,
 0.00001902,-0.00009765,0.00001567,0.00000112,0.00000194,-0.00000958,0.
 00000025,0.00000162,0.00000616,-0.00000379,0.00000022,-0.00001676,0.00
 003042,-0.00001282,0.00000364,-0.00002908,0.00005442,0.00002165,0.0000
 2443,-0.00008540,0.00001899,0.00000654,-0.00000516,-0.00001559,-0.0000
 1121,0.00000491,0.00000843,0.00000634,-0.00000558,-0.00000506,0.000000
 72,0.00000705,0.00000036,0.00000089,-0.00000141,-0.00000182,-0.0000005
 9,-0.00000046,-0.00000258,0.00000306,0.00000131,-0.00000024,0.00000228
 ,0.00000014,0.00000234,0.00000476,0.00000662,-0.00000424,-0.00000211,-
 0.00000105,-0.00000166,-0.00000103,-0.00000317,0.00000327,-0.00000464,
 0.00000353,-0.00010323,0.00010605,0.00012962,-0.00000651,-0.00004339,-
 0.00004625,-0.00026068,0.00023929,0.00017339,-0.00104223,-0.00027565,0
 .00066605,-0.00133965,-0.00437310,-0.00223847,-0.12782938,0.11619889,0
 .00119911,-0.00045320,0.00029095,0.00797722,-0.00922363,0.00006083,-0.
 02058379,0.00649717,-0.04171670,0.03038259,-0.00010260,-0.00711813,0.0
 0152647,-0.00080326,0.00048590,-0.03361558,0.01648808,-0.00446178,0.00
 289942,-0.00089510,0.00225679,-0.00030057,-0.00018240,-0.00021226,-0.0
 0003245,-0.00007051,0.00006606,-0.00006799,-0.00008808,0.00000490,-0.0
 0000525,-0.00000605,0.00001719,-0.00009340,0.00078902,-0.00066235,0.00
 032690,0.00051634,-0.00030265,-0.00113240,-0.00087208,0.00197372,0.000
 32387,0.00004192,-0.00054326,0.00002961,0.00003617,0.00013159,0.000023
 79,-0.00003190,-0.00005605,0.00003682,0.00002274,-0.00002130,-0.000054
 67,-0.00003879,0.00003066,-0.00003051,0.00001828,0.00002098,0.00003335
 ,0.00001911,-0.00001865,-0.00000956,0.00000057,-0.00000123,-0.00006415
 ,0.00006220,0.00000622,0.00004975,-0.00005934,0.00003677,-0.00003665,0
 .00004266,-0.00004102,0.00000741,0.00000119,0.00004782,0.00002067,0.00
 001230,-0.00006878,-0.00002399,-0.00002298,0.00003963,0.00001445,-0.00
 000408,-0.00002603,-0.00000122,-0.00000056,0.00000495,0.00000256,0.000
 00216,-0.00000095,0.00000227,-0.00000115,0.00000028,-0.00000074,0.0000
 0204,0.00000011,0.00002052,0.00000003,-0.00005472,-0.00000066,-0.00000
 807,0.00000226,0.00003129,0.00000673,0.00000257,0.00001209,-0.00001079
 ,-0.00000762,0.00023402,-0.00021815,-0.00009996,0.00001101,0.00001104,
 -0.00000076,-0.00003652,0.00005609,0.00001632,0.00003094,0.00051206,0.
 00014165,-0.00018982,-0.00149031,-0.00078343,0.01315193,-0.01030975,0.
 05681578,0.00037127,-0.00033264,-0.00021577,-0.00022739,0.00093890,0.0
 0034071,-0.01925402,0.00519034,-0.00370600,0.00230759,-0.00030835,0.00
 103384,0.00027740,-0.00012617,0.00013915,-0.31847688,0.09820200,0.0139
 7657,0.01083702,0.00009513,0.00017018,0.00056514,0.00023889,0.00044087
 ,-0.00001896,0.00003346,0.00008423,0.00004353,0.00000206,-0.00002332,-
 0.00001444,-0.00000504,0.00000179,-0.00053033,-0.00016168,-0.00040191,
 0.00269594,0.00068456,-0.00063189,-0.02027117,0.00527501,0.00387799,0.
 00152723,0.00049262,-0.00241358,0.00025283,0.00031769,0.00019861,0.000
 07452,-0.00004372,-0.00015502,0.00010664,-0.00001907,-0.00014668,-0.00
 011653,-0.00002201,0.00018258,-0.00004503,0.00008641,0.00003912,0.0000
 4753,0.00000247,-0.00004022,-0.00001446,0.00000928,-0.00000051,-0.0000
 8861,0.00012258,-0.00003793,0.00005332,-0.00010440,0.00011520,0.000012
 09,0.00004116,-0.00013331,0.00002370,0.00000392,0.00004670,-0.00001304
 ,-0.00002914,-0.00006777,-0.00000577,0.00000083,0.00003291,0.00000799,
 -0.00001442,-0.00002052,-0.00000133,0.00000307,0.00000077,0.00000475,-
 0.00000259,0.00000190,0.00001315,-0.00001253,0.00000052,-0.00000619,-0
 .00001353,0.00000522,0.00007164,-0.00003251,-0.00022867,0.00000298,-0.
 00001427,0.00001348,0.00002232,0.00001311,-0.00002448,0.00001193,-0.00
 002097,0.00000393,-0.00004254,-0.00001623,-0.00004567,0.00001764,0.000
 02433,0.00001014,0.00002208,-0.00006386,-0.00003215,0.00026608,0.00006
 677,0.00004510,0.00019574,-0.00066226,-0.00032937,0.00007996,-0.000842
 00,-0.00260924,0.33945723,0.00008891,0.00016532,0.00035619,-0.00041428
 ,-0.00026217,0.00027354,0.00166050,0.00389039,0.00004984,0.00008398,-0
 .00011503,-0.00063010,-0.00015518,-0.00001859,-0.00011573,0.09755480,-
 0.07087038,0.00226351,0.02844819,-0.03774107,-0.01843367,0.00146484,0.
 00007932,-0.00057071,-0.00004485,0.00006230,-0.00000366,-0.00000523,-0
 .00004555,-0.00000819,0.00000241,0.00000161,0.00000184,-0.00024592,-0.
 00018111,0.00007850,-0.00113425,0.00083288,0.00101373,-0.02027476,0.00
 466583,0.00269661,0.00048873,0.00052832,-0.00104742,-0.00004700,0.0003
 1195,0.00002631,-0.00005727,-0.00005971,-0.00019291,0.00011931,-0.0001
 0174,0.00009914,-0.00014392,0.00015297,-0.00001152,-0.00000406,0.00002
 399,0.00000227,0.00000997,0.00000807,0.00001118,0.00000632,0.00000277,
 -0.00001322,0.00027830,-0.00030781,0.00002993,-0.00022539,0.00031254,-
 0.00034098,0.00012893,-0.00031753,0.00067240,-0.00001987,0.00000550,-0
 .00001398,0.00002513,0.00002786,-0.00000727,-0.00003159,-0.00004225,-0
 .00000370,0.00000616,0.00001743,0.00000913,-0.00000040,-0.00000586,0.0
 0000384,0.00000138,0.00000722,0.00000096,0.00000559,-0.00000486,-0.000
 00664,0.00001779,0.00000460,0.00002556,0.00011092,-0.00011438,0.000020
 53,0.00001886,0.00002870,0.00000896,-0.00006490,0.00002888,0.00001582,
 -0.00005173,0.00004906,-0.00001657,0.00005580,0.00006980,0.00002617,0.
 00000193,-0.00001974,-0.00001021,0.00001528,-0.00003675,-0.00001635,0.
 00015360,0.00002645,0.00005124,0.00004622,0.00024851,-0.00006031,0.000
 08542,0.00067021,-0.00046471,-0.10708548,0.10044861,0.00057845,-0.0003
 9622,-0.00033853,-0.00033698,0.00055827,0.00100337,-0.03691538,0.01107
 668,-0.00569418,0.00089987,-0.00085703,0.00327351,0.00010731,-0.000181
 36,0.00041316,0.01116667,0.00181659,-0.04122169,0.01170743,-0.01930304
 ,-0.00312921,-0.00019787,0.00063528,-0.00021821,-0.00003913,0.00001541
 ,0.00002554,-0.00001426,-0.00003401,-0.00000604,0.00000185,-0.00000029
 ,0.00000869,-0.00024174,-0.00010314,-0.00022335,-0.00181820,-0.0016723
 0,0.00013782,0.02696435,-0.00442276,-0.00395326,-0.00040629,-0.0008017
 2,0.00184283,0.00010173,-0.00034405,-0.00050559,-0.00002158,0.00006334
 ,0.00024013,-0.00015293,0.00005427,0.00001407,0.00018342,-0.00004461,-
 0.00003092,0.00004492,-0.00007487,-0.00003436,-0.00005862,-0.00002231,
 0.00003131,0.00000929,-0.00000697,0.00000590,0.00028505,-0.00022348,-0
 .00005270,-0.00021874,0.00020968,-0.00017347,0.00021599,-0.00018737,0.
 00030051,-0.00001907,0.00004884,-0.00008487,-0.00008201,-0.00002950,0.
 00014981,0.00006297,0.00005817,-0.00005807,-0.00003093,0.00000260,0.00
 003936,0.00000327,0.00000034,-0.00000956,-0.00000647,-0.00000559,-0.00
 000039,-0.00001302,0.00000752,0.00000472,-0.00000488,0.00001335,-0.000
 02086,-0.00023357,0.00012619,0.00009972,-0.00001973,0.00002464,-0.0000
 3673,-0.00013898,-0.00003225,-0.00005121,-0.00005814,0.00003393,0.0000
 2403,-0.00000700,-0.00010064,-0.00012749,0.00000886,0.00000966,-0.0000
 1202,0.00000971,-0.00002420,-0.00000214,0.00008982,0.00004846,-0.00014
 972,0.00016675,-0.00039692,-0.00018719,-0.00181892,-0.00035657,-0.0059
 6927,-0.01096531,0.01217590,0.05710832,0.00009350,0.00007485,0.0000985
 3,-0.00003309,0.00000852,-0.00011565,-0.00066791,-0.00033513,-0.000453
 84,0.00023087,-0.00005651,0.00029955,-0.00001251,-0.00007517,0.0000834
 3,-0.00912308,0.00594267,0.00426347,0.00118264,0.00005513,-0.00090195,
 0.00019726,-0.00009624,-0.00015281,0.00031324,-0.00016936,-0.00001155,
 -0.00002337,-0.00004193,0.00002590,0.00000276,0.00000440,0.00000197,0.
 00181057,-0.00026344,0.00132141,0.00763710,0.00017466,-0.00220177,-0.3
 1331147,0.07989657,0.08405884,-0.01819577,0.00810804,-0.00233400,0.000
 02749,-0.00076746,0.00402361,0.00020057,-0.00010652,-0.00038969,0.0003
 9686,-0.00019872,-0.00022470,-0.00056088,0.00011553,0.00021395,-0.0000
 5668,0.00019852,0.00007888,0.00009189,0.00001435,-0.00005979,-0.000012
 58,0.00001175,-0.00000679,-0.00032223,0.00035939,-0.00005567,0.0004109
 4,-0.00017859,0.00012992,-0.00059681,-0.00020829,-0.00018907,0.0004322
 5,-0.00020447,0.00001624,0.00000493,-0.00004873,-0.00038636,-0.0000919
 2,-0.00008965,0.00006967,0.00003737,-0.00000546,-0.00003761,-0.0000046
 4,0.00000182,0.00000898,0.00001318,0.00000787,0.00000280,0.00004026,-0
 .00002660,-0.00000270,-0.00005720,-0.00011963,0.00009641,0.00115602,-0
 .00065320,-0.00135727,0.00010945,-0.00000274,0.00020980,0.00013480,0.0
 0000867,-0.00002176,0.00005701,-0.00006596,-0.00000054,0.00000223,-0.0
 0000972,-0.00002044,-0.00003917,0.00006638,0.00003652,-0.00008840,-0.0
 0008265,-0.00007117,0.00006876,0.00058695,0.00095124,-0.00005912,-0.00
 006598,-0.00014759,0.00031135,-0.00010683,0.00054110,-0.00024252,-0.00
 087316,0.00121205,0.32853604,0.00017760,0.00038469,-0.00022632,-0.0006
 4184,-0.00053337,-0.00006473,-0.00089598,0.00018421,-0.00159041,0.0001
 9583,-0.00006589,0.00069893,0.00005282,-0.00017871,0.00011150,-0.01824
 226,0.00815963,0.00615860,0.00176111,0.00218803,-0.00056626,0.00034372
 ,0.00029335,-0.00010245,-0.00012433,0.00017582,-0.00025737,-0.00010232
 ,-0.00012865,0.00010376,0.00000856,0.00003275,0.00001087,0.00373581,0.
 00061117,0.00385062,0.02502412,-0.01924227,-0.01740487,0.07508383,-0.0
 6632016,-0.02059849,0.00743172,0.00077660,0.00179673,0.00013343,-0.000
 15149,-0.00103275,0.00016453,-0.00010535,0.00036597,-0.00061419,0.0003
 3200,0.00024703,0.00098900,-0.00040676,-0.00125039,0.00003373,-0.00010
 135,0.00001921,-0.00000452,0.00003340,-0.00002340,-0.00001451,-0.00003
 313,0.00003089,-0.00000772,0.00007101,-0.00004625,0.00005285,-0.000068
 62,-0.00002023,-0.00022879,-0.00003683,-0.00004552,-0.00016667,0.00009
 925,0.00004624,-0.00001665,-0.00000509,0.00008063,0.00004488,0.0000704
 3,0.00004695,-0.00000479,-0.00002139,-0.00003481,0.,0.00000332,0.00000
 103,-0.00001009,-0.00000808,-0.00000997,-0.00003558,0.00003762,0.00002
 370,-0.00002659,0.00001597,-0.00005445,-0.00017979,0.00017760,0.000420
 79,-0.00005299,-0.00002134,-0.00007802,-0.00001466,-0.00002403,0.00001
 449,-0.00001380,-0.00001328,0.00001622,-0.00004235,-0.00000439,-0.0000
 7230,-0.00013706,-0.00011673,0.00000357,-0.00005865,0.00018304,0.00011
 983,-0.00118939,0.00067578,-0.00032064,-0.00004681,-0.00004073,0.00012
 296,0.00033446,-0.00004596,0.00021956,-0.00191172,-0.00242658,0.002642
 06,-0.09078393,0.07559451,-0.00018855,0.00002980,-0.00034004,0.0000605
 6,0.00030419,-0.00006607,0.00065547,-0.00072668,0.00157988,-0.00029078
 ,0.00027275,-0.00024926,-0.00007513,0.00001904,-0.00004109,0.01958687,
 -0.00655937,-0.00210109,-0.00128715,0.00024866,0.00085758,-0.00016822,
 0.00009409,0.00011683,-0.00015642,0.00009085,-0.00012993,-0.00005953,-
 0.00008504,0.00005305,0.00000776,0.00001563,0.00000188,0.00327052,-0.0
 0038914,0.00314974,0.01048516,-0.01161985,-0.00656384,0.08818878,-0.02
 254333,-0.07353376,-0.02857334,0.01161538,-0.00299464,-0.00401014,0.00
 079790,0.00579512,0.00007227,-0.00006701,-0.00037929,0.00010740,-0.000
 05190,0.00027615,-0.00023784,0.00011468,-0.00063840,-0.00004550,0.0001
 1325,0.00005197,0.00009112,0.00004366,-0.00003144,-0.00000146,0.000007
 36,-0.00001267,-0.00014070,0.00015861,0.00005455,0.00010290,-0.0001529
 7,0.00001208,-0.00006750,0.00014070,-0.00008610,0.00015673,-0.00017482
 ,0.00008669,0.00014529,-0.00001366,-0.00036141,-0.00013864,-0.00014204
 ,0.00009381,0.00005556,0.00001365,-0.00005346,-0.00000478,-0.00000511,
 0.00001814,0.00000801,0.00001661,0.00000145,0.00003314,0.00000369,-0.0
 0005281,0.00002081,-0.00008696,0.00006647,0.00108159,-0.00096090,-0.00
 001295,0.00015341,-0.00003117,0.00008337,0.00009667,0.00004560,-0.0000
 5539,0.00002331,-0.00003497,-0.00002826,-0.00001791,0.00001937,0.00002
 621,-0.00004931,-0.00006963,-0.00001477,-0.00007188,0.00016255,0.00003
 956,-0.00098482,0.00055266,-0.00012753,-0.00018268,-0.00001793,0.00008
 711,-0.00051728,0.00014962,-0.00028705,0.00146783,0.00205471,-0.002431
 78,-0.08860159,0.02664748,0.07814141\\-0.00053019,0.01243903,-0.000132
 48,0.02845826,-0.00977504,-0.01175466,-0.00873295,-0.01759631,0.012843
 68,-0.00949731,-0.00716995,0.01537743,0.00230384,-0.00671167,-0.037027
 68,-0.02947369,-0.00949909,-0.02810323,0.00192556,-0.02787467,0.037314
 38,0.01225017,0.01807313,-0.01958497,-0.00952023,0.04191421,0.04799836
 ,0.01588238,-0.00447691,-0.03980565,-0.01700838,-0.04069733,0.00324773
 ,0.02263907,0.02068219,-0.04003909,0.02289190,0.01311230,0.01436420,-0
 .04761178,0.05040458,0.01445211,-0.00050106,-0.01650675,0.00086785,0.0
 1291106,-0.02666937,0.00253909,-0.03387495,0.02886151,0.03800812,0.017
 31335,-0.02422287,0.00085790,0.00742453,0.02581731,-0.01460546,0.01320
 337,0.00851149,0.02802467,0.00739835,-0.00633475,0.01244068,-0.0277645
 7,0.00004607,-0.01916071,-0.00966100,-0.00956179,0.01287770,0.02061672
 ,0.01729172,0.01089195,-0.01767031,-0.00062008,-0.02550835,0.04810163,
 -0.01866739,0.00633194,0.00293275,0.00426951,-0.02011172,0.03258436,-0
 .01819736,-0.02289623,-0.01392850,0.00347473,0.01880636,-0.00488992,-0
 .00145671,-0.00250169,-0.01399979,0.01289812,-0.00587409,0.01240127,-0
 .01709059,-0.00235229,-0.01665171,0.01809904,-0.00721797,0.01256153,-0
 .01746511,-0.00361470,-0.01753475,0.00831348,-0.00190224,-0.01680569,0
 .00438790,0.01131540,-0.00455524,-0.00927827,-0.01417968,-0.00009454,0
 .00462475,0.00342652,0.00591731,-0.00722187,0.02097552,-0.02153707,0.0
 0645713,0.00808728,0.01867141,-0.01257772,-0.00157913,-0.01429319,0.00
 747932,0.00282664,0.01996902,-0.00561886,0.00426410,-0.01811124,0.0121
 9743,-0.00144152,0.01589025,-0.00406447,-0.00874609\\\@


 THERE'S NOTHING WRONG WITH FOLLOWING A TRAIN OF THOUGHT...
 AS LONG AS IT ULTIMATELY PULLS INTO THE STATION.
 Job cpu time:  1 days  7 hours 40 minutes 16.3 seconds.
 File lengths (MBytes):  RWF=   1769 Int=      0 D2E=      0 Chk=     28 Scr=      1
 Normal termination of Gaussian 09 at Sun Apr  3 00:35:02 2016.
Gaussian '09 finished on node002 at Sun Apr  3 00:35:02 EDT 2016.
