Gaussian '09 started on node002 at Tue Mar  1 02:58:26 EST 2016.
 Entering Gaussian System, Link 0=/usr/local/gaussian/g09/g09
 Initial command:
 /usr/local/gaussian/g09/l1.exe /home/srmcgrat/thesis/gaussian/cellobiose/350/10000/2/gdp/gaussian23943/Gau-23979.inp -scrdir=/home/srmcgrat/thesis/gaussian/cellobiose/350/10000/2/gdp/gaussian23943/
 Entering Link 1 = /usr/local/gaussian/g09/l1.exe PID=     23981.
  
 Copyright (c) 1988,1990,1992,1993,1995,1998,2003,2009,2010,
            Gaussian, Inc.  All Rights Reserved.
  
 This is part of the Gaussian(R) 09 program.  It is based on
 the Gaussian(R) 03 system (copyright 2003, Gaussian, Inc.),
 the Gaussian(R) 98 system (copyright 1998, Gaussian, Inc.),
 the Gaussian(R) 94 system (copyright 1995, Gaussian, Inc.),
 the Gaussian 92(TM) system (copyright 1992, Gaussian, Inc.),
 the Gaussian 90(TM) system (copyright 1990, Gaussian, Inc.),
 the Gaussian 88(TM) system (copyright 1988, Gaussian, Inc.),
 the Gaussian 86(TM) system (copyright 1986, Carnegie Mellon
 University), and the Gaussian 82(TM) system (copyright 1983,
 Carnegie Mellon University). Gaussian is a federally registered
 trademark of Gaussian, Inc.
  
 This software contains proprietary and confidential information,
 including trade secrets, belonging to Gaussian, Inc.
  
 This software is provided under written license and may be
 used, copied, transmitted, or stored only in accord with that
 written license.
  
 The following legend is applicable only to US Government
 contracts under FAR:
  
                    RESTRICTED RIGHTS LEGEND
  
 Use, reproduction and disclosure by the US Government is
 subject to restrictions as set forth in subparagraphs (a)
 and (c) of the Commercial Computer Software - Restricted
 Rights clause in FAR 52.227-19.
  
 Gaussian, Inc.
 340 Quinnipiac St., Bldg. 40, Wallingford CT 06492
  
  
 ---------------------------------------------------------------
 Warning -- This program may not be used in any manner that
 competes with the business of Gaussian, Inc. or will provide
 assistance to any competitor of Gaussian, Inc.  The licensee
 of this program is prohibited from giving any competitor of
 Gaussian, Inc. access to this program.  By using this program,
 the user acknowledges that Gaussian, Inc. is engaged in the
 business of creating and licensing software in the field of
 computational chemistry and represents and warrants to the
 licensee that it is not a competitor of Gaussian, Inc. and that
 it will not use this program in any manner prohibited above.
 ---------------------------------------------------------------
  

 Cite this work as:
 Gaussian 09, Revision B.01,
 M. J. Frisch, G. W. Trucks, H. B. Schlegel, G. E. Scuseria, 
 M. A. Robb, J. R. Cheeseman, G. Scalmani, V. Barone, B. Mennucci, 
 G. A. Petersson, H. Nakatsuji, M. Caricato, X. Li, H. P. Hratchian, 
 A. F. Izmaylov, J. Bloino, G. Zheng, J. L. Sonnenberg, M. Hada, 
 M. Ehara, K. Toyota, R. Fukuda, J. Hasegawa, M. Ishida, T. Nakajima, 
 Y. Honda, O. Kitao, H. Nakai, T. Vreven, J. A. Montgomery, Jr., 
 J. E. Peralta, F. Ogliaro, M. Bearpark, J. J. Heyd, E. Brothers, 
 K. N. Kudin, V. N. Staroverov, T. Keith, R. Kobayashi, J. Normand, 
 K. Raghavachari, A. Rendell, J. C. Burant, S. S. Iyengar, J. Tomasi, 
 M. Cossi, N. Rega, J. M. Millam, M. Klene, J. E. Knox, J. B. Cross, 
 V. Bakken, C. Adamo, J. Jaramillo, R. Gomperts, R. E. Stratmann, 
 O. Yazyev, A. J. Austin, R. Cammi, C. Pomelli, J. W. Ochterski, 
 R. L. Martin, K. Morokuma, V. G. Zakrzewski, G. A. Voth, 
 P. Salvador, J. J. Dannenberg, S. Dapprich, A. D. Daniels, 
 O. Farkas, J. B. Foresman, J. V. Ortiz, J. Cioslowski, 
 and D. J. Fox, Gaussian, Inc., Wallingford CT, 2010.
 
 ******************************************
 Gaussian 09:  EM64L-G09RevB.01 12-Aug-2010
                 1-Mar-2016 
 ******************************************
 ------------------------------------------------
 # freq=raman b3lyp/6-31+g(d,p) geom=connectivity
 ------------------------------------------------
 1/10=4,30=1,38=1,57=2/1,3;
 2/12=2,17=6,18=5,40=1/2;
 3/5=1,6=6,7=111,11=2,16=1,25=1,30=1,71=2,74=-5/1,2,3;
 4//1;
 5/5=2,38=5,98=1/2;
 8/6=4,10=90,11=11/1;
 10/13=10,15=4/2;
 11/6=3,8=1,9=11,15=111,16=1/1,2,10;
 10/6=1/2;
 6/7=2,8=2,9=2,10=2,18=1,28=1/1;
 7/8=1,10=1,25=1/1,2,3,16;
 1/10=4,30=1/3;
 99//99;
 -------------
 350 10000.com
 -------------
 Symbolic Z-matrix:
 Charge =  0 Multiplicity = 1
 O                     7.907     7.727     22.904 
 C                     8.412     8.106     24.193 
 C                     8.082     9.516     24.656 
 O                     8.577     10.411    23.65 
 H                     8.447     9.883     22.811 
 C                     8.605     9.827     26.049 
 O                     7.964     10.948    26.674 
 H                     8.454     10.998    27.545 
 C                     8.321     5.631     24.961 
 O                     7.899     4.972     23.759 
 H                     8.017     3.98      23.807 
 C                     8.049     7.095     25.268 
 O                     8.942     7.415     26.345 
 C                     8.371     8.601     26.916 
 O                     9.215     8.753     28.067 
 C                     8.591     8.355     29.296 
 C                     9.112     7.001     29.753 
 O                     8.745     6.009     28.783 
 H                     8.997     6.381     27.889 
 C                     8.617     6.692     31.157 
 O                     9.319     5.61      31.786 
 H                     8.817     5.367     32.616 
 C                     8.454     10.801    30.062 
 O                     9.427     11.484    29.258 
 H                     9.279     12.472    29.288 
 C                     8.816     9.366     30.409 
 O                     8.121     8.937     31.589 
 C                     8.751     7.797     32.192 
 O                     8.019     7.649     33.417 
 H                     8.63416   7.5606    34.14869 
 H                     9.78177   8.00293   32.39201 
 H                     7.58331   6.42396   31.08961 
 H                     10.18034   7.05145   29.78452 
 H                     7.53795   8.27067   29.12606 
 H                     9.86144   9.35373   30.63659 
 H                     8.32535   11.34687   30.97325 
 H                     7.52295   10.7966   29.53472 
 H                     8.64164   7.55268   22.31111 
 H                     7.9014    5.07245   25.77147 
 H                     9.38244   5.50656   25.01349 
 H                     7.03345   7.22856   25.57738 
 H                     9.47795   8.07165   24.10662 
 H                     7.01647   9.61038   24.6812 
 H                     9.6565    10.0164   25.99083 
 H                     7.34257   8.47317   27.18224 
 

 GradGradGradGradGradGradGradGradGradGradGradGradGradGradGradGradGradGrad
 Berny optimization.
 Initialization pass.
 Trust Radius=3.00D-01 FncErr=1.00D-07 GrdErr=1.00D-07
 Number of steps in this run=      2 maximum allowed number of steps=      2.
 GradGradGradGradGradGradGradGradGradGradGradGradGradGradGradGradGradGrad

                          Input orientation:                          
 ---------------------------------------------------------------------
 Center     Atomic      Atomic             Coordinates (Angstroms)
 Number     Number       Type             X           Y           Z
 ---------------------------------------------------------------------
      1          8           0        7.907000    7.727000   22.904000
      2          6           0        8.412000    8.106000   24.193000
      3          6           0        8.082000    9.516000   24.656000
      4          8           0        8.577000   10.411000   23.650000
      5          1           0        8.447000    9.883000   22.811000
      6          6           0        8.605000    9.827000   26.049000
      7          8           0        7.964000   10.948000   26.674000
      8          1           0        8.454000   10.998000   27.545000
      9          6           0        8.321000    5.631000   24.961000
     10          8           0        7.899000    4.972000   23.759000
     11          1           0        8.017000    3.980000   23.807000
     12          6           0        8.049000    7.095000   25.268000
     13          8           0        8.942000    7.415000   26.345000
     14          6           0        8.371000    8.601000   26.916000
     15          8           0        9.215000    8.753000   28.067000
     16          6           0        8.591000    8.355000   29.296000
     17          6           0        9.112000    7.001000   29.753000
     18          8           0        8.745000    6.009000   28.783000
     19          1           0        8.997000    6.381000   27.889000
     20          6           0        8.617000    6.692000   31.157000
     21          8           0        9.319000    5.610000   31.786000
     22          1           0        8.817000    5.367000   32.616000
     23          6           0        8.454000   10.801000   30.062000
     24          8           0        9.427000   11.484000   29.258000
     25          1           0        9.279000   12.472000   29.288000
     26          6           0        8.816000    9.366000   30.409000
     27          8           0        8.121000    8.937000   31.589000
     28          6           0        8.751000    7.797000   32.192000
     29          8           0        8.019000    7.649000   33.417000
     30          1           0        8.634159    7.560600   34.148686
     31          1           0        9.781772    8.002926   32.392009
     32          1           0        7.583311    6.423959   31.089609
     33          1           0       10.180345    7.051454   29.784519
     34          1           0        7.537953    8.270670   29.126057
     35          1           0        9.861444    9.353730   30.636589
     36          1           0        8.325353   11.346872   30.973248
     37          1           0        7.522948   10.796601   29.534721
     38          1           0        8.641640    7.552676   22.311113
     39          1           0        7.901397    5.072449   25.771466
     40          1           0        9.382442    5.506562   25.013495
     41          1           0        7.033448    7.228559   25.577379
     42          1           0        9.477955    8.071650   24.106625
     43          1           0        7.016469    9.610385   24.681198
     44          1           0        9.656496   10.016399   25.990828
     45          1           0        7.342566    8.473165   27.182237
 ---------------------------------------------------------------------
                    Distance matrix (angstroms):
                    1          2          3          4          5
     1  O    0.000000
     2  C    1.435335   0.000000
     3  C    2.510110   1.520319   0.000000
     4  O    2.865183   2.373836   1.434603   0.000000
     5  H    2.224542   2.251417   1.916230   0.999802   0.000000
     6  C    3.845547   2.538469   1.520098   2.469219   3.242336
     7  O    4.958930   3.799083   2.477271   3.131887   4.036122
     8  H    5.704168   4.427339   3.268184   3.940904   4.863541
     9  C    2.965782   2.593016   3.904276   4.963130   4.766328
    10  O    2.884634   3.205227   4.635303   5.482179   5.031593
    11  H    3.855842   4.162799   5.601100   6.457245   6.001860
    12  C    2.451139   1.519709   2.497373   3.727273   3.737405
    13  O    3.606806   2.321526   2.829580   4.046266   4.338802
    14  C    4.132229   2.767930   2.455269   3.739691   4.301200
    15  O    5.424031   4.008902   3.674341   4.760871   5.430678
    16  C    6.459095   5.112206   4.810052   6.008714   6.664139
    17  C    6.991988   5.711797   5.776291   7.011486   7.545828
    18  O    6.181942   5.057311   5.456258   6.764135   7.124708
    19  H    5.277314   4.120469   4.595404   5.863994   6.192947
    20  C    8.347894   7.109059   7.108038   8.377805   8.936839
    21  O    9.239337   8.044023   8.223376   9.476004   9.978454
    22  H   10.035968   8.866401   9.006444  10.290223  10.801351
    23  C    7.809331   6.458324   5.569061   6.425027   7.308883
    24  O    7.536496   6.172142   5.182707   5.772650   6.714716
    25  H    8.071732   6.765550   5.623715   6.043804   7.024719
    26  C    7.735478   6.355271   5.801574   6.843481   7.624504
    27  O    8.771495   7.448225   6.957244   8.087542   8.834844
    28  C    9.326531   8.012141   7.758468   8.934710   9.614935
    29  O   10.513886   9.243672   8.957945  10.165348  10.847174
    30  H   11.269402   9.973089   9.707706  10.878900  11.574615
    31  H    9.675392   8.313281   8.063774   9.147296   9.854543
    32  H    8.294991   7.146971   7.155469   8.498923   9.013672
    33  H    7.277774   5.958540   6.064548   7.175624   7.723477
    34  H    6.256658   5.012597   4.672071   5.970580   6.580723
    35  H    8.139966   6.721426   6.241811   7.181925   7.969983
    36  H    8.853884   7.515486   6.581713   7.387093   8.293372
    37  H    7.316858   6.046795   5.074879   5.990798   6.848136
    38  H    0.960000   1.974943   3.109073   3.157026   2.391272
    39  H    3.907561   3.457557   4.584978   5.784218   5.674807
    40  H    3.399594   2.893449   4.230194   5.153772   4.987910
    41  H    2.856308   2.141685   2.679700   4.028061   4.086202
    42  H    2.008230   1.070000   2.082462   2.548094   2.454078
    43  H    2.738360   2.109270   1.070000   2.034604   2.370312
    44  H    4.222629   2.903546   2.123959   2.607777   3.404700
    45  H    4.379345   3.195941   2.831279   4.213755   4.723888
                    6          7          8          9         10
     6  C    0.000000
     7  O    1.434624   0.000000
     8  H    1.905796   1.000620   0.000000
     9  C    4.344055   5.597527   5.958140   0.000000
    10  O    5.414200   6.649363   7.138242   1.434283   0.000000
    11  H    6.289652   7.534953   7.963412   2.037138   1.000146
    12  C    2.895327   4.102398   4.536757   1.520371   2.608967
    13  O    2.453351   3.680600   3.809991   2.341741   3.707222
    14  C    1.519711   2.394289   2.479544   3.556041   4.833123
    15  O    2.365988   2.885043   2.427268   4.493702   5.881044
    16  C    3.565107   3.740543   3.173361   5.126919   6.525483
    17  C    4.686464   5.135850   4.613484   5.046369   6.443310
    18  O    4.698029   5.426929   5.148538   3.863980   5.199198
    19  H    3.926090   4.837438   4.661531   3.097202   4.499754
    20  C    5.993332   6.215886   5.622699   6.293151   7.629176
    21  O    7.155841   7.514174   6.911212   6.897613   8.176562
    22  H    7.941161   8.196495   7.586499   7.675594   8.913204
    23  C    4.132269   3.426405   2.524698   7.264075   8.603085
    24  O    3.703919   3.017403   2.029112   7.344730   8.659095
    25  H    4.235732   3.299212   2.427210   8.151072   9.419355
    26  C    4.389378   4.144738   3.316167   6.623893   8.023131
    27  O    5.631870   5.312814   4.551104   7.409455   8.779488
    28  C    6.471373   6.402850   5.650595   7.560676   8.934317
    29  O    7.705485   7.506962   6.773877   8.698705  10.022859
    30  H    8.410846   8.233743   7.446936   9.393349  10.732516
    31  H    6.704163   6.683815   5.850380   7.935980   9.341316
    32  H    6.167031   6.333204   5.851855   6.223569   7.479684
    33  H    4.913193   5.456242   4.854991   5.361081   6.770195
    34  H    3.609575   3.655434   3.282866   4.992867   6.310062
    35  H    4.780022   4.673767   3.773916   6.960173   8.387609
    36  H    5.161050   4.332806   3.448355   8.295682   9.636709
    37  H    3.776402   2.898478   2.205994   6.945448   8.211354
    38  H    4.375579   5.569758   6.268895   3.289004   3.050865
    39  H    4.814336   5.944795   6.209907   1.070000   2.014973
    40  H    4.510307   5.863318   6.117713   1.070000   2.014973
    41  H    3.073126   3.987825   4.483100   2.142407   3.024523
    42  H    2.759733   4.142084   4.629733   2.832891   3.495965
    43  H    2.107424   2.580366   3.491895   4.197093   4.810813
    44  H    1.070000   2.049182   2.196585   4.698491   5.789284
    45  H    2.170445   2.601786   2.782386   3.737530   4.928116
                   11         12         13         14         15
    11  H    0.000000
    12  C    3.440751   0.000000
    13  O    4.369931   1.435193   0.000000
    14  C    5.580756   2.255576   1.434809   0.000000
    15  O    6.508789   3.455853   2.197739   1.435354   0.000000
    16  C    7.042672   4.255132   3.116922   2.402773   1.434650
    17  C    6.758726   4.610209   3.437261   3.340307   2.433662
    18  O    5.422859   3.744200   2.821257   3.216213   2.874559
    19  H    4.836106   2.877176   1.859063   2.503399   2.388638
    20  C    7.857318   5.930038   4.876853   4.657347   3.762104
    21  O    8.247214   6.804590   5.744966   5.793245   4.870341
    22  H    8.953337   7.587418   6.598134   6.568689   5.684787
    23  C    9.265098   6.072964   5.051656   3.839818   2.958623
    24  O    9.381445   6.089524   5.027679   3.861579   2.986936
    25  H   10.185680   6.825352   5.860722   4.629848   3.914831
    26  C    8.557675   5.672355   4.509809   3.603373   2.453555
    27  O    9.227253   6.584314   5.521781   4.691729   3.692584
    28  C    9.242103   6.994811   5.862577   5.350420   4.259678
    29  O   10.286577   8.167865   7.135816   6.579758   5.592113
    30  H   10.961390   8.912115   7.811113   7.311870   6.224637
    31  H    9.643689   7.387715   6.133285   5.686356   4.426008
    32  H    7.693985   5.878630   5.033836   4.772732   4.150061
    33  H    7.060073   4.994344   3.673684   3.728702   2.603271
    34  H    6.850672   4.065461   3.230758   2.384835   2.041257
    35  H    8.883819   6.099883   4.798103   4.078089   2.716902
    36  H   10.282072   7.120720   6.104142   4.899302   3.995738
    37  H    8.917226   5.673049   4.860376   3.521016   3.032086
    38  H    3.923247   3.050225   4.047396   4.730456   5.907602
    39  H    2.250763   2.089492   2.626659   3.739138   4.532271
    40  H    2.377068   2.089492   2.368339   3.770688   4.459965
    41  H    3.828152   1.070000   2.065569   2.337637   3.644352
    42  H    4.354970   2.084358   2.393483   3.065640   4.027152
    43  H    5.785025   2.781657   3.360896   2.801419   4.127021
    44  H    6.625342   3.411905   2.720885   2.124099   2.470138
    45  H    5.660002   2.462253   2.092574   1.070000   2.089766
                   16         17         18         19         20
    16  C    0.000000
    17  C    1.521054   0.000000
    18  O    2.406367   1.435149   0.000000
    19  H    2.457877   1.967771   1.000562   0.000000
    20  C    2.495910   1.520435   2.473611   3.304685   0.000000
    21  O    3.776918   2.472007   3.083291   3.985566   1.434980
    22  H    4.472317   3.309645   3.887060   4.837884   1.980986
    23  C    2.566796   3.868907   4.968278   4.955116   4.255523
    24  O    3.238978   4.521232   5.537723   5.300912   5.217812
    25  H    4.174098   5.493265   6.504656   6.255958   6.110630
    26  C    1.520367   2.472079   3.730733   3.910676   2.783771
    27  O    2.411944   2.846238   4.103193   4.581540   2.339373
    28  C    2.953605   2.590880   3.849449   4.536671   1.519936
    29  O    4.219984   3.878073   4.968967   5.755266   2.526075
    30  H    4.917469   4.456854   5.586622   6.380187   3.115277
    31  H    3.335741   2.901175   4.251539   4.850113   2.144870
    32  H    2.821593   2.111016   2.615751   3.499179   1.070000
    33  H    2.112794   1.070000   2.037147   2.332982   2.111151
    34  H    1.070000   2.117249   2.586465   2.688862   2.789493
    35  H    2.099683   2.622544   3.983649   4.139280   2.984003
    36  H    3.440208   4.581967   5.784995   5.884181   4.667618
    37  H    2.675656   4.120596   4.997961   4.937485   4.547140
    38  H    7.030998   7.477116   6.654242   5.710685   8.887693
    39  H    4.865494   4.586663   3.264679   2.719669   5.669128
    40  H    5.203828   4.976886   3.855898   3.030138   6.303477
    41  H    4.186046   4.669900   3.833111   3.149203   5.824749
    42  H    5.272247   5.758625   5.163355   4.170848   7.235500
    43  H    5.035031   6.076455   5.725606   4.964013   7.281118
    44  H    3.849635   4.852117   4.968530   4.153807   6.230691
    45  H    2.457752   3.450651   3.255975   2.759315   4.538224
                   21         22         23         24         25
    21  O    0.000000
    22  H    0.999976   0.000000
    23  C    5.537769   6.015234   0.000000
    24  O    6.395805   7.004709   1.435143   0.000000
    25  H    7.302647   7.859393   2.017905   0.999474   0.000000
    26  C    4.031957   4.567587   1.520091   2.486774   3.334403
    27  O    3.541602   3.779424   2.432512   3.691396   4.373990
    28  C    2.295741   2.467596   3.694472   4.760179   5.528800
    29  O    2.916793   2.546749   4.623889   5.829834   6.472833
    30  H    3.139448   2.682246   5.218587   6.319848   6.940024
    31  H    2.511474   2.815859   3.875711   4.697420   5.464455
    32  H    2.039633   2.229130   4.579582   5.688409   6.534520
    33  H    2.612591   3.565583   4.137192   4.526832   5.517361
    34  H    4.162522   4.716669   2.849158   3.729798   4.550675
    35  H    3.953594   4.571974   2.098962   2.574354   3.446961
    36  H    5.878741   6.220870   1.070000   2.043161   2.239513
    37  H    5.932528   6.375689   1.070000   2.043161   2.439580
    38  H    9.695684  10.535589   8.406133   8.020682   8.560545
    39  H    6.202675   6.911782   7.178464   7.455962   8.307656
    40  H    6.773592   7.624781   7.374312   7.331274   8.173091
    41  H    6.811054   7.495908   5.906956   6.114315   6.804770
    42  H    8.065841   8.953293   6.630560   6.179271   6.800684
    43  H    8.472481   9.176563   5.695357   5.501655   5.876267
    44  H    7.287954   8.137233   4.316947   3.589002   4.128416
    45  H    5.770497   6.430241   3.866153   4.209369   4.916777
                   26         27         28         29         30
    26  C    0.000000
    27  O    1.435084   0.000000
    28  C    2.375937   1.435308   0.000000
    29  O    3.554063   2.238511   1.434696   0.000000
    30  H    4.156656   2.951238   1.974375   0.960000   0.000000
    31  H    2.592877   2.067724   1.070000   2.069598   2.144431
    32  H    3.261649   2.617991   2.112819   2.665952   3.428439
    33  H    2.758357   3.324505   2.897383   4.268887   4.657884
    34  H    2.116387   2.617256   3.331044   4.362347   5.189670
    35  H    1.070000   2.027287   2.464913   3.745849   4.129936
    36  H    2.117301   2.495675   3.777317   4.442976   4.951224
    37  H    2.117301   2.834756   4.191282   5.022504   5.744142
    38  H    8.300260   9.395031   9.884512  11.123744  11.837579
    39  H    6.385750   6.987609   7.026255   8.068868   8.769587
    40  H    6.657897   7.523059   7.561466   8.778833   9.393121
    41  H    5.575904   6.343589   6.857574   7.912505   8.725814
    42  H    6.467879   7.653502   8.122634   9.433465  10.090400
    43  H    6.008806   7.027884   7.918908   9.009236   9.820991
    44  H    4.544193   5.904437   6.648322   7.964546   8.580604
    45  H    3.657890   4.498963   5.247724   6.325273   7.143697
                   31         32         33         34         35
    31  H    0.000000
    32  H    3.003767   0.000000
    33  H    2.804133   2.973482   0.000000
    34  H    3.971505   2.695911   2.983671   0.000000
    35  H    2.216420   3.738807   2.475520   2.975456   0.000000
    36  H    3.913568   4.979884   4.827493   3.673573   2.538804
    37  H    4.590316   4.641262   4.598943   2.558819   2.960498
    38  H   10.155151   8.913812   7.646609   6.940973   8.604957
    39  H    7.480314   5.496399   5.021420   4.649085   6.770567
    40  H    7.799600   6.402941   5.077993   5.287306   6.830032
    41  H    7.388647   5.597714   5.256838   3.732778   6.173291
    42  H    8.291237   7.420689   5.811422   5.384971   6.665675
    43  H    8.347899   7.179300   6.527030   4.671568   6.605031
    44  H    6.711548   6.572768   4.843284   4.167188   4.697258
    45  H    5.771705   4.418683   4.104403   1.964082   4.364939
                   36         37         38         39         40
    36  H    0.000000
    37  H    1.736667   0.000000
    38  H    9.461953   7.997189   0.000000
    39  H    8.161291   6.860847   4.321287   0.000000
    40  H    8.411024   7.203035   3.469616   1.719438   0.000000
    41  H    6.909771   5.350803   3.655110   2.332341   2.966650
    42  H    7.694549   6.380567   2.047589   3.775240   2.722354
    43  H    6.657211   5.021983   3.534495   4.750225   4.748643
    44  H    5.326031   4.209503   4.543145   5.250822   4.622652
    45  H    4.857554   3.311355   5.124719   3.723901   4.203007
                   41         42         43         44         45
    41  H    0.000000
    42  H    2.974817   0.000000
    43  H    2.544902   2.959181   0.000000
    44  H    3.850114   2.713696   2.974848   0.000000
    45  H    2.054305   3.765699   2.766731   3.025772   0.000000
 Stoichiometry    C12H22O11
 Framework group  C1[X(C12H22O11)]
 Deg. of freedom   129
 Full point group                 C1      NOp   1
 Largest Abelian subgroup         C1      NOp   1
 Largest concise Abelian subgroup C1      NOp   1
                         Standard orientation:                         
 ---------------------------------------------------------------------
 Center     Atomic      Atomic             Coordinates (Angstroms)
 Number     Number       Type             X           Y           Z
 ---------------------------------------------------------------------
      1          8           0        4.993075   -0.441968   -0.336021
      2          6           0        3.674639   -0.063669    0.086833
      3          6           0        3.222419    1.336724   -0.294960
      4          8           0        4.192361    2.247900    0.240818
      5          1           0        5.040849    1.723951    0.169051
      6          6           0        1.799557    1.646578    0.141105
      7          8           0        1.205439    2.751270   -0.555190
      8          1           0        0.307279    2.803486   -0.117213
      9          6           0        2.929116   -2.545569   -0.003160
     10          8           0        4.157704   -3.202986   -0.343077
     11          1           0        4.109349   -4.193055   -0.209977
     12          6           0        2.628934   -1.088986   -0.319049
     13          8           0        1.500102   -0.761175    0.504392
     14          6           0        0.955429    0.410156   -0.120102
     15          8           0       -0.243366    0.568571    0.653225
     16          6           0       -1.431674    0.150336   -0.033233
     17          6           0       -1.909294   -1.197538    0.485149
     18          8           0       -0.913349   -2.188646    0.192827
     19          1           0       -0.037814   -1.805541    0.489126
     20          6           0       -3.280332   -1.525799   -0.084256
     21          8           0       -3.941868   -2.599783    0.599921
     22          1           0       -4.739897   -2.857890    0.055418
     23          6           0       -2.204197    2.587711   -0.258732
     24          8           0       -1.462168    3.293939    0.746389
     25          1           0       -1.489921    4.278892    0.578920
     26          6           0       -2.562295    1.156840    0.108759
     27          8           0       -3.697384    0.706711   -0.645179
     28          6           0       -4.328431   -0.426352   -0.030314
     29          8           0       -5.508114   -0.596529   -0.828901
     30          1           0       -6.273537   -0.679414   -0.255439
     31          1           0       -4.588982   -0.203583    0.983287
     32          1           0       -3.151606   -1.811714   -1.107282
     33          1           0       -2.002810   -1.128283    1.548803
     34          1           0       -1.200634    0.048519   -1.073018
     35          1           0       -2.849824    1.161509    1.139392
     36          1           0       -3.109982    3.124378   -0.449630
     37          1           0       -1.623987    2.570655   -1.157602
     38          1           0        5.543635   -0.598732    0.434634
     39          1           0        2.147858   -3.117553   -0.458538
     40          1           0        2.816183   -2.651453    1.055582
     41          1           0        2.377895   -0.975870   -1.353014
     42          1           0        3.699501   -0.078364    1.156443
     43          1           0        3.258220    1.411906   -1.361714
     44          1           0        1.795659    1.855122    1.190578
     45          1           0        0.749886    0.262021   -1.159673
 ---------------------------------------------------------------------
 Rotational constants (GHZ):      0.4103776      0.1477979      0.1124718
 Standard basis: 6-31+G(d,p) (6D, 7F)
 There are   547 symmetry adapted basis functions of A   symmetry.
 Integral buffers will be    131072 words long.
 Raffenetti 2 integral format.
 Two-electron integral symmetry is turned on.
   547 basis functions,   890 primitive gaussians,   547 cartesian basis functions
    91 alpha electrons       91 beta electrons
       nuclear repulsion energy      2297.5179245009 Hartrees.
 NAtoms=   45 NActive=   45 NUniq=   45 SFac= 1.00D+00 NAtFMM=   50 NAOKFM=F Big=F
 One-electron integrals computed using PRISM.
 NBasis=   547 RedAO= T  NBF=   547
 NBsUse=   547 1.00D-06 NBFU=   547
 Harris functional with IExCor=  402 diagonalized for initial guess.
 ExpMin= 4.38D-02 ExpMax= 5.48D+03 ExpMxC= 8.25D+02 IAcc=2 IRadAn=         0 AccDes= 0.00D+00
 HarFok:  IExCor=  402 AccDes= 0.00D+00 IRadAn=         0 IDoV= 1
 ScaDFX=  1.000000  1.000000  1.000000  1.000000
 FoFCou: FMM=F IPFlag=           0 FMFlag=      100000 FMFlg1=           0
         NFxFlg=           0 DoJE=T BraDBF=F KetDBF=T FulRan=T
         Omega=  0.000000  0.000000  1.000000  0.000000  0.000000 ICntrl=     500 IOpCl=  0
         NMat0=    1 NMatS0=    1 NMatT0=    0 NMatD0=    1 NMtDS0=    0 NMtDT0=    0
         I1Cent=           4 NGrid=           0.
 Petite list used in FoFCou.
 Initial guess orbital symmetries:
       Occupied  (A) (A) (A) (A) (A) (A) (A) (A) (A) (A) (A) (A)
                 (A) (A) (A) (A) (A) (A) (A) (A) (A) (A) (A) (A)
                 (A) (A) (A) (A) (A) (A) (A) (A) (A) (A) (A) (A)
                 (A) (A) (A) (A) (A) (A) (A) (A) (A) (A) (A) (A)
                 (A) (A) (A) (A) (A) (A) (A) (A) (A) (A) (A) (A)
                 (A) (A) (A) (A) (A) (A) (A) (A) (A) (A) (A) (A)
                 (A) (A) (A) (A) (A) (A) (A) (A) (A) (A) (A) (A)
                 (A) (A) (A) (A) (A) (A) (A)
       Virtual   (A) (A) (A) (A) (A) (A) (A) (A) (A) (A) (A) (A)
                 (A) (A) (A) (A) (A) (A) (A) (A) (A) (A) (A) (A)
                 (A) (A) (A) (A) (A) (A) (A) (A) (A) (A) (A) (A)
                 (A) (A) (A) (A) (A) (A) (A) (A) (A) (A) (A) (A)
                 (A) (A) (A) (A) (A) (A) (A) (A) (A) (A) (A) (A)
                 (A) (A) (A) (A) (A) (A) (A) (A) (A) (A) (A) (A)
                 (A) (A) (A) (A) (A) (A) (A) (A) (A) (A) (A) (A)
                 (A) (A) (A) (A) (A) (A) (A) (A) (A) (A) (A) (A)
                 (A) (A) (A) (A) (A) (A) (A) (A) (A) (A) (A) (A)
                 (A) (A) (A) (A) (A) (A) (A) (A) (A) (A) (A) (A)
                 (A) (A) (A) (A) (A) (A) (A) (A) (A) (A) (A) (A)
                 (A) (A) (A) (A) (A) (A) (A) (A) (A) (A) (A) (A)
                 (A) (A) (A) (A) (A) (A) (A) (A) (A) (A) (A) (A)
                 (A) (A) (A) (A) (A) (A) (A) (A) (A) (A) (A) (A)
                 (A) (A) (A) (A) (A) (A) (A) (A) (A) (A) (A) (A)
                 (A) (A) (A) (A) (A) (A) (A) (A) (A) (A) (A) (A)
                 (A) (A) (A) (A) (A) (A) (A) (A) (A) (A) (A) (A)
                 (A) (A) (A) (A) (A) (A) (A) (A) (A) (A) (A) (A)
                 (A) (A) (A) (A) (A) (A) (A) (A) (A) (A) (A) (A)
                 (A) (A) (A) (A) (A) (A) (A) (A) (A) (A) (A) (A)
                 (A) (A) (A) (A) (A) (A) (A) (A) (A) (A) (A) (A)
                 (A) (A) (A) (A) (A) (A) (A) (A) (A) (A) (A) (A)
                 (A) (A) (A) (A) (A) (A) (A) (A) (A) (A) (A) (A)
                 (A) (A) (A) (A) (A) (A) (A) (A) (A) (A) (A) (A)
                 (A) (A) (A) (A) (A) (A) (A) (A) (A) (A) (A) (A)
                 (A) (A) (A) (A) (A) (A) (A) (A) (A) (A) (A) (A)
                 (A) (A) (A) (A) (A) (A) (A) (A) (A) (A) (A) (A)
                 (A) (A) (A) (A) (A) (A) (A) (A) (A) (A) (A) (A)
                 (A) (A) (A) (A) (A) (A) (A) (A) (A) (A) (A) (A)
                 (A) (A) (A) (A) (A) (A) (A) (A) (A) (A) (A) (A)
                 (A) (A) (A) (A) (A) (A) (A) (A) (A) (A) (A) (A)
                 (A) (A) (A) (A) (A) (A) (A) (A) (A) (A) (A) (A)
                 (A) (A) (A) (A) (A) (A) (A) (A) (A) (A) (A) (A)
                 (A) (A) (A) (A) (A) (A) (A) (A) (A) (A) (A) (A)
                 (A) (A) (A) (A) (A) (A) (A) (A) (A) (A) (A) (A)
                 (A) (A) (A) (A) (A) (A) (A) (A) (A) (A) (A) (A)
                 (A) (A) (A) (A) (A) (A) (A) (A) (A) (A) (A) (A)
                 (A) (A) (A) (A) (A) (A) (A) (A) (A) (A) (A) (A)
 The electronic state of the initial guess is 1-A.
 Requested convergence on RMS density matrix=1.00D-08 within 128 cycles.
 Requested convergence on MAX density matrix=1.00D-06.
 Requested convergence on             energy=1.00D-06.
 No special actions if energy rises.
 SCF Done:  E(RB3LYP) =  -1297.93226472     A.U. after   13 cycles
             Convg  =    0.5785D-08             -V/T =  2.0086
 Range of M.O.s used for correlation:     1   547
 NBasis=   547 NAE=    91 NBE=    91 NFC=     0 NFV=     0
 NROrb=    547 NOA=    91 NOB=    91 NVA=   456 NVB=   456

 **** Warning!!: The largest alpha MO coefficient is  0.75135878D+02

          Differentiating once with respect to electric field.
                with respect to dipole field.
          Electric field/nuclear overlap derivatives assumed to be zero.
          There are     3 degrees of freedom in the 1st order CPHF.  IDoFFX=0.
      3 vectors produced by pass  0 Test12= 1.38D-12 3.33D-08 XBig12= 1.19D+02 1.38D+00.
 AX will form     3 AO Fock derivatives at one time.
      3 vectors produced by pass  1 Test12= 1.38D-12 3.33D-08 XBig12= 2.68D+01 4.92D-01.
      3 vectors produced by pass  2 Test12= 1.38D-12 3.33D-08 XBig12= 1.12D+01 2.65D-01.
      3 vectors produced by pass  3 Test12= 1.38D-12 3.33D-08 XBig12= 8.84D-01 8.41D-02.
      3 vectors produced by pass  4 Test12= 1.38D-12 3.33D-08 XBig12= 2.73D-01 6.52D-02.
      3 vectors produced by pass  5 Test12= 1.38D-12 3.33D-08 XBig12= 5.02D-02 2.00D-02.
      3 vectors produced by pass  6 Test12= 1.38D-12 3.33D-08 XBig12= 1.65D-02 1.28D-02.
      3 vectors produced by pass  7 Test12= 1.38D-12 3.33D-08 XBig12= 2.33D-03 7.60D-03.
      3 vectors produced by pass  8 Test12= 1.38D-12 3.33D-08 XBig12= 3.84D-04 2.26D-03.
      3 vectors produced by pass  9 Test12= 1.38D-12 3.33D-08 XBig12= 1.00D-04 1.45D-03.
      3 vectors produced by pass 10 Test12= 1.38D-12 3.33D-08 XBig12= 2.62D-05 5.57D-04.
      3 vectors produced by pass 11 Test12= 1.38D-12 3.33D-08 XBig12= 7.22D-06 3.41D-04.
      3 vectors produced by pass 12 Test12= 1.38D-12 3.33D-08 XBig12= 6.75D-07 1.21D-04.
      3 vectors produced by pass 13 Test12= 1.38D-12 3.33D-08 XBig12= 2.10D-07 4.99D-05.
      3 vectors produced by pass 14 Test12= 1.38D-12 3.33D-08 XBig12= 2.55D-08 2.00D-05.
      3 vectors produced by pass 15 Test12= 1.38D-12 3.33D-08 XBig12= 9.45D-09 6.72D-06.
      3 vectors produced by pass 16 Test12= 1.38D-12 3.33D-08 XBig12= 8.92D-10 3.17D-06.
      3 vectors produced by pass 17 Test12= 1.38D-12 3.33D-08 XBig12= 5.76D-11 6.47D-07.
      3 vectors produced by pass 18 Test12= 1.38D-12 3.33D-08 XBig12= 2.09D-11 3.53D-07.
      3 vectors produced by pass 19 Test12= 1.38D-12 3.33D-08 XBig12= 1.70D-11 2.98D-07.
      2 vectors produced by pass 20 Test12= 1.38D-12 3.33D-08 XBig12= 6.22D-12 1.91D-07.
      2 vectors produced by pass 21 Test12= 1.38D-12 3.33D-08 XBig12= 2.13D-12 1.05D-07.
      1 vectors produced by pass 22 Test12= 1.38D-12 3.33D-08 XBig12= 5.57D-13 4.98D-08.
 Inverted reduced A of dimension    65 with in-core refinement.
 End of Minotr Frequency-dependent properties file   721 does not exist.
 End of Minotr Frequency-dependent properties file   722 does not exist.
 Symmetrizing basis deriv contribution to polar:
 IMax=3 JMax=2 DiffMx= 0.00D+00
 G2DrvN: will do    23 centers at a time, making    2 passes doing MaxLOS=2.
 Calling FoFCou, ICntrl=  3107 FMM=F I1Cent=   0 AccDes= 0.00D+00.
 Calling FoFCou, ICntrl=  3107 FMM=F I1Cent=   0 AccDes= 0.00D+00.
 FoFDir/FoFCou used for L=0 through L=2.
 End of G2Drv Frequency-dependent properties file   721 does not exist.
 End of G2Drv Frequency-dependent properties file   722 does not exist.
          IDoAtm=111111111111111111111111111111111111111111111
          Differentiating once with respect to electric field.
                with respect to dipole field.
          Differentiating once with respect to nuclear coordinates.
          There are   138 degrees of freedom in the 1st order CPHF.  IDoFFX=5.
 Will reuse    3 saved solutions.
    135 vectors produced by pass  0 Test12= 4.15D-14 1.00D-09 XBig12= 2.35D-01 7.68D-02.
 AX will form    68 AO Fock derivatives at one time.
    135 vectors produced by pass  1 Test12= 4.15D-14 1.00D-09 XBig12= 3.70D-02 1.44D-02.
    132 vectors produced by pass  2 Test12= 4.15D-14 1.00D-09 XBig12= 2.63D-04 1.60D-03.
    132 vectors produced by pass  3 Test12= 4.15D-14 1.00D-09 XBig12= 1.15D-06 9.28D-05.
    132 vectors produced by pass  4 Test12= 4.15D-14 1.00D-09 XBig12= 1.82D-09 3.02D-06.
    132 vectors produced by pass  5 Test12= 4.15D-14 1.00D-09 XBig12= 7.13D-12 1.83D-07.
     80 vectors produced by pass  6 Test12= 4.15D-14 1.00D-09 XBig12= 2.63D-13 2.64D-08.
 Inverted reduced A of dimension   878 with in-core refinement.
 Isotropic polarizability for W=    0.000000      185.92 Bohr**3.
 End of Minotr Frequency-dependent properties file   721 does not exist.
 End of Minotr Frequency-dependent properties file   722 does not exist.

 **********************************************************************

            Population analysis using the SCF density.

 **********************************************************************

 Orbital symmetries:
       Occupied  (A) (A) (A) (A) (A) (A) (A) (A) (A) (A) (A) (A)
                 (A) (A) (A) (A) (A) (A) (A) (A) (A) (A) (A) (A)
                 (A) (A) (A) (A) (A) (A) (A) (A) (A) (A) (A) (A)
                 (A) (A) (A) (A) (A) (A) (A) (A) (A) (A) (A) (A)
                 (A) (A) (A) (A) (A) (A) (A) (A) (A) (A) (A) (A)
                 (A) (A) (A) (A) (A) (A) (A) (A) (A) (A) (A) (A)
                 (A) (A) (A) (A) (A) (A) (A) (A) (A) (A) (A) (A)
                 (A) (A) (A) (A) (A) (A) (A)
       Virtual   (A) (A) (A) (A) (A) (A) (A) (A) (A) (A) (A) (A)
                 (A) (A) (A) (A) (A) (A) (A) (A) (A) (A) (A) (A)
                 (A) (A) (A) (A) (A) (A) (A) (A) (A) (A) (A) (A)
                 (A) (A) (A) (A) (A) (A) (A) (A) (A) (A) (A) (A)
                 (A) (A) (A) (A) (A) (A) (A) (A) (A) (A) (A) (A)
                 (A) (A) (A) (A) (A) (A) (A) (A) (A) (A) (A) (A)
                 (A) (A) (A) (A) (A) (A) (A) (A) (A) (A) (A) (A)
                 (A) (A) (A) (A) (A) (A) (A) (A) (A) (A) (A) (A)
                 (A) (A) (A) (A) (A) (A) (A) (A) (A) (A) (A) (A)
                 (A) (A) (A) (A) (A) (A) (A) (A) (A) (A) (A) (A)
                 (A) (A) (A) (A) (A) (A) (A) (A) (A) (A) (A) (A)
                 (A) (A) (A) (A) (A) (A) (A) (A) (A) (A) (A) (A)
                 (A) (A) (A) (A) (A) (A) (A) (A) (A) (A) (A) (A)
                 (A) (A) (A) (A) (A) (A) (A) (A) (A) (A) (A) (A)
                 (A) (A) (A) (A) (A) (A) (A) (A) (A) (A) (A) (A)
                 (A) (A) (A) (A) (A) (A) (A) (A) (A) (A) (A) (A)
                 (A) (A) (A) (A) (A) (A) (A) (A) (A) (A) (A) (A)
                 (A) (A) (A) (A) (A) (A) (A) (A) (A) (A) (A) (A)
                 (A) (A) (A) (A) (A) (A) (A) (A) (A) (A) (A) (A)
                 (A) (A) (A) (A) (A) (A) (A) (A) (A) (A) (A) (A)
                 (A) (A) (A) (A) (A) (A) (A) (A) (A) (A) (A) (A)
                 (A) (A) (A) (A) (A) (A) (A) (A) (A) (A) (A) (A)
                 (A) (A) (A) (A) (A) (A) (A) (A) (A) (A) (A) (A)
                 (A) (A) (A) (A) (A) (A) (A) (A) (A) (A) (A) (A)
                 (A) (A) (A) (A) (A) (A) (A) (A) (A) (A) (A) (A)
                 (A) (A) (A) (A) (A) (A) (A) (A) (A) (A) (A) (A)
                 (A) (A) (A) (A) (A) (A) (A) (A) (A) (A) (A) (A)
                 (A) (A) (A) (A) (A) (A) (A) (A) (A) (A) (A) (A)
                 (A) (A) (A) (A) (A) (A) (A) (A) (A) (A) (A) (A)
                 (A) (A) (A) (A) (A) (A) (A) (A) (A) (A) (A) (A)
                 (A) (A) (A) (A) (A) (A) (A) (A) (A) (A) (A) (A)
                 (A) (A) (A) (A) (A) (A) (A) (A) (A) (A) (A) (A)
                 (A) (A) (A) (A) (A) (A) (A) (A) (A) (A) (A) (A)
                 (A) (A) (A) (A) (A) (A) (A) (A) (A) (A) (A) (A)
                 (A) (A) (A) (A) (A) (A) (A) (A) (A) (A) (A) (A)
                 (A) (A) (A) (A) (A) (A) (A) (A) (A) (A) (A) (A)
                 (A) (A) (A) (A) (A) (A) (A) (A) (A) (A) (A) (A)
                 (A) (A) (A) (A) (A) (A) (A) (A) (A) (A) (A) (A)
 The electronic state is 1-A.
 Alpha  occ. eigenvalues --  -19.20550 -19.19572 -19.19222 -19.19132 -19.18245
 Alpha  occ. eigenvalues --  -19.18018 -19.16888 -19.16846 -19.16562 -19.16324
 Alpha  occ. eigenvalues --  -19.15389 -10.31527 -10.31249 -10.26624 -10.26173
 Alpha  occ. eigenvalues --  -10.25872 -10.25815 -10.25559 -10.25485 -10.25376
 Alpha  occ. eigenvalues --  -10.25256 -10.25118 -10.24789  -1.11600  -1.09358
 Alpha  occ. eigenvalues --   -1.06027  -1.05239  -1.04553  -1.03519  -1.03391
 Alpha  occ. eigenvalues --   -1.02894  -1.02466  -1.01820  -1.01289  -0.82342
 Alpha  occ. eigenvalues --   -0.80857  -0.79125  -0.78593  -0.72083  -0.70746
 Alpha  occ. eigenvalues --   -0.67785  -0.65831  -0.63551  -0.62768  -0.61944
 Alpha  occ. eigenvalues --   -0.60983  -0.56963  -0.56271  -0.54924  -0.54728
 Alpha  occ. eigenvalues --   -0.54379  -0.53662  -0.53388  -0.52717  -0.51925
 Alpha  occ. eigenvalues --   -0.50835  -0.50268  -0.49523  -0.49267  -0.46758
 Alpha  occ. eigenvalues --   -0.46153  -0.45446  -0.45127  -0.44260  -0.43978
 Alpha  occ. eigenvalues --   -0.43148  -0.43032  -0.41555  -0.40699  -0.40504
 Alpha  occ. eigenvalues --   -0.38654  -0.38096  -0.37225  -0.37027  -0.36071
 Alpha  occ. eigenvalues --   -0.35527  -0.35016  -0.34810  -0.34707  -0.34381
 Alpha  occ. eigenvalues --   -0.33485  -0.32636  -0.31699  -0.30754  -0.30269
 Alpha  occ. eigenvalues --   -0.29898  -0.29111  -0.28557  -0.28204  -0.27116
 Alpha  occ. eigenvalues --   -0.26543
 Alpha virt. eigenvalues --   -0.02250  -0.02031  -0.01723  -0.00549   0.00233
 Alpha virt. eigenvalues --    0.00801   0.01960   0.02520   0.02797   0.03413
 Alpha virt. eigenvalues --    0.03760   0.04359   0.04484   0.05443   0.05651
 Alpha virt. eigenvalues --    0.06063   0.06297   0.06862   0.07880   0.08028
 Alpha virt. eigenvalues --    0.08199   0.08742   0.09307   0.09448   0.10213
 Alpha virt. eigenvalues --    0.10373   0.10802   0.11660   0.11757   0.12210
 Alpha virt. eigenvalues --    0.12446   0.12576   0.12894   0.13446   0.13646
 Alpha virt. eigenvalues --    0.13937   0.14088   0.14334   0.14725   0.15064
 Alpha virt. eigenvalues --    0.15300   0.16211   0.16731   0.16873   0.16943
 Alpha virt. eigenvalues --    0.17134   0.17420   0.17906   0.18251   0.18375
 Alpha virt. eigenvalues --    0.18645   0.18924   0.19169   0.19442   0.19795
 Alpha virt. eigenvalues --    0.20467   0.20681   0.21169   0.21309   0.21783
 Alpha virt. eigenvalues --    0.21937   0.21980   0.22431   0.22764   0.23065
 Alpha virt. eigenvalues --    0.23406   0.23475   0.23857   0.24163   0.24359
 Alpha virt. eigenvalues --    0.24396   0.24906   0.25622   0.25751   0.25971
 Alpha virt. eigenvalues --    0.26313   0.26695   0.26775   0.27154   0.27216
 Alpha virt. eigenvalues --    0.27632   0.27931   0.28117   0.28330   0.28420
 Alpha virt. eigenvalues --    0.28917   0.29365   0.29813   0.30195   0.30546
 Alpha virt. eigenvalues --    0.30937   0.31251   0.31416   0.31723   0.32174
 Alpha virt. eigenvalues --    0.32472   0.32790   0.32979   0.33241   0.33733
 Alpha virt. eigenvalues --    0.34142   0.34806   0.34991   0.35575   0.36118
 Alpha virt. eigenvalues --    0.36166   0.36441   0.36632   0.37202   0.37798
 Alpha virt. eigenvalues --    0.37962   0.38176   0.38386   0.38559   0.39647
 Alpha virt. eigenvalues --    0.40059   0.40636   0.40747   0.41267   0.41381
 Alpha virt. eigenvalues --    0.41977   0.42276   0.42875   0.43615   0.43964
 Alpha virt. eigenvalues --    0.44318   0.44786   0.45437   0.46242   0.46546
 Alpha virt. eigenvalues --    0.47406   0.47760   0.48180   0.49207   0.50262
 Alpha virt. eigenvalues --    0.50684   0.52542   0.55027   0.63106   0.64779
 Alpha virt. eigenvalues --    0.65330   0.66803   0.67002   0.68146   0.69508
 Alpha virt. eigenvalues --    0.71067   0.71840   0.71941   0.73409   0.73669
 Alpha virt. eigenvalues --    0.74425   0.75363   0.76646   0.77406   0.78840
 Alpha virt. eigenvalues --    0.79558   0.80020   0.81140   0.81565   0.83386
 Alpha virt. eigenvalues --    0.83771   0.84411   0.87601   0.88178   0.88789
 Alpha virt. eigenvalues --    0.90114   0.91469   0.92612   0.92986   0.94283
 Alpha virt. eigenvalues --    0.96241   0.96697   0.97449   0.98520   0.99575
 Alpha virt. eigenvalues --    1.01204   1.01509   1.02706   1.03363   1.03805
 Alpha virt. eigenvalues --    1.04307   1.05467   1.05883   1.06769   1.07503
 Alpha virt. eigenvalues --    1.07940   1.08152   1.08590   1.09881   1.10280
 Alpha virt. eigenvalues --    1.10975   1.11750   1.11814   1.13351   1.15063
 Alpha virt. eigenvalues --    1.15474   1.17944   1.18772   1.20752   1.21100
 Alpha virt. eigenvalues --    1.21809   1.22313   1.23238   1.23851   1.24757
 Alpha virt. eigenvalues --    1.24935   1.26084   1.27065   1.27912   1.28501
 Alpha virt. eigenvalues --    1.28909   1.29374   1.30268   1.30558   1.31418
 Alpha virt. eigenvalues --    1.31930   1.33388   1.33675   1.34701   1.34954
 Alpha virt. eigenvalues --    1.35804   1.36234   1.36645   1.36767   1.37909
 Alpha virt. eigenvalues --    1.38213   1.40635   1.41095   1.42101   1.42251
 Alpha virt. eigenvalues --    1.43910   1.45255   1.46199   1.47664   1.48259
 Alpha virt. eigenvalues --    1.48904   1.49839   1.51436   1.51716   1.52723
 Alpha virt. eigenvalues --    1.53997   1.56055   1.56601   1.57040   1.57992
 Alpha virt. eigenvalues --    1.58650   1.59175   1.59741   1.60575   1.61167
 Alpha virt. eigenvalues --    1.62958   1.63249   1.63486   1.64227   1.64713
 Alpha virt. eigenvalues --    1.65195   1.65368   1.66838   1.67751   1.68730
 Alpha virt. eigenvalues --    1.69587   1.70614   1.71299   1.72000   1.72319
 Alpha virt. eigenvalues --    1.72699   1.74584   1.75735   1.76037   1.76576
 Alpha virt. eigenvalues --    1.77781   1.78442   1.79825   1.81073   1.81895
 Alpha virt. eigenvalues --    1.82354   1.82713   1.84554   1.85649   1.86683
 Alpha virt. eigenvalues --    1.87738   1.89049   1.89255   1.90087   1.90525
 Alpha virt. eigenvalues --    1.92304   1.93031   1.93357   1.93750   1.94629
 Alpha virt. eigenvalues --    1.95910   1.96462   1.97178   1.98555   1.98934
 Alpha virt. eigenvalues --    1.99382   2.00538   2.01096   2.01781   2.02241
 Alpha virt. eigenvalues --    2.03423   2.04790   2.04865   2.06103   2.07690
 Alpha virt. eigenvalues --    2.07985   2.08984   2.10239   2.10768   2.11710
 Alpha virt. eigenvalues --    2.12512   2.13647   2.15330   2.16407   2.17251
 Alpha virt. eigenvalues --    2.17823   2.18730   2.20320   2.20853   2.21976
 Alpha virt. eigenvalues --    2.22783   2.23613   2.25306   2.26022   2.26701
 Alpha virt. eigenvalues --    2.28700   2.31244   2.31921   2.32843   2.34034
 Alpha virt. eigenvalues --    2.35479   2.36453   2.37454   2.38694   2.38999
 Alpha virt. eigenvalues --    2.40430   2.41480   2.42583   2.43556   2.44080
 Alpha virt. eigenvalues --    2.44715   2.45476   2.47100   2.47434   2.49064
 Alpha virt. eigenvalues --    2.49714   2.50523   2.51306   2.53274   2.54886
 Alpha virt. eigenvalues --    2.56430   2.56731   2.58354   2.58821   2.60276
 Alpha virt. eigenvalues --    2.60919   2.61884   2.63051   2.63613   2.64860
 Alpha virt. eigenvalues --    2.65462   2.66294   2.67411   2.68366   2.69063
 Alpha virt. eigenvalues --    2.70633   2.71326   2.72299   2.72684   2.75124
 Alpha virt. eigenvalues --    2.75448   2.76498   2.77028   2.78254   2.79685
 Alpha virt. eigenvalues --    2.80749   2.82083   2.83130   2.84480   2.85218
 Alpha virt. eigenvalues --    2.85877   2.86963   2.87784   2.89490   2.89991
 Alpha virt. eigenvalues --    2.90475   2.91366   2.92058   2.92643   2.93252
 Alpha virt. eigenvalues --    2.94374   2.95369   2.96621   2.98565   2.99660
 Alpha virt. eigenvalues --    3.00429   3.01409   3.03269   3.04240   3.05880
 Alpha virt. eigenvalues --    3.06935   3.07659   3.09351   3.11604   3.12800
 Alpha virt. eigenvalues --    3.15376   3.18014   3.23240   3.25716   3.29278
 Alpha virt. eigenvalues --    3.32965   3.36770   3.38368   3.39980   3.41041
 Alpha virt. eigenvalues --    3.42358   3.45554   3.46223   3.46655   3.48394
 Alpha virt. eigenvalues --    3.48862   3.49869   3.52246   3.53602   3.54016
 Alpha virt. eigenvalues --    3.55428   3.56290   3.59902   3.60604   3.64589
 Alpha virt. eigenvalues --    3.65294   3.69486   3.71163   4.29160   4.33910
 Alpha virt. eigenvalues --    4.34349   4.36775   4.37239   4.40693   4.42947
 Alpha virt. eigenvalues --    4.45648   4.47867   4.50883   4.52707   4.55631
 Alpha virt. eigenvalues --    4.57406   4.60863   4.61818   4.64254   4.72013
 Alpha virt. eigenvalues --    4.73161   4.80131   4.86175   4.87493   4.90273
 Alpha virt. eigenvalues --    4.93561
          Condensed to atoms (all electrons):
              1          2          3          4          5          6
     1  O    8.241968   0.331982  -0.093813  -0.027609   0.040432   0.088988
     2  C    0.331982  10.027168  -1.905407   0.059797  -0.066278  -2.800409
     3  C   -0.093813  -1.905407   8.970677   0.182175   0.005995   0.357114
     4  O   -0.027609   0.059797   0.182175   8.230966   0.190883  -0.147588
     5  H    0.040432  -0.066278   0.005995   0.190883   0.438238   0.012474
     6  C    0.088988  -2.800409   0.357114  -0.147588   0.012474  13.747717
     7  O   -0.000483   0.047959  -0.182544   0.005103  -0.000583   0.284294
     8  H    0.000025  -0.012710   0.029884  -0.000357   0.000013   0.040947
     9  C    0.012431   0.009021  -0.120258   0.011725  -0.005539   0.544070
    10  O   -0.020772  -0.048015   0.022873  -0.000136   0.000042  -0.012519
    11  H    0.001226   0.001475  -0.002758   0.000000   0.000000   0.000173
    12  C   -0.263518  -1.357229  -0.362070  -0.023214   0.038326   0.299541
    13  O    0.004619  -0.057887   0.008471  -0.000353   0.000352  -0.059987
    14  C   -0.002103   1.191763  -0.452530   0.042247   0.004149  -4.500150
    15  O    0.000720  -0.028436  -0.018331  -0.000965   0.000100   0.177570
    16  C    0.002582   0.129963  -0.380223   0.000302   0.001678  -1.319665
    17  C   -0.000011   0.008518  -0.021636   0.001219   0.000103   0.021279
    18  O    0.000058   0.008407  -0.002340  -0.000015   0.000000  -0.005329
    19  H   -0.000041  -0.005246   0.006326  -0.000006   0.000000   0.008118
    20  C    0.000089   0.010745  -0.023770   0.000043   0.000003   0.001250
    21  O    0.000000   0.000070  -0.000013   0.000000   0.000000   0.000003
    22  H    0.000000   0.000000   0.000002   0.000000   0.000000  -0.000072
    23  C    0.000145   0.020609  -0.056125   0.000981  -0.000017  -0.582402
    24  O    0.000006   0.002584  -0.006010  -0.000029  -0.000003   0.007474
    25  H    0.000000   0.000048  -0.000019   0.000001   0.000000  -0.007766
    26  C   -0.000575  -0.027759  -0.013297  -0.000127   0.000008   0.128263
    27  O    0.000000  -0.000213   0.001338   0.000001   0.000000   0.001474
    28  C   -0.000001  -0.002639   0.006288  -0.000017   0.000000   0.038559
    29  O    0.000000  -0.000006   0.000041   0.000000   0.000000  -0.000436
    30  H    0.000000   0.000000   0.000000   0.000000   0.000000  -0.000005
    31  H    0.000000   0.000001   0.000014   0.000000   0.000000   0.000261
    32  H    0.000000   0.000045   0.000087   0.000000   0.000000   0.000623
    33  H    0.000000   0.000171   0.000954   0.000000   0.000000   0.002315
    34  H   -0.000005   0.001471   0.005804   0.000000   0.000000   0.011382
    35  H    0.000000   0.000117   0.000721   0.000000   0.000000  -0.000521
    36  H    0.000000   0.000025  -0.000170   0.000000   0.000000  -0.000494
    37  H    0.000000  -0.000078   0.001861   0.000004   0.000000  -0.005820
    38  H    0.248833   0.026138  -0.008585   0.002093  -0.004120  -0.009205
    39  H   -0.000340  -0.005428  -0.004011   0.000020   0.000001  -0.008670
    40  H    0.003698  -0.023853   0.002683  -0.000002  -0.000002   0.021854
    41  H    0.008286   0.022417  -0.031021   0.000178  -0.000034  -0.028735
    42  H   -0.048526   0.473280  -0.146023   0.003282  -0.002585  -0.005942
    43  H   -0.007912   0.197533   0.211750  -0.040042  -0.002250  -0.345891
    44  H   -0.000931   0.071444  -0.191106   0.005118   0.000039   0.261868
    45  H    0.000039   0.023782  -0.043808  -0.000360   0.000007  -0.081864
              7          8          9         10         11         12
     1  O   -0.000483   0.000025   0.012431  -0.020772   0.001226  -0.263518
     2  C    0.047959  -0.012710   0.009021  -0.048015   0.001475  -1.357229
     3  C   -0.182544   0.029884  -0.120258   0.022873  -0.002758  -0.362070
     4  O    0.005103  -0.000357   0.011725  -0.000136   0.000000  -0.023214
     5  H   -0.000583   0.000013  -0.005539   0.000042   0.000000   0.038326
     6  C    0.284294   0.040947   0.544070  -0.012519   0.000173   0.299541
     7  O    8.168417   0.193596  -0.003665   0.000012   0.000000   0.014426
     8  H    0.193596   0.382186   0.000732   0.000000   0.000000   0.001338
     9  C   -0.003665   0.000732   7.590148   0.038051  -0.003553  -2.154922
    10  O    0.000012   0.000000   0.038051   8.361758   0.194150   0.113319
    11  H    0.000000   0.000000  -0.003553   0.194150   0.433654   0.028408
    12  C    0.014426   0.001338  -2.154922   0.113319   0.028408  11.283441
    13  O    0.006054   0.000585   0.082393  -0.005660   0.000115  -0.202232
    14  C   -0.072598  -0.027249  -0.676224   0.024533  -0.006543  -1.172944
    15  O   -0.014021   0.024213  -0.012355   0.000119   0.000010   0.029831
    16  C    0.069278  -0.005608  -0.252038  -0.003810   0.000059  -0.102503
    17  C    0.002073   0.001335  -0.038117   0.000332  -0.000040  -0.257513
    18  O   -0.000087  -0.000030   0.002962  -0.000041   0.000026   0.003474
    19  H   -0.000057  -0.000011  -0.006967   0.000034  -0.000003   0.003988
    20  C    0.004541   0.000156  -0.001574   0.000048   0.000013  -0.014399
    21  O   -0.000007   0.000000   0.000066   0.000000   0.000000   0.000137
    22  H    0.000000   0.000000  -0.000012   0.000000   0.000000   0.000072
    23  C    0.022500  -0.028616  -0.006315  -0.000036   0.000000  -0.000343
    24  O   -0.002239   0.020462  -0.000104   0.000000   0.000000  -0.005398
    25  H    0.000569  -0.003838  -0.000007   0.000000   0.000000  -0.000176
    26  C   -0.030912  -0.011159   0.001386  -0.000082   0.000009   0.188683
    27  O   -0.000011   0.000073  -0.000085   0.000000   0.000000   0.000654
    28  C   -0.000845   0.000911  -0.000975  -0.000003  -0.000001  -0.008487
    29  O   -0.000005   0.000000   0.000003   0.000000   0.000000   0.000200
    30  H    0.000000   0.000000   0.000000   0.000000   0.000000   0.000001
    31  H    0.000000   0.000000   0.000000   0.000000   0.000000   0.000007
    32  H    0.000000   0.000000  -0.000036   0.000000   0.000000   0.000556
    33  H   -0.000035   0.000006   0.000132   0.000000   0.000000   0.003426
    34  H   -0.001801   0.000224  -0.002151   0.000003   0.000000   0.008227
    35  H   -0.000174   0.000133   0.000002   0.000000   0.000000   0.000638
    36  H   -0.000284   0.000408  -0.000006   0.000000   0.000000  -0.000160
    37  H    0.000037   0.002120  -0.000011   0.000000   0.000000   0.001667
    38  H   -0.000012   0.000000  -0.016919   0.001353  -0.000046   0.007227
    39  H   -0.000006   0.000000   0.386446  -0.050996  -0.008613  -0.016760
    40  H   -0.000002   0.000000   0.641344  -0.063867  -0.004019  -0.294963
    41  H    0.000399   0.000008  -0.004046   0.004636  -0.000117   0.143493
    42  H    0.000293   0.000004   0.012618  -0.000014  -0.000002  -0.127363
    43  H    0.006849  -0.000077   0.018263   0.000084   0.000000  -0.047866
    44  H   -0.034837  -0.007923   0.008612   0.000021   0.000000   0.010308
    45  H    0.004723  -0.000787   0.002171   0.000124   0.000001  -0.013519
             13         14         15         16         17         18
     1  O    0.004619  -0.002103   0.000720   0.002582  -0.000011   0.000058
     2  C   -0.057887   1.191763  -0.028436   0.129963   0.008518   0.008407
     3  C    0.008471  -0.452530  -0.018331  -0.380223  -0.021636  -0.002340
     4  O   -0.000353   0.042247  -0.000965   0.000302   0.001219  -0.000015
     5  H    0.000352   0.004149   0.000100   0.001678   0.000103   0.000000
     6  C   -0.059987  -4.500150   0.177570  -1.319665   0.021279  -0.005329
     7  O    0.006054  -0.072598  -0.014021   0.069278   0.002073  -0.000087
     8  H    0.000585  -0.027249   0.024213  -0.005608   0.001335  -0.000030
     9  C    0.082393  -0.676224  -0.012355  -0.252038  -0.038117   0.002962
    10  O   -0.005660   0.024533   0.000119  -0.003810   0.000332  -0.000041
    11  H    0.000115  -0.006543   0.000010   0.000059  -0.000040   0.000026
    12  C   -0.202232  -1.172944   0.029831  -0.102503  -0.257513   0.003474
    13  O    8.478614   0.270332  -0.034314  -0.038395   0.004780   0.022602
    14  C    0.270332  13.791204   0.137665  -1.365375  -0.335348  -0.041578
    15  O   -0.034314   0.137665   8.293159  -0.034734  -0.084402  -0.009089
    16  C   -0.038395  -1.365375  -0.034734  15.990132  -1.660361  -0.206279
    17  C    0.004780  -0.335348  -0.084402  -1.660361   8.689703   0.440547
    18  O    0.022602  -0.041578  -0.009089  -0.206279   0.440547   8.197361
    19  H    0.014925  -0.011601   0.024100  -0.057137   0.017862   0.181204
    20  C   -0.008728  -0.705690   0.004983  -1.519564  -0.719568  -0.134930
    21  O    0.000094  -0.003601   0.000522  -0.004380  -0.089791   0.005898
    22  H    0.000000  -0.000300   0.000034  -0.012860   0.017020  -0.000399
    23  C    0.028996  -0.422780  -0.043221  -0.050694  -0.419736   0.010514
    24  O   -0.004385   0.088906  -0.024394  -0.054965   0.004733   0.000179
    25  H    0.000027  -0.006729   0.000722  -0.002874  -0.000523   0.000000
    26  C   -0.008993  -1.019326   0.035779  -5.169506  -0.242518   0.080439
    27  O    0.000686   0.011507   0.009821  -0.051495  -0.035996   0.000706
    28  C    0.001063   0.208513   0.021899   1.150904   0.555500   0.006526
    29  O    0.000023   0.001668   0.000286  -0.015998   0.025696   0.000047
    30  H    0.000000   0.000225   0.000001  -0.004820  -0.002581  -0.000021
    31  H    0.000005   0.007271   0.000190   0.155405   0.002387  -0.000766
    32  H    0.000264   0.006910  -0.000685   0.125618  -0.120564   0.001891
    33  H    0.002257   0.077704  -0.007272   0.043716   0.360209  -0.046244
    34  H    0.000933   0.046870  -0.066235   0.338392  -0.003577  -0.002916
    35  H   -0.000142   0.067421   0.005087   0.057433  -0.015955  -0.000093
    36  H   -0.000013   0.002475  -0.000291   0.038781   0.000246   0.000030
    37  H    0.000503   0.018487   0.006265  -0.056084  -0.002569   0.000000
    38  H   -0.000786   0.007841  -0.000015   0.000551  -0.000051   0.000000
    39  H    0.001286   0.015907  -0.000306   0.013286   0.000332  -0.001962
    40  H    0.006370   0.008049   0.000026  -0.008855   0.001539   0.000491
    41  H   -0.054804   0.154915   0.001975   0.011309   0.008930   0.000203
    42  H    0.002675   0.072927  -0.000469   0.000443   0.001690   0.000018
    43  H    0.004331   0.205318  -0.001017   0.018585   0.001508   0.000026
    44  H    0.009973   0.055369  -0.011996   0.064316   0.004046   0.000083
    45  H   -0.062582   0.271542  -0.053078   0.091876   0.036140  -0.001015
             19         20         21         22         23         24
     1  O   -0.000041   0.000089   0.000000   0.000000   0.000145   0.000006
     2  C   -0.005246   0.010745   0.000070   0.000000   0.020609   0.002584
     3  C    0.006326  -0.023770  -0.000013   0.000002  -0.056125  -0.006010
     4  O   -0.000006   0.000043   0.000000   0.000000   0.000981  -0.000029
     5  H    0.000000   0.000003   0.000000   0.000000  -0.000017  -0.000003
     6  C    0.008118   0.001250   0.000003  -0.000072  -0.582402   0.007474
     7  O   -0.000057   0.004541  -0.000007   0.000000   0.022500  -0.002239
     8  H   -0.000011   0.000156   0.000000   0.000000  -0.028616   0.020462
     9  C   -0.006967  -0.001574   0.000066  -0.000012  -0.006315  -0.000104
    10  O    0.000034   0.000048   0.000000   0.000000  -0.000036   0.000000
    11  H   -0.000003   0.000013   0.000000   0.000000   0.000000   0.000000
    12  C    0.003988  -0.014399   0.000137   0.000072  -0.000343  -0.005398
    13  O    0.014925  -0.008728   0.000094   0.000000   0.028996  -0.004385
    14  C   -0.011601  -0.705690  -0.003601  -0.000300  -0.422780   0.088906
    15  O    0.024100   0.004983   0.000522   0.000034  -0.043221  -0.024394
    16  C   -0.057137  -1.519564  -0.004380  -0.012860  -0.050694  -0.054965
    17  C    0.017862  -0.719568  -0.089791   0.017020  -0.419736   0.004733
    18  O    0.181204  -0.134930   0.005898  -0.000399   0.010514   0.000179
    19  H    0.377334   0.032637  -0.000496   0.000013  -0.002746   0.000060
    20  C    0.032637   9.317623   0.163898   0.002244   0.356340  -0.004106
    21  O   -0.000496   0.163898   8.264042   0.209016   0.004434   0.000006
    22  H    0.000013   0.002244   0.209016   0.430029   0.000390   0.000001
    23  C   -0.002746   0.356340   0.004434   0.000390   8.321908  -0.267645
    24  O    0.000060  -0.004106   0.000006   0.000001  -0.267645   8.433465
    25  H    0.000000   0.001112   0.000000   0.000000   0.068495   0.210167
    26  C    0.017500   1.436096   0.009873   0.010244  -1.357634   0.306047
    27  O    0.000180  -0.259646   0.012936   0.000022  -0.066566   0.004071
    28  C   -0.004987  -1.911949  -0.040211  -0.011006  -0.617025   0.009248
    29  O    0.000010  -0.180807   0.004757   0.017724  -0.009991   0.000189
    30  H    0.000000   0.005421  -0.002771  -0.001613   0.001713  -0.000001
    31  H    0.000005  -0.181998   0.002666  -0.000832  -0.018324  -0.000261
    32  H   -0.000028   0.294349  -0.037184  -0.009337   0.007426  -0.000027
    33  H   -0.006026  -0.138617   0.000726  -0.000078   0.011920  -0.000123
    34  H   -0.000706  -0.016680  -0.000537   0.000009  -0.013901  -0.000317
    35  H    0.000011  -0.078787   0.000278   0.000007   0.010680  -0.000303
    36  H    0.000000  -0.001310  -0.000004   0.000000   0.426634  -0.037686
    37  H    0.000000  -0.006000   0.000005   0.000000   0.513585  -0.087813
    38  H    0.000000   0.000002   0.000000   0.000000   0.000010   0.000000
    39  H    0.000591  -0.001536  -0.000002   0.000000   0.000034   0.000000
    40  H   -0.000293   0.000336   0.000000   0.000000  -0.000019   0.000000
    41  H    0.000313   0.001175   0.000000   0.000000   0.000694   0.000003
    42  H    0.000006   0.000036   0.000000   0.000000   0.000132   0.000004
    43  H   -0.000003   0.000074   0.000000   0.000000   0.001462   0.000035
    44  H   -0.000023   0.001209   0.000000   0.000000   0.014337   0.001215
    45  H    0.000040   0.015545   0.000008   0.000000   0.019677   0.000370
             25         26         27         28         29         30
     1  O    0.000000  -0.000575   0.000000  -0.000001   0.000000   0.000000
     2  C    0.000048  -0.027759  -0.000213  -0.002639  -0.000006   0.000000
     3  C   -0.000019  -0.013297   0.001338   0.006288   0.000041   0.000000
     4  O    0.000001  -0.000127   0.000001  -0.000017   0.000000   0.000000
     5  H    0.000000   0.000008   0.000000   0.000000   0.000000   0.000000
     6  C   -0.007766   0.128263   0.001474   0.038559  -0.000436  -0.000005
     7  O    0.000569  -0.030912  -0.000011  -0.000845  -0.000005   0.000000
     8  H   -0.003838  -0.011159   0.000073   0.000911   0.000000   0.000000
     9  C   -0.000007   0.001386  -0.000085  -0.000975   0.000003   0.000000
    10  O    0.000000  -0.000082   0.000000  -0.000003   0.000000   0.000000
    11  H    0.000000   0.000009   0.000000  -0.000001   0.000000   0.000000
    12  C   -0.000176   0.188683   0.000654  -0.008487   0.000200   0.000001
    13  O    0.000027  -0.008993   0.000686   0.001063   0.000023   0.000000
    14  C   -0.006729  -1.019326   0.011507   0.208513   0.001668   0.000225
    15  O    0.000722   0.035779   0.009821   0.021899   0.000286   0.000001
    16  C   -0.002874  -5.169506  -0.051495   1.150904  -0.015998  -0.004820
    17  C   -0.000523  -0.242518  -0.035996   0.555500   0.025696  -0.002581
    18  O    0.000000   0.080439   0.000706   0.006526   0.000047  -0.000021
    19  H    0.000000   0.017500   0.000180  -0.004987   0.000010   0.000000
    20  C    0.001112   1.436096  -0.259646  -1.911949  -0.180807   0.005421
    21  O    0.000000   0.009873   0.012936  -0.040211   0.004757  -0.002771
    22  H    0.000000   0.010244   0.000022  -0.011006   0.017724  -0.001613
    23  C    0.068495  -1.357634  -0.066566  -0.617025  -0.009991   0.001713
    24  O    0.210167   0.306047   0.004071   0.009248   0.000189  -0.000001
    25  H    0.404766  -0.034979  -0.000560  -0.003202   0.000001   0.000000
    26  C   -0.034979  13.451988   0.295979  -1.508097  -0.074967   0.016959
    27  O   -0.000560   0.295979   8.386838   0.139739  -0.050219   0.000274
    28  C   -0.003202  -1.508097   0.139739   6.847298   0.461926  -0.008349
    29  O    0.000001  -0.074967  -0.050219   0.461926   8.199782   0.228774
    30  H    0.000000   0.016959   0.000274  -0.008349   0.228774   0.409866
    31  H    0.000000  -0.144306  -0.051976   0.516259  -0.055925  -0.006751
    32  H    0.000000  -0.047537   0.006931   0.015527  -0.002592   0.000005
    33  H    0.000000  -0.087518   0.003474   0.012949  -0.000236   0.000005
    34  H   -0.000004  -0.097315   0.004168   0.016529  -0.000236   0.000001
    35  H    0.000087   0.165108  -0.042043   0.064236   0.000421   0.000009
    36  H   -0.010411  -0.095627  -0.003699   0.007132  -0.000513   0.000000
    37  H   -0.001230  -0.120728   0.006875   0.006488   0.000103   0.000000
    38  H    0.000000  -0.000015   0.000000   0.000000   0.000000   0.000000
    39  H    0.000000   0.000314   0.000001   0.000086   0.000000   0.000000
    40  H    0.000000  -0.000141   0.000000  -0.000006   0.000000   0.000000
    41  H    0.000000  -0.002479  -0.000003  -0.000039   0.000000   0.000000
    42  H    0.000000   0.000180   0.000000  -0.000002   0.000000   0.000000
    43  H    0.000000  -0.000486   0.000000  -0.000018   0.000000   0.000000
    44  H    0.000016  -0.011740   0.000008  -0.000269   0.000000   0.000000
    45  H    0.000004   0.007347  -0.000001  -0.003110  -0.000002   0.000000
             31         32         33         34         35         36
     1  O    0.000000   0.000000   0.000000  -0.000005   0.000000   0.000000
     2  C    0.000001   0.000045   0.000171   0.001471   0.000117   0.000025
     3  C    0.000014   0.000087   0.000954   0.005804   0.000721  -0.000170
     4  O    0.000000   0.000000   0.000000   0.000000   0.000000   0.000000
     5  H    0.000000   0.000000   0.000000   0.000000   0.000000   0.000000
     6  C    0.000261   0.000623   0.002315   0.011382  -0.000521  -0.000494
     7  O    0.000000   0.000000  -0.000035  -0.001801  -0.000174  -0.000284
     8  H    0.000000   0.000000   0.000006   0.000224   0.000133   0.000408
     9  C    0.000000  -0.000036   0.000132  -0.002151   0.000002  -0.000006
    10  O    0.000000   0.000000   0.000000   0.000003   0.000000   0.000000
    11  H    0.000000   0.000000   0.000000   0.000000   0.000000   0.000000
    12  C    0.000007   0.000556   0.003426   0.008227   0.000638  -0.000160
    13  O    0.000005   0.000264   0.002257   0.000933  -0.000142  -0.000013
    14  C    0.007271   0.006910   0.077704   0.046870   0.067421   0.002475
    15  O    0.000190  -0.000685  -0.007272  -0.066235   0.005087  -0.000291
    16  C    0.155405   0.125618   0.043716   0.338392   0.057433   0.038781
    17  C    0.002387  -0.120564   0.360209  -0.003577  -0.015955   0.000246
    18  O   -0.000766   0.001891  -0.046244  -0.002916  -0.000093   0.000030
    19  H    0.000005  -0.000028  -0.006026  -0.000706   0.000011   0.000000
    20  C   -0.181998   0.294349  -0.138617  -0.016680  -0.078787  -0.001310
    21  O    0.002666  -0.037184   0.000726  -0.000537   0.000278  -0.000004
    22  H   -0.000832  -0.009337  -0.000078   0.000009   0.000007   0.000000
    23  C   -0.018324   0.007426   0.011920  -0.013901   0.010680   0.426634
    24  O   -0.000261  -0.000027  -0.000123  -0.000317  -0.000303  -0.037686
    25  H    0.000000   0.000000   0.000000  -0.000004   0.000087  -0.010411
    26  C   -0.144306  -0.047537  -0.087518  -0.097315   0.165108  -0.095627
    27  O   -0.051976   0.006931   0.003474   0.004168  -0.042043  -0.003699
    28  C    0.516259   0.015527   0.012949   0.016529   0.064236   0.007132
    29  O   -0.055925  -0.002592  -0.000236  -0.000236   0.000421  -0.000513
    30  H   -0.006751   0.000005   0.000005   0.000001   0.000009   0.000000
    31  H    0.629956   0.005199   0.001988   0.000008   0.009234  -0.000019
    32  H    0.005199   0.590503   0.006387   0.002269   0.000162   0.000002
    33  H    0.001988   0.006387   0.602165   0.005976   0.003338   0.000003
    34  H    0.000008   0.002269   0.005976   0.615181   0.006604   0.000057
    35  H    0.009234   0.000162   0.003338   0.006604   0.609228  -0.004327
    36  H   -0.000019   0.000002   0.000003   0.000057  -0.004327   0.575057
    37  H   -0.000012   0.000005   0.000009   0.004030   0.006519  -0.044973
    38  H    0.000000   0.000000   0.000000   0.000000   0.000000   0.000000
    39  H    0.000000   0.000000   0.000000   0.000001   0.000000   0.000000
    40  H    0.000000   0.000000   0.000000  -0.000001   0.000000   0.000000
    41  H    0.000000   0.000000  -0.000002  -0.000114   0.000000   0.000000
    42  H    0.000000   0.000000   0.000000   0.000000   0.000000   0.000000
    43  H    0.000000   0.000000   0.000000  -0.000005   0.000000   0.000000
    44  H    0.000000   0.000000  -0.000006  -0.000016  -0.000005   0.000002
    45  H    0.000000  -0.000018  -0.000062   0.012764  -0.000016   0.000002
             37         38         39         40         41         42
     1  O    0.000000   0.248833  -0.000340   0.003698   0.008286  -0.048526
     2  C   -0.000078   0.026138  -0.005428  -0.023853   0.022417   0.473280
     3  C    0.001861  -0.008585  -0.004011   0.002683  -0.031021  -0.146023
     4  O    0.000004   0.002093   0.000020  -0.000002   0.000178   0.003282
     5  H    0.000000  -0.004120   0.000001  -0.000002  -0.000034  -0.002585
     6  C   -0.005820  -0.009205  -0.008670   0.021854  -0.028735  -0.005942
     7  O    0.000037  -0.000012  -0.000006  -0.000002   0.000399   0.000293
     8  H    0.002120   0.000000   0.000000   0.000000   0.000008   0.000004
     9  C   -0.000011  -0.016919   0.386446   0.641344  -0.004046   0.012618
    10  O    0.000000   0.001353  -0.050996  -0.063867   0.004636  -0.000014
    11  H    0.000000  -0.000046  -0.008613  -0.004019  -0.000117  -0.000002
    12  C    0.001667   0.007227  -0.016760  -0.294963   0.143493  -0.127363
    13  O    0.000503  -0.000786   0.001286   0.006370  -0.054804   0.002675
    14  C    0.018487   0.007841   0.015907   0.008049   0.154915   0.072927
    15  O    0.006265  -0.000015  -0.000306   0.000026   0.001975  -0.000469
    16  C   -0.056084   0.000551   0.013286  -0.008855   0.011309   0.000443
    17  C   -0.002569  -0.000051   0.000332   0.001539   0.008930   0.001690
    18  O    0.000000   0.000000  -0.001962   0.000491   0.000203   0.000018
    19  H    0.000000   0.000000   0.000591  -0.000293   0.000313   0.000006
    20  C   -0.006000   0.000002  -0.001536   0.000336   0.001175   0.000036
    21  O    0.000005   0.000000  -0.000002   0.000000   0.000000   0.000000
    22  H    0.000000   0.000000   0.000000   0.000000   0.000000   0.000000
    23  C    0.513585   0.000010   0.000034  -0.000019   0.000694   0.000132
    24  O   -0.087813   0.000000   0.000000   0.000000   0.000003   0.000004
    25  H   -0.001230   0.000000   0.000000   0.000000   0.000000   0.000000
    26  C   -0.120728  -0.000015   0.000314  -0.000141  -0.002479   0.000180
    27  O    0.006875   0.000000   0.000001   0.000000  -0.000003   0.000000
    28  C    0.006488   0.000000   0.000086  -0.000006  -0.000039  -0.000002
    29  O    0.000103   0.000000   0.000000   0.000000   0.000000   0.000000
    30  H    0.000000   0.000000   0.000000   0.000000   0.000000   0.000000
    31  H   -0.000012   0.000000   0.000000   0.000000   0.000000   0.000000
    32  H    0.000005   0.000000   0.000000   0.000000   0.000000   0.000000
    33  H    0.000009   0.000000   0.000000   0.000000  -0.000002   0.000000
    34  H    0.004030   0.000000   0.000001  -0.000001  -0.000114   0.000000
    35  H    0.006519   0.000000   0.000000   0.000000   0.000000   0.000000
    36  H   -0.044973   0.000000   0.000000   0.000000   0.000000   0.000000
    37  H    0.616208   0.000000   0.000000   0.000000   0.000000   0.000000
    38  H    0.000000   0.384221   0.000005  -0.000186  -0.000207  -0.013534
    39  H    0.000000   0.000005   0.601410  -0.052438  -0.011526  -0.000047
    40  H    0.000000  -0.000186  -0.052438   0.612888   0.007204   0.003271
    41  H    0.000000  -0.000207  -0.011526   0.007204   0.619053   0.006210
    42  H    0.000000  -0.013534  -0.000047   0.003271   0.006210   0.608955
    43  H    0.000000  -0.000030   0.000001   0.000005   0.003506   0.006633
    44  H   -0.000026   0.000018   0.000001  -0.000004   0.000006   0.002397
    45  H   -0.000069   0.000004   0.000047  -0.000014   0.007886   0.000021
             43         44         45
     1  O   -0.007912  -0.000931   0.000039
     2  C    0.197533   0.071444   0.023782
     3  C    0.211750  -0.191106  -0.043808
     4  O   -0.040042   0.005118  -0.000360
     5  H   -0.002250   0.000039   0.000007
     6  C   -0.345891   0.261868  -0.081864
     7  O    0.006849  -0.034837   0.004723
     8  H   -0.000077  -0.007923  -0.000787
     9  C    0.018263   0.008612   0.002171
    10  O    0.000084   0.000021   0.000124
    11  H    0.000000   0.000000   0.000001
    12  C   -0.047866   0.010308  -0.013519
    13  O    0.004331   0.009973  -0.062582
    14  C    0.205318   0.055369   0.271542
    15  O   -0.001017  -0.011996  -0.053078
    16  C    0.018585   0.064316   0.091876
    17  C    0.001508   0.004046   0.036140
    18  O    0.000026   0.000083  -0.001015
    19  H   -0.000003  -0.000023   0.000040
    20  C    0.000074   0.001209   0.015545
    21  O    0.000000   0.000000   0.000008
    22  H    0.000000   0.000000   0.000000
    23  C    0.001462   0.014337   0.019677
    24  O    0.000035   0.001215   0.000370
    25  H    0.000000   0.000016   0.000004
    26  C   -0.000486  -0.011740   0.007347
    27  O    0.000000   0.000008  -0.000001
    28  C   -0.000018  -0.000269  -0.003110
    29  O    0.000000   0.000000  -0.000002
    30  H    0.000000   0.000000   0.000000
    31  H    0.000000   0.000000   0.000000
    32  H    0.000000   0.000000  -0.000018
    33  H    0.000000  -0.000006  -0.000062
    34  H   -0.000005  -0.000016   0.012764
    35  H    0.000000  -0.000005  -0.000016
    36  H    0.000000   0.000002   0.000002
    37  H    0.000000  -0.000026  -0.000069
    38  H   -0.000030   0.000018   0.000004
    39  H    0.000001   0.000001   0.000047
    40  H    0.000005  -0.000004  -0.000014
    41  H    0.003506   0.000006   0.007886
    42  H    0.006633   0.002397   0.000021
    43  H    0.617127   0.006386   0.002061
    44  H    0.006386   0.574237   0.004960
    45  H    0.002061   0.004960   0.625258
 Mulliken atomic charges:
              1
     1  O   -0.519487
     2  C   -0.324941
     3  C    0.250808
     4  O   -0.495315
     5  H    0.348572
     6  C   -0.134142
     7  O   -0.485917
     8  H    0.399006
     9  C   -0.056698
    10  O   -0.555540
    11  H    0.366374
    12  C    0.244191
    13  O   -0.414067
    14  C    0.030952
    15  O   -0.329449
    16  C    0.073611
    17  C   -0.156868
    18  O   -0.510560
    19  H    0.411119
    20  C    0.259690
    21  O   -0.500440
    22  H    0.349683
    23  C    0.120521
    24  O   -0.593416
    25  H    0.386303
    26  C   -0.044378
    27  O   -0.325243
    28  C    0.033658
    29  O   -0.549718
    30  H    0.363658
    31  H    0.130311
    32  H    0.153246
    33  H    0.146390
    34  H    0.125614
    35  H    0.134892
    36  H    0.149130
    37  H    0.140644
    38  H    0.375415
    39  H    0.142870
    40  H    0.138907
    41  H    0.130329
    42  H    0.149433
    43  H    0.144058
    44  H    0.162892
    45  H    0.133904
 Sum of Mulliken atomic charges =   0.00000
 Mulliken charges with hydrogens summed into heavy atoms:
              1
     1  O   -0.144072
     2  C   -0.175508
     3  C    0.394866
     4  O   -0.146744
     6  C    0.028750
     7  O   -0.086911
     9  C    0.225079
    10  O   -0.189166
    12  C    0.374520
    13  O   -0.414067
    14  C    0.164856
    15  O   -0.329449
    16  C    0.199225
    17  C   -0.010479
    18  O   -0.099442
    20  C    0.412936
    21  O   -0.150757
    23  C    0.410295
    24  O   -0.207113
    26  C    0.090514
    27  O   -0.325243
    28  C    0.163969
    29  O   -0.186061
 Sum of Mulliken charges with hydrogens summed into heavy atoms =   0.00000
 APT atomic charges:
              1
     1  O   -0.644584
     2  C    0.438353
     3  C    0.392571
     4  O   -0.636199
     5  H    0.271297
     6  C    0.371709
     7  O   -0.664361
     8  H    0.361265
     9  C    0.485917
    10  O   -0.639092
    11  H    0.259351
    12  C    0.402427
    13  O   -0.821362
    14  C    0.870170
    15  O   -0.849145
    16  C    0.434597
    17  C    0.394487
    18  O   -0.716126
    19  H    0.401421
    20  C    0.362397
    21  O   -0.634011
    22  H    0.253421
    23  C    0.436206
    24  O   -0.647709
    25  H    0.266477
    26  C    0.438967
    27  O   -0.802970
    28  C    0.935200
    29  O   -0.667638
    30  H    0.271184
    31  H   -0.071065
    32  H   -0.034106
    33  H   -0.044319
    34  H   -0.033460
    35  H   -0.046359
    36  H   -0.032070
    37  H   -0.037200
    38  H    0.266273
    39  H   -0.051107
    40  H   -0.048615
    41  H   -0.043576
    42  H   -0.043260
    43  H   -0.051841
    44  H   -0.016549
    45  H   -0.036969
 Sum of APT charges=   0.00000
 APT Atomic charges with hydrogens summed into heavy atoms:
[...]
 4,0.00001557,-0.01194724,-0.00002750,0.00273378,0.00320471,0.00127558,
 -0.00266958,-0.00025649,0.00047279,0.00026007,0.00006317,-0.00008640,0
 .00009085,-0.00000878,0.00000605,0.00001559,-0.00000309,0.00004908,0.0
 0003411,0.00001942,0.00000251,-0.00013076,0.00001467,-0.00005559,0.000
 14246,-0.00001083,-0.00001077,-0.00000284,0.00000754,-0.00000382,-0.00
 000279,-0.00000170,-0.00000076,0.00000016,-0.00001742,0.00000192,-0.00
 001322,0.00003705,0.00000594,0.00003163,-0.00001171,-0.00000530,-0.000
 00470,-0.00000641,-0.00000072,0.00000295,0.00001371,-0.00001026,0.0000
 0204,-0.00001179,0.00001780,0.00000119,0.00000632,-0.00000402,-0.00000
 850,-0.00000082,0.00000033,0.00000152,0.00000256,-0.00000046,0.0000008
 7,0.00000329,0.00000171,-0.00000199,0.00000295,-0.00000392,0.00000486,
 0.00001110,0.00000282,-0.00000613,0.00000525,-0.00000057,0.00000547,0.
 00000153,-0.00000147,0.00000002,0.00000729,0.00000067,-0.00000202,0.00
 182757,-0.00006347,-0.00089391,0.00022196,-0.00003829,-0.00003996,0.00
 035216,-0.00073605,0.00008001,0.00040464,-0.00116987,0.00094154,0.3798
 8307,-0.01053902,0.00120903,-0.00680036,0.01477704,-0.04548464,0.00089
 829,0.03675533,-0.00717811,-0.00570753,-0.00150498,0.00387331,-0.00124
 486,0.00080308,-0.00027114,0.00078587,0.00068241,0.00141713,0.00081487
 ,-0.00043565,-0.00018888,0.00007714,-0.00007287,0.00001128,0.00000750,
 -0.00104254,0.00137705,-0.00077204,0.00022049,-0.00012203,0.00001657,-
 0.00003051,-0.00005424,-0.00002549,-0.02687333,-0.00034774,0.00794752,
 -0.00001186,0.00079150,-0.00316078,-0.00011205,-0.00032822,-0.00000472
 ,0.00005976,0.00007737,-0.00007357,-0.00006900,0.00002443,-0.00001487,
 0.00002402,0.00002331,-0.00000212,0.00005055,0.00001400,-0.00009671,-0
 .00005473,-0.00005705,0.00013142,-0.00000749,-0.00000151,-0.00000406,0
 .00000319,0.,-0.00000109,-0.00000092,-0.00000047,-0.00000056,0.0000083
 8,-0.00000130,0.00001137,-0.00003211,-0.00001129,-0.00003666,0.0000107
 0,0.00000536,0.00000207,0.00000754,-0.00000613,0.00000287,-0.00000083,
 0.00000223,-0.00000341,0.00000121,0.00000070,0.00000341,0.00000117,-0.
 00000020,-0.00000445,0.00000023,-0.00000003,0.00000054,-0.00000015,0.0
 0000021,-0.00000028,0.00000113,-0.00000012,-0.00000014,0.00000229,0.00
 000217,0.00000278,0.00000506,-0.00000619,0.00000111,-0.00000073,0.0000
 0365,0.00000069,-0.00000167,-0.00000013,-0.00000070,-0.00000541,-0.000
 00181,0.00000470,-0.00111281,0.00151938,-0.00014918,0.00037131,0.00023
 630,-0.00003144,0.00064423,-0.00023745,0.00003394,-0.00057607,-0.00251
 980,0.00354398,-0.01237534,0.05239509,-0.04340444,-0.00650607,-0.02031
 446,0.03783031,-0.00069680,-0.04234552,0.01256086,-0.00175152,-0.00026
 132,-0.00156568,0.00085319,0.00060474,-0.00064820,-0.00011192,-0.00014
 257,0.00052161,0.00040745,0.00039777,-0.00026904,0.00006884,-0.0000261
 1,0.00001923,0.00002676,-0.00000383,-0.00021349,-0.00094321,0.00065115
 ,-0.00002919,0.00015795,0.00017515,0.00001883,-0.00002770,0.00006908,0
 .02362795,0.00118692,-0.00590631,0.00118932,0.00084884,0.00051957,0.00
 062120,-0.00063179,-0.00042125,-0.00007503,0.00005285,-0.00015050,0.00
 001153,-0.00002793,-0.00002315,0.00001599,0.00001012,0.00002049,-0.000
 08165,-0.00001698,0.00001844,0.00009139,0.00003742,-0.00007418,0.00000
 847,-0.00000891,0.00000758,-0.00001058,0.00000898,-0.00001077,0.000003
 11,-0.00000052,0.00000219,0.00002102,0.00000700,0.00000314,-0.00003051
 ,-0.00001166,-0.00001507,0.00000817,0.00000467,0.00000424,0.00000695,0
 .00000797,0.00000788,-0.00001015,0.00000493,-0.00001710,0.00000786,-0.
 00000816,0.00001669,0.00000029,0.00000120,-0.00001025,0.00000089,0.000
 00003,0.00000193,-0.00000224,-0.00000096,-0.00000215,-0.00000431,-0.00
 000085,0.00000414,-0.00000994,-0.00000612,-0.00001665,-0.00001277,0.00
 000206,0.00001638,-0.00000528,-0.00000057,-0.00000626,-0.00000279,-0.0
 0000211,-0.00000107,-0.00000789,0.00000102,0.00000199,-0.00393275,0.00
 076554,0.00252820,-0.00017287,-0.00015326,0.00005558,-0.00039562,0.000
 34313,0.00009850,0.00014970,0.00270335,-0.00320020,-0.02533959,0.00584
 121,0.06792667,0.00128166,0.00042197,0.00053059,-0.00929216,0.00259233
 ,-0.00039484,-0.35012492,0.03610160,-0.00379129,-0.01022666,-0.0088735
 5,0.01305103,-0.00075672,-0.00080324,-0.00027867,-0.01504661,0.0028649
 6,-0.00193880,0.00211512,-0.00002363,0.00105368,0.00023968,0.00014767,
 0.00015953,0.00038341,0.00013614,-0.00019206,0.00005141,-0.00002259,-0
 .00002205,-0.00001072,0.00000319,0.00000235,-0.00045126,-0.00000996,0.
 00053332,0.00066657,0.00004608,0.00011446,-0.00125855,-0.00127945,0.00
 035833,0.00040090,0.00024968,-0.00060731,-0.00017362,0.00006497,-0.000
 00478,0.00002531,-0.00000835,-0.00007506,0.00003850,0.00000978,0.00001
 342,-0.00002195,-0.00001450,0.00001282,-0.00002496,0.00001822,0.000009
 29,0.00001455,0.00000396,-0.00000711,-0.00000586,0.00000051,-0.0000037
 6,-0.00006563,-0.00001334,-0.00000993,0.00010284,0.00003610,0.00006402
 ,-0.00002235,-0.00001304,0.00000173,0.00000385,0.00002492,0.00000988,0
 .00002178,-0.00000855,-0.00002108,-0.00000793,0.00000123,0.00000340,0.
 00000648,0.00000087,-0.00000557,-0.00000090,-0.00000001,0.00000016,0.0
 0000313,0.00000055,0.00000169,0.00000593,0.00000192,-0.00000321,0.0000
 1038,-0.00000553,0.00000987,0.00003151,0.00001395,-0.00004473,0.000008
 10,-0.00000387,0.00001131,0.00000815,-0.00000143,-0.00000202,0.0000182
 4,0.00000165,-0.00000161,0.00025009,-0.00030363,-0.00014162,-0.0000266
 9,0.00011542,-0.00000541,0.00004204,-0.00019657,0.00001087,0.00054499,
 0.00055475,-0.00063849,0.00063327,0.00081829,0.00000476,0.38011305,-0.
 00263871,0.00245339,0.00090312,0.03678982,-0.00773083,-0.00001821,0.03
 733480,-0.04428839,-0.00414001,-0.02965483,-0.00385293,0.01362924,-0.0
 0058337,-0.00046840,-0.00055979,-0.00903393,0.00297549,-0.00312650,-0.
 00008931,0.00058275,0.00149929,-0.00003944,0.00002717,0.00005428,-0.00
 018450,-0.00009356,0.00011277,-0.00007030,0.00001514,-0.00002989,0.000
 01413,0.00002237,0.00000187,0.00152932,0.00222667,-0.00143562,-0.00032
 241,-0.00018397,0.00042231,0.00029197,-0.00089341,-0.00000645,0.000070
 72,0.00016250,-0.00044679,-0.00006266,0.00005530,0.00003979,0.00001364
 ,-0.00003025,-0.00007027,-0.00001572,0.00001226,0.00006227,0.00001684,
 0.00001465,-0.00007747,-0.00000383,0.00001030,0.00001506,0.00000146,0.
 00000514,-0.00001170,-0.00000184,0.00000157,-0.00000130,-0.00002611,0.
 00001514,-0.00003105,0.00006836,0.00000084,0.00008221,-0.00002313,-0.0
 0000985,-0.00001426,0.00000318,0.00004420,0.00001232,0.00000392,-0.000
 01628,-0.00001671,-0.00000051,0.00000018,0.00000581,0.00000069,-0.0000
 0046,-0.00000250,0.00000007,0.00000032,0.00000005,-0.00000043,-0.00000
 040,-0.00000042,0.00000008,0.00000030,-0.00000210,0.00000134,-0.000000
 25,0.00000183,0.00000626,0.00000610,-0.00000782,0.00000152,-0.00000778
 ,0.00000014,0.00000562,-0.00000145,0.00000099,0.00001565,0.00000778,-0
 .00000930,-0.00004681,0.00029851,0.00046165,-0.00008156,-0.00009563,-0
 .00002908,-0.00018021,0.00017782,0.00000107,-0.00069341,-0.00012012,0.
 00053926,0.00157812,-0.00589380,-0.00223107,-0.03332406,0.05450530,-0.
 00045468,0.00122595,0.00141918,0.01114373,-0.00427685,0.00143460,-0.00
 384160,-0.00441532,-0.04148865,0.03139884,0.01001554,-0.01123589,0.001
 65142,0.00029775,0.00016868,-0.03491299,0.00217974,-0.00202714,0.00210
 576,0.00092972,0.00296850,-0.00017522,0.00043355,0.00029330,-0.0000711
 0,-0.00008189,0.00012767,-0.00002187,0.00002448,0.00000392,0.00000336,
 0.00001035,-0.00000640,-0.00056652,0.00018815,-0.00038203,-0.00001221,
 0.00051011,-0.00032420,-0.00083912,-0.00094269,0.00118785,0.00039245,0
 .00014032,-0.00055336,-0.00004307,0.00008810,0.00007057,0.00003760,-0.
 00001806,-0.00006033,0.00001509,0.00003101,-0.00000904,-0.00001883,-0.
 00004641,0.00002688,-0.00001759,0.00000548,0.00002083,0.00000119,0.000
 02235,-0.00002651,-0.00000320,-0.00000027,-0.00000113,-0.00005193,0.00
 000089,-0.00002494,0.00010972,-0.00000101,0.00007428,-0.00001063,-0.00
 000378,-0.00001890,-0.00000257,0.00003315,0.00004063,0.00001197,0.0000
 0085,-0.00005315,0.00000381,-0.00001220,0.00003537,0.00000894,0.000001
 51,-0.00002561,0.00000006,0.00000123,0.00000398,-0.00000040,0.00000041
 ,-0.00000093,0.00000126,0.00000082,-0.00000076,0.00000199,-0.00000453,
 0.00000495,0.00003237,0.00002070,-0.00005348,0.00000392,-0.00000691,0.
 00000488,0.00001250,-0.00000346,-0.00000470,0.00001937,0.00000681,-0.0
 0000303,0.00000580,0.00038330,0.00006006,-0.00003080,-0.00007486,-0.00
 000772,-0.00001524,0.00005156,-0.00003616,-0.00011584,0.00004396,0.000
 23924,0.00090271,-0.00162518,-0.00038955,-0.00547358,-0.00440939,0.054
 38566,0.00038078,-0.00005269,-0.00007796,-0.00079973,0.00094474,-0.000
 01805,-0.01235207,-0.00437350,-0.00100952,0.00178797,0.00049690,0.0009
 3927,0.00023419,0.00000491,0.00017987,-0.34885976,-0.06505517,0.012601
 67,-0.01505885,0.00958030,0.00847696,-0.00018835,0.00062065,-0.0009776
 2,0.00003122,-0.00002448,0.00000364,0.00002459,0.00003810,0.00001487,-
 0.00000997,-0.00000492,0.00000529,0.00000030,0.00005248,0.00002345,0.0
 0132200,-0.00078529,-0.00030471,-0.00506875,-0.00088553,-0.00012003,0.
 00103978,0.00051116,-0.00122006,0.00025698,0.00020832,0.00017759,0.000
 06589,0.00002586,-0.00004636,0.00001363,0.00001235,-0.00006485,0.00000
 083,-0.00005644,0.00001228,-0.00002511,0.00001884,0.00003123,0.0000090
 7,0.00000083,-0.00003627,-0.00000443,0.00000420,-0.00000048,-0.0001493
 7,0.00005393,-0.00010075,0.00029217,-0.00002182,0.00035949,-0.00007344
 ,-0.00005326,-0.00008684,0.00001191,0.00011883,0.00005536,0.00002180,-
 0.00007780,-0.00003315,-0.00001688,0.00003945,0.00001473,0.00000759,-0
 .00001281,-0.00001731,-0.00000009,0.00000309,0.00000276,0.00000124,-0.
 00000219,-0.00000018,0.00000313,0.00000121,-0.00000151,-0.00000504,-0.
 00001198,0.00001252,0.00001149,0.00006965,-0.00028758,0.00000803,-0.00
 002775,0.00000544,0.00003833,-0.00001877,0.00002319,0.00009452,0.00002
 440,-0.00004034,-0.00004467,-0.00011334,-0.00006313,0.00000370,0.00000
 021,-0.00000896,0.00001267,-0.00002819,-0.00000179,0.00007323,0.000097
 51,-0.00001127,0.00051647,-0.00045296,-0.00017614,0.00008739,-0.000758
 09,-0.00141315,0.37598218,0.00014479,-0.00002005,-0.00000320,-0.000486
 14,0.00022079,0.00037859,-0.00596930,0.00062333,0.00093632,0.00105772,
 0.00017433,-0.00026804,-0.00002491,-0.00002976,0.00004027,-0.06668408,
 -0.05446870,0.00453867,0.03842219,-0.00675046,-0.01133500,0.00099591,0
 .00101883,0.00167646,0.00000614,0.00007450,0.00007539,0.00000803,-0.00
 002124,-0.00002196,-0.00000615,0.00000534,0.00000362,-0.00023182,0.000
 01982,-0.00012325,0.00116977,0.00183599,-0.00035043,-0.02995194,-0.006
 74728,0.00244295,0.00084488,0.00131557,-0.00210837,-0.00028780,0.00026
 814,0.00014847,0.00010101,-0.00002708,-0.00021917,0.00012093,-0.000021
 92,0.00008331,-0.00012346,0.00003074,-0.00000271,-0.00002943,0.0000388
 7,0.00001985,0.00001192,0.00002390,-0.00001265,-0.00000600,-0.00000188
 ,-0.00000584,0.00017248,0.00002138,0.00013106,-0.00031299,-0.00015182,
 -0.00016821,0.00011606,0.00004626,-0.00002599,0.00005765,-0.00004502,0
 .00002577,-0.00000529,0.00004758,-0.00005415,0.00001409,-0.00005515,0.
 00002677,0.00000534,0.00001524,-0.00001229,0.00000034,-0.00000087,0.00
 000179,-0.00000084,0.00000394,0.00000030,0.00000797,0.00000302,-0.0000
 1041,0.00002833,-0.00002497,0.00003465,0.00029295,0.00002594,-0.000079
 62,-0.00000209,0.00005521,0.00002907,-0.00005843,-0.00001091,-0.000008
 21,-0.00010899,-0.00003988,0.00006153,-0.00000618,0.00002347,-0.000031
 38,0.00000662,-0.00002386,0.00000219,0.00002781,-0.00005833,-0.0000113
 9,0.00023641,0.00013477,0.00003550,0.00001184,-0.00014265,-0.00020129,
 0.00021515,-0.00002930,-0.00109045,0.05984665,0.06613826,0.00069142,-0
 .00003611,-0.00051552,-0.00142565,0.00167485,0.00087515,-0.03406016,-0
 .00803359,-0.00102425,0.00193803,0.00020801,0.00334855,0.00002884,-0.0
 0026577,0.00043191,0.00902694,0.00408291,-0.04342870,0.01845943,-0.007
 20529,-0.00296681,0.00192983,-0.00020902,0.00086975,-0.00008856,-0.000
 00023,0.00003021,0.00001959,-0.00000419,0.00002036,0.00000206,-0.00000
 169,0.00000286,-0.00024196,-0.00020118,-0.00046767,-0.00121382,-0.0005
 4179,0.00037753,0.02250359,0.00810004,-0.00237955,0.00035435,-0.000671
 55,0.00187409,0.00053224,-0.00007203,-0.00032217,-0.00005498,0.0000177
 1,0.00019807,-0.00009253,0.00000057,-0.00008175,0.00009078,-0.00001282
 ,0.00007459,0.00002679,-0.00004543,-0.00002829,-0.00001078,-0.00002547
 ,0.00002340,0.00000522,-0.00000017,0.00000526,0.00029773,0.00012644,-0
 .00001142,-0.00032153,-0.00004508,0.00007032,0.00003903,0.00000787,0.0
 0005818,-0.00010274,-0.00002234,-0.00004263,-0.00003917,-0.00002723,0.
 00010245,-0.00000319,0.00004343,-0.00003397,-0.00001100,-0.00000969,0.
 00002112,0.00000137,-0.00000121,-0.00000328,-0.00000114,-0.00000210,-0
 .00000282,-0.00000823,-0.00000334,0.00000932,-0.00003902,0.00003207,-0
 .00002719,-0.00034899,-0.00005142,-0.00002066,-0.00002988,0.00000144,-
 0.00007040,-0.00007207,-0.00003042,0.00002722,-0.00009557,-0.00002950,
 0.00002857,0.00001542,-0.00020572,-0.00009815,0.00000694,-0.00003434,0
 .00000678,0.00002061,-0.00000865,0.00000712,0.00003092,0.00002800,-0.0
 0016084,0.00055158,-0.00033449,-0.00000193,-0.00180801,-0.00135579,-0.
 00541950,-0.01671028,0.00253734,0.05074842,0.00010590,-0.00006293,0.00
 025814,0.00008020,0.00035391,0.00000255,-0.00042858,-0.00035814,-0.000
 02285,0.00021227,-0.00000625,-0.00000562,-0.00002174,0.00000690,0.0000
 4737,-0.00273713,0.00102756,0.00150095,0.00161549,-0.00019720,-0.00128
 388,-0.00038312,-0.00009558,-0.00000138,0.00096937,-0.00018101,-0.0000
 9162,0.00003631,0.00010580,0.00001218,-0.00000487,0.00000377,0.0000208
 2,-0.00011557,-0.00180592,-0.00233212,-0.01131782,0.00718416,0.0061684
 7,-0.33321398,-0.04401285,0.07811503,-0.01992130,-0.00392007,-0.005881
 82,-0.00037128,-0.00125603,0.00481143,0.00034416,0.00029617,-0.0002139
 8,0.00052212,-0.00017797,-0.00024961,-0.00052697,-0.00030588,0.0007539
 1,-0.00001908,0.00012034,0.00000026,0.00003248,-0.00001105,-0.00000977
 ,-0.00001219,0.00000327,-0.00000952,-0.00040611,0.00001165,0.00002827,
 0.00016669,-0.00003093,-0.00001993,0.00000340,-0.00003742,-0.00005026,
 0.00078866,0.00005320,-0.00001865,0.00004025,-0.00008569,-0.00025853,-
 0.00000061,-0.00002332,-0.00000451,-0.00000012,0.00000889,-0.00000075,
 -0.00000016,0.00000301,-0.00000243,0.00000123,0.00000590,0.00000323,0.
 00002864,0.00001699,-0.00003778,0.00012049,-0.00026359,0.00019664,0.00
 203969,0.00054655,-0.00111157,0.00007968,0.00017668,0.00033174,0.00006
 860,0.00000712,0.00001562,0.00014523,-0.00002945,0.00001509,0.00000175
 ,-0.00000365,-0.00000023,-0.00004962,0.00004102,-0.00001106,0.00007903
 ,-0.00042564,-0.00007793,0.00167739,-0.00032798,-0.00007853,0.00007512
 ,0.00006561,-0.00031931,0.00040916,0.00008765,0.00022828,0.00032341,0.
 00037285,0.00020653,0.35956353,-0.00003492,0.00033874,-0.00020526,-0.0
 0040934,-0.00041433,-0.00002561,-0.00093748,-0.00006407,-0.00110764,0.
 00038781,-0.00002155,0.00053621,0.00011015,-0.00012231,0.00005839,-0.0
 2481644,-0.00190034,0.00746628,0.00108071,0.00351176,-0.00074659,-0.00
 051651,-0.00007696,-0.00003386,0.00065526,-0.00003124,0.00014949,-0.00
 026101,-0.00014941,-0.00019743,0.00003095,0.00004449,-0.00000793,0.005
 90975,0.00010265,0.00259841,0.03013482,-0.00798094,-0.01738868,-0.0494
 6091,-0.05212582,0.01591466,-0.00535419,0.00284676,-0.00053843,0.00062
 956,-0.00016833,0.00125158,0.00018422,-0.00000587,0.00001446,-0.000347
 48,0.00006334,0.00020776,0.00037893,0.00022429,-0.00102609,0.00001944,
 0.00002804,0.00007874,-0.00001614,0.00004180,-0.00006765,-0.00000546,-
 0.00000186,0.00000203,-0.00025795,-0.00001140,-0.00005693,0.00014041,0
 .00001272,-0.00002537,-0.00001863,-0.00001516,-0.00001462,0.00001119,0
 .00013558,0.00005359,0.00000780,-0.00004062,-0.00010630,0.00000255,-0.
 00000483,0.00007254,0.00001513,0.00000003,-0.00005051,0.00000077,0.000
 00140,0.00000864,-0.00000146,-0.00000233,-0.00000462,-0.00000582,-0.00
 000100,0.00000394,-0.00001123,-0.00006670,0.00001435,0.00040877,0.0005
 0522,0.00032447,0.00000807,-0.00002055,0.00003133,0.00005284,-0.000017
 12,0.00001309,0.00006355,-0.00007821,-0.00008874,0.00000476,0.00000440
 ,0.00000744,-0.00007529,-0.00006102,0.00000198,-0.00034310,-0.00011276
 ,-0.00006337,-0.00082914,-0.00020068,-0.00075376,-0.00015632,-0.000128
 58,-0.00000205,0.00045942,0.00009589,0.00036546,0.00004241,-0.00349409
 ,0.00262699,0.04311953,0.05936094,0.00000023,-0.00007340,-0.00019482,-
 0.00047743,0.00043074,-0.00009126,0.00091708,-0.00037851,0.00108183,-0
 .00041159,-0.00001806,-0.00009785,-0.00004604,-0.00002004,-0.00001156,
 0.02119184,0.00274031,-0.00107228,-0.00217071,-0.00122109,0.00127351,-
 0.00012735,0.00018491,-0.00014847,0.00011739,-0.00009277,-0.00006480,-
 0.00011782,-0.00014275,-0.00012893,0.00002905,0.00001604,-0.00001949,0
 .00506852,-0.00180352,0.00099134,0.01027169,-0.00571669,-0.00483974,0.
 08530026,0.01858126,-0.06607030,-0.03040107,-0.00330091,-0.00735546,-0
 .00785724,-0.00234150,0.00265713,0.00004917,0.00011369,-0.00045950,0.0
 0011952,0.00007281,0.00034122,-0.00010941,-0.00000149,-0.00037542,-0.0
 0001354,0.00007094,0.00004561,0.00002344,0.00003564,-0.00002617,-0.000
 00867,0.00000050,-0.00001077,-0.00013861,0.00009554,0.00008534,0.00004
 986,-0.00011667,0.00002164,0.00002879,-0.00002671,-0.00006646,-0.00017
 894,-0.00005785,-0.00015009,0.00015167,0.00007712,-0.00014473,0.000006
 36,-0.00006120,0.00004574,0.00001114,0.00001635,-0.00003216,0.00000142
 ,0.00000125,0.00000379,0.00000170,-0.00000086,0.00000948,0.00003171,0.
 00001864,-0.00004464,0.00026150,-0.00007019,-0.00000266,0.00058098,0.0
 0029667,-0.00154221,0.00016505,0.00004209,0.00003927,0.00002271,-0.000
 01562,0.00000972,0.00002450,-0.00006794,-0.00003273,-0.00001709,-0.000
 00342,-0.00001225,-0.00004200,0.00000841,-0.00001990,-0.00023332,-0.00
 000839,-0.00002399,-0.00065893,-0.00104212,-0.00083705,-0.00019606,-0.
 00003312,0.00020870,-0.00048554,0.00018817,-0.00041792,-0.00011132,0.0
 0291410,-0.00210372,-0.08062288,-0.00929039,0.07958302\\0.01591112,-0.
 02241962,-0.00651354,-0.01112229,0.02107067,0.00205639,0.00491684,-0.0
 1215862,0.02465858,0.00022510,0.01416779,0.01423681,-0.00134795,-0.020
 80044,-0.01805207,0.01366169,0.00146959,0.00573161,-0.01334884,0.01193
 731,-0.01227155,0.00883819,-0.00872398,0.01843246,-0.00794197,0.030986
 03,0.00124894,0.00968130,0.00517100,0.01410292,0.00103522,-0.03394202,
 -0.00815492,-0.01015781,0.01263013,0.03443011,0.03303417,-0.00200621,0
 .00487893,-0.06931532,-0.00163537,-0.02584646,0.02380486,-0.01037239,-
 0.00710239,-0.00645775,-0.00019246,-0.00827045,0.00051514,0.00390544,0
 .01181721,-0.00124764,-0.00589385,0.00204820,0.00432766,0.00952054,-0.
 01932731,0.00025894,0.02751739,-0.03361734,0.00402942,0.02212469,-0.01
 054020,-0.01282523,-0.00688247,0.02665406,0.00425046,-0.00748905,-0.00
 277030,-0.00359431,-0.01615696,0.00657838,-0.00143954,0.03100832,-0.00
 283816,-0.00989891,-0.00289903,0.00209053,-0.00101346,-0.01960039,0.00
 331026,0.03729606,-0.03557388,0.01389140,-0.00689892,0.01669420,0.0255
 8298,-0.00466739,-0.00136933,-0.00305504,-0.01900136,-0.00275605,-0.00
 498859,0.02067136,0.00204125,0.00247769,-0.02210390,-0.00234943,-0.001
 42355,0.01904154,0.00148588,0.00028182,-0.02301829,-0.00318165,-0.0030
 4140,0.00403540,-0.00511364,-0.01714277,0.01982450,-0.00132787,0.00679
 830,-0.00235463,0.00455634,0.00036070,0.00523199,0.00621245,-0.0192644
 8,-0.02135780,-0.00160763,-0.00439648,0.01886172,-0.00024958,-0.005132
 53,-0.02063412,0.00152546,-0.00268780,0.02326668,-0.00293746,-0.001929
 50,-0.01903054,0.00038905,0.00105411,0.01605861,0.00322582,-0.00435558
 \\\@


 The mind is not a vessel to be filled but a fire to be kindled.
                                  -- Plutarch
 Job cpu time:  0 days 12 hours 49 minutes 44.8 seconds.
 File lengths (MBytes):  RWF=   1327 Int=      0 D2E=      0 Chk=     19 Scr=      1
 Normal termination of Gaussian 09 at Tue Mar  1 15:48:45 2016.
Gaussian '09 finished on node002 at Tue Mar  1 15:48:45 EST 2016.
