Gaussian '09 started on node019 at Mon Feb 29 14:22:25 EST 2016.
 Entering Gaussian System, Link 0=/usr/local/gaussian/g09/g09
 Initial command:
 /usr/local/gaussian/g09/l1.exe /home/srmcgrat/thesis/gaussian/cellobiose/290/9000/2/gdp/gaussian4878/Gau-4914.inp -scrdir=/home/srmcgrat/thesis/gaussian/cellobiose/290/9000/2/gdp/gaussian4878/
 Entering Link 1 = /usr/local/gaussian/g09/l1.exe PID=      4916.
  
 Copyright (c) 1988,1990,1992,1993,1995,1998,2003,2009,2010,
            Gaussian, Inc.  All Rights Reserved.
  
 This is part of the Gaussian(R) 09 program.  It is based on
 the Gaussian(R) 03 system (copyright 2003, Gaussian, Inc.),
 the Gaussian(R) 98 system (copyright 1998, Gaussian, Inc.),
 the Gaussian(R) 94 system (copyright 1995, Gaussian, Inc.),
 the Gaussian 92(TM) system (copyright 1992, Gaussian, Inc.),
 the Gaussian 90(TM) system (copyright 1990, Gaussian, Inc.),
 the Gaussian 88(TM) system (copyright 1988, Gaussian, Inc.),
 the Gaussian 86(TM) system (copyright 1986, Carnegie Mellon
 University), and the Gaussian 82(TM) system (copyright 1983,
 Carnegie Mellon University). Gaussian is a federally registered
 trademark of Gaussian, Inc.
  
 This software contains proprietary and confidential information,
 including trade secrets, belonging to Gaussian, Inc.
  
 This software is provided under written license and may be
 used, copied, transmitted, or stored only in accord with that
 written license.
  
 The following legend is applicable only to US Government
 contracts under FAR:
  
                    RESTRICTED RIGHTS LEGEND
  
 Use, reproduction and disclosure by the US Government is
 subject to restrictions as set forth in subparagraphs (a)
 and (c) of the Commercial Computer Software - Restricted
 Rights clause in FAR 52.227-19.
  
 Gaussian, Inc.
 340 Quinnipiac St., Bldg. 40, Wallingford CT 06492
  
  
 ---------------------------------------------------------------
 Warning -- This program may not be used in any manner that
 competes with the business of Gaussian, Inc. or will provide
 assistance to any competitor of Gaussian, Inc.  The licensee
 of this program is prohibited from giving any competitor of
 Gaussian, Inc. access to this program.  By using this program,
 the user acknowledges that Gaussian, Inc. is engaged in the
 business of creating and licensing software in the field of
 computational chemistry and represents and warrants to the
 licensee that it is not a competitor of Gaussian, Inc. and that
 it will not use this program in any manner prohibited above.
 ---------------------------------------------------------------
  

 Cite this work as:
 Gaussian 09, Revision B.01,
 M. J. Frisch, G. W. Trucks, H. B. Schlegel, G. E. Scuseria, 
 M. A. Robb, J. R. Cheeseman, G. Scalmani, V. Barone, B. Mennucci, 
 G. A. Petersson, H. Nakatsuji, M. Caricato, X. Li, H. P. Hratchian, 
 A. F. Izmaylov, J. Bloino, G. Zheng, J. L. Sonnenberg, M. Hada, 
 M. Ehara, K. Toyota, R. Fukuda, J. Hasegawa, M. Ishida, T. Nakajima, 
 Y. Honda, O. Kitao, H. Nakai, T. Vreven, J. A. Montgomery, Jr., 
 J. E. Peralta, F. Ogliaro, M. Bearpark, J. J. Heyd, E. Brothers, 
 K. N. Kudin, V. N. Staroverov, T. Keith, R. Kobayashi, J. Normand, 
 K. Raghavachari, A. Rendell, J. C. Burant, S. S. Iyengar, J. Tomasi, 
 M. Cossi, N. Rega, J. M. Millam, M. Klene, J. E. Knox, J. B. Cross, 
 V. Bakken, C. Adamo, J. Jaramillo, R. Gomperts, R. E. Stratmann, 
 O. Yazyev, A. J. Austin, R. Cammi, C. Pomelli, J. W. Ochterski, 
 R. L. Martin, K. Morokuma, V. G. Zakrzewski, G. A. Voth, 
 P. Salvador, J. J. Dannenberg, S. Dapprich, A. D. Daniels, 
 O. Farkas, J. B. Foresman, J. V. Ortiz, J. Cioslowski, 
 and D. J. Fox, Gaussian, Inc., Wallingford CT, 2010.
 
 ******************************************
 Gaussian 09:  EM64L-G09RevB.01 12-Aug-2010
                29-Feb-2016 
 ******************************************
 ------------------------------------------------
 # freq=raman b3lyp/6-31+g(d,p) geom=connectivity
 ------------------------------------------------
 1/10=4,30=1,38=1,57=2/1,3;
 2/12=2,17=6,18=5,40=1/2;
 3/5=1,6=6,7=111,11=2,16=1,25=1,30=1,71=2,74=-5/1,2,3;
 4//1;
 5/5=2,38=5,98=1/2;
 8/6=4,10=90,11=11/1;
 10/13=10,15=4/2;
 11/6=3,8=1,9=11,15=111,16=1/1,2,10;
 10/6=1/2;
 6/7=2,8=2,9=2,10=2,18=1,28=1/1;
 7/8=1,10=1,25=1/1,2,3,16;
 1/10=4,30=1/3;
 99//99;
 ------------
 290 9000.com
 ------------
 Symbolic Z-matrix:
 Charge =  0 Multiplicity = 1
 O                     8.011     7.51      22.867 
 C                     8.539     7.931     24.133 
 C                     8.012     9.291     24.561 
 O                     8.561     10.371    23.792 
 H                     8.596     10.155    22.816 
 C                     8.4       9.667     25.982 
 O                     7.744     10.842    26.481 
 H                     8.065     11.001    27.415 
 C                     8.352     5.469     24.999 
 O                     7.965     4.89      23.744 
 H                     7.88      3.903     23.88 
 C                     8.083     6.951     25.202 
 O                     8.793     7.283     26.404 
 C                     8.192     8.483     26.912 
 O                     8.899     8.739     28.134 
 C                     8.356     8.336     29.4 
 C                     8.741     6.983     29.976 
 O                     8.549     6.009     28.94 
 H                     8.912     6.422     28.105 
 C                     8.063     6.666     31.299 
 O                     8.277     5.336     31.792 
 H                     7.879     5.236     32.704 
 C                     8.205     10.873    30.087 
 O                     8.77      11.48     28.915 
 H                     8.654     12.468    29.012 
 C                     8.589     9.441     30.418 
 O                     8.069     9.069     31.703 
 C                     8.475     7.797     32.228 
 O                     7.548     7.658     33.315 
 H                     8.73483   7.31101   22.26861 
 H                     7.84344   4.93585   25.77489 
 H                     9.40265   5.30826   25.12227 
 H                     7.03546   7.08985   25.37014 
 H                     9.60801   7.95205   24.09214 
 H                     6.94576   9.30019   24.47183 
 H                     9.44912   9.87714   25.97288 
 H                     7.15044   8.33129   27.10447 
 H                     8.03235   7.55287   34.13716 
 H                     8.47289   11.48078   30.92589 
 H                     7.14031   10.90615   29.98587 
 H                     9.65104   9.4697    30.54509 
 H                     7.29688   8.29145   29.25449 
 H                     9.79197   7.01919   30.1736 
 H                     7.00966   6.76506   31.13909 
 H                     9.49931   7.7595    32.53506 
 

 GradGradGradGradGradGradGradGradGradGradGradGradGradGradGradGradGradGrad
 Berny optimization.
 Initialization pass.
 Trust Radius=3.00D-01 FncErr=1.00D-07 GrdErr=1.00D-07
 Number of steps in this run=      2 maximum allowed number of steps=      2.
 GradGradGradGradGradGradGradGradGradGradGradGradGradGradGradGradGradGrad

                          Input orientation:                          
 ---------------------------------------------------------------------
 Center     Atomic      Atomic             Coordinates (Angstroms)
 Number     Number       Type             X           Y           Z
 ---------------------------------------------------------------------
      1          8           0        8.011000    7.510000   22.867000
      2          6           0        8.539000    7.931000   24.133000
      3          6           0        8.012000    9.291000   24.561000
      4          8           0        8.561000   10.371000   23.792000
      5          1           0        8.596000   10.155000   22.816000
      6          6           0        8.400000    9.667000   25.982000
      7          8           0        7.744000   10.842000   26.481000
      8          1           0        8.065000   11.001000   27.415000
      9          6           0        8.352000    5.469000   24.999000
     10          8           0        7.965000    4.890000   23.744000
     11          1           0        7.880000    3.903000   23.880000
     12          6           0        8.083000    6.951000   25.202000
     13          8           0        8.793000    7.283000   26.404000
     14          6           0        8.192000    8.483000   26.912000
     15          8           0        8.899000    8.739000   28.134000
     16          6           0        8.356000    8.336000   29.400000
     17          6           0        8.741000    6.983000   29.976000
     18          8           0        8.549000    6.009000   28.940000
     19          1           0        8.912000    6.422000   28.105000
     20          6           0        8.063000    6.666000   31.299000
     21          8           0        8.277000    5.336000   31.792000
     22          1           0        7.879000    5.236000   32.704000
     23          6           0        8.205000   10.873000   30.087000
     24          8           0        8.770000   11.480000   28.915000
     25          1           0        8.654000   12.468000   29.012000
     26          6           0        8.589000    9.441000   30.418000
     27          8           0        8.069000    9.069000   31.703000
     28          6           0        8.475000    7.797000   32.228000
     29          8           0        7.548000    7.658000   33.315000
     30          1           0        8.734833    7.311010   22.268612
     31          1           0        7.843436    4.935848   25.774894
     32          1           0        9.402650    5.308257   25.122272
     33          1           0        7.035456    7.089850   25.370142
     34          1           0        9.608012    7.952055   24.092140
     35          1           0        6.945762    9.300187   24.471828
     36          1           0        9.449123    9.877137   25.972884
     37          1           0        7.150443    8.331289   27.104465
     38          1           0        8.032351    7.552866   34.137162
     39          1           0        8.472888   11.480776   30.925895
     40          1           0        7.140306   10.906154   29.985874
     41          1           0        9.651039    9.469696   30.545085
     42          1           0        7.296877    8.291449   29.254491
     43          1           0        9.791973    7.019188   30.173600
     44          1           0        7.009665    6.765056   31.139086
     45          1           0        9.499309    7.759501   32.535058
 ---------------------------------------------------------------------
                    Distance matrix (angstroms):
                    1          2          3          4          5
     1  O    0.000000
     2  C    1.434845   0.000000
     3  C    2.457966   1.520037   0.000000
     4  O    3.056705   2.463811   1.434978   0.000000
     5  H    2.709400   2.585327   2.032874   1.000228   0.000000
     6  C    3.808831   2.540043   1.520250   2.306000   3.209379
     7  O    4.922856   3.823487   2.482705   2.849570   3.824931
     8  H    5.733612   4.518971   3.327495   3.710666   4.706217
     9  C    2.971092   2.616557   3.862011   5.052735   5.175289
    10  O    2.763267   3.119051   4.476438   5.513518   5.383268
    11  H    3.748837   4.089386   5.432470   6.504347   6.382183
    12  C    2.402060   1.520229   2.427246   3.730011   4.027627
    13  O    3.629521   2.375260   2.835256   4.051186   4.600102
    14  C    4.164314   2.854462   2.492482   3.665393   4.442524
    15  O    5.480901   4.097617   3.722607   4.650874   5.511623
    16  C    6.594042   5.285717   4.944318   5.969331   6.834868
    17  C    7.165787   5.922850   5.931318   7.053566   7.832510
    18  O    6.278835   5.177010   5.498685   6.747525   7.395600
    19  H    5.425144   4.265325   4.647698   5.858308   6.481409
    20  C    8.474294   7.292349   7.231450   8.386303   9.187954
    21  O    9.189813   8.090918   8.246188   9.456843  10.192796
    22  H   10.097280   9.008921   9.097756  10.308108  11.067213
    23  C    7.967170   6.649589   5.751230   6.325011   7.316819
    24  O    7.274289   5.959554   4.931896   5.245826   6.243693
    25  H    7.921883   6.663500   5.506078   5.626229   6.613906
    26  C    7.815398   6.464041   5.887264   6.691006   7.635460
    27  O    8.972666   7.669475   7.145677   8.032508   8.968606
    28  C    9.376886   8.096362   7.824915   8.820372   9.703636
    29  O   10.459301   9.239358   8.917090   9.953596  10.842616
    30  H    0.960000   1.974508   3.114144   3.422641   2.899515
    31  H    3.887182   3.485766   4.524301   5.829892   6.046566
    32  H    3.445375   2.933143   4.255722   5.301826   5.427752
    33  H    2.719179   2.121014   2.540356   3.947627   4.284167
    34  H    2.060784   1.070000   2.135383   2.652850   2.739648
    35  H    2.629634   2.127883   1.070000   2.053728   2.489128
    36  H    4.161496   2.828594   2.098165   2.406018   3.281912
    37  H    4.401271   3.304229   2.851761   4.137936   4.879189
    38  H   11.270264  10.024118   9.732647  10.735163  11.630027
    39  H    8.995898   7.664770   6.746808   7.220237   8.218469
    40  H    7.935385   6.712974   5.726939   6.377212   7.354615
    41  H    8.092164   6.687230   6.207065   6.899615   7.830805
    42  H    6.474617   5.282278   4.851738   5.980079   6.827496
    43  H    7.536522   6.236200   6.311158   7.312644   8.086900
    44  H    8.365705   7.265227   7.117323   8.330015   9.125894
    45  H    9.785125   8.458498   8.254888   9.172863  10.050596
                    6          7          8          9         10
     6  C    0.000000
     7  O    1.435257   0.000000
     8  H    1.986270   1.000339   0.000000
     9  C    4.311821   5.606703   6.043381   0.000000
    10  O    5.293165   6.554869   7.129556   1.435282   0.000000
    11  H    6.157313   7.411708   7.931712   1.981742   0.999945
    12  C    2.843509   4.109823   4.615213   1.519834   2.527332
    13  O    2.452751   3.711174   3.921177   2.336472   3.672551
    14  C    1.519875   2.439538   2.570887   3.573425   4.795561
    15  O    2.396099   2.913596   2.515782   4.562930   5.912635
    16  C    3.668272   3.895528   3.335735   5.252476   6.634616
    17  C    4.824124   5.301030   4.812486   5.216708   6.619717
    18  O    4.706690   5.482025   5.242132   3.982699   5.347114
    19  H    3.911432   4.851598   4.707521   3.296823   4.718279
    20  C    6.114741   6.383875   5.820454   6.419216   7.761559
    21  O    7.247675   7.668562   7.162074   6.794716   8.066385
    22  H    8.067868   8.376825   7.825813   7.723020   8.967090
    23  C    4.282930   3.635480   2.678725   7.423784   8.722817
    24  O    3.467904   2.717366   1.725244   7.186230   8.415187
    25  H    4.134128   3.142919   2.247091   8.073498   9.254871
    26  C    4.445772   4.263425   3.424352   6.722984   8.102052
    27  O    5.761684   5.524350   4.703146   7.614703   8.990024
    28  C    6.520356   6.544799   5.796437   7.595601   8.982706
    29  O    7.650809   7.541872   6.800951   8.636781   9.971948
    30  H    4.410448   5.585146   6.367889   3.315808   2.937806
    31  H    4.768276   5.949042   6.286900   1.070000   2.035046
    32  H    4.554457   5.934608   6.281181   1.070000   2.035046
    33  H    2.979606   3.976766   4.531942   2.120894   2.889244
    34  H    2.823455   4.187240   4.766377   2.926691   3.492402
    35  H    2.128375   2.655399   3.578787   4.115023   4.584576
    36  H    1.070000   2.024003   2.293156   4.645837   5.660572
    37  H    2.146030   2.654183   2.839050   3.750923   4.878391
    38  H    8.432758   8.337768   7.555009   9.378203  10.729083
    39  H    5.266611   4.549330   3.566923   8.442994   9.760937
    40  H    4.376453   3.557064   2.733760   7.476614   8.708342
    41  H    4.735586   4.694337   3.828556   6.960756   8.370848
    42  H    3.717286   3.794401   3.363838   5.214279   6.510127
    43  H    5.149564   5.695909   5.142678   5.590447   7.015058
    44  H    6.078638   6.233657   5.738098   6.417342   7.688679
    45  H    6.913003   7.016732   6.227323   7.959578   9.373945
                   11         12         13         14         15
    11  H    0.000000
    12  C    3.328543   0.000000
    13  O    4.316080   1.434966   0.000000
    14  C    5.501524   2.298479   1.435014   0.000000
    15  O    6.520872   3.529791   2.263641   1.434806   0.000000
    16  C    7.095665   4.428991   3.205588   2.497729   1.435275
    17  C    6.883962   4.819239   3.584953   3.455358   2.549797
    18  O    5.521449   3.882932   2.848492   3.218837   2.867932
    19  H    5.026033   3.065043   1.910205   2.487844   2.317218
    20  C    7.918915   6.103690   4.987446   4.750147   3.874719
    21  O    8.050518   6.787780   5.752183   5.807343   5.034705
    22  H    8.924117   7.698236   6.686973   6.647424   5.847761
    23  C    9.338810   6.265795   5.176711   3.974027   2.974862
    24  O    9.140802   5.896624   4.890855   3.650767   2.853013
    25  H   10.014775   6.728999   5.805619   4.528098   3.838795
    26  C    8.597533   5.801964   4.561883   3.656147   2.409473
    27  O    9.376705   6.837333   5.638561   4.828272   3.679071
    28  C    9.230729   7.087599   5.855279   5.367545   4.222319
    29  O   10.160191   8.161302   7.032252   6.487971   5.462282
    30  H    3.865468   3.026427   4.135892   4.819677   6.038947
    31  H    2.158410   2.108657   2.608940   3.741229   4.598213
    32  H    2.415875   2.108658   2.431894   3.840285   4.592838
    33  H    3.617982   1.070000   2.048202   2.378190   3.719059
    34  H    4.407479   2.135313   2.540979   3.199782   4.178350
    35  H    5.509328   2.710193   3.348824   2.859256   4.188266
    36  H    6.521704   3.320065   2.710333   2.099027   2.503679
    37  H    5.526226   2.528682   2.070641   1.070000   2.069691
    38  H   10.888256   8.955553   7.775167   7.286536   6.180287
    39  H   10.364306   7.309846   6.178295   5.017660   3.936189
    40  H    9.320569   6.278325   5.356161   4.052954   3.349478
    41  H    8.862733   6.111557   4.760930   4.037533   2.629222
    42  H    6.963021   4.340216   3.373522   2.514995   2.005642
    43  H    7.278439   5.257571   3.908635   3.916720   2.813383
    44  H    7.851317   6.036192   5.086215   4.713545   4.061599
    45  H    9.612741   7.512213   6.189976   5.818186   4.548527
                   16         17         18         19         20
    16  C    0.000000
    17  C    1.520069   0.000000
    18  O    2.379869   1.434864   0.000000
    19  H    2.376880   1.960766   0.999781   0.000000
    20  C    2.545771   1.520034   2.496543   3.313906   0.000000
    21  O    3.837695   2.495147   2.942927   3.895714   1.434484
    22  H    4.555650   3.352169   3.900529   4.860503   2.013152
    23  C    2.632706   3.928322   5.009236   4.923370   4.380406
    24  O    3.208014   4.620560   5.475519   5.124415   5.418293
    25  H    4.160862   5.569748   6.460255   6.119095   6.264412
    26  C    1.520407   2.502046   3.736938   3.816891   2.958625
    27  O    2.433817   2.790252   4.150683   4.545642   2.436732
    28  C    2.881365   2.409327   3.743443   4.368149   1.520508
    29  O    4.054599   3.609404   4.781404   5.525603   2.305113
    30  H    7.214625   7.714367   6.799793   5.906366   9.078288
    31  H    4.996514   4.758754   3.415753   2.963085   5.792873
    32  H    5.344311   5.176990   3.974268   3.221464   6.464526
    33  H    4.420009   4.912660   4.025287   3.383325   6.032151
    34  H    5.467021   6.025826   5.329044   4.350695   7.481967
    35  H    5.215871   6.236036   5.776405   5.034878   7.402530
    36  H    3.913456   4.990230   4.957467   4.095410   6.371832
    37  H    2.592850   3.548728   3.273863   2.783799   4.604353
    38  H    4.812354   4.259367   5.446186   6.199970   2.973657
    39  H    3.497375   4.604799   5.821504   5.808742   4.846575
    40  H    2.902904   4.237152   5.201960   5.175348   4.533715
    41  H    2.067271   2.708447   3.970794   3.973493   3.309224
    42  H    1.070000   2.078005   2.622268   2.724847   2.721957
    43  H    2.096299   1.070000   2.021690   2.325961   2.092992
    44  H    2.702758   2.097091   2.788754   3.597533   1.070000
    45  H    3.386458   2.779706   4.109962   4.664682   2.187823
                   21         22         23         24         25
    21  O    0.000000
    22  H    1.000074   0.000000
    23  C    5.794012   6.223402   0.000000
    24  O    6.802126   7.357849   1.435708   0.000000
    25  H    7.663938   8.156796   1.975158   0.999504   0.000000
    26  C    4.340074   4.838587   1.519092   2.539545   3.338232
    27  O    3.739849   3.966105   2.425772   3.751968   4.374575
    28  C    2.507154   2.672174   3.757467   4.962608   5.673882
    29  O    2.871002   2.519715   4.603027   5.954911   6.547911
    30  H    9.736796  10.674055   8.607885   7.845775   8.489662
    31  H    6.045963   6.935695   7.346752   7.317425   8.238276
    32  H    6.764106   7.733650   7.553096   7.271550   8.182443
    33  H    6.771830   7.611425   6.158637   5.903226   6.693826
    34  H    8.240338   9.194050   6.814595   6.033957   6.746030
    35  H    8.430415   9.228066   5.965700   5.274581   5.793641
    36  H    7.473814   8.325464   4.411976   3.418541   4.071980
    37  H    5.675726   6.439441   4.058066   3.976856   4.797056
    38  H    3.236377   2.728615   5.239934   6.575522   7.128273
    39  H    6.208606   6.520091   1.070000   2.032725   2.161112
    40  H    5.964963   6.331235   1.070000   2.032725   2.383078
    41  H    4.531029   5.072003   2.066430   2.733995   3.512017
    42  H    4.016749   4.644755   2.860449   3.528768   4.398200
    43  H    2.783430   3.638977   4.168675   4.746298   5.686286
    44  H    2.018573   2.354297   4.405782   5.502366   6.304911
    45  H    2.814166   3.003664   4.166785   5.242025   5.941082
                   26         27         28         29         30
    26  C    0.000000
    27  O    1.435273   0.000000
    28  C    2.447822   1.434728   0.000000
    29  O    3.557440   2.204746   1.435346   0.000000
    30  H    8.424408   9.619852   9.974624  11.115380   0.000000
    31  H    6.512349   7.230233   7.087146   8.021882   4.327817
    32  H    6.766559   7.695959   7.585891   8.722489   3.549700
    33  H    5.781200   6.714934   7.042909   7.981620   3.543485
    34  H    6.578134   7.844827   8.215837   9.454695   2.120999
    35  H    6.170658   7.321541   8.047133   9.014497   3.465799
    36  H    4.548525   5.949122   6.663509   7.902246   4.562549
    37  H    3.778944   4.747050   5.318884   6.259562   5.190062
    38  H    4.207978   2.867953   1.974953   0.960000  11.891782
    39  H    2.105262   2.565869   3.907133   4.601832   9.612706
    40  H    2.105262   2.680696   4.058988   4.669026   8.661623
    41  H    1.070000   2.001042   2.648241   3.921408   8.602289
    42  H    2.084420   2.682528   3.236389   4.117288   7.199408
    43  H    2.715151   3.083736   2.561243   3.913041   7.980698
    44  H    3.189818   2.597759   2.097105   2.412832   9.053153
    45  H    2.852724   2.110188   1.070000   2.103858  10.304634
                   31         32         33         34         35
    31  H    0.000000
    32  H    1.730825   0.000000
    33  H    2.335890   2.973066   0.000000
    34  H    3.878517   2.844821   2.999122   0.000000
    35  H    4.642334   4.732323   2.387594   3.008189   0.000000
    36  H    5.199400   4.647619   3.736048   2.695994   2.975375
    37  H    3.711741   4.259137   2.135947   3.906093   2.812728
    38  H    8.764246   9.390647   8.835657  10.175683   9.881928
    39  H    8.352551   8.523291   7.225844   7.774354   6.981551
    40  H    7.339707   7.753017   5.990004   7.039344   5.746449
    41  H    6.824802   6.840042   6.267773   6.629146   6.650692
    42  H    4.864810   5.514431   4.074352   5.666250   4.900479
    43  H    5.242683   5.347408   5.538645   6.155342   6.768610
    44  H    5.728501   6.637069   5.778137   7.603934   7.133253
    45  H    7.510975   7.808159   7.606249   8.445813   8.597093
                   36         37         38         39         40
    36  H    0.000000
    37  H    2.992332   0.000000
    38  H    8.606097   7.130395   0.000000
    39  H    5.296886   5.125569   5.092621   0.000000
    40  H    4.742742   3.864266   5.410498   1.729048   0.000000
    41  H    4.594757   4.403046   4.381484   2.361673   2.946169
    42  H    4.232672   2.155375   4.992686   3.787929   2.719581
    43  H    5.092291   4.256628   4.369314   4.712929   4.709043
    44  H    6.505816   4.330250   3.264199   4.942114   4.300658
    45  H    6.895580   5.944363   2.182064   4.182205   4.686648
                   41         42         43         44         45
    41  H    0.000000
    42  H    2.931890   0.000000
    43  H    2.482509   2.947697   0.000000
    44  H    3.826849   2.442143   2.956008   0.000000
    45  H    2.628266   3.986954   2.492027   3.022580   0.000000
 Stoichiometry    C12H22O11
 Framework group  C1[X(C12H22O11)]
 Deg. of freedom   129
 Full point group                 C1      NOp   1
 Largest Abelian subgroup         C1      NOp   1
 Largest concise Abelian subgroup C1      NOp   1
                         Standard orientation:                         
 ---------------------------------------------------------------------
 Center     Atomic      Atomic             Coordinates (Angstroms)
 Number     Number       Type             X           Y           Z
 ---------------------------------------------------------------------
      1          8           0       -5.013539   -0.537260    0.311381
      2          6           0       -3.742748   -0.127616   -0.214037
      3          6           0       -3.288691    1.213672    0.338495
      4          8           0       -4.041145    2.317882   -0.184663
      5          1           0       -5.020918    2.119642   -0.219344
      6          6           0       -1.863086    1.572773   -0.048619
      7          8           0       -1.340696    2.725254    0.628772
      8          1           0       -0.405505    2.874528    0.306572
      9          6           0       -2.919084   -2.607608   -0.081432
     10          8           0       -4.182268   -3.172502    0.299744
     11          1           0       -4.063161   -4.163249    0.363956
     12          6           0       -2.689011   -1.135175    0.216730
     13          8           0       -1.484580   -0.809663   -0.492153
     14          6           0       -0.953001    0.368778    0.130716
     15          8           0        0.270113    0.617908   -0.576813
     16          6           0        1.531292    0.181937   -0.048258
     17          6           0        2.081828   -1.172711   -0.463527
     18          8           0        1.029832   -2.132279   -0.286415
     19          1           0        0.200562   -1.697486   -0.636887
     20          6           0        3.402105   -1.526466    0.201476
     21          8           0        3.870821   -2.860178   -0.041961
     22          1           0        4.782705   -2.984138    0.349510
     23          6           0        2.263197    2.702991    0.151092
     24          8           0        1.099470    3.341705   -0.395755
     25          1           0        1.214241    4.325289   -0.260115
     26          6           0        2.567397    1.273610   -0.263604
     27          8           0        3.848012    0.868768    0.242496
     28          6           0        4.348878   -0.403593   -0.191871
     29          8           0        5.437418   -0.580405    0.726844
     30          1           0       -5.618545   -0.710967   -0.413459
     31          1           0       -2.150360   -3.164461    0.412409
     32          1           0       -2.803341   -2.748940   -1.135723
     33          1           0       -2.513784   -1.020730    1.266062
     34          1           0       -3.788015   -0.083987   -1.282189
     35          1           0       -3.372919    1.202591    1.405117
     36          1           0       -1.873219    1.804457   -1.093186
     37          1           0       -0.758560    0.192466    1.168024
     38          1           0        6.255443   -0.689883    0.236487
     39          1           0        3.111380    3.301446   -0.108403
     40          1           0        2.167429    2.716108    1.216717
     41          1           0        2.690213    1.321815   -1.325439
     42          1           0        1.389764    0.118262    1.010428
     43          1           0        2.275328   -1.118468   -1.514486
     44          1           0        3.248659   -1.446217    1.257371
     45          1           0        4.650649   -0.425460   -1.218203
 ---------------------------------------------------------------------
 Rotational constants (GHZ):      0.4024215      0.1474145      0.1107214
 Standard basis: 6-31+G(d,p) (6D, 7F)
 There are   547 symmetry adapted basis functions of A   symmetry.
 Integral buffers will be    131072 words long.
 Raffenetti 2 integral format.
 Two-electron integral symmetry is turned on.
   547 basis functions,   890 primitive gaussians,   547 cartesian basis functions
    91 alpha electrons       91 beta electrons
       nuclear repulsion energy      2288.0221348143 Hartrees.
 NAtoms=   45 NActive=   45 NUniq=   45 SFac= 1.00D+00 NAtFMM=   50 NAOKFM=F Big=F
 One-electron integrals computed using PRISM.
 NBasis=   547 RedAO= T  NBF=   547
 NBsUse=   547 1.00D-06 NBFU=   547
 Harris functional with IExCor=  402 diagonalized for initial guess.
 ExpMin= 4.38D-02 ExpMax= 5.48D+03 ExpMxC= 8.25D+02 IAcc=2 IRadAn=         0 AccDes= 0.00D+00
 HarFok:  IExCor=  402 AccDes= 0.00D+00 IRadAn=         0 IDoV= 1
 ScaDFX=  1.000000  1.000000  1.000000  1.000000
 FoFCou: FMM=F IPFlag=           0 FMFlag=      100000 FMFlg1=           0
         NFxFlg=           0 DoJE=T BraDBF=F KetDBF=T FulRan=T
         Omega=  0.000000  0.000000  1.000000  0.000000  0.000000 ICntrl=     500 IOpCl=  0
         NMat0=    1 NMatS0=    1 NMatT0=    0 NMatD0=    1 NMtDS0=    0 NMtDT0=    0
         I1Cent=           4 NGrid=           0.
 Petite list used in FoFCou.
 Initial guess orbital symmetries:
       Occupied  (A) (A) (A) (A) (A) (A) (A) (A) (A) (A) (A) (A)
                 (A) (A) (A) (A) (A) (A) (A) (A) (A) (A) (A) (A)
                 (A) (A) (A) (A) (A) (A) (A) (A) (A) (A) (A) (A)
                 (A) (A) (A) (A) (A) (A) (A) (A) (A) (A) (A) (A)
                 (A) (A) (A) (A) (A) (A) (A) (A) (A) (A) (A) (A)
                 (A) (A) (A) (A) (A) (A) (A) (A) (A) (A) (A) (A)
                 (A) (A) (A) (A) (A) (A) (A) (A) (A) (A) (A) (A)
                 (A) (A) (A) (A) (A) (A) (A)
       Virtual   (A) (A) (A) (A) (A) (A) (A) (A) (A) (A) (A) (A)
                 (A) (A) (A) (A) (A) (A) (A) (A) (A) (A) (A) (A)
                 (A) (A) (A) (A) (A) (A) (A) (A) (A) (A) (A) (A)
                 (A) (A) (A) (A) (A) (A) (A) (A) (A) (A) (A) (A)
                 (A) (A) (A) (A) (A) (A) (A) (A) (A) (A) (A) (A)
                 (A) (A) (A) (A) (A) (A) (A) (A) (A) (A) (A) (A)
                 (A) (A) (A) (A) (A) (A) (A) (A) (A) (A) (A) (A)
                 (A) (A) (A) (A) (A) (A) (A) (A) (A) (A) (A) (A)
                 (A) (A) (A) (A) (A) (A) (A) (A) (A) (A) (A) (A)
                 (A) (A) (A) (A) (A) (A) (A) (A) (A) (A) (A) (A)
                 (A) (A) (A) (A) (A) (A) (A) (A) (A) (A) (A) (A)
                 (A) (A) (A) (A) (A) (A) (A) (A) (A) (A) (A) (A)
                 (A) (A) (A) (A) (A) (A) (A) (A) (A) (A) (A) (A)
                 (A) (A) (A) (A) (A) (A) (A) (A) (A) (A) (A) (A)
                 (A) (A) (A) (A) (A) (A) (A) (A) (A) (A) (A) (A)
                 (A) (A) (A) (A) (A) (A) (A) (A) (A) (A) (A) (A)
                 (A) (A) (A) (A) (A) (A) (A) (A) (A) (A) (A) (A)
                 (A) (A) (A) (A) (A) (A) (A) (A) (A) (A) (A) (A)
                 (A) (A) (A) (A) (A) (A) (A) (A) (A) (A) (A) (A)
                 (A) (A) (A) (A) (A) (A) (A) (A) (A) (A) (A) (A)
                 (A) (A) (A) (A) (A) (A) (A) (A) (A) (A) (A) (A)
                 (A) (A) (A) (A) (A) (A) (A) (A) (A) (A) (A) (A)
                 (A) (A) (A) (A) (A) (A) (A) (A) (A) (A) (A) (A)
                 (A) (A) (A) (A) (A) (A) (A) (A) (A) (A) (A) (A)
                 (A) (A) (A) (A) (A) (A) (A) (A) (A) (A) (A) (A)
                 (A) (A) (A) (A) (A) (A) (A) (A) (A) (A) (A) (A)
                 (A) (A) (A) (A) (A) (A) (A) (A) (A) (A) (A) (A)
                 (A) (A) (A) (A) (A) (A) (A) (A) (A) (A) (A) (A)
                 (A) (A) (A) (A) (A) (A) (A) (A) (A) (A) (A) (A)
                 (A) (A) (A) (A) (A) (A) (A) (A) (A) (A) (A) (A)
                 (A) (A) (A) (A) (A) (A) (A) (A) (A) (A) (A) (A)
                 (A) (A) (A) (A) (A) (A) (A) (A) (A) (A) (A) (A)
                 (A) (A) (A) (A) (A) (A) (A) (A) (A) (A) (A) (A)
                 (A) (A) (A) (A) (A) (A) (A) (A) (A) (A) (A) (A)
                 (A) (A) (A) (A) (A) (A) (A) (A) (A) (A) (A) (A)
                 (A) (A) (A) (A) (A) (A) (A) (A) (A) (A) (A) (A)
                 (A) (A) (A) (A) (A) (A) (A) (A) (A) (A) (A) (A)
                 (A) (A) (A) (A) (A) (A) (A) (A) (A) (A) (A) (A)
 The electronic state of the initial guess is 1-A.
 Requested convergence on RMS density matrix=1.00D-08 within 128 cycles.
 Requested convergence on MAX density matrix=1.00D-06.
 Requested convergence on             energy=1.00D-06.
 No special actions if energy rises.
 SCF Done:  E(RB3LYP) =  -1297.93646724     A.U. after   14 cycles
             Convg  =    0.2520D-08             -V/T =  2.0087
 Range of M.O.s used for correlation:     1   547
 NBasis=   547 NAE=    91 NBE=    91 NFC=     0 NFV=     0
 NROrb=    547 NOA=    91 NOB=    91 NVA=   456 NVB=   456

 **** Warning!!: The largest alpha MO coefficient is  0.90614632D+02

          Differentiating once with respect to electric field.
                with respect to dipole field.
          Electric field/nuclear overlap derivatives assumed to be zero.
          There are     3 degrees of freedom in the 1st order CPHF.  IDoFFX=0.
      3 vectors produced by pass  0 Test12= 1.38D-12 3.33D-08 XBig12= 1.20D+02 1.10D+00.
 AX will form     3 AO Fock derivatives at one time.
      3 vectors produced by pass  1 Test12= 1.38D-12 3.33D-08 XBig12= 2.18D+01 3.46D-01.
      3 vectors produced by pass  2 Test12= 1.38D-12 3.33D-08 XBig12= 9.58D+00 2.22D-01.
      3 vectors produced by pass  3 Test12= 1.38D-12 3.33D-08 XBig12= 8.66D-01 8.88D-02.
      3 vectors produced by pass  4 Test12= 1.38D-12 3.33D-08 XBig12= 2.21D-01 3.43D-02.
      3 vectors produced by pass  5 Test12= 1.38D-12 3.33D-08 XBig12= 5.12D-02 1.89D-02.
      3 vectors produced by pass  6 Test12= 1.38D-12 3.33D-08 XBig12= 1.53D-02 1.58D-02.
      3 vectors produced by pass  7 Test12= 1.38D-12 3.33D-08 XBig12= 2.18D-03 6.43D-03.
      3 vectors produced by pass  8 Test12= 1.38D-12 3.33D-08 XBig12= 4.79D-04 1.97D-03.
      3 vectors produced by pass  9 Test12= 1.38D-12 3.33D-08 XBig12= 1.40D-04 1.14D-03.
      3 vectors produced by pass 10 Test12= 1.38D-12 3.33D-08 XBig12= 2.89D-05 4.31D-04.
      3 vectors produced by pass 11 Test12= 1.38D-12 3.33D-08 XBig12= 7.25D-06 2.66D-04.
      3 vectors produced by pass 12 Test12= 1.38D-12 3.33D-08 XBig12= 7.50D-07 9.12D-05.
      3 vectors produced by pass 13 Test12= 1.38D-12 3.33D-08 XBig12= 2.67D-07 5.27D-05.
      3 vectors produced by pass 14 Test12= 1.38D-12 3.33D-08 XBig12= 3.34D-08 1.97D-05.
      3 vectors produced by pass 15 Test12= 1.38D-12 3.33D-08 XBig12= 9.82D-09 8.24D-06.
      3 vectors produced by pass 16 Test12= 1.38D-12 3.33D-08 XBig12= 1.00D-09 3.20D-06.
      3 vectors produced by pass 17 Test12= 1.38D-12 3.33D-08 XBig12= 6.79D-11 5.84D-07.
      3 vectors produced by pass 18 Test12= 1.38D-12 3.33D-08 XBig12= 1.80D-11 2.75D-07.
      3 vectors produced by pass 19 Test12= 1.38D-12 3.33D-08 XBig12= 1.86D-11 3.89D-07.
      2 vectors produced by pass 20 Test12= 1.38D-12 3.33D-08 XBig12= 1.35D-11 2.95D-07.
      2 vectors produced by pass 21 Test12= 1.38D-12 3.33D-08 XBig12= 3.76D-12 1.43D-07.
      1 vectors produced by pass 22 Test12= 1.38D-12 3.33D-08 XBig12= 5.11D-13 6.48D-08.
 Inverted reduced A of dimension    65 with in-core refinement.
 End of Minotr Frequency-dependent properties file   721 does not exist.
 End of Minotr Frequency-dependent properties file   722 does not exist.
 Symmetrizing basis deriv contribution to polar:
 IMax=3 JMax=2 DiffMx= 0.00D+00
 G2DrvN: will do    23 centers at a time, making    2 passes doing MaxLOS=2.
 Calling FoFCou, ICntrl=  3107 FMM=F I1Cent=   0 AccDes= 0.00D+00.
 Calling FoFCou, ICntrl=  3107 FMM=F I1Cent=   0 AccDes= 0.00D+00.
 FoFDir/FoFCou used for L=0 through L=2.
 End of G2Drv Frequency-dependent properties file   721 does not exist.
 End of G2Drv Frequency-dependent properties file   722 does not exist.
          IDoAtm=111111111111111111111111111111111111111111111
          Differentiating once with respect to electric field.
                with respect to dipole field.
          Differentiating once with respect to nuclear coordinates.
          There are   138 degrees of freedom in the 1st order CPHF.  IDoFFX=5.
 Will reuse    3 saved solutions.
    135 vectors produced by pass  0 Test12= 4.15D-14 1.00D-09 XBig12= 2.55D-01 1.08D-01.
 AX will form    68 AO Fock derivatives at one time.
    135 vectors produced by pass  1 Test12= 4.15D-14 1.00D-09 XBig12= 3.45D-02 1.94D-02.
    132 vectors produced by pass  2 Test12= 4.15D-14 1.00D-09 XBig12= 2.18D-04 1.62D-03.
    132 vectors produced by pass  3 Test12= 4.15D-14 1.00D-09 XBig12= 8.42D-07 9.24D-05.
    132 vectors produced by pass  4 Test12= 4.15D-14 1.00D-09 XBig12= 1.46D-09 2.37D-06.
    132 vectors produced by pass  5 Test12= 4.15D-14 1.00D-09 XBig12= 3.98D-12 1.83D-07.
     80 vectors produced by pass  6 Test12= 4.15D-14 1.00D-09 XBig12= 1.47D-13 2.81D-08.
      1 vectors produced by pass  7 Test12= 4.15D-14 1.00D-09 XBig12= 3.18D-16 1.02D-09.
 Inverted reduced A of dimension   879 with in-core refinement.
 Isotropic polarizability for W=    0.000000      188.26 Bohr**3.
 End of Minotr Frequency-dependent properties file   721 does not exist.
 End of Minotr Frequency-dependent properties file   722 does not exist.

 **********************************************************************

            Population analysis using the SCF density.

 **********************************************************************

 Orbital symmetries:
       Occupied  (A) (A) (A) (A) (A) (A) (A) (A) (A) (A) (A) (A)
                 (A) (A) (A) (A) (A) (A) (A) (A) (A) (A) (A) (A)
                 (A) (A) (A) (A) (A) (A) (A) (A) (A) (A) (A) (A)
                 (A) (A) (A) (A) (A) (A) (A) (A) (A) (A) (A) (A)
                 (A) (A) (A) (A) (A) (A) (A) (A) (A) (A) (A) (A)
                 (A) (A) (A) (A) (A) (A) (A) (A) (A) (A) (A) (A)
                 (A) (A) (A) (A) (A) (A) (A) (A) (A) (A) (A) (A)
                 (A) (A) (A) (A) (A) (A) (A)
       Virtual   (A) (A) (A) (A) (A) (A) (A) (A) (A) (A) (A) (A)
                 (A) (A) (A) (A) (A) (A) (A) (A) (A) (A) (A) (A)
                 (A) (A) (A) (A) (A) (A) (A) (A) (A) (A) (A) (A)
                 (A) (A) (A) (A) (A) (A) (A) (A) (A) (A) (A) (A)
                 (A) (A) (A) (A) (A) (A) (A) (A) (A) (A) (A) (A)
                 (A) (A) (A) (A) (A) (A) (A) (A) (A) (A) (A) (A)
                 (A) (A) (A) (A) (A) (A) (A) (A) (A) (A) (A) (A)
                 (A) (A) (A) (A) (A) (A) (A) (A) (A) (A) (A) (A)
                 (A) (A) (A) (A) (A) (A) (A) (A) (A) (A) (A) (A)
                 (A) (A) (A) (A) (A) (A) (A) (A) (A) (A) (A) (A)
                 (A) (A) (A) (A) (A) (A) (A) (A) (A) (A) (A) (A)
                 (A) (A) (A) (A) (A) (A) (A) (A) (A) (A) (A) (A)
                 (A) (A) (A) (A) (A) (A) (A) (A) (A) (A) (A) (A)
                 (A) (A) (A) (A) (A) (A) (A) (A) (A) (A) (A) (A)
                 (A) (A) (A) (A) (A) (A) (A) (A) (A) (A) (A) (A)
                 (A) (A) (A) (A) (A) (A) (A) (A) (A) (A) (A) (A)
                 (A) (A) (A) (A) (A) (A) (A) (A) (A) (A) (A) (A)
                 (A) (A) (A) (A) (A) (A) (A) (A) (A) (A) (A) (A)
                 (A) (A) (A) (A) (A) (A) (A) (A) (A) (A) (A) (A)
                 (A) (A) (A) (A) (A) (A) (A) (A) (A) (A) (A) (A)
                 (A) (A) (A) (A) (A) (A) (A) (A) (A) (A) (A) (A)
                 (A) (A) (A) (A) (A) (A) (A) (A) (A) (A) (A) (A)
                 (A) (A) (A) (A) (A) (A) (A) (A) (A) (A) (A) (A)
                 (A) (A) (A) (A) (A) (A) (A) (A) (A) (A) (A) (A)
                 (A) (A) (A) (A) (A) (A) (A) (A) (A) (A) (A) (A)
                 (A) (A) (A) (A) (A) (A) (A) (A) (A) (A) (A) (A)
                 (A) (A) (A) (A) (A) (A) (A) (A) (A) (A) (A) (A)
                 (A) (A) (A) (A) (A) (A) (A) (A) (A) (A) (A) (A)
                 (A) (A) (A) (A) (A) (A) (A) (A) (A) (A) (A) (A)
                 (A) (A) (A) (A) (A) (A) (A) (A) (A) (A) (A) (A)
                 (A) (A) (A) (A) (A) (A) (A) (A) (A) (A) (A) (A)
                 (A) (A) (A) (A) (A) (A) (A) (A) (A) (A) (A) (A)
                 (A) (A) (A) (A) (A) (A) (A) (A) (A) (A) (A) (A)
                 (A) (A) (A) (A) (A) (A) (A) (A) (A) (A) (A) (A)
                 (A) (A) (A) (A) (A) (A) (A) (A) (A) (A) (A) (A)
                 (A) (A) (A) (A) (A) (A) (A) (A) (A) (A) (A) (A)
                 (A) (A) (A) (A) (A) (A) (A) (A) (A) (A) (A) (A)
                 (A) (A) (A) (A) (A) (A) (A) (A) (A) (A) (A) (A)
 The electronic state is 1-A.
 Alpha  occ. eigenvalues --  -19.20057 -19.19295 -19.18961 -19.18889 -19.18787
 Alpha  occ. eigenvalues --  -19.17396 -19.16961 -19.16516 -19.15759 -19.14823
 Alpha  occ. eigenvalues --  -19.14035 -10.31675 -10.30653 -10.26454 -10.26035
 Alpha  occ. eigenvalues --  -10.26013 -10.25550 -10.25436 -10.25312 -10.24879
 Alpha  occ. eigenvalues --  -10.24505 -10.24081 -10.24073  -1.10114  -1.09514
 Alpha  occ. eigenvalues --   -1.05922  -1.04844  -1.03863  -1.03534  -1.02659
 Alpha  occ. eigenvalues --   -1.02231  -1.01846  -1.00878  -0.99745  -0.82106
 Alpha  occ. eigenvalues --   -0.80159  -0.80122  -0.77982  -0.72302  -0.70191
 Alpha  occ. eigenvalues --   -0.67526  -0.64828  -0.63288  -0.62044  -0.61718
 Alpha  occ. eigenvalues --   -0.60538  -0.56573  -0.55980  -0.54970  -0.54745
 Alpha  occ. eigenvalues --   -0.53489  -0.53291  -0.53051  -0.51816  -0.51650
 Alpha  occ. eigenvalues --   -0.50815  -0.50211  -0.49134  -0.48135  -0.46759
 Alpha  occ. eigenvalues --   -0.46497  -0.44982  -0.44124  -0.43418  -0.43191
 Alpha  occ. eigenvalues --   -0.42545  -0.41779  -0.40823  -0.40057  -0.39404
 Alpha  occ. eigenvalues --   -0.39092  -0.38098  -0.37918  -0.35887  -0.35111
 Alpha  occ. eigenvalues --   -0.34996  -0.34608  -0.34412  -0.34152  -0.33473
 Alpha  occ. eigenvalues --   -0.32731  -0.31469  -0.31033  -0.30281  -0.29913
 Alpha  occ. eigenvalues --   -0.29261  -0.28355  -0.28278  -0.27527  -0.26673
 Alpha  occ. eigenvalues --   -0.26022
 Alpha virt. eigenvalues --   -0.02069  -0.02040  -0.01664  -0.00224   0.00113
 Alpha virt. eigenvalues --    0.01105   0.02059   0.02397   0.02983   0.03502
 Alpha virt. eigenvalues --    0.03741   0.04341   0.04826   0.05440   0.05870
 Alpha virt. eigenvalues --    0.06171   0.06604   0.07520   0.07661   0.08013
 Alpha virt. eigenvalues --    0.08494   0.08789   0.09129   0.09423   0.10103
 Alpha virt. eigenvalues --    0.10484   0.11003   0.11551   0.12010   0.12204
 Alpha virt. eigenvalues --    0.12521   0.13063   0.13298   0.13665   0.13832
 Alpha virt. eigenvalues --    0.14177   0.14423   0.14685   0.15063   0.15383
 Alpha virt. eigenvalues --    0.15438   0.16622   0.17141   0.17364   0.17414
 Alpha virt. eigenvalues --    0.17660   0.17978   0.18052   0.18196   0.18599
 Alpha virt. eigenvalues --    0.18750   0.19272   0.19662   0.20060   0.20329
 Alpha virt. eigenvalues --    0.20654   0.20854   0.21270   0.21353   0.21754
 Alpha virt. eigenvalues --    0.22160   0.22399   0.22714   0.23172   0.23393
 Alpha virt. eigenvalues --    0.23512   0.23771   0.24128   0.24206   0.24732
 Alpha virt. eigenvalues --    0.25202   0.25342   0.25501   0.25971   0.26202
 Alpha virt. eigenvalues --    0.26270   0.26795   0.27033   0.27330   0.27605
 Alpha virt. eigenvalues --    0.27706   0.28158   0.28369   0.28893   0.28994
 Alpha virt. eigenvalues --    0.29492   0.29652   0.30273   0.30480   0.30750
 Alpha virt. eigenvalues --    0.31336   0.31473   0.31593   0.32175   0.32192
 Alpha virt. eigenvalues --    0.32648   0.33169   0.33446   0.33869   0.34338
 Alpha virt. eigenvalues --    0.34524   0.34946   0.35023   0.35535   0.35691
 Alpha virt. eigenvalues --    0.36043   0.36634   0.37309   0.37536   0.37671
 Alpha virt. eigenvalues --    0.38134   0.38641   0.38932   0.39222   0.39675
 Alpha virt. eigenvalues --    0.40274   0.40376   0.40750   0.41481   0.41813
 Alpha virt. eigenvalues --    0.42249   0.42720   0.43430   0.43782   0.44482
 Alpha virt. eigenvalues --    0.44890   0.46012   0.46186   0.46857   0.48115
 Alpha virt. eigenvalues --    0.48364   0.48778   0.49374   0.49744   0.50395
 Alpha virt. eigenvalues --    0.51478   0.52319   0.54758   0.63177   0.63943
 Alpha virt. eigenvalues --    0.65214   0.66244   0.67077   0.69040   0.69682
 Alpha virt. eigenvalues --    0.70644   0.71402   0.72046   0.73164   0.73282
 Alpha virt. eigenvalues --    0.75214   0.75662   0.77479   0.77838   0.79076
 Alpha virt. eigenvalues --    0.79875   0.81089   0.81451   0.82142   0.82653
 Alpha virt. eigenvalues --    0.85079   0.85643   0.86832   0.88909   0.90026
 Alpha virt. eigenvalues --    0.91658   0.91944   0.92858   0.94040   0.94501
 Alpha virt. eigenvalues --    0.96835   0.97446   0.97752   0.99403   1.00699
 Alpha virt. eigenvalues --    1.01693   1.01921   1.02410   1.03728   1.04256
 Alpha virt. eigenvalues --    1.05021   1.05376   1.06240   1.06490   1.07438
 Alpha virt. eigenvalues --    1.07958   1.09131   1.09646   1.10103   1.11616
 Alpha virt. eigenvalues --    1.11683   1.12007   1.12772   1.13908   1.14505
 Alpha virt. eigenvalues --    1.15780   1.18176   1.20231   1.20883   1.21606
 Alpha virt. eigenvalues --    1.22446   1.22622   1.23251   1.25356   1.26075
 Alpha virt. eigenvalues --    1.26090   1.26751   1.27048   1.27536   1.28667
 Alpha virt. eigenvalues --    1.28927   1.29548   1.30181   1.31877   1.32106
 Alpha virt. eigenvalues --    1.32520   1.33229   1.33761   1.34145   1.34859
 Alpha virt. eigenvalues --    1.35014   1.35802   1.37315   1.38146   1.38580
 Alpha virt. eigenvalues --    1.39805   1.40122   1.41677   1.42090   1.42900
 Alpha virt. eigenvalues --    1.44483   1.45727   1.46152   1.46886   1.47302
 Alpha virt. eigenvalues --    1.48789   1.49983   1.50563   1.51910   1.53333
 Alpha virt. eigenvalues --    1.53919   1.55618   1.56277   1.57601   1.57899
 Alpha virt. eigenvalues --    1.58727   1.59135   1.60052   1.60751   1.60946
 Alpha virt. eigenvalues --    1.62169   1.63172   1.64716   1.64932   1.65730
 Alpha virt. eigenvalues --    1.66636   1.66905   1.68106   1.68785   1.69708
 Alpha virt. eigenvalues --    1.70085   1.70936   1.72066   1.72650   1.73218
 Alpha virt. eigenvalues --    1.74343   1.75381   1.76132   1.76972   1.77752
 Alpha virt. eigenvalues --    1.78627   1.79303   1.80135   1.81281   1.81607
 Alpha virt. eigenvalues --    1.83578   1.84748   1.85470   1.86024   1.86694
 Alpha virt. eigenvalues --    1.88306   1.89040   1.90004   1.91194   1.91634
 Alpha virt. eigenvalues --    1.92061   1.93036   1.93363   1.94505   1.95134
 Alpha virt. eigenvalues --    1.95696   1.96221   1.96854   1.97540   1.98176
 Alpha virt. eigenvalues --    1.99553   2.00733   2.01217   2.01717   2.02161
 Alpha virt. eigenvalues --    2.03101   2.03933   2.05589   2.06107   2.06856
 Alpha virt. eigenvalues --    2.07765   2.08661   2.09653   2.10452   2.12191
 Alpha virt. eigenvalues --    2.12684   2.13232   2.14114   2.14897   2.16464
 Alpha virt. eigenvalues --    2.17074   2.18015   2.18326   2.19456   2.21253
 Alpha virt. eigenvalues --    2.22112   2.22489   2.23550   2.25539   2.27566
 Alpha virt. eigenvalues --    2.29528   2.30867   2.33006   2.34680   2.35048
 Alpha virt. eigenvalues --    2.35489   2.35943   2.37348   2.38349   2.38931
 Alpha virt. eigenvalues --    2.40255   2.40662   2.41956   2.42864   2.43874
 Alpha virt. eigenvalues --    2.45950   2.46261   2.47120   2.47997   2.48818
 Alpha virt. eigenvalues --    2.51103   2.52029   2.52288   2.55504   2.55901
 Alpha virt. eigenvalues --    2.56824   2.57813   2.58414   2.59228   2.60964
 Alpha virt. eigenvalues --    2.61900   2.62390   2.63317   2.63735   2.64476
 Alpha virt. eigenvalues --    2.65193   2.66229   2.66687   2.68664   2.69133
 Alpha virt. eigenvalues --    2.70619   2.72063   2.72399   2.73024   2.74571
 Alpha virt. eigenvalues --    2.76045   2.77139   2.77885   2.79264   2.80017
 Alpha virt. eigenvalues --    2.81920   2.82345   2.82673   2.84696   2.86024
 Alpha virt. eigenvalues --    2.86960   2.87980   2.88508   2.89609   2.90359
 Alpha virt. eigenvalues --    2.90601   2.92307   2.93147   2.93467   2.94367
 Alpha virt. eigenvalues --    2.95126   2.96162   2.96736   2.97685   2.99995
 Alpha virt. eigenvalues --    3.00611   3.02363   3.04562   3.05216   3.06078
 Alpha virt. eigenvalues --    3.07656   3.07976   3.09460   3.10703   3.14987
 Alpha virt. eigenvalues --    3.16281   3.18320   3.19692   3.25521   3.31348
 Alpha virt. eigenvalues --    3.33152   3.35484   3.37667   3.38419   3.40972
 Alpha virt. eigenvalues --    3.42261   3.45519   3.46341   3.47171   3.48752
 Alpha virt. eigenvalues --    3.49264   3.50246   3.52671   3.52843   3.54183
 Alpha virt. eigenvalues --    3.56392   3.57800   3.60432   3.62237   3.64826
 Alpha virt. eigenvalues --    3.67587   3.69122   3.72438   4.29132   4.31817
 Alpha virt. eigenvalues --    4.36042   4.39130   4.39320   4.41434   4.44393
 Alpha virt. eigenvalues --    4.45588   4.47416   4.51232   4.54170   4.55765
 Alpha virt. eigenvalues --    4.56931   4.60503   4.61553   4.65479   4.70403
 Alpha virt. eigenvalues --    4.78355   4.80751   4.86524   4.87743   4.89394
 Alpha virt. eigenvalues --    4.90102
          Condensed to atoms (all electrons):
              1          2          3          4          5          6
     1  O    8.259925   0.299571  -0.074121  -0.009698   0.018393   0.073573
     2  C    0.299571   8.765858  -0.462221   0.040956  -0.086061  -3.070529
     3  C   -0.074121  -0.462221   9.055643   0.001829   0.126100  -1.713390
     4  O   -0.009698   0.040956   0.001829   8.297673   0.182027  -0.042475
     5  H    0.018393  -0.086061   0.126100   0.182027   0.445875  -0.042889
     6  C    0.073573  -3.070529  -1.713390  -0.042475  -0.042889  16.266438
     7  O   -0.000874   0.051178  -0.119601   0.004563  -0.000639   0.268752
     8  H    0.000022  -0.010762   0.029324  -0.000608   0.000017   0.028553
     9  C   -0.026568  -0.223591  -0.398722   0.008055  -0.003984   0.944013
    10  O   -0.029755  -0.022757   0.010912   0.000245  -0.000035  -0.000799
    11  H    0.003051  -0.004850  -0.001799   0.000001   0.000000   0.000733
    12  C   -0.236289  -1.384123  -1.112754   0.010614   0.015915   1.399947
    13  O    0.007249  -0.010245   0.006858  -0.000461   0.000036  -0.091434
    14  C    0.021650   1.432519   0.688353   0.060993   0.004265  -6.400257
    15  O    0.000534  -0.043646   0.010223  -0.001325   0.000068   0.224321
    16  C    0.004488   0.124037  -0.080792  -0.002890   0.001131  -1.069968
    17  C    0.000496   0.008382   0.023880   0.000962   0.000054  -0.148090
    18  O    0.000034   0.006949  -0.003798  -0.000011   0.000000   0.011721
    19  H   -0.000033  -0.006169   0.007566   0.000000   0.000000   0.013144
    20  C    0.000095   0.002436  -0.010035  -0.000107   0.000001   0.117967
    21  O    0.000000   0.000020  -0.000020   0.000000   0.000000  -0.000597
    22  H    0.000000   0.000001   0.000002   0.000000   0.000000  -0.000069
    23  C    0.000192   0.017342  -0.034372   0.000934  -0.000018  -0.298587
    24  O    0.000004   0.001697  -0.001331   0.000152  -0.000009  -0.022490
    25  H    0.000000   0.000083   0.000686  -0.000004   0.000000  -0.005267
    26  C   -0.000326   0.007441   0.005557   0.000232   0.000011  -0.194987
    27  O    0.000000  -0.000027   0.001074   0.000001   0.000000   0.004719
    28  C   -0.000006   0.000812   0.003433  -0.000002   0.000000   0.005172
    29  O    0.000000  -0.000003   0.000041   0.000000   0.000000  -0.000582
    30  H    0.241023   0.066281  -0.027247   0.000685  -0.001705  -0.002336
    31  H   -0.000387   0.002491  -0.005394   0.000024   0.000000  -0.001869
    32  H    0.002623  -0.030561   0.005059  -0.000029   0.000000   0.018872
    33  H    0.008735   0.006877   0.013065   0.000186  -0.000015  -0.088902
    34  H   -0.045322   0.431786  -0.090453   0.002401  -0.001545  -0.029348
    35  H   -0.008207   0.122698   0.301711  -0.038788  -0.003131  -0.314718
    36  H   -0.000649   0.080870  -0.209476   0.003900   0.000155   0.314723
    37  H    0.000174   0.032970  -0.049054  -0.000517   0.000005  -0.118351
    38  H    0.000000   0.000000   0.000000   0.000000   0.000000   0.000008
    39  H    0.000000   0.000008  -0.000065   0.000000   0.000000  -0.000565
    40  H    0.000000  -0.000042   0.000578   0.000000   0.000000   0.003828
    41  H    0.000000  -0.000058   0.000572   0.000000   0.000000   0.000611
    42  H   -0.000002   0.000006   0.001968   0.000000   0.000000   0.002708
    43  H    0.000000  -0.000226   0.000302   0.000000   0.000000   0.005170
    44  H    0.000000   0.000021   0.000100   0.000000   0.000000   0.001221
    45  H    0.000000  -0.000004   0.000011   0.000000   0.000000   0.000254
              7          8          9         10         11         12
     1  O   -0.000874   0.000022  -0.026568  -0.029755   0.003051  -0.236289
     2  C    0.051178  -0.010762  -0.223591  -0.022757  -0.004850  -1.384123
     3  C   -0.119601   0.029324  -0.398722   0.010912  -0.001799  -1.112754
     4  O    0.004563  -0.000608   0.008055   0.000245   0.000001   0.010614
     5  H   -0.000639   0.000017  -0.003984  -0.000035   0.000000   0.015915
     6  C    0.268752   0.028553   0.944013  -0.000799   0.000733   1.399947
     7  O    8.250579   0.208351   0.001235   0.000021   0.000000  -0.001894
     8  H    0.208351   0.347062   0.000324   0.000000   0.000000   0.001336
     9  C    0.001235   0.000324   9.665825  -0.014207   0.028280  -3.333928
    10  O    0.000021   0.000000  -0.014207   8.377772   0.187611   0.136284
    11  H    0.000000   0.000000   0.028280   0.187611   0.438813   0.003978
    12  C   -0.001894   0.001336  -3.333928   0.136284   0.003978  12.921026
    13  O    0.007462   0.000767   0.059247  -0.002968   0.000320  -0.283197
    14  C   -0.103927  -0.061478  -1.301126   0.006217  -0.006835  -1.709024
    15  O   -0.005883   0.020829  -0.000618   0.000072   0.000011   0.038380
    16  C    0.044788   0.014391  -0.423950  -0.004786  -0.000081  -0.066104
    17  C   -0.000045   0.002849  -0.035287   0.000173  -0.000003  -0.207042
    18  O    0.000034  -0.000021   0.003867  -0.000058   0.000020  -0.007351
    19  H   -0.000051  -0.000008  -0.002455   0.000037  -0.000003  -0.001005
    20  C    0.003662   0.001259   0.014417   0.000086  -0.000007  -0.057636
    21  O   -0.000005   0.000000   0.000016   0.000000   0.000000   0.000082
    22  H    0.000000   0.000000  -0.000010   0.000000   0.000000   0.000067
    23  C    0.040694   0.014686  -0.010760  -0.000050  -0.000001  -0.052608
    24  O   -0.031896  -0.006977  -0.000048  -0.000001   0.000000   0.001240
    25  H    0.002554  -0.003214  -0.000024   0.000000   0.000000  -0.000525
    26  C   -0.028192  -0.029987  -0.025855  -0.000093   0.000005   0.087111
    27  O    0.000108   0.000079  -0.000317   0.000000   0.000000  -0.000484
    28  C   -0.001359  -0.000163  -0.002672   0.000002   0.000000   0.011650
    29  O   -0.000003  -0.000001  -0.000040   0.000000   0.000000   0.000112
    30  H   -0.000009   0.000000  -0.011142  -0.000650  -0.000090  -0.014298
    31  H   -0.000005   0.000000   0.373635  -0.042055  -0.012001  -0.001969
    32  H   -0.000002   0.000000   0.676018  -0.064473  -0.001857  -0.323156
    33  H   -0.000040   0.000008  -0.029819   0.004924  -0.000152   0.143064
    34  H   -0.000017   0.000005   0.003739  -0.000269   0.000009  -0.113761
    35  H    0.007677  -0.000077   0.027906   0.000180   0.000001  -0.043493
    36  H   -0.046756  -0.005580   0.014001   0.000017   0.000000  -0.007397
    37  H    0.003733  -0.000729   0.002076   0.000046   0.000001  -0.035943
    38  H    0.000000   0.000000   0.000000   0.000000   0.000000  -0.000004
    39  H   -0.000649   0.000343  -0.000005   0.000000   0.000000  -0.000068
    40  H    0.001385   0.000774   0.000024   0.000000   0.000000   0.000902
    41  H    0.000039   0.000024   0.000137   0.000000   0.000000   0.001500
    42  H   -0.000366   0.000025  -0.000066   0.000002   0.000000   0.003420
    43  H    0.000009   0.000002   0.000434   0.000000   0.000000   0.000169
    44  H    0.000002   0.000000  -0.000057   0.000000   0.000000   0.000092
    45  H    0.000000   0.000000   0.000008   0.000000   0.000000   0.000034
             13         14         15         16         17         18
     1  O    0.007249   0.021650   0.000534   0.004488   0.000496   0.000034
     2  C   -0.010245   1.432519  -0.043646   0.124037   0.008382   0.006949
     3  C    0.006858   0.688353   0.010223  -0.080792   0.023880  -0.003798
     4  O   -0.000461   0.060993  -0.001325  -0.002890   0.000962  -0.000011
     5  H    0.000036   0.004265   0.000068   0.001131   0.000054   0.000000
     6  C   -0.091434  -6.400257   0.224321  -1.069968  -0.148090   0.011721
     7  O    0.007462  -0.103927  -0.005883   0.044788  -0.000045   0.000034
     8  H    0.000767  -0.061478   0.020829   0.014391   0.002849  -0.000021
     9  C    0.059247  -1.301126  -0.000618  -0.423950  -0.035287   0.003867
    10  O   -0.002968   0.006217   0.000072  -0.004786   0.000173  -0.000058
    11  H    0.000320  -0.006835   0.000011  -0.000081  -0.000003   0.000020
    12  C   -0.283197  -1.709024   0.038380  -0.066104  -0.207042  -0.007351
    13  O    8.424340   0.307495  -0.018662   0.077491  -0.018658   0.021544
    14  C    0.307495  13.608833   0.008925  -0.340554  -0.360770  -0.057573
    15  O   -0.018662   0.008925   8.358787  -0.076211   0.006898  -0.007830
    16  C    0.077491  -0.340554  -0.076211  14.943853  -2.912475  -0.140724
    17  C   -0.018658  -0.360770   0.006898  -2.912475   9.089455   0.375182
    18  O    0.021544  -0.057573  -0.007830  -0.140724   0.375182   8.179263
    19  H    0.006450   0.009512   0.031231  -0.127814   0.063655   0.182519
    20  C   -0.013946  -0.265936   0.042012  -1.714156  -0.162207  -0.107707
    21  O   -0.000067   0.001871  -0.000189  -0.021374  -0.169473   0.015902
    22  H    0.000000  -0.000412   0.000033  -0.003435   0.024304  -0.000762
    23  C    0.023109  -0.349665  -0.033663   0.019625  -0.147247   0.007803
    24  O   -0.002315   0.111554  -0.035672   0.044258   0.001257   0.000093
    25  H    0.000046  -0.007716   0.002245  -0.012754  -0.000567   0.000000
    26  C   -0.029000  -0.500205  -0.024378  -4.031977   1.027962   0.070082
    27  O    0.000169  -0.017146   0.008647  -0.101412  -0.019937   0.001285
    28  C    0.001713   0.071428   0.010899   1.088473  -0.461202  -0.011048
    29  O    0.000017  -0.001138   0.000164   0.001181  -0.012718  -0.001103
    30  H   -0.000725   0.003814  -0.000016   0.000319  -0.000049   0.000000
    31  H    0.000168   0.005863  -0.000331   0.008662  -0.001755  -0.001394
    32  H    0.006918   0.010604   0.000074  -0.008768   0.002125   0.000280
    33  H   -0.047375   0.208076   0.001367   0.011300   0.007773   0.000284
    34  H    0.004754   0.086114  -0.000058   0.000925   0.001231   0.000042
    35  H    0.005060   0.165327  -0.001006   0.007821   0.001256   0.000028
    36  H    0.010634   0.044168  -0.012415   0.044857   0.004895   0.000103
    37  H   -0.068221   0.380742  -0.059103   0.065123   0.030286  -0.001274
    38  H    0.000000   0.000098  -0.000001  -0.006843   0.021581  -0.000012
    39  H    0.000000   0.001830   0.000110   0.011657  -0.004263   0.000026
    40  H    0.000079   0.003990   0.003881   0.009329  -0.005634   0.000016
    41  H   -0.000157   0.053588   0.002376   0.035153  -0.067746  -0.000171
    42  H   -0.000399   0.000414  -0.070785   0.357285  -0.049841  -0.002732
    43  H    0.001765   0.032094  -0.010907   0.045133   0.298287  -0.049298
    44  H    0.000246   0.002357  -0.001153   0.109733  -0.198820   0.004448
    45  H   -0.000002   0.005605   0.000158   0.106647  -0.046565  -0.000708
             19         20         21         22         23         24
     1  O   -0.000033   0.000095   0.000000   0.000000   0.000192   0.000004
     2  C   -0.006169   0.002436   0.000020   0.000001   0.017342   0.001697
     3  C    0.007566  -0.010035  -0.000020   0.000002  -0.034372  -0.001331
     4  O    0.000000  -0.000107   0.000000   0.000000   0.000934   0.000152
     5  H    0.000000   0.000001   0.000000   0.000000  -0.000018  -0.000009
     6  C    0.013144   0.117967  -0.000597  -0.000069  -0.298587  -0.022490
     7  O   -0.000051   0.003662  -0.000005   0.000000   0.040694  -0.031896
     8  H   -0.000008   0.001259   0.000000   0.000000   0.014686  -0.006977
     9  C   -0.002455   0.014417   0.000016  -0.000010  -0.010760  -0.000048
    10  O    0.000037   0.000086   0.000000   0.000000  -0.000050  -0.000001
    11  H   -0.000003  -0.000007   0.000000   0.000000  -0.000001   0.000000
    12  C   -0.001005  -0.057636   0.000082   0.000067  -0.052608   0.001240
    13  O    0.006450  -0.013946  -0.000067   0.000000   0.023109  -0.002315
    14  C    0.009512  -0.265936   0.001871  -0.000412  -0.349665   0.111554
    15  O    0.031231   0.042012  -0.000189   0.000033  -0.033663  -0.035672
    16  C   -0.127814  -1.714156  -0.021374  -0.003435   0.019625   0.044258
    17  C    0.063655  -0.162207  -0.169473   0.024304  -0.147247   0.001257
    18  O    0.182519  -0.107707   0.015902  -0.000762   0.007803   0.000093
    19  H    0.392892   0.040746  -0.000913   0.000008  -0.007214   0.000041
    20  C    0.040746   8.642988   0.324056  -0.000117   0.198701  -0.007872
    21  O   -0.000913   0.324056   8.222947   0.203278   0.000810   0.000010
    22  H    0.000008  -0.000117   0.203278   0.425352  -0.000594   0.000000
    23  C   -0.007214   0.198701   0.000810  -0.000594   7.097797  -0.225764
    24  O    0.000041  -0.007872   0.000010   0.000000  -0.225764   8.561431
    25  H    0.000000   0.000502   0.000000   0.000000   0.045966   0.193713
    26  C    0.010678   0.188326   0.037436  -0.000637  -1.050655   0.136235
    27  O    0.000070  -0.187692   0.003375   0.000232  -0.083152   0.001650
    28  C   -0.002517  -0.963487  -0.067082  -0.015368  -0.185842   0.007703
    29  O    0.000037  -0.120517  -0.004829   0.021371  -0.007652   0.000038
    30  H    0.000000   0.000000   0.000000   0.000000   0.000006   0.000000
    31  H    0.000321  -0.000689  -0.000005   0.000000   0.000042   0.000000
    32  H   -0.000075   0.000384   0.000000   0.000000  -0.000003   0.000000
    33  H    0.000227   0.000686   0.000000   0.000000   0.000731   0.000010
    34  H   -0.000001   0.000006   0.000000   0.000000   0.000117   0.000008
    35  H   -0.000002  -0.000035   0.000000   0.000000   0.000833   0.000073
    36  H   -0.000026   0.000327   0.000000   0.000000   0.011447   0.001700
    37  H   -0.000026   0.007720   0.000012   0.000000   0.012604   0.000671
    38  H    0.000000  -0.028216  -0.000502  -0.002551   0.002117  -0.000001
    39  H    0.000000   0.001849  -0.000005   0.000000   0.413520  -0.041035
    40  H    0.000001   0.000518  -0.000003   0.000000   0.549407  -0.079160
    41  H    0.000026  -0.023428   0.000042   0.000003  -0.010671   0.004360
    42  H   -0.000764   0.022602  -0.000446   0.000003   0.016283  -0.000817
    43  H   -0.006063  -0.113368   0.000632  -0.000175   0.017721  -0.000011
    44  H   -0.000101   0.372753  -0.047478  -0.005636   0.012614  -0.000003
    45  H    0.000006  -0.108336   0.004815  -0.000200  -0.006814   0.000008
             25         26         27         28         29         30
     1  O    0.000000  -0.000326   0.000000  -0.000006   0.000000   0.241023
     2  C    0.000083   0.007441  -0.000027   0.000812  -0.000003   0.066281
     3  C    0.000686   0.005557   0.001074   0.003433   0.000041  -0.027247
     4  O   -0.000004   0.000232   0.000001  -0.000002   0.000000   0.000685
     5  H    0.000000   0.000011   0.000000   0.000000   0.000000  -0.001705
     6  C   -0.005267  -0.194987   0.004719   0.005172  -0.000582  -0.002336
     7  O    0.002554  -0.028192   0.000108  -0.001359  -0.000003  -0.000009
     8  H   -0.003214  -0.029987   0.000079  -0.000163  -0.000001   0.000000
     9  C   -0.000024  -0.025855  -0.000317  -0.002672  -0.000040  -0.011142
    10  O    0.000000  -0.000093   0.000000   0.000002   0.000000  -0.000650
    11  H    0.000000   0.000005   0.000000   0.000000   0.000000  -0.000090
    12  C   -0.000525   0.087111  -0.000484   0.011650   0.000112  -0.014298
    13  O    0.000046  -0.029000   0.000169   0.001713   0.000017  -0.000725
    14  C   -0.007716  -0.500205  -0.017146   0.071428  -0.001138   0.003814
    15  O    0.002245  -0.024378   0.008647   0.010899   0.000164  -0.000016
    16  C   -0.012754  -4.031977  -0.101412   1.088473   0.001181   0.000319
    17  C   -0.000567   1.027962  -0.019937  -0.461202  -0.012718  -0.000049
    18  O    0.000000   0.070082   0.001285  -0.011048  -0.001103   0.000000
    19  H    0.000000   0.010678   0.000070  -0.002517   0.000037   0.000000
    20  C    0.000502   0.188326  -0.187692  -0.963487  -0.120517   0.000000
    21  O    0.000000   0.037436   0.003375  -0.067082  -0.004829   0.000000
    22  H    0.000000  -0.000637   0.000232  -0.015368   0.021371   0.000000
    23  C    0.045966  -1.050655  -0.083152  -0.185842  -0.007652   0.000006
    24  O    0.193713   0.136235   0.001650   0.007703   0.000038   0.000000
    25  H    0.407979   0.000036  -0.000345  -0.002077   0.000002   0.000000
    26  C    0.000036  11.243940   0.335803  -0.848788  -0.019706  -0.000007
    27  O   -0.000345   0.335803   8.412060   0.136255  -0.086039   0.000000
    28  C   -0.002077  -0.848788   0.136255   5.978914   0.338426   0.000000
    29  O    0.000002  -0.019706  -0.086039   0.338426   8.289678   0.000000
    30  H    0.000000  -0.000007   0.000000   0.000000   0.000000   0.393806
    31  H    0.000000   0.000115   0.000000   0.000061   0.000000  -0.000009
    32  H    0.000000  -0.000300   0.000000  -0.000045   0.000000  -0.000067
    33  H    0.000000  -0.000602   0.000000  -0.000113   0.000000  -0.000172
    34  H    0.000000   0.000130   0.000000  -0.000007   0.000000  -0.011277
    35  H    0.000000   0.000226   0.000000  -0.000012   0.000000   0.000224
    36  H   -0.000003  -0.007605   0.000006  -0.000167   0.000000   0.000019
    37  H    0.000009   0.011247   0.000151  -0.000939  -0.000003   0.000003
    38  H    0.000000   0.001791  -0.002184   0.023314   0.227675   0.000000
    39  H   -0.010394  -0.041678  -0.002270   0.001626  -0.000245   0.000000
    40  H   -0.002592  -0.221445   0.008057   0.008647  -0.000225   0.000000
    41  H   -0.000224   0.232586  -0.051048   0.044248  -0.002086   0.000000
    42  H    0.000004  -0.087862   0.006331   0.011636  -0.001215   0.000000
    43  H    0.000000  -0.035323   0.002699   0.009113  -0.000580   0.000000
    44  H    0.000000  -0.021353   0.003406   0.010524  -0.009684   0.000000
    45  H    0.000000  -0.051458  -0.054050   0.442686  -0.049229   0.000000
             31         32         33         34         35         36
     1  O   -0.000387   0.002623   0.008735  -0.045322  -0.008207  -0.000649
     2  C    0.002491  -0.030561   0.006877   0.431786   0.122698   0.080870
     3  C   -0.005394   0.005059   0.013065  -0.090453   0.301711  -0.209476
     4  O    0.000024  -0.000029   0.000186   0.002401  -0.038788   0.003900
     5  H    0.000000   0.000000  -0.000015  -0.001545  -0.003131   0.000155
     6  C   -0.001869   0.018872  -0.088902  -0.029348  -0.314718   0.314723
     7  O   -0.000005  -0.000002  -0.000040  -0.000017   0.007677  -0.046756
     8  H    0.000000   0.000000   0.000008   0.000005  -0.000077  -0.005580
     9  C    0.373635   0.676018  -0.029819   0.003739   0.027906   0.014001
    10  O   -0.042055  -0.064473   0.004924  -0.000269   0.000180   0.000017
    11  H   -0.012001  -0.001857  -0.000152   0.000009   0.000001   0.000000
    12  C   -0.001969  -0.323156   0.143064  -0.113761  -0.043493  -0.007397
    13  O    0.000168   0.006918  -0.047375   0.004754   0.005060   0.010634
    14  C    0.005863   0.010604   0.208076   0.086114   0.165327   0.044168
    15  O   -0.000331   0.000074   0.001367  -0.000058  -0.001006  -0.012415
    16  C    0.008662  -0.008768   0.011300   0.000925   0.007821   0.044857
    17  C   -0.001755   0.002125   0.007773   0.001231   0.001256   0.004895
    18  O   -0.001394   0.000280   0.000284   0.000042   0.000028   0.000103
    19  H    0.000321  -0.000075   0.000227  -0.000001  -0.000002  -0.000026
    20  C   -0.000689   0.000384   0.000686   0.000006  -0.000035   0.000327
    21  O   -0.000005   0.000000   0.000000   0.000000   0.000000   0.000000
    22  H    0.000000   0.000000   0.000000   0.000000   0.000000   0.000000
    23  C    0.000042  -0.000003   0.000731   0.000117   0.000833   0.011447
    24  O    0.000000   0.000000   0.000010   0.000008   0.000073   0.001700
    25  H    0.000000   0.000000   0.000000   0.000000   0.000000  -0.000003
    26  C    0.000115  -0.000300  -0.000602   0.000130   0.000226  -0.007605
    27  O    0.000000   0.000000   0.000000   0.000000   0.000000   0.000006
    28  C    0.000061  -0.000045  -0.000113  -0.000007  -0.000012  -0.000167
    29  O    0.000000   0.000000   0.000000   0.000000   0.000000   0.000000
    30  H   -0.000009  -0.000067  -0.000172  -0.011277   0.000224   0.000019
    31  H    0.594730  -0.050952  -0.011050  -0.000090   0.000003   0.000001
    32  H   -0.050952   0.609462   0.006833   0.002586  -0.000001  -0.000002
    33  H   -0.011050   0.006833   0.617398   0.005824   0.003846   0.000142
    34  H   -0.000090   0.002586   0.005824   0.600884   0.005576   0.002392
    35  H    0.000003  -0.000001   0.003846   0.005576   0.604459   0.006534
    36  H    0.000001  -0.000002   0.000142   0.002392   0.006534   0.590296
    37  H    0.000061  -0.000022   0.008006  -0.000025   0.001919   0.005811
    38  H    0.000000   0.000000   0.000000   0.000000   0.000000   0.000000
    39  H    0.000000   0.000000   0.000000   0.000000   0.000000   0.000002
    40  H    0.000000   0.000000   0.000000   0.000000   0.000000  -0.000013
    41  H    0.000000   0.000000   0.000000   0.000000   0.000000  -0.000009
    42  H    0.000000   0.000000  -0.000027   0.000000  -0.000002   0.000005
    43  H    0.000000   0.000000   0.000000   0.000000   0.000000  -0.000003
    44  H    0.000000   0.000000   0.000000   0.000000   0.000000   0.000000
    45  H    0.000000   0.000000   0.000000   0.000000   0.000000   0.000000
             37         38         39         40         41         42
     1  O    0.000174   0.000000   0.000000   0.000000   0.000000  -0.000002
     2  C    0.032970   0.000000   0.000008  -0.000042  -0.000058   0.000006
     3  C   -0.049054   0.000000  -0.000065   0.000578   0.000572   0.001968
     4  O   -0.000517   0.000000   0.000000   0.000000   0.000000   0.000000
     5  H    0.000005   0.000000   0.000000   0.000000   0.000000   0.000000
     6  C   -0.118351   0.000008  -0.000565   0.003828   0.000611   0.002708
     7  O    0.003733   0.000000  -0.000649   0.001385   0.000039  -0.000366
     8  H   -0.000729   0.000000   0.000343   0.000774   0.000024   0.000025
     9  C    0.002076   0.000000  -0.000005   0.000024   0.000137  -0.000066
    10  O    0.000046   0.000000   0.000000   0.000000   0.000000   0.000002
    11  H    0.000001   0.000000   0.000000   0.000000   0.000000   0.000000
    12  C   -0.035943  -0.000004  -0.000068   0.000902   0.001500   0.003420
    13  O   -0.068221   0.000000   0.000000   0.000079  -0.000157  -0.000399
    14  C    0.380742   0.000098   0.001830   0.003990   0.053588   0.000414
    15  O   -0.059103  -0.000001   0.000110   0.003881   0.002376  -0.070785
    16  C    0.065123  -0.006843   0.011657   0.009329   0.035153   0.357285
    17  C    0.030286   0.021581  -0.004263  -0.005634  -0.067746  -0.049841
    18  O   -0.001274  -0.000012   0.000026   0.000016  -0.000171  -0.002732
    19  H   -0.000026   0.000000   0.000000   0.000001   0.000026  -0.000764
    20  C    0.007720  -0.028216   0.001849   0.000518  -0.023428   0.022602
    21  O    0.000012  -0.000502  -0.000005  -0.000003   0.000042  -0.000446
    22  H    0.000000  -0.002551   0.000000   0.000000   0.000003   0.000003
    23  C    0.012604   0.002117   0.413520   0.549407  -0.010671   0.016283
    24  O    0.000671  -0.000001  -0.041035  -0.079160   0.004360  -0.000817
    25  H    0.000009   0.000000  -0.010394  -0.002592  -0.000224   0.000004
    26  C    0.011247   0.001791  -0.041678  -0.221445   0.232586  -0.087862
    27  O    0.000151  -0.002184  -0.002270   0.008057  -0.051048   0.006331
    28  C   -0.000939   0.023314   0.001626   0.008647   0.044248   0.011636
    29  O   -0.000003   0.227675  -0.000245  -0.000225  -0.002086  -0.001215
    30  H    0.000003   0.000000   0.000000   0.000000   0.000000   0.000000
    31  H    0.000061   0.000000   0.000000   0.000000   0.000000   0.000000
    32  H   -0.000022   0.000000   0.000000   0.000000   0.000000   0.000000
    33  H    0.008006   0.000000   0.000000   0.000000   0.000000  -0.000027
    34  H   -0.000025   0.000000   0.000000   0.000000   0.000000   0.000000
    35  H    0.001919   0.000000   0.000000   0.000000   0.000000  -0.000002
    36  H    0.005811   0.000000   0.000002  -0.000013  -0.000009   0.000005
    37  H    0.633030   0.000000   0.000001  -0.000028  -0.000005   0.011172
    38  H    0.000000   0.412916  -0.000001   0.000000   0.000026   0.000004
    39  H    0.000001  -0.000001   0.584801  -0.045113  -0.010018  -0.000083
    40  H   -0.000028   0.000000  -0.045113   0.601819   0.007542   0.004321
    41  H   -0.000005   0.000026  -0.010018   0.007542   0.634873   0.008161
    42  H    0.011172   0.000004  -0.000083   0.004321   0.008161   0.637126
    43  H   -0.000029   0.000018   0.000004   0.000007   0.004831   0.007824
    44  H   -0.000021   0.000584   0.000002  -0.000008   0.000039   0.004554
    45  H    0.000000  -0.007124  -0.000026   0.000001   0.004809   0.000016
             43         44         45
     1  O    0.000000   0.000000   0.000000
     2  C   -0.000226   0.000021  -0.000004
     3  C    0.000302   0.000100   0.000011
     4  O    0.000000   0.000000   0.000000
     5  H    0.000000   0.000000   0.000000
     6  C    0.005170   0.001221   0.000254
     7  O    0.000009   0.000002   0.000000
     8  H    0.000002   0.000000   0.000000
     9  C    0.000434  -0.000057   0.000008
    10  O    0.000000   0.000000   0.000000
    11  H    0.000000   0.000000   0.000000
    12  C    0.000169   0.000092   0.000034
    13  O    0.001765   0.000246  -0.000002
    14  C    0.032094   0.002357   0.005605
    15  O   -0.010907  -0.001153   0.000158
    16  C    0.045133   0.109733   0.106647
    17  C    0.298287  -0.198820  -0.046565
    18  O   -0.049298   0.004448  -0.000708
    19  H   -0.006063  -0.000101   0.000006
    20  C   -0.113368   0.372753  -0.108336
    21  O    0.000632  -0.047478   0.004815
    22  H   -0.000175  -0.005636  -0.000200
    23  C    0.017721   0.012614  -0.006814
    24  O   -0.000011  -0.000003   0.000008
    25  H    0.000000   0.000000   0.000000
    26  C   -0.035323  -0.021353  -0.051458
    27  O    0.002699   0.003406  -0.054050
    28  C    0.009113   0.010524   0.442686
    29  O   -0.000580  -0.009684  -0.049229
    30  H    0.000000   0.000000   0.000000
    31  H    0.000000   0.000000   0.000000
    32  H    0.000000   0.000000   0.000000
    33  H    0.000000   0.000000   0.000000
    34  H    0.000000   0.000000   0.000000
    35  H    0.000000   0.000000   0.000000
    36  H   -0.000003   0.000000   0.000000
    37  H   -0.000029  -0.000021   0.000000
    38  H    0.000018   0.000584  -0.007124
    39  H    0.000004   0.000002  -0.000026
    40  H    0.000007  -0.000008   0.000001
    41  H    0.004831   0.000039   0.004809
    42  H    0.007824   0.004554   0.000016
    43  H    0.654655   0.007667   0.003672
    44  H    0.007667   0.600768   0.004832
    45  H    0.003672   0.004832   0.612172
 Mulliken atomic charges:
              1
     1  O   -0.509596
     2  C   -0.147413
     3  C    0.099798
     4  O   -0.519517
     5  H    0.345981
     6  C   -0.047945
     7  O   -0.554613
     8  H    0.448575
     9  C    0.021995
    10  O   -0.541644
    11  H    0.364844
    12  C    0.217128
    13  O   -0.386107
    14  C    0.145462
    15  O   -0.368392
    16  C   -0.030594
    17  C    0.037452
    18  O   -0.487950
    19  H    0.396073
    20  C   -0.098608
    21  O   -0.502317
    22  H    0.355313
    23  C    0.000232
    24  O   -0.612505
    25  H    0.391883
    26  C   -0.144528
    27  O   -0.320072
    28  C    0.356160
    29  O   -0.561145
    30  H    0.363621
    31  H    0.143776
    32  H    0.138477
    33  H    0.128906
    34  H    0.143645
    35  H    0.146114
    36  H    0.153096
    37  H    0.126719
    38  H    0.357303
    39  H    0.140707
    40  H    0.149156
    41  H    0.130076
    42  H    0.119539
    43  H    0.123777
    44  H    0.148352
    45  H    0.138785
 Sum of Mulliken atomic charges =   0.00000
 Mulliken charges with hydrogens summed into heavy atoms:
              1
     1  O   -0.145975
     2  C   -0.003769
     3  C    0.245912
     4  O   -0.173536
     6  C    0.105151
     7  O   -0.106038
     9  C    0.304248
    10  O   -0.176799
    12  C    0.346034
    13  O   -0.386107
    14  C    0.272182
    15  O   -0.368392
    16  C    0.088945
    17  C    0.161229
    18  O   -0.091877
    20  C    0.049744
    21  O   -0.147004
    23  C    0.290096
    24  O   -0.220622
    26  C   -0.014452
    27  O   -0.320072
    28  C    0.494945
    29  O   -0.203842
 Sum of Mulliken charges with hydrogens summed into heavy atoms =   0.00000
 APT atomic charges:
              1
     1  O   -0.633027
     2  C    0.416020
     3  C    0.420091
     4  O   -0.627242
     5  H    0.243263
     6  C    0.374129
     7  O   -0.741698
     8  H    0.465910
     9  C    0.486000
    10  O   -0.608264
    11  H    0.240080
    12  C    0.413820
    13  O   -0.850682
    14  C    0.920057
    15  O   -0.881766
    16  C    0.462886
    17  C    0.361828
    18  O   -0.691745
    19  H    0.378298
    20  C    0.416162
    21  O   -0.618653
    22  H    0.266752
    23  C    0.451213
    24  O   -0.652813
    25  H    0.259594
    26  C    0.456816
    27  O   -0.773940
    28  C    0.871575
    29  O   -0.653405
    30  H    0.261166
    31  H   -0.046091
    32  H   -0.052251
    33  H   -0.042547
    34  H   -0.039179
    35  H   -0.046022
    36  H   -0.024991
    37  H   -0.058074
    38  H    0.255515
    39  H   -0.038881
    40  H   -0.039796
    41  H   -0.068956
    42  H   -0.048595
    43  H   -0.073875
    44  H   -0.038971
    45  H   -0.069711
[...]
 00007703,0.00004429,0.00004399,0.00005205,0.00001453,-0.00001882,0.000
 00327,0.00001150,-0.00015914,0.00008450,0.00001294,0.00033788,0.000184
 69,0.00024098,0.00043803,-0.00029438,-0.00517570,-0.02023678,-0.006502
 00,0.01379239,-0.34132110,-0.00820282,-0.04785361,-0.01448549,0.001116
 13,-0.00661175,0.00254352,-0.00123924,0.00118760,-0.00052824,-0.000084
 44,0.00005171,-0.00052506,-0.00028334,0.00137495,0.00050872,-0.0002342
 9,0.00014565,0.00001751,0.00005875,-0.00007885,0.00053769,0.00026856,0
 .00021489,0.00016475,0.00000378,-0.00005969,0.00002153,-0.00003171,-0.
 00004099,-0.00789579,-0.00190655,-0.00261704,0.00174900,0.00075744,-0.
 00074408,0.00000486,-0.00023617,0.00014951,0.00009722,0.00001794,-0.00
 015440,-0.00000037,-0.00000529,-0.00000393,0.00000135,0.00002592,-0.00
 000784,0.00001887,0.00000344,-0.00000705,0.00003162,0.00000689,0.00005
 320,0.00001241,0.00000156,-0.00001208,0.00002229,0.00000622,0.00004042
 ,0.00004228,0.00022107,-0.00033293,0.00140869,0.00040550,0.00149296,0.
 00000994,-0.00000617,-0.00001085,0.00022672,-0.00000366,-0.00001535,0.
 00022179,-0.00094456,0.00000394,0.00070871,-0.00065837,-0.00026480,0.3
 7423068,0.00000692,-0.00001326,0.00003881,-0.00000503,0.00003089,-0.00
 003432,0.00001658,0.00000350,-0.00002556,0.00000736,-0.00003362,0.0000
 1955,-0.00000451,0.00000377,-0.00000399,-0.00013167,0.00020809,0.00005
 612,0.00020701,-0.00007454,-0.00024181,-0.00021573,-0.00004896,0.00008
 036,0.00001657,-0.00002474,-0.00001968,-0.00000403,0.00002808,0.000035
 02,0.00000466,-0.00000526,-0.00000317,-0.00001571,0.00000740,-0.000058
 73,0.00016467,0.00001950,0.00020840,-0.00039636,0.00070334,-0.00102551
 ,-0.01150361,0.00014082,0.00557996,-0.00911042,-0.04317033,-0.00354957
 ,0.03468990,-0.00400001,0.00975241,-0.00211372,0.00343621,0.00061913,0
 .00049317,-0.00020630,-0.00026816,0.00182192,0.00124633,-0.00123933,-0
 .00057728,-0.00009479,-0.00023993,-0.00006421,0.00002744,0.00000250,-0
 .00132531,0.00192585,0.00098708,0.00027920,-0.00009815,-0.00011153,-0.
 00001259,-0.00005144,0.00000585,-0.03014304,-0.00406788,-0.00787200,0.
 00169725,0.00121583,0.00206668,0.00029161,-0.00049591,-0.00006977,-0.0
 0005547,0.00010895,0.00005970,0.00000248,-0.00000047,-0.00000460,0.000
 00086,-0.00001590,0.00000123,-0.00000690,-0.00000247,0.00000405,-0.000
 00822,0.00002444,0.00000533,0.00000071,-0.00000538,0.,0.00000396,0.000
 00549,0.00001501,0.00005241,0.00000110,-0.00004571,0.00032115,0.000171
 56,0.00007545,-0.00001438,0.00001799,-0.00000775,0.00036304,0.00031409
 ,0.00001066,0.00089400,-0.00038932,0.00017624,-0.00131024,-0.00341202,
 -0.00393334,0.01525136,0.05222459,-0.00000653,-0.00000836,-0.00004274,
 0.00000036,-0.00000064,0.00003239,-0.00004703,-0.00000096,0.00001141,-
 0.00001590,0.00001181,-0.00000608,-0.00000053,-0.00000665,0.00000214,0
 .00014236,0.00017689,-0.00017970,-0.00018532,0.00000676,0.00007086,0.0
 0013284,-0.00015758,-0.00002480,-0.00004967,0.00004964,-0.00002764,-0.
 00000092,-0.00003694,-0.00000954,0.00000055,-0.00000156,-0.00000499,0.
 00001663,-0.00007363,-0.00006807,-0.00081381,-0.00044848,-0.00037225,0
 .00743134,0.00117583,0.00366934,0.04053654,0.00955720,-0.01794465,-0.0
 5463511,-0.00428331,-0.04689432,-0.01377710,0.00077803,-0.00173073,0.0
 0168204,-0.00060432,0.00088649,0.00004118,0.00019996,-0.00004077,-0.00
 179758,0.00025613,0.00048482,0.00049366,-0.00013020,0.00003443,-0.0000
 5105,-0.00000958,-0.00004270,0.00020564,0.00134750,0.00063515,0.000146
 76,-0.00002488,0.00007123,-0.00003250,0.00002632,0.00004508,-0.0252098
 3,-0.00400984,-0.00476507,0.00124627,0.00081177,0.00223514,-0.00045322
 ,0.00009732,-0.00029561,0.00011233,0.00002317,-0.00016800,-0.00000072,
 0.00000395,0.00000326,-0.00000407,-0.00001022,-0.00000111,0.00000326,0
 .00001072,-0.00000064,-0.00004780,-0.00003066,-0.00007255,-0.00000630,
 0.00000429,0.00001084,-0.00002493,-0.00000584,-0.00005547,-0.00028741,
 -0.00012974,0.00002839,-0.00152176,-0.00023703,-0.00006808,0.00002215,
 0.00000282,0.00001182,0.00014153,0.00022128,-0.00001017,0.00057369,-0.
 00037018,0.00022015,-0.00069293,-0.00320205,-0.00329420,0.04650584,-0.
 00352295,0.06853724,0.00000370,0.00001339,-0.00008486,-0.00003165,-0.0
 0002069,0.00005883,-0.00000667,-0.00003761,0.00004786,0.00003071,0.000
 06735,-0.00006116,-0.00000686,-0.00001033,0.00000362,0.00005255,-0.000
 10547,0.00000395,0.00004271,0.00014209,0.00004838,-0.00007642,-0.00008
 944,-0.00010990,-0.00004076,0.00001090,0.00011790,0.00000907,-0.000046
 94,-0.00011296,-0.00001225,0.00001750,0.00002009,0.00004380,0.00004645
 ,0.00014363,-0.00002499,0.00023511,-0.00035029,0.00011388,-0.00015220,
 0.00005792,0.00149880,0.00030778,-0.00074699,-0.01314299,0.00177337,-0
 .00181740,-0.34093102,-0.00098306,-0.04583103,0.00053913,-0.00769951,-
 0.01064839,0.00002037,-0.00088949,0.00051781,-0.02101610,0.00167087,-0
 .00016769,0.00192380,-0.00061065,0.00005707,0.00004097,-0.00005408,-0.
 00006881,0.00055315,0.00026751,0.00016546,0.00005139,0.00000094,0.0000
 8948,-0.00001597,0.00000792,-0.00000813,-0.00076849,-0.00103123,-0.000
 62631,0.00037947,0.00059309,0.00040923,-0.00152079,-0.00119752,-0.0015
 1175,0.00096223,0.00001826,0.00013358,-0.00001005,-0.00000237,0.000011
 63,0.00003401,0.00004552,-0.00000214,0.00000296,-0.00000175,-0.0000006
 4,0.00000895,-0.00001220,0.00000912,0.00000588,0.00000120,-0.00001071,
 0.00001047,0.00000161,0.00000178,0.00000266,0.00002374,-0.00003279,0.0
 0006689,-0.00001363,0.00019037,-0.00002120,0.00005667,0.00022576,-0.00
 002461,0.00013474,-0.00000913,0.00007427,-0.00031599,0.00002557,0.0009
 9127,0.00068328,0.00057563,0.00018273,0.00149105,-0.00050391,0.3695275
 7,-0.00000400,0.00003047,-0.00006087,-0.00002518,-0.00004482,0.0000368
 1,0.00001169,-0.00002421,-0.00000273,0.00000031,0.00004895,-0.00001381
 ,0.00000333,-0.00001062,0.00000679,-0.00009290,-0.00007262,-0.00005884
 ,-0.00006672,0.00005778,0.00008634,0.00004766,0.00002173,-0.00005686,-
 0.00005719,-0.00003268,0.00015890,0.00000752,-0.00003081,-0.00012839,-
 0.00001134,0.00002013,0.00002371,0.00007384,0.00008012,0.00011882,-0.0
 0004129,0.00050981,-0.00030373,0.00015172,-0.00030196,-0.00011833,-0.0
 0188039,0.00166324,-0.00102478,0.03525032,-0.00406542,0.00603069,-0.00
 225621,-0.04030550,0.00596402,-0.02869763,-0.01019161,-0.02105689,-0.0
 0056645,-0.00020098,0.00123495,-0.01053311,0.00204287,-0.00038801,0.00
 059009,0.00088219,-0.00114967,0.00014690,0.00007056,-0.00008163,-0.000
 16285,-0.00007512,0.00004769,-0.00003208,-0.00000728,0.00003074,0.0000
 0152,0.00000746,-0.00000301,0.00171614,0.00223662,0.00133407,-0.000375
 90,-0.00002708,-0.00016867,0.00103664,0.00004901,-0.00101337,0.0001501
 9,-0.00016297,0.00009927,-0.00000538,-0.00000362,0.00000776,0.00004837
 ,0.00006873,0.00000577,0.00000467,0.00001071,-0.00000693,-0.00001248,-
 0.00002557,0.00000098,-0.00000133,0.00000121,-0.00000305,-0.00000048,0
 .00000118,-0.00000174,-0.00001408,-0.00001073,0.00002385,-0.00016826,-
 0.00007145,-0.00012726,0.00002548,0.00007092,0.00006148,-0.00008597,-0
 .00004784,0.00000575,-0.00020139,0.00014834,-0.00003537,-0.00085403,-0
 .00020104,-0.00038189,0.00215112,-0.00543519,0.00226512,0.00531612,0.0
 5295866,0.00000433,0.00002068,-0.00006248,-0.00003622,-0.00002638,0.00
 004563,-0.00000509,-0.00005909,0.00002890,0.00002100,0.00005350,-0.000
 02731,-0.00000524,-0.00001104,0.00000565,0.00005027,-0.00002334,0.0000
 6317,0.00003485,0.00009222,0.00001794,-0.00005773,-0.00003548,-0.00003
 793,-0.00008735,-0.00003132,0.00015146,0.00002467,-0.00003145,-0.00012
 440,-0.00001449,0.00001893,0.00002508,0.00002620,0.00004163,0.00010247
 ,0.00011792,0.00040403,-0.00039315,-0.00021747,-0.00051944,-0.00045400
 ,0.00080938,-0.00121079,0.00147648,-0.01560922,0.00360084,-0.00062836,
 -0.04723765,0.00635312,-0.04805200,-0.02799934,-0.01675165,-0.01831782
 ,-0.00153660,-0.00065483,0.00085828,0.03410756,0.00001552,0.00144163,-
 0.00195530,-0.00062392,0.00162393,-0.00013757,-0.00026286,0.00016294,0
 .00024708,0.00015605,0.00007177,0.00001954,-0.00001462,0.00003770,-0.0
 0000242,-0.00000420,-0.00000476,0.00013426,-0.00096983,-0.00036141,-0.
 00031463,-0.00008407,-0.00003947,0.00194355,0.00046474,0.00039003,-0.0
 0034981,0.00000494,0.00004562,-0.00000858,-0.00000423,0.00000729,0.000
 04973,0.00006930,0.00000086,0.00001673,-0.00000122,-0.00001378,0.00001
 533,-0.00002018,0.00002255,0.00000638,0.00000190,-0.00001444,0.0000095
 0,0.00000176,0.00000292,0.00000902,0.00003489,-0.00003506,0.00018153,0
 .00001540,0.00007453,-0.00014606,-0.00007390,0.00000340,0.00002237,0.0
 0009205,-0.00000451,0.00004609,-0.00014211,-0.00001498,0.00038163,0.00
 009511,0.00040405,-0.00092331,0.00209110,-0.00069612,0.05590661,0.0070
 0608,0.06767233,0.00000366,-0.00001139,-0.00001642,-0.00000142,0.00001
 063,0.00001479,-0.00001250,-0.00000805,0.00002195,0.00001459,0.0000062
 0,-0.00002047,-0.00000479,0.00000048,0.00000029,0.00001246,0.00000232,
 0.00002266,0.00002733,-0.00000084,-0.00003371,-0.00001473,-0.00001058,
 0.00002001,-0.00001967,0.00001133,0.00000140,0.00001610,-0.00001119,-0
 .00000303,-0.00000918,0.00000192,0.00000037,-0.00001739,-0.00000126,0.
 00001338,0.00005902,-0.00008189,-0.00002211,-0.00014596,0.00004662,0.0
 0015888,0.00066478,0.00009700,-0.00005237,-0.00074950,0.00132482,-0.00
 098374,-0.01942109,-0.00228606,-0.00022173,0.00189943,0.00061237,0.000
 29906,0.00004773,0.00009365,-0.00014170,-0.35105811,0.01857132,-0.0437
 5588,-0.00045522,0.01009707,-0.00489544,0.00025480,0.00052741,0.000249
 47,-0.00005970,-0.00004925,-0.00000133,0.00005262,0.00004031,-0.000042
 57,-0.00001362,-0.00000935,0.00000006,-0.00016997,-0.00041537,0.000150
 30,0.00211608,0.00020462,0.00096137,-0.01220573,0.00068795,-0.00101967
 ,0.00174593,0.00042108,0.00179591,-0.00000276,0.00000275,0.00000208,-0
 .00000975,0.00000342,-0.00000181,0.00001268,-0.00000083,-0.00000749,0.
 00001410,-0.00000541,0.00000674,0.00000437,0.00000120,-0.00000466,0.00
 000478,-0.00000026,0.00000061,0.00000539,0.00000681,-0.00000684,0.0000
 3650,-0.00001555,0.00002597,0.00048941,0.00046204,0.00054592,0.0000141
 5,-0.00001027,0.00000622,0.00004792,-0.00004865,0.00001129,0.00012693,
 0.00023670,-0.00000633,0.00098607,-0.00091097,0.00051848,-0.00054857,-
 0.00075505,0.00272900,0.37600478,0.00000045,-0.00000207,0.00001328,0.0
 0000019,0.00000413,-0.00000994,0.00000120,0.00000819,-0.00000391,-0.00
 000103,-0.00001050,0.00000518,-0.00000004,0.00000226,-0.00000142,-0.00
 000717,0.00000956,-0.00000256,0.00000865,-0.00001220,-0.00000808,-0.00
 000799,0.00000068,0.00000546,0.00000906,0.00000305,-0.00002400,-0.0000
 0706,0.00000757,0.00002071,0.00000666,-0.00000440,-0.00000478,0.000003
 82,-0.00000740,-0.00001595,0.00001264,-0.00004241,0.00003952,0.0000050
 1,0.00007331,0.00002351,0.00014917,-0.00012722,-0.00013873,-0.00122142
 ,0.00020446,0.00044989,-0.00470598,0.00169953,-0.00010941,0.00036604,0
 .00034013,0.00063806,-0.00008797,0.00000691,-0.00010105,0.01996466,-0.
 03712767,-0.00100831,0.03781411,-0.02738309,0.01533387,0.00119327,0.00
 056495,-0.00059651,-0.00007424,0.00002532,0.00000739,0.00002905,-0.000
 01223,-0.00001190,-0.00000448,-0.00000059,0.00000370,-0.00032854,-0.00
 038101,0.00018189,0.00051375,0.00182459,0.00010118,-0.02571847,-0.0003
 2407,-0.00586947,0.00056859,0.00097470,0.00188394,0.00000092,-0.000000
 08,-0.00000265,-0.00000036,-0.00000956,0.00000166,-0.00000370,-0.00000
 313,0.00000278,-0.00000087,0.00000589,-0.00000092,-0.00000042,-0.00000
 089,0.00000096,-0.00000087,-0.00000008,0.00000076,0.00000053,-0.000000
 76,-0.00000206,0.00000319,0.00000411,0.00001076,-0.00013193,0.00004399
 ,0.00035795,0.00000122,-0.00000444,-0.00000804,0.00002943,-0.00004433,
 0.00001941,0.00018117,0.00008228,-0.00001130,0.00001246,-0.00010052,0.
 00030146,-0.00029892,0.00014855,0.00119597,-0.02785907,0.06261319,-0.0
 0000208,-0.00000456,0.00000430,0.00000336,0.00000471,-0.00000560,0.000
 00543,0.00000936,-0.00000305,-0.00000285,-0.00000821,0.00000392,0.0000
 0093,0.00000187,-0.00000149,-0.00001079,-0.00000134,-0.00000486,-0.000
 00916,-0.00001085,-0.00000925,0.00000847,0.00000427,0.00001136,0.00001
 335,0.00000754,-0.00001682,-0.00000832,-0.00000111,0.00001250,0.000004
 32,-0.00000172,-0.00000540,0.00001549,-0.00000204,-0.00000332,-0.00001
 000,-0.00006074,0.00003679,0.00002020,0.00006775,0.00004220,-0.0005645
 9,-0.00013802,-0.00006648,0.00155777,-0.00128649,0.00132350,0.03487729
 ,0.00065545,0.00186963,-0.00217903,-0.00000313,0.00211315,-0.00015060,
 0.00021003,0.00016596,-0.04004251,-0.00124994,-0.04981557,-0.01318434,
 0.01303208,-0.00100215,-0.00109821,0.00007091,0.00018975,-0.00000506,0
 .00000692,0.00009368,0.00000583,-0.00000739,-0.00001744,-0.00000734,-0
 .00000148,0.00000252,0.00027415,0.00017607,-0.00023499,0.00171716,0.00
 159335,0.00097225,-0.02676051,-0.00291662,-0.00611160,-0.00026151,0.00
 057110,0.00165183,0.00000093,0.00000162,-0.00000117,-0.00000406,-0.000
 00829,0.00000158,-0.00000420,0.00000060,0.00000329,-0.00000705,0.00000
 394,-0.00000664,-0.00000243,-0.00000040,0.00000338,-0.00000168,-0.0000
 0102,0.00000211,0.00000017,-0.00000626,0.00000681,-0.00002825,0.000004
 41,-0.00004123,-0.00007778,0.00018579,0.00046253,-0.00000798,0.0000146
 9,0.00000575,0.00000218,0.00002581,0.00000366,-0.00014692,-0.00001785,
 -0.00019092,-0.00070710,0.00040169,-0.00031944,0.00308982,0.00166484,-
 0.00512614,0.04427177,-0.01002233,0.05683899,0.00000291,-0.00000892,-0
 .00001528,-0.00000509,0.00000966,0.00000871,-0.00000298,-0.00000318,0.
 00001446,0.00001001,0.00000269,-0.00001701,-0.00000341,0.00000023,0.00
 000074,-0.00002685,0.00001658,0.00000984,0.00001281,-0.00002515,-0.000
 05718,0.00000986,0.00001196,0.00006525,-0.00000977,0.00001062,-0.00000
 082,0.00000708,-0.00000972,-0.00000307,-0.00000470,0.00000144,0.000000
 05,0.00000356,-0.00000020,0.00000982,0.00001818,-0.00005583,-0.0000384
 4,0.00000466,0.00005665,0.00008399,0.00002734,-0.00007491,-0.00022905,
 0.00009900,0.00043854,0.00009817,-0.00073198,-0.00023039,0.00027107,0.
 00043689,0.00010595,0.00020967,-0.00003381,0.00002071,-0.00010400,-0.0
 0585523,0.00213012,-0.00227820,0.00123610,-0.00082145,0.00099311,-0.00
 041817,0.00001140,-0.00008699,0.00029837,-0.00024193,-0.00011492,0.000
 00405,0.00017418,-0.00012385,-0.00001166,-0.00001327,-0.00002686,0.000
 17630,-0.00012526,0.00015474,-0.00174456,0.00816452,-0.00415078,-0.335
 47186,-0.00084423,-0.08996846,-0.01847104,-0.00250712,0.00268959,-0.00
 000294,0.00000192,0.00000214,-0.00000336,-0.00000066,-0.00000071,0.000
 00545,-0.00000098,-0.00000253,0.00000467,-0.00000077,-0.00000032,0.000
 00253,0.00000002,-0.00000188,0.00000200,0.00000046,0.00000042,0.000005
 25,-0.00000128,0.00000052,0.00000605,-0.00000097,-0.00000545,0.0001407
 4,0.00029252,0.00003910,-0.00001076,-0.00002267,0.00000671,-0.00000858
 ,-0.00011827,0.00008730,0.00013639,0.00050651,-0.00107947,0.00000227,-
 0.00014845,0.00021244,0.00102595,0.00016808,-0.00027044,0.00025801,-0.
 00041473,-0.00058429,0.35888031,0.00000129,0.00001758,0.00001667,0.000
 00258,-0.00001913,-0.00000758,-0.00000715,0.00000040,-0.00001742,-0.00
 000454,0.00000576,0.00001597,0.00000182,-0.00000125,0.00000077,0.00003
 626,-0.00004870,-0.00001820,0.00000263,0.00007009,0.00011584,-0.000042
 54,-0.00004734,-0.00015590,-0.00000400,-0.00001973,0.00001533,0.000006
 11,0.00001243,-0.00000493,-0.00000363,0.00000092,0.00000401,-0.0000211
 4,0.00000946,-0.00000690,-0.00000455,0.00013598,0.00002975,-0.00009757
 ,-0.00010292,-0.00014293,0.00007605,0.00035395,0.00039335,-0.00041346,
 -0.00088938,0.00014210,-0.00158103,-0.00022098,0.00163708,0.00056989,0
 .00001978,-0.00048635,0.00010916,-0.00015920,0.00006082,-0.02283346,0.
 00414176,-0.00849037,0.00204140,0.00255331,0.00139947,-0.00027253,-0.0
 0006969,0.00011400,-0.00023757,0.00023667,0.00018897,-0.00010447,-0.00
 034540,0.00022685,-0.00001168,0.00003302,0.00004796,0.00389839,0.00174
 284,-0.00420381,0.03130847,-0.01287992,0.01719451,-0.00072460,-0.04411
 054,-0.00178424,-0.00310099,0.00315779,0.00048667,0.00000117,-0.000003
 38,-0.00000181,0.00000593,0.00000808,-0.00000063,-0.00000062,0.0000016
 2,0.00000037,-0.00000012,-0.00000405,0.00000253,0.00000004,0.00000090,
 0.00000004,0.00000134,0.00000022,0.00000094,-0.00000398,0.00000584,-0.
 00000680,0.00001135,0.00000130,0.00000973,-0.00018256,0.00038585,-0.00
 047270,0.00002585,0.00001649,-0.00001377,-0.00013781,0.00017058,-0.000
 06994,-0.00157528,0.00019940,0.00010420,0.00005216,-0.00011882,-0.0000
 2236,0.00064660,0.00021992,-0.00027381,-0.00097877,-0.00304869,-0.0029
 6502,-0.00645442,0.04858718,-0.00000091,-0.00000752,-0.00003192,-0.000
 00537,0.00000847,0.00002164,0.00000154,-0.00000480,0.00002534,0.000009
 18,0.00001376,-0.00002913,-0.00000189,-0.00000132,0.00000128,-0.000017
 10,-0.00001047,-0.00000052,0.00000389,0.00000041,-0.00004689,0.0000074
 4,-0.00000292,0.00005300,-0.00000571,0.00001682,0.00001539,0.00000087,
 -0.00001948,-0.00002182,-0.00000211,0.00000341,0.00000307,0.00001488,0
 .00000725,0.00003307,0.00000403,-0.00004727,-0.00008721,0.00004234,0.0
 0007957,0.00014592,0.00008008,-0.00000470,-0.00040396,0.00005476,0.000
 01941,-0.00009181,-0.00232372,-0.00004411,0.00141816,0.00070927,-0.000
 01582,-0.00003309,0.00001483,0.00000492,0.00000202,-0.02147601,0.00226
 174,-0.00327252,0.00178033,-0.00077163,0.00156081,0.00012108,-0.000380
 67,-0.00013737,0.00020143,-0.00000472,-0.00001167,0.00005822,0.0001567
 4,-0.00011809,0.00000004,-0.00001654,-0.00001681,-0.00210669,-0.000857
 12,0.00299819,-0.01219154,0.00816599,-0.00402337,-0.09739442,-0.003887
 95,-0.07739679,0.03566913,0.00121734,-0.00065567,-0.00000224,0.0000015
 5,0.00000443,0.00000102,0.00000321,-0.00000087,0.00000225,-0.00000116,
 -0.00000211,0.00000244,-0.00000134,0.00000014,0.00000130,-0.00000005,-
 0.00000241,0.00000143,0.,-0.00000101,0.00000205,0.00000038,-0.00000102
 ,0.00000376,-0.00000631,0.00000368,0.00099822,0.00010506,0.00380978,-0
 .00000634,-0.00001595,-0.00000161,0.00010046,-0.00013853,0.00002696,0.
 00102366,-0.00007372,-0.00012016,0.00021876,-0.00001488,0.00014528,0.0
 0079392,-0.00002863,-0.00032850,-0.00059069,-0.00264596,-0.00283787,0.
 09420213,-0.00306246,0.07940602\\0.00458514,-0.01953999,-0.00265422,0.
 01423749,0.01317362,0.00215997,-0.01462325,-0.03010631,0.01301893,-0.0
 0405853,0.00554520,0.03408026,0.00710146,-0.00178871,-0.02956950,0.000
 80684,-0.00280696,-0.01772012,0.00456671,0.01540085,-0.00165528,-0.000
 06666,0.00262816,0.01810800,-0.00106029,0.01194734,0.01305655,0.007398
 53,0.01991173,-0.00042028,-0.00312187,-0.03129448,0.00298807,-0.014310
 02,0.01721371,0.00959822,0.01542152,-0.01061005,0.00239991,-0.03382797
 ,0.00088656,-0.03120216,-0.00689670,0.00421481,-0.00047902,0.03827538,
 -0.02119422,-0.00130798,-0.02276392,0.02461082,0.03414314,-0.00093031,
 -0.00772577,0.00543432,0.00909061,0.01460259,-0.01655711,0.00316485,0.
 00321845,0.01832795,-0.00845098,-0.00836836,-0.01629433,-0.00758538,-0
 .01029068,0.02830793,0.01955167,-0.00356035,-0.00228895,-0.00587758,-0
 .01761762,-0.00312229,-0.00395443,0.02979808,0.00279807,-0.03909400,0.
 00885715,0.00210770,0.00148064,-0.00530809,0.00908606,0.06150212,-0.00
 280253,-0.01110465,-0.01688152,0.00436647,-0.00505377,-0.00186684,0.00
 388404,0.00128505,0.00680452,0.00493762,-0.01749098,-0.02057979,0.0008
 3810,-0.00508219,0.02055481,-0.00133398,-0.00090746,-0.01840192,-0.000
 33653,-0.00127467,0.02103025,0.00161010,0.00354667,-0.02056984,0.00047
 594,0.00184176,0.01931442,0.00529056,-0.00574942,-0.00193820,-0.003812
 02,-0.00695014,-0.00361999,-0.00576629,-0.01695653,0.02168163,-0.00186
 060,-0.00024020,-0.02623819,-0.00212598,0.00029994,0.02358887,0.002920
 71,0.00275559,-0.02529600,0.00074357,-0.00501083,0.02011890,-0.0062150
 5,-0.00079950,-0.01826218,-0.00261161,-0.00545250\\\@


 PERICLES, SOPHOCLES,
 PELOPONESIAN WAR,
 FRENCH VERBS, LATIN VERBS
 H2SO4.
 Job cpu time:  0 days 13 hours 18 minutes 48.6 seconds.
 File lengths (MBytes):  RWF=   1327 Int=      0 D2E=      0 Chk=     19 Scr=      1
 Normal termination of Gaussian 09 at Tue Mar  1 03:42:22 2016.
Gaussian '09 finished on node019 at Tue Mar  1 03:42:22 EST 2016.
