Gaussian '09 started on node021 at Wed Jan 20 15:58:13 EST 2016.
 Entering Gaussian System, Link 0=/usr/local/gaussian/g09/g09
 Initial command:
 /usr/local/gaussian/g09/l1.exe /home/srmcgrat/thesis/gaussian/cellobiose/290/8000/gaussian24147/Gau-24183.inp -scrdir=/home/srmcgrat/thesis/gaussian/cellobiose/290/8000/gaussian24147/
 Entering Link 1 = /usr/local/gaussian/g09/l1.exe PID=     24185.
  
 Copyright (c) 1988,1990,1992,1993,1995,1998,2003,2009,2010,
            Gaussian, Inc.  All Rights Reserved.
  
 This is part of the Gaussian(R) 09 program.  It is based on
 the Gaussian(R) 03 system (copyright 2003, Gaussian, Inc.),
 the Gaussian(R) 98 system (copyright 1998, Gaussian, Inc.),
 the Gaussian(R) 94 system (copyright 1995, Gaussian, Inc.),
 the Gaussian 92(TM) system (copyright 1992, Gaussian, Inc.),
 the Gaussian 90(TM) system (copyright 1990, Gaussian, Inc.),
 the Gaussian 88(TM) system (copyright 1988, Gaussian, Inc.),
 the Gaussian 86(TM) system (copyright 1986, Carnegie Mellon
 University), and the Gaussian 82(TM) system (copyright 1983,
 Carnegie Mellon University). Gaussian is a federally registered
 trademark of Gaussian, Inc.
  
 This software contains proprietary and confidential information,
 including trade secrets, belonging to Gaussian, Inc.
  
 This software is provided under written license and may be
 used, copied, transmitted, or stored only in accord with that
 written license.
  
 The following legend is applicable only to US Government
 contracts under FAR:
  
                    RESTRICTED RIGHTS LEGEND
  
 Use, reproduction and disclosure by the US Government is
 subject to restrictions as set forth in subparagraphs (a)
 and (c) of the Commercial Computer Software - Restricted
 Rights clause in FAR 52.227-19.
  
 Gaussian, Inc.
 340 Quinnipiac St., Bldg. 40, Wallingford CT 06492
  
  
 ---------------------------------------------------------------
 Warning -- This program may not be used in any manner that
 competes with the business of Gaussian, Inc. or will provide
 assistance to any competitor of Gaussian, Inc.  The licensee
 of this program is prohibited from giving any competitor of
 Gaussian, Inc. access to this program.  By using this program,
 the user acknowledges that Gaussian, Inc. is engaged in the
 business of creating and licensing software in the field of
 computational chemistry and represents and warrants to the
 licensee that it is not a competitor of Gaussian, Inc. and that
 it will not use this program in any manner prohibited above.
 ---------------------------------------------------------------
  

 Cite this work as:
 Gaussian 09, Revision B.01,
 M. J. Frisch, G. W. Trucks, H. B. Schlegel, G. E. Scuseria, 
 M. A. Robb, J. R. Cheeseman, G. Scalmani, V. Barone, B. Mennucci, 
 G. A. Petersson, H. Nakatsuji, M. Caricato, X. Li, H. P. Hratchian, 
 A. F. Izmaylov, J. Bloino, G. Zheng, J. L. Sonnenberg, M. Hada, 
 M. Ehara, K. Toyota, R. Fukuda, J. Hasegawa, M. Ishida, T. Nakajima, 
 Y. Honda, O. Kitao, H. Nakai, T. Vreven, J. A. Montgomery, Jr., 
 J. E. Peralta, F. Ogliaro, M. Bearpark, J. J. Heyd, E. Brothers, 
 K. N. Kudin, V. N. Staroverov, T. Keith, R. Kobayashi, J. Normand, 
 K. Raghavachari, A. Rendell, J. C. Burant, S. S. Iyengar, J. Tomasi, 
 M. Cossi, N. Rega, J. M. Millam, M. Klene, J. E. Knox, J. B. Cross, 
 V. Bakken, C. Adamo, J. Jaramillo, R. Gomperts, R. E. Stratmann, 
 O. Yazyev, A. J. Austin, R. Cammi, C. Pomelli, J. W. Ochterski, 
 R. L. Martin, K. Morokuma, V. G. Zakrzewski, G. A. Voth, 
 P. Salvador, J. J. Dannenberg, S. Dapprich, A. D. Daniels, 
 O. Farkas, J. B. Foresman, J. V. Ortiz, J. Cioslowski, 
 and D. J. Fox, Gaussian, Inc., Wallingford CT, 2010.
 
 ******************************************
 Gaussian 09:  EM64L-G09RevB.01 12-Aug-2010
                20-Jan-2016 
 ******************************************
 ------------------------------------------------
 # freq=raman b3lyp/6-31+g(d,p) geom=connectivity
 ------------------------------------------------
 1/10=4,30=1,38=1,57=2/1,3;
 2/12=2,17=6,18=5,40=1/2;
 3/5=1,6=6,7=111,11=2,16=1,25=1,30=1,71=2,74=-5/1,2,3;
 4//1;
 5/5=2,38=5,98=1/2;
 8/6=4,10=90,11=11/1;
 10/13=10,15=4/2;
 11/6=3,8=1,9=11,15=111,16=1/1,2,10;
 10/6=1/2;
 6/7=2,8=2,9=2,10=2,18=1,28=1/1;
 7/8=1,10=1,25=1/1,2,3,16;
 1/10=4,30=1/3;
 99//99;
 ------------
 290 8000.com
 ------------
 Symbolic Z-matrix:
 Charge =  0 Multiplicity = 1
 O                     7.535     7.651     12.246 
 C                     8.08      7.935     13.543 
 C                     7.462     9.246     14.001 
 O                     7.448     10.316    13.045 
 H                     7.426     9.999     12.097 
 C                     8.024     9.604     15.367 
 O                     7.472     10.789    15.958 
 H                     7.687     10.921    16.926 
 C                     8.309     5.566     14.138 
 O                     7.786     4.828     13.024 
 H                     8.124     3.893     13.131 
 C                     7.718     6.892     14.587 
 O                     8.241     7.179     15.892 
 C                     7.758     8.458     16.329 
 O                     8.422     8.748     17.567 
 C                     7.894     8.304     18.826 
 C                     8.503     6.987     19.278 
 O                     8.441     5.902     18.341 
 H                     8.409     6.328     17.437 
 C                     7.871     6.658     20.621 
 O                     8.315     5.444     21.244 
 H                     8.063     5.317     22.204 
 C                     7.762     10.653    19.522 
 O                     8.109     11.517    18.43 
 H                     7.758     12.447    18.545 
 C                     8.388     9.308     19.854 
 O                     7.789     8.976     21.115 
 C                     8.222     7.718     21.653 
 O                     7.54022   7.45017   22.88115 
 H                     8.25079   7.51416   11.62108 
 H                     9.14339   8.03517   13.47918 
 H                     6.43018   9.02149   14.17375 
 H                     9.08226   9.73241   15.27483 
 H                     6.70492   8.39007   16.50596 
 H                     6.6532    6.80362   14.64427 
 H                     8.26998   4.91172   14.98375 
 H                     6.82514   8.2573    18.80979 
 H                     9.5407    7.17344   19.46053 
 H                     9.45569   9.35445   19.90663 
 H                     7.88769   11.24749   20.40273 
 H                     6.71684   10.45616   19.40456 
 H                     9.27931   7.73404   21.81653 
 H                     8.18325   7.2983    23.57759 
 H                     6.80787   6.62177   20.50551 
 H                     9.34211   5.74749   13.92673 
 

 GradGradGradGradGradGradGradGradGradGradGradGradGradGradGradGradGradGrad
 Berny optimization.
 Initialization pass.
 Trust Radius=3.00D-01 FncErr=1.00D-07 GrdErr=1.00D-07
 Number of steps in this run=      2 maximum allowed number of steps=      2.
 GradGradGradGradGradGradGradGradGradGradGradGradGradGradGradGradGradGrad

                          Input orientation:                          
 ---------------------------------------------------------------------
 Center     Atomic      Atomic             Coordinates (Angstroms)
 Number     Number       Type             X           Y           Z
 ---------------------------------------------------------------------
      1          8           0        7.535000    7.651000   12.246000
      2          6           0        8.080000    7.935000   13.543000
      3          6           0        7.462000    9.246000   14.001000
      4          8           0        7.448000   10.316000   13.045000
      5          1           0        7.426000    9.999000   12.097000
      6          6           0        8.024000    9.604000   15.367000
      7          8           0        7.472000   10.789000   15.958000
      8          1           0        7.687000   10.921000   16.926000
      9          6           0        8.309000    5.566000   14.138000
     10          8           0        7.786000    4.828000   13.024000
     11          1           0        8.124000    3.893000   13.131000
     12          6           0        7.718000    6.892000   14.587000
     13          8           0        8.241000    7.179000   15.892000
     14          6           0        7.758000    8.458000   16.329000
     15          8           0        8.422000    8.748000   17.567000
     16          6           0        7.894000    8.304000   18.826000
     17          6           0        8.503000    6.987000   19.278000
     18          8           0        8.441000    5.902000   18.341000
     19          1           0        8.409000    6.328000   17.437000
     20          6           0        7.871000    6.658000   20.621000
     21          8           0        8.315000    5.444000   21.244000
     22          1           0        8.063000    5.317000   22.204000
     23          6           0        7.762000   10.653000   19.522000
     24          8           0        8.109000   11.517000   18.430000
     25          1           0        7.758000   12.447000   18.545000
     26          6           0        8.388000    9.308000   19.854000
     27          8           0        7.789000    8.976000   21.115000
     28          6           0        8.222000    7.718000   21.653000
     29          8           0        7.540217    7.450174   22.881145
     30          1           0        8.250789    7.514164   11.621083
     31          1           0        9.143387    8.035172   13.479182
     32          1           0        6.430179    9.021491   14.173749
     33          1           0        9.082261    9.732410   15.274829
     34          1           0        6.704923    8.390067   16.505958
     35          1           0        6.653196    6.803616   14.644270
     36          1           0        8.269982    4.911718   14.983750
     37          1           0        6.825142    8.257301   18.809789
     38          1           0        9.540702    7.173436   19.460529
     39          1           0        9.455695    9.354453   19.906628
     40          1           0        7.887694   11.247493   20.402727
     41          1           0        6.716840   10.456157   19.404558
     42          1           0        9.279308    7.734042   21.816530
     43          1           0        8.183254    7.298298   23.577591
     44          1           0        6.807868    6.621775   20.505508
     45          1           0        9.342114    5.747490   13.926725
 ---------------------------------------------------------------------
                    Distance matrix (angstroms):
                    1          2          3          4          5
     1  O    0.000000
     2  C    1.435232   0.000000
     3  C    2.372631   1.520003   0.000000
     4  O    2.783558   2.513283   1.434933   0.000000
     5  H    2.355246   2.603599   2.047809   0.999838   0.000000
     6  C    3.714024   2.472989   1.519857   2.496078   3.347615
     7  O    4.861065   3.787770   2.492147   2.951250   3.941261
     8  H    5.711252   4.529386   3.378147   3.935137   4.923154
     9  C    2.919926   2.453289   3.778701   4.949593   4.959522
    10  O    2.938982   3.163739   4.536323   5.498439   5.265754
    11  H    3.905472   4.063182   5.463493   6.459048   6.232142
    12  C    2.467762   1.519483   2.439313   3.764896   3.992344
    13  O    3.743599   2.472905   2.907785   4.309876   4.797776
    14  C    4.167957   2.852895   2.475509   3.785884   4.516052
    15  O    5.504836   4.119528   3.726387   4.884238   5.698940
    16  C    6.622061   5.299136   4.935039   6.137346   6.954962
    17  C    7.129302   5.828195   5.833823   7.144617   7.861223
    18  O    6.405378   5.223429   5.565643   6.965419   7.536788
    19  H    5.427770   4.225391   4.606260   6.009769   6.554245
    20  C    8.440354   7.195311   7.119651   8.423519   9.166181
    21  O    9.297486   8.097265   8.224589   9.576621  10.256995
    22  H   10.241489   9.048046   9.115232  10.452536  11.156986
    23  C    7.874243   6.575492   5.705356   6.493358   7.461316
    24  O    7.315551   6.059235   5.019172   5.556757   6.548107
    25  H    7.920148   6.744022   5.566143   5.906544   6.905044
    26  C    7.832938   6.465966   5.926123   6.947096   7.846909
    27  O    8.971026   7.648761   7.126628   8.187599   9.083095
    28  C    9.432291   8.114145   7.839993   9.024763   9.856658
    29  O   10.637042   9.366289   9.060248  10.245546  11.081848
    30  H    0.960000   1.974851   3.047204   3.243809   2.661050
    31  H    2.062822   1.070000   2.136695   2.874897   2.952367
    32  H    2.610573   2.073696   1.070000   1.996443   2.502013
    33  H    3.987492   2.689692   2.117659   2.825513   3.593448
    34  H    4.402555   3.298036   2.753289   4.029840   4.748424
    35  H    2.692089   2.128050   2.652019   3.940333   4.158881
    36  H    3.941971   3.354413   4.517149   5.800058   5.909828
    37  H    6.629843   5.423800   4.950511   6.152965   6.961040
    38  H    7.503355   6.142539   6.198628   7.444067   8.165619
    39  H    8.079359   6.663568   6.234021   7.213692   8.094775
    40  H    8.921398   7.620068   6.720810   7.429478   8.411717
    41  H    7.731962   6.524745   5.587323   6.402985   7.356106
    42  H    9.728543   8.362417   8.165239   9.325231  10.150569
    43  H   11.355597  10.055300   9.799226  10.981010  11.818256
    44  H    8.355088   7.198569   7.044364   8.349625   9.082441
    45  H    3.116705   2.554482   3.972394   5.023583   5.009463
                    6          7          8          9         10
     6  C    0.000000
     7  O    1.434646   0.000000
     8  H    2.068463   1.000336   0.000000
     9  C    4.230498   5.593988   6.069255   0.000000
    10  O    5.325079   6.651351   7.236025   1.434980   0.000000
    11  H    6.133940   7.481434   7.999111   1.961429   0.999959
    12  C    2.838482   4.138450   4.658833   1.519591   2.589921
    13  O    2.490650   3.691587   3.921560   2.383885   3.736262
    14  C    1.519709   2.377603   2.535314   3.669843   4.909247
    15  O    2.393980   2.767140   2.381813   4.679309   6.034049
    16  C    3.697510   3.818211   3.240608   5.444834   6.764425
    17  C    4.730122   5.151754   4.655547   5.336336   6.654914
    18  O    4.766904   5.522718   5.268881   4.218475   5.463789
    19  H    3.894265   4.792278   4.677398   3.387336   4.702414
    20  C    6.025516   6.242430   5.644471   6.588900   7.814764
    21  O    7.206206   7.564487   7.002645   7.107050   8.260006
    22  H    8.069973   8.324937   7.707365   8.073591   9.197187
    23  C    4.293375   3.578364   2.610874   7.427263   8.726695
    24  O    3.612307   2.654531   1.671920   7.340004   8.606503
    25  H    4.272363   3.085989   2.225956   8.189836   9.409112
    26  C    4.511461   4.267462   3.415604   6.832383   8.190342
    27  O    5.786978   5.475592   4.619648   7.783125   9.092315
    28  C    6.565820   6.513568   5.734977   7.817538   9.110534
    29  O    7.831691   7.686505   6.894341   8.976844  10.202917
    30  H    4.295433   5.489983   6.329813   3.183332   3.065890
    31  H    2.697797   4.064683   4.725423   2.688318   3.512213
    32  H    2.074471   2.719012   3.572481   3.933404   4.554727
    33  H    1.070000   2.043537   2.466954   4.387401   5.549753
    34  H    2.123870   2.577508   2.747096   4.019408   5.097164
    35  H    3.200562   4.275467   4.819533   2.128307   2.794920
    36  H    4.714329   6.010689   6.342214   1.070000   2.020363
    37  H    3.886342   3.867897   3.374426   5.592007   6.794020
    38  H    4.996500   5.442384   4.889201   5.694757   7.071701
    39  H    4.766576   4.645926   3.803484   6.996024   8.405190
    40  H    5.298886   4.487606   3.497785   8.467801   9.780891
    41  H    4.328592   3.543982   2.701951   7.361062   8.575009
    42  H    6.831470   6.849928   6.050573   8.037520   9.379959
    43  H    8.529679   8.411245   7.590382   9.598049  10.846126
    44  H    6.064396   6.203762   5.662957   6.626704   7.755471
    45  H    4.322555   5.748063   6.204857   1.070000   2.020363
                   11         12         13         14         15
    11  H    0.000000
    12  C    3.358388   0.000000
    13  O    4.293554   1.434895   0.000000
    14  C    5.585730   2.342759   1.435304   0.000000
    15  O    6.583155   3.580608   2.302205   1.434448   0.000000
    16  C    7.207139   4.471447   3.161391   2.505438   1.435619
    17  C    6.892176   4.757177   3.401544   3.378678   2.456665
    18  O    5.592912   3.949094   2.769175   3.323818   2.949433
    19  H    4.955006   2.986315   1.771849   2.487642   2.423524
    20  C    7.988074   6.040474   4.771979   4.655538   3.741473
    21  O    8.262134   6.838769   5.626687   5.792380   4.944512
    22  H    9.184271   7.785778   6.583318   6.668923   5.779482
    23  C    9.309862   6.204940   5.047278   3.874699   2.808318
    24  O    9.284665   6.025957   5.027635   3.727584   2.917207
    25  H   10.129969   6.820952   5.918067   4.563198   3.883295
    26  C    8.636588   5.833288   4.500188   3.680357   2.354809
    27  O    9.470658   6.852947   5.541953   4.814050   3.611229
    28  C    9.341558   7.131946   5.786191   5.395171   4.218566
    29  O   10.395173   8.314807   7.029423   6.632778   5.540942
    30  H    3.925398   3.076949   4.284059   4.826816   6.074998
    31  H    4.279949   2.136781   2.714594   3.196802   4.211743
    32  H    5.500707   2.522695   3.102617   2.593403   3.944147
    33  H    6.293884   3.225251   2.758355   2.118741   2.580514
    34  H    5.798942   2.636841   2.050161   1.070000   2.049946
    35  H    3.595127   1.070000   2.053988   2.606894   3.930858
    36  H    2.119381   2.093708   2.442607   3.827263   4.627457
    37  H    7.278928   4.526940   3.417730   2.657972   2.082130
    38  H    7.268510   5.210829   3.797849   3.825520   2.704847
    39  H    8.803977   6.114057   4.724967   4.060199   2.628720
    40  H   10.345164   7.267860   6.084744   4.938961   3.817629
    41  H    9.187636   6.075722   5.039929   3.812571   3.033478
    42  H    9.566962   7.443979   6.040382   5.740338   4.452145
    43  H   10.987758   9.011784   7.686733   7.353082   6.187555
    44  H    7.972564   5.994172   4.863005   4.660224   3.970023
    45  H    2.357141   2.093708   2.669078   3.953126   4.806378
                   16         17         18         19         20
    16  C    0.000000
    17  C    1.519761   0.000000
    18  O    2.510784   1.434935   0.000000
    19  H    2.469640   1.957651   0.999858   0.000000
    20  C    2.435543   1.520301   2.468772   3.245951   0.000000
    21  O    3.768762   2.506262   2.941607   3.909417   1.434943
    22  H    4.512385   3.397643   3.925287   4.885297   2.083515
    23  C    2.453496   3.748089   4.942449   4.844735   4.144841
    24  O    3.244443   4.625499   5.625511   5.291670   5.335448
    25  H    4.154745   5.559129   6.583702   6.252490   6.151022
    26  C    1.519485   2.394168   3.727307   3.837021   2.806791
    27  O    2.387913   2.800087   4.191617   4.574275   2.371473
    28  C    2.905668   2.500789   3.783538   4.443166   1.520469
    29  O    4.159133   3.758209   4.880694   5.626080   2.417688
    30  H    7.256857   7.679186   6.913215   5.937753   9.048523
    31  H    5.497427   5.927482   5.355468   4.372423   7.383843
    32  H    4.929605   5.872744   5.580377   4.671128   7.016345
    33  H    4.007884   4.888578   4.948197   4.088798   6.284957
    34  H    2.608430   3.589693   3.545676   2.832461   4.614473
    35  H    4.612766   4.992680   4.204160   3.332926   6.101274
    36  H    5.139244   4.775111   3.504431   2.836128   5.915005
    37  H    1.070000   2.155943   2.894512   2.848746   2.632882
    38  H    2.095812   1.070000   2.019712   2.467829   2.097682
    39  H    2.170276   2.628238   3.924312   4.044014   3.208184
    40  H    3.339200   4.449204   5.755967   5.767903   4.594711
    41  H    2.520360   3.904028   4.984399   4.876102   4.151845
    42  H    3.344727   2.757691   4.017268   4.681311   2.137870
    43  H    4.865462   4.322687   5.425676   6.220875   3.041202
    44  H    2.613486   2.124532   2.805403   3.473567   1.070000
    45  H    5.712764   5.556675   4.507960   3.678277   6.914226
                   21         22         23         24         25
    21  O    0.000000
    22  H    1.000616   0.000000
    23  C    5.514052   5.979684   0.000000
    24  O    6.696444   7.258457   1.435050   0.000000
    25  H    7.525746   8.019863   2.042788   1.000663   0.000000
    26  C    4.107058   4.642866   1.520238   2.642971   3.458858
    27  O    3.573282   3.827438   2.313160   3.710567   4.318993
    28  C    2.312359   2.468539   3.656089   4.983262   5.677887
    29  O    2.702826   2.298317   4.646627   6.056012   6.619506
    30  H    9.843284  10.810224   8.515615   7.899630   8.515653
    31  H    8.227563   9.202073   6.728812   6.140333   6.859012
    32  H    8.144903   8.993013   5.747987   5.211686   5.710083
    33  H    7.389868   8.279381   4.541919   3.753279   4.451593
    34  H    5.806952   6.614816   3.915966   3.930786   4.661048
    35  H    6.940215   7.832438   6.311850   6.218288   6.948674
    36  H    6.283000   7.234578   7.335945   7.452000   8.350156
    37  H    4.007458   4.658147   2.669142   3.523942   4.300455
    38  H    2.770209   3.627201   3.908315   4.688103   5.641516
    39  H    4.287353   4.849592   2.168586   2.944593   3.781540
    40  H    5.879699   6.200489   1.070000   2.003312   2.215126
    41  H    5.573095   6.004995   1.070000   2.003312   2.405475
    42  H    2.549896   2.733428   4.010911   5.210468   5.935425
    43  H    2.983525   2.413867   5.280085   6.655873   7.212277
    44  H    2.050359   2.482472   4.257750   5.473930   6.219292
    45  H    7.395240   8.386581   7.607095   7.422082   8.289832
                   26         27         28         29         30
    26  C    0.000000
    27  O    1.434972   0.000000
    28  C    2.406669   1.435095   0.000000
    29  O    3.651556   2.347191   1.430000   0.000000
    30  H    8.427194   9.616896  10.034029  11.282642   0.000000
    31  H    6.544387   7.811865   8.231698   9.555589   2.126197
    32  H    6.015015   7.073148   7.800571   8.917397   3.478902
    33  H    4.650906   6.029285   6.743809   8.089657   4.354518
    34  H    3.858074   4.770934   5.407886   6.498009   5.197972
    35  H    6.035128   6.919512   7.240134   8.309690   3.492399
    36  H    6.562055   7.371700   7.235774   8.327375   4.252132
    37  H    2.153339   2.599913   3.213395   4.211737   7.366289
    38  H    2.457622   3.009148   2.615808   3.972296   7.952163
    39  H    1.070000   2.093146   2.692545   4.017846   8.572556
    40  H    2.076786   2.382594   3.759291   4.547849   9.549181
    41  H    2.076786   2.503199   3.849481   4.669106   8.461135
    42  H    2.668951   2.062916   1.070000   2.058744  10.249553
    43  H    4.236266   3.005740   1.970203   0.960000  11.958647
    44  H    3.183879   2.622304   2.125610   2.620350   9.044965
    45  H    6.979982   8.031608   8.051887   9.291265   3.102920
                   31         32         33         34         35
    31  H    0.000000
    32  H    2.969301   0.000000
    33  H    2.471579   2.958263   0.000000
    34  H    3.903003   2.431744   2.994878   0.000000
    35  H    3.012510   2.278179   3.856916   2.446504   0.000000
    36  H    3.575266   4.575064   4.897305   4.106755   2.511677
    37  H    5.817127   4.715172   4.445950   2.310782   4.415236
    38  H    6.056151   6.406302   4.927332   4.272157   5.627682
    39  H    6.568873   6.490802   4.662173   4.478989   6.484842
    40  H    7.735066   6.773448   5.478850   4.974800   7.377794
    41  H    6.845391   5.431556   4.813905   3.559600   6.000454
    42  H    8.343891   8.257552   6.842964   5.938013   7.694379
    43  H   10.170678   9.719820   8.698791   7.306532   9.076894
    44  H    7.538010   6.781774   6.496838   4.374226   5.866097
    45  H    2.339503   4.388561   4.214795   4.537668   2.976668
                   36         37         38         39         40
    36  H    0.000000
    37  H    5.283849   0.000000
    38  H    5.174133   2.995411   0.000000
    39  H    6.736360   3.053949   2.227794   0.000000
    40  H    8.345867   3.550734   4.496456   2.507657   0.000000
    41  H    7.259242   2.280449   4.330542   2.994521   1.730160
    42  H    7.461310   3.916276   2.435846   2.510891   4.034820
    43  H    8.919495   5.049365   4.336871   4.395776   5.075752
    44  H    5.962540   2.355994   2.977363   3.851905   4.751195
    45  H    1.722000   6.039752   5.718019   6.984434   8.619975
                   41         42         43         44         45
    41  H    0.000000
    42  H    4.449019   0.000000
    43  H    5.434763   2.119562   0.000000
    44  H    3.990347   3.010637   3.433229   0.000000
    45  H    7.685718   8.136298   9.843128   7.104024   0.000000
 Stoichiometry    C12H22O11
 Framework group  C1[X(C12H22O11)]
 Deg. of freedom   129
 Full point group                 C1      NOp   1
 Largest Abelian subgroup         C1      NOp   1
 Largest concise Abelian subgroup C1      NOp   1
                         Standard orientation:                         
 ---------------------------------------------------------------------
 Center     Atomic      Atomic             Coordinates (Angstroms)
 Number     Number       Type             X           Y           Z
 ---------------------------------------------------------------------
      1          8           0        5.039372   -0.360578   -0.287078
      2          6           0        3.722180   -0.128345    0.233461
      3          6           0        3.270770    1.220946   -0.301376
      4          8           0        4.215216    2.296889   -0.204424
      5          1           0        5.166762    1.990201   -0.217837
      6          6           0        1.883268    1.525149    0.239238
      7          8           0        1.298113    2.742814   -0.243562
      8          1           0        0.322207    2.850578   -0.052076
      9          6           0        3.145333   -2.512612    0.267293
     10          8           0        4.283766   -3.200721   -0.270895
     11          1           0        4.175707   -4.159003   -0.006441
     12          6           0        2.701869   -1.150285   -0.239226
     13          8           0        1.377372   -0.913499    0.259338
     14          6           0        0.942850    0.394071   -0.142592
     15          8           0       -0.319358    0.623974    0.498981
     16          6           0       -1.555483    0.209878   -0.102283
     17          6           0       -2.013168   -1.152225    0.392563
     18          8           0       -1.063087   -2.221917    0.282367
     19          1           0       -0.163131   -1.787287    0.312214
     20          6           0       -3.331051   -1.444642   -0.306715
     21          8           0       -3.955306   -2.693238    0.025510
     22          1           0       -4.905082   -2.809159   -0.267273
     23          6           0       -2.271841    2.556397   -0.084287
     24          8           0       -1.201151    3.401337    0.361883
     25          1           0       -1.314478    4.353766    0.076644
     26          6           0       -2.609858    1.166102    0.429475
     27          8           0       -3.846844    0.868929   -0.234378
     28          6           0       -4.385317   -0.422032    0.086500
     29          8           0       -5.587430   -0.648817   -0.654035
     30          1           0        5.641827   -0.544816    0.437287
     31          1           0        3.749899   -0.106555    1.302880
     32          1           0        3.134475    1.071933   -1.352146
     33          1           0        1.939190    1.575711    1.306579
     34          1           0        0.801374    0.402736   -1.203163
     35          1           0        2.680613   -1.160161   -1.308969
     36          1           0        2.308370   -3.169161    0.151810
     37          1           0       -1.503614    0.242476   -1.170528
     38          1           0       -2.231725   -1.044540    1.434454
     39          1           0       -2.698081    1.133045    1.495319
     40          1           0       -3.162533    3.132695    0.055171
     41          1           0       -2.117975    2.438348   -1.136565
     42          1           0       -4.583709   -0.485562    1.136026
     43          1           0       -6.302993   -0.853556   -0.047691
     44          1           0       -3.180260   -1.401205   -1.365146
     45          1           0        3.320548   -2.406277    1.317480
 ---------------------------------------------------------------------
 Rotational constants (GHZ):      0.4141525      0.1437288      0.1090388
 Standard basis: 6-31+G(d,p) (6D, 7F)
 There are   547 symmetry adapted basis functions of A   symmetry.
 Integral buffers will be    131072 words long.
 Raffenetti 2 integral format.
 Two-electron integral symmetry is turned on.
   547 basis functions,   890 primitive gaussians,   547 cartesian basis functions
    91 alpha electrons       91 beta electrons
       nuclear repulsion energy      2287.4940355071 Hartrees.
 NAtoms=   45 NActive=   45 NUniq=   45 SFac= 1.00D+00 NAtFMM=   50 NAOKFM=F Big=F
 One-electron integrals computed using PRISM.
 NBasis=   547 RedAO= T  NBF=   547
 NBsUse=   547 1.00D-06 NBFU=   547
 Harris functional with IExCor=  402 diagonalized for initial guess.
 ExpMin= 4.38D-02 ExpMax= 5.48D+03 ExpMxC= 8.25D+02 IAcc=2 IRadAn=         0 AccDes= 0.00D+00
 HarFok:  IExCor=  402 AccDes= 0.00D+00 IRadAn=         0 IDoV= 1
 ScaDFX=  1.000000  1.000000  1.000000  1.000000
 FoFCou: FMM=F IPFlag=           0 FMFlag=      100000 FMFlg1=           0
         NFxFlg=           0 DoJE=T BraDBF=F KetDBF=T FulRan=T
         Omega=  0.000000  0.000000  1.000000  0.000000  0.000000 ICntrl=     500 IOpCl=  0
         NMat0=    1 NMatS0=    1 NMatT0=    0 NMatD0=    1 NMtDS0=    0 NMtDT0=    0
         I1Cent=           4 NGrid=           0.
 Petite list used in FoFCou.
 Initial guess orbital symmetries:
       Occupied  (A) (A) (A) (A) (A) (A) (A) (A) (A) (A) (A) (A)
                 (A) (A) (A) (A) (A) (A) (A) (A) (A) (A) (A) (A)
                 (A) (A) (A) (A) (A) (A) (A) (A) (A) (A) (A) (A)
                 (A) (A) (A) (A) (A) (A) (A) (A) (A) (A) (A) (A)
                 (A) (A) (A) (A) (A) (A) (A) (A) (A) (A) (A) (A)
                 (A) (A) (A) (A) (A) (A) (A) (A) (A) (A) (A) (A)
                 (A) (A) (A) (A) (A) (A) (A) (A) (A) (A) (A) (A)
                 (A) (A) (A) (A) (A) (A) (A)
       Virtual   (A) (A) (A) (A) (A) (A) (A) (A) (A) (A) (A) (A)
                 (A) (A) (A) (A) (A) (A) (A) (A) (A) (A) (A) (A)
                 (A) (A) (A) (A) (A) (A) (A) (A) (A) (A) (A) (A)
                 (A) (A) (A) (A) (A) (A) (A) (A) (A) (A) (A) (A)
                 (A) (A) (A) (A) (A) (A) (A) (A) (A) (A) (A) (A)
                 (A) (A) (A) (A) (A) (A) (A) (A) (A) (A) (A) (A)
                 (A) (A) (A) (A) (A) (A) (A) (A) (A) (A) (A) (A)
                 (A) (A) (A) (A) (A) (A) (A) (A) (A) (A) (A) (A)
                 (A) (A) (A) (A) (A) (A) (A) (A) (A) (A) (A) (A)
                 (A) (A) (A) (A) (A) (A) (A) (A) (A) (A) (A) (A)
                 (A) (A) (A) (A) (A) (A) (A) (A) (A) (A) (A) (A)
                 (A) (A) (A) (A) (A) (A) (A) (A) (A) (A) (A) (A)
                 (A) (A) (A) (A) (A) (A) (A) (A) (A) (A) (A) (A)
                 (A) (A) (A) (A) (A) (A) (A) (A) (A) (A) (A) (A)
                 (A) (A) (A) (A) (A) (A) (A) (A) (A) (A) (A) (A)
                 (A) (A) (A) (A) (A) (A) (A) (A) (A) (A) (A) (A)
                 (A) (A) (A) (A) (A) (A) (A) (A) (A) (A) (A) (A)
                 (A) (A) (A) (A) (A) (A) (A) (A) (A) (A) (A) (A)
                 (A) (A) (A) (A) (A) (A) (A) (A) (A) (A) (A) (A)
                 (A) (A) (A) (A) (A) (A) (A) (A) (A) (A) (A) (A)
                 (A) (A) (A) (A) (A) (A) (A) (A) (A) (A) (A) (A)
                 (A) (A) (A) (A) (A) (A) (A) (A) (A) (A) (A) (A)
                 (A) (A) (A) (A) (A) (A) (A) (A) (A) (A) (A) (A)
                 (A) (A) (A) (A) (A) (A) (A) (A) (A) (A) (A) (A)
                 (A) (A) (A) (A) (A) (A) (A) (A) (A) (A) (A) (A)
                 (A) (A) (A) (A) (A) (A) (A) (A) (A) (A) (A) (A)
                 (A) (A) (A) (A) (A) (A) (A) (A) (A) (A) (A) (A)
                 (A) (A) (A) (A) (A) (A) (A) (A) (A) (A) (A) (A)
                 (A) (A) (A) (A) (A) (A) (A) (A) (A) (A) (A) (A)
                 (A) (A) (A) (A) (A) (A) (A) (A) (A) (A) (A) (A)
                 (A) (A) (A) (A) (A) (A) (A) (A) (A) (A) (A) (A)
                 (A) (A) (A) (A) (A) (A) (A) (A) (A) (A) (A) (A)
                 (A) (A) (A) (A) (A) (A) (A) (A) (A) (A) (A) (A)
                 (A) (A) (A) (A) (A) (A) (A) (A) (A) (A) (A) (A)
                 (A) (A) (A) (A) (A) (A) (A) (A) (A) (A) (A) (A)
                 (A) (A) (A) (A) (A) (A) (A) (A) (A) (A) (A) (A)
                 (A) (A) (A) (A) (A) (A) (A) (A) (A) (A) (A) (A)
                 (A) (A) (A) (A) (A) (A) (A) (A) (A) (A) (A) (A)
 The electronic state of the initial guess is 1-A.
 Requested convergence on RMS density matrix=1.00D-08 within 128 cycles.
 Requested convergence on MAX density matrix=1.00D-06.
 Requested convergence on             energy=1.00D-06.
 No special actions if energy rises.
 SCF Done:  E(RB3LYP) =  -1297.92411330     A.U. after   13 cycles
             Convg  =    0.8654D-08             -V/T =  2.0087
 Range of M.O.s used for correlation:     1   547
 NBasis=   547 NAE=    91 NBE=    91 NFC=     0 NFV=     0
 NROrb=    547 NOA=    91 NOB=    91 NVA=   456 NVB=   456

 **** Warning!!: The largest alpha MO coefficient is  0.85801765D+02

          Differentiating once with respect to electric field.
                with respect to dipole field.
          Electric field/nuclear overlap derivatives assumed to be zero.
          There are     3 degrees of freedom in the 1st order CPHF.  IDoFFX=0.
      3 vectors produced by pass  0 Test12= 1.38D-12 3.33D-08 XBig12= 1.22D+02 1.07D+00.
 AX will form     3 AO Fock derivatives at one time.
      3 vectors produced by pass  1 Test12= 1.38D-12 3.33D-08 XBig12= 2.13D+01 3.41D-01.
      3 vectors produced by pass  2 Test12= 1.38D-12 3.33D-08 XBig12= 8.07D+00 1.63D-01.
      3 vectors produced by pass  3 Test12= 1.38D-12 3.33D-08 XBig12= 9.20D-01 8.95D-02.
      3 vectors produced by pass  4 Test12= 1.38D-12 3.33D-08 XBig12= 2.86D-01 4.74D-02.
      3 vectors produced by pass  5 Test12= 1.38D-12 3.33D-08 XBig12= 5.51D-02 1.83D-02.
      3 vectors produced by pass  6 Test12= 1.38D-12 3.33D-08 XBig12= 1.83D-02 1.92D-02.
      3 vectors produced by pass  7 Test12= 1.38D-12 3.33D-08 XBig12= 2.19D-03 5.85D-03.
      3 vectors produced by pass  8 Test12= 1.38D-12 3.33D-08 XBig12= 3.93D-04 1.69D-03.
      3 vectors produced by pass  9 Test12= 1.38D-12 3.33D-08 XBig12= 1.09D-04 1.11D-03.
      3 vectors produced by pass 10 Test12= 1.38D-12 3.33D-08 XBig12= 2.59D-05 4.70D-04.
      3 vectors produced by pass 11 Test12= 1.38D-12 3.33D-08 XBig12= 7.05D-06 2.52D-04.
      3 vectors produced by pass 12 Test12= 1.38D-12 3.33D-08 XBig12= 5.06D-07 8.83D-05.
      3 vectors produced by pass 13 Test12= 1.38D-12 3.33D-08 XBig12= 1.62D-07 3.62D-05.
      3 vectors produced by pass 14 Test12= 1.38D-12 3.33D-08 XBig12= 1.93D-08 1.66D-05.
      3 vectors produced by pass 15 Test12= 1.38D-12 3.33D-08 XBig12= 4.84D-09 6.08D-06.
      3 vectors produced by pass 16 Test12= 1.38D-12 3.33D-08 XBig12= 6.93D-10 2.34D-06.
      3 vectors produced by pass 17 Test12= 1.38D-12 3.33D-08 XBig12= 8.96D-11 6.13D-07.
      3 vectors produced by pass 18 Test12= 1.38D-12 3.33D-08 XBig12= 4.86D-11 6.77D-07.
      3 vectors produced by pass 19 Test12= 1.38D-12 3.33D-08 XBig12= 1.56D-11 4.04D-07.
      2 vectors produced by pass 20 Test12= 1.38D-12 3.33D-08 XBig12= 3.38D-12 1.77D-07.
      2 vectors produced by pass 21 Test12= 1.38D-12 3.33D-08 XBig12= 8.63D-13 5.84D-08.
 Inverted reduced A of dimension    64 with in-core refinement.
 End of Minotr Frequency-dependent properties file   721 does not exist.
 End of Minotr Frequency-dependent properties file   722 does not exist.
 Symmetrizing basis deriv contribution to polar:
 IMax=3 JMax=2 DiffMx= 0.00D+00
 G2DrvN: will do    23 centers at a time, making    2 passes doing MaxLOS=2.
 Calling FoFCou, ICntrl=  3107 FMM=F I1Cent=   0 AccDes= 0.00D+00.
 Calling FoFCou, ICntrl=  3107 FMM=F I1Cent=   0 AccDes= 0.00D+00.
 FoFDir/FoFCou used for L=0 through L=2.
 End of G2Drv Frequency-dependent properties file   721 does not exist.
 End of G2Drv Frequency-dependent properties file   722 does not exist.
          IDoAtm=111111111111111111111111111111111111111111111
          Differentiating once with respect to electric field.
                with respect to dipole field.
          Differentiating once with respect to nuclear coordinates.
          There are   138 degrees of freedom in the 1st order CPHF.  IDoFFX=5.
 Will reuse    3 saved solutions.
    135 vectors produced by pass  0 Test12= 4.15D-14 1.00D-09 XBig12= 2.31D-01 7.38D-02.
 AX will form    68 AO Fock derivatives at one time.
    135 vectors produced by pass  1 Test12= 4.15D-14 1.00D-09 XBig12= 4.05D-02 1.62D-02.
    132 vectors produced by pass  2 Test12= 4.15D-14 1.00D-09 XBig12= 2.22D-04 1.81D-03.
    132 vectors produced by pass  3 Test12= 4.15D-14 1.00D-09 XBig12= 6.78D-07 9.94D-05.
    132 vectors produced by pass  4 Test12= 4.15D-14 1.00D-09 XBig12= 1.15D-09 2.34D-06.
    130 vectors produced by pass  5 Test12= 4.15D-14 1.00D-09 XBig12= 3.12D-12 1.31D-07.
     78 vectors produced by pass  6 Test12= 4.15D-14 1.00D-09 XBig12= 1.16D-13 1.97D-08.
 Inverted reduced A of dimension   874 with in-core refinement.
 Isotropic polarizability for W=    0.000000      187.86 Bohr**3.
 End of Minotr Frequency-dependent properties file   721 does not exist.
 End of Minotr Frequency-dependent properties file   722 does not exist.

 **********************************************************************

            Population analysis using the SCF density.

 **********************************************************************

 Orbital symmetries:
       Occupied  (A) (A) (A) (A) (A) (A) (A) (A) (A) (A) (A) (A)
                 (A) (A) (A) (A) (A) (A) (A) (A) (A) (A) (A) (A)
                 (A) (A) (A) (A) (A) (A) (A) (A) (A) (A) (A) (A)
                 (A) (A) (A) (A) (A) (A) (A) (A) (A) (A) (A) (A)
                 (A) (A) (A) (A) (A) (A) (A) (A) (A) (A) (A) (A)
                 (A) (A) (A) (A) (A) (A) (A) (A) (A) (A) (A) (A)
                 (A) (A) (A) (A) (A) (A) (A) (A) (A) (A) (A) (A)
                 (A) (A) (A) (A) (A) (A) (A)
       Virtual   (A) (A) (A) (A) (A) (A) (A) (A) (A) (A) (A) (A)
                 (A) (A) (A) (A) (A) (A) (A) (A) (A) (A) (A) (A)
                 (A) (A) (A) (A) (A) (A) (A) (A) (A) (A) (A) (A)
                 (A) (A) (A) (A) (A) (A) (A) (A) (A) (A) (A) (A)
                 (A) (A) (A) (A) (A) (A) (A) (A) (A) (A) (A) (A)
                 (A) (A) (A) (A) (A) (A) (A) (A) (A) (A) (A) (A)
                 (A) (A) (A) (A) (A) (A) (A) (A) (A) (A) (A) (A)
                 (A) (A) (A) (A) (A) (A) (A) (A) (A) (A) (A) (A)
                 (A) (A) (A) (A) (A) (A) (A) (A) (A) (A) (A) (A)
                 (A) (A) (A) (A) (A) (A) (A) (A) (A) (A) (A) (A)
                 (A) (A) (A) (A) (A) (A) (A) (A) (A) (A) (A) (A)
                 (A) (A) (A) (A) (A) (A) (A) (A) (A) (A) (A) (A)
                 (A) (A) (A) (A) (A) (A) (A) (A) (A) (A) (A) (A)
                 (A) (A) (A) (A) (A) (A) (A) (A) (A) (A) (A) (A)
                 (A) (A) (A) (A) (A) (A) (A) (A) (A) (A) (A) (A)
                 (A) (A) (A) (A) (A) (A) (A) (A) (A) (A) (A) (A)
                 (A) (A) (A) (A) (A) (A) (A) (A) (A) (A) (A) (A)
                 (A) (A) (A) (A) (A) (A) (A) (A) (A) (A) (A) (A)
                 (A) (A) (A) (A) (A) (A) (A) (A) (A) (A) (A) (A)
                 (A) (A) (A) (A) (A) (A) (A) (A) (A) (A) (A) (A)
                 (A) (A) (A) (A) (A) (A) (A) (A) (A) (A) (A) (A)
                 (A) (A) (A) (A) (A) (A) (A) (A) (A) (A) (A) (A)
                 (A) (A) (A) (A) (A) (A) (A) (A) (A) (A) (A) (A)
                 (A) (A) (A) (A) (A) (A) (A) (A) (A) (A) (A) (A)
                 (A) (A) (A) (A) (A) (A) (A) (A) (A) (A) (A) (A)
                 (A) (A) (A) (A) (A) (A) (A) (A) (A) (A) (A) (A)
                 (A) (A) (A) (A) (A) (A) (A) (A) (A) (A) (A) (A)
                 (A) (A) (A) (A) (A) (A) (A) (A) (A) (A) (A) (A)
                 (A) (A) (A) (A) (A) (A) (A) (A) (A) (A) (A) (A)
                 (A) (A) (A) (A) (A) (A) (A) (A) (A) (A) (A) (A)
                 (A) (A) (A) (A) (A) (A) (A) (A) (A) (A) (A) (A)
                 (A) (A) (A) (A) (A) (A) (A) (A) (A) (A) (A) (A)
                 (A) (A) (A) (A) (A) (A) (A) (A) (A) (A) (A) (A)
                 (A) (A) (A) (A) (A) (A) (A) (A) (A) (A) (A) (A)
                 (A) (A) (A) (A) (A) (A) (A) (A) (A) (A) (A) (A)
                 (A) (A) (A) (A) (A) (A) (A) (A) (A) (A) (A) (A)
                 (A) (A) (A) (A) (A) (A) (A) (A) (A) (A) (A) (A)
                 (A) (A) (A) (A) (A) (A) (A) (A) (A) (A) (A) (A)
 The electronic state is 1-A.
 Alpha  occ. eigenvalues --  -19.20733 -19.19898 -19.19644 -19.19397 -19.18928
 Alpha  occ. eigenvalues --  -19.18278 -19.17317 -19.15977 -19.15584 -19.14724
 Alpha  occ. eigenvalues --  -19.13447 -10.31552 -10.31474 -10.27361 -10.26680
 Alpha  occ. eigenvalues --  -10.26550 -10.26066 -10.25649 -10.25093 -10.24863
 Alpha  occ. eigenvalues --  -10.24840 -10.24626 -10.24480  -1.10776  -1.09675
 Alpha  occ. eigenvalues --   -1.06012  -1.05494  -1.04764  -1.04332  -1.02992
 Alpha  occ. eigenvalues --   -1.02213  -1.01295  -1.00527  -0.99395  -0.83271
 Alpha  occ. eigenvalues --   -0.81640  -0.79997  -0.78852  -0.72062  -0.70148
 Alpha  occ. eigenvalues --   -0.67726  -0.64643  -0.63528  -0.63067  -0.62134
 Alpha  occ. eigenvalues --   -0.61231  -0.57002  -0.56328  -0.55878  -0.55400
 Alpha  occ. eigenvalues --   -0.54584  -0.54065  -0.53006  -0.51615  -0.51353
 Alpha  occ. eigenvalues --   -0.50726  -0.50718  -0.50070  -0.48912  -0.46910
 Alpha  occ. eigenvalues --   -0.46592  -0.45742  -0.45008  -0.44051  -0.43537
 Alpha  occ. eigenvalues --   -0.42797  -0.42098  -0.41654  -0.40633  -0.39987
 Alpha  occ. eigenvalues --   -0.39810  -0.37713  -0.37057  -0.36716  -0.36131
 Alpha  occ. eigenvalues --   -0.35573  -0.34371  -0.33993  -0.33872  -0.33624
 Alpha  occ. eigenvalues --   -0.33084  -0.31677  -0.30803  -0.30214  -0.30058
 Alpha  occ. eigenvalues --   -0.29693  -0.28735  -0.27570  -0.27149  -0.26856
 Alpha  occ. eigenvalues --   -0.26644
 Alpha virt. eigenvalues --   -0.02427  -0.02269  -0.02046  -0.00422  -0.00012
 Alpha virt. eigenvalues --    0.00987   0.01657   0.01865   0.03268   0.03642
 Alpha virt. eigenvalues --    0.03855   0.04386   0.04727   0.05221   0.05647
 Alpha virt. eigenvalues --    0.06207   0.06325   0.07184   0.07580   0.08163
 Alpha virt. eigenvalues --    0.08401   0.08650   0.09099   0.09611   0.09884
 Alpha virt. eigenvalues --    0.10459   0.11035   0.11285   0.11686   0.11886
 Alpha virt. eigenvalues --    0.12564   0.12715   0.13259   0.13735   0.14029
 Alpha virt. eigenvalues --    0.14085   0.14305   0.14571   0.14949   0.15156
 Alpha virt. eigenvalues --    0.15968   0.16198   0.16711   0.17077   0.17170
 Alpha virt. eigenvalues --    0.17201   0.17472   0.17627   0.17702   0.18401
 Alpha virt. eigenvalues --    0.18556   0.18937   0.19451   0.19702   0.20235
 Alpha virt. eigenvalues --    0.20418   0.20683   0.21052   0.21384   0.21583
 Alpha virt. eigenvalues --    0.22365   0.22460   0.22935   0.23077   0.23532
 Alpha virt. eigenvalues --    0.23781   0.24059   0.24203   0.24255   0.24476
 Alpha virt. eigenvalues --    0.24773   0.25270   0.25391   0.25550   0.25803
 Alpha virt. eigenvalues --    0.26343   0.26403   0.26580   0.26892   0.27119
 Alpha virt. eigenvalues --    0.27253   0.28001   0.28126   0.28544   0.28907
 Alpha virt. eigenvalues --    0.29304   0.29716   0.29985   0.30186   0.30740
 Alpha virt. eigenvalues --    0.30951   0.31192   0.31583   0.31736   0.32052
 Alpha virt. eigenvalues --    0.32687   0.32958   0.33069   0.33440   0.33652
 Alpha virt. eigenvalues --    0.33924   0.34631   0.34993   0.35438   0.35674
 Alpha virt. eigenvalues --    0.35966   0.36616   0.36782   0.37277   0.37512
 Alpha virt. eigenvalues --    0.38153   0.38510   0.38677   0.39261   0.39699
 Alpha virt. eigenvalues --    0.40081   0.40829   0.41014   0.41137   0.42014
 Alpha virt. eigenvalues --    0.42398   0.42656   0.43223   0.43749   0.44163
 Alpha virt. eigenvalues --    0.44611   0.45689   0.46559   0.47463   0.47881
 Alpha virt. eigenvalues --    0.48200   0.49419   0.49583   0.50321   0.50717
 Alpha virt. eigenvalues --    0.51344   0.52278   0.55673   0.63404   0.64533
 Alpha virt. eigenvalues --    0.64966   0.65359   0.67384   0.69584   0.70210
 Alpha virt. eigenvalues --    0.70756   0.70899   0.72324   0.73294   0.74161
 Alpha virt. eigenvalues --    0.75147   0.75887   0.76587   0.77892   0.79290
 Alpha virt. eigenvalues --    0.79782   0.80068   0.81289   0.82074   0.82700
 Alpha virt. eigenvalues --    0.85721   0.87169   0.88543   0.88952   0.90296
 Alpha virt. eigenvalues --    0.91159   0.92211   0.93997   0.94555   0.95384
 Alpha virt. eigenvalues --    0.95649   0.96514   0.97679   0.99493   1.00065
 Alpha virt. eigenvalues --    1.01417   1.01816   1.02778   1.03625   1.04651
 Alpha virt. eigenvalues --    1.04846   1.05610   1.05897   1.07066   1.07462
 Alpha virt. eigenvalues --    1.08230   1.08842   1.09521   1.09922   1.10685
 Alpha virt. eigenvalues --    1.11094   1.12102   1.13898   1.15154   1.16107
 Alpha virt. eigenvalues --    1.17342   1.18346   1.19229   1.20478   1.21803
 Alpha virt. eigenvalues --    1.22690   1.24230   1.24779   1.25081   1.25885
 Alpha virt. eigenvalues --    1.26432   1.26537   1.27085   1.28228   1.28571
 Alpha virt. eigenvalues --    1.29189   1.29670   1.30167   1.30279   1.31300
 Alpha virt. eigenvalues --    1.31851   1.32496   1.32914   1.33845   1.34366
 Alpha virt. eigenvalues --    1.35430   1.35534   1.36382   1.37120   1.38111
 Alpha virt. eigenvalues --    1.38516   1.39565   1.41330   1.42237   1.42889
 Alpha virt. eigenvalues --    1.43942   1.45325   1.46594   1.47090   1.47612
 Alpha virt. eigenvalues --    1.48372   1.49711   1.50319   1.50562   1.52534
 Alpha virt. eigenvalues --    1.53298   1.55571   1.56336   1.57425   1.58414
 Alpha virt. eigenvalues --    1.59237   1.59728   1.60906   1.61507   1.61966
 Alpha virt. eigenvalues --    1.62538   1.63717   1.63974   1.64340   1.65673
 Alpha virt. eigenvalues --    1.66534   1.67482   1.67860   1.68995   1.69606
 Alpha virt. eigenvalues --    1.70350   1.71308   1.72396   1.73189   1.74043
 Alpha virt. eigenvalues --    1.74741   1.75276   1.76098   1.76940   1.78134
 Alpha virt. eigenvalues --    1.78969   1.79389   1.79857   1.81268   1.82227
 Alpha virt. eigenvalues --    1.82665   1.83823   1.84384   1.85559   1.86376
 Alpha virt. eigenvalues --    1.86694   1.87982   1.88253   1.88811   1.90326
 Alpha virt. eigenvalues --    1.91626   1.91711   1.92904   1.93302   1.93798
 Alpha virt. eigenvalues --    1.95232   1.96372   1.96601   1.98165   1.98815
 Alpha virt. eigenvalues --    1.99698   1.99975   2.00462   2.01816   2.02690
 Alpha virt. eigenvalues --    2.03600   2.04169   2.05838   2.06324   2.07545
 Alpha virt. eigenvalues --    2.07854   2.09187   2.10234   2.10745   2.11641
 Alpha virt. eigenvalues --    2.12145   2.12855   2.13680   2.14794   2.15820
 Alpha virt. eigenvalues --    2.16866   2.17636   2.19021   2.20758   2.21244
 Alpha virt. eigenvalues --    2.22227   2.23419   2.25714   2.26114   2.27293
 Alpha virt. eigenvalues --    2.28464   2.28996   2.31206   2.33291   2.34961
 Alpha virt. eigenvalues --    2.35434   2.36378   2.37410   2.39068   2.40126
 Alpha virt. eigenvalues --    2.40818   2.41411   2.41666   2.42397   2.43344
 Alpha virt. eigenvalues --    2.45121   2.46127   2.47549   2.48840   2.49982
 Alpha virt. eigenvalues --    2.51809   2.52271   2.53857   2.54498   2.55224
 Alpha virt. eigenvalues --    2.57888   2.59291   2.60021   2.60836   2.61489
 Alpha virt. eigenvalues --    2.61945   2.62206   2.62921   2.63342   2.64137
 Alpha virt. eigenvalues --    2.66501   2.67014   2.68531   2.69359   2.69530
 Alpha virt. eigenvalues --    2.70773   2.72250   2.72879   2.73195   2.74211
 Alpha virt. eigenvalues --    2.77641   2.77875   2.78178   2.79195   2.79842
 Alpha virt. eigenvalues --    2.81253   2.82533   2.83829   2.84980   2.85187
 Alpha virt. eigenvalues --    2.87109   2.88279   2.88512   2.89486   2.90528
 Alpha virt. eigenvalues --    2.90972   2.91317   2.92047   2.93204   2.94160
 Alpha virt. eigenvalues --    2.95210   2.97103   2.97525   2.98772   2.99854
 Alpha virt. eigenvalues --    3.02430   3.03661   3.04868   3.05506   3.05772
 Alpha virt. eigenvalues --    3.06573   3.09613   3.10129   3.10835   3.12738
 Alpha virt. eigenvalues --    3.16639   3.19548   3.22656   3.23474   3.32666
 Alpha virt. eigenvalues --    3.33557   3.37265   3.38424   3.39422   3.41237
 Alpha virt. eigenvalues --    3.43761   3.44519   3.45891   3.46573   3.48860
 Alpha virt. eigenvalues --    3.49365   3.50574   3.53012   3.53156   3.54347
 Alpha virt. eigenvalues --    3.56112   3.56942   3.60176   3.61804   3.63173
 Alpha virt. eigenvalues --    3.65443   3.73163   3.74552   4.30877   4.33317
 Alpha virt. eigenvalues --    4.36248   4.40946   4.43438   4.45782   4.46379
 Alpha virt. eigenvalues --    4.49318   4.51188   4.52392   4.54216   4.55275
 Alpha virt. eigenvalues --    4.57212   4.61391   4.64461   4.66470   4.72599
 Alpha virt. eigenvalues --    4.79725   4.82174   4.87018   4.89185   4.90893
 Alpha virt. eigenvalues --    4.91362
          Condensed to atoms (all electrons):
              1          2          3          4          5          6
     1  O    8.301694   0.135614  -0.076303  -0.014525   0.029973   0.112696
     2  C    0.135614   9.958361  -1.199696   0.004104  -0.115895  -3.659965
     3  C   -0.076303  -1.199696   8.959346   0.294496   0.058663   0.209226
     4  O   -0.014525   0.004104   0.294496   8.234423   0.196967  -0.175604
     5  H    0.029973  -0.115895   0.058663   0.196967   0.420144   0.022611
     6  C    0.112696  -3.659965   0.209226  -0.175604   0.022611  13.304068
     7  O   -0.002201   0.043990  -0.186378   0.019464  -0.001078   0.349119
     8  H    0.000015  -0.006531   0.031192  -0.000773   0.000003   0.007731
     9  C    0.003979   0.537704  -0.230825   0.006242  -0.004443  -0.039467
    10  O   -0.009904   0.011819  -0.001803   0.000018  -0.000012  -0.006397
    11  H    0.000310  -0.007242  -0.000516   0.000001   0.000000  -0.000058
    12  C   -0.178459  -1.700496  -0.354327   0.016292   0.015181   0.693364
    13  O    0.005219  -0.002115  -0.023398   0.000996  -0.000221  -0.102747
    14  C    0.024909   1.349714  -0.886542  -0.024543   0.017956  -3.990351
    15  O    0.000508  -0.049935   0.021225  -0.000553   0.000062   0.187282
    16  C    0.003864   0.033033  -0.286924   0.000712   0.001104  -0.261933
    17  C    0.000206  -0.010676  -0.034437   0.000965   0.000057  -0.032328
    18  O    0.000006   0.009513   0.000213  -0.000008   0.000000  -0.003798
    19  H   -0.000020  -0.007682   0.006234  -0.000004   0.000000   0.011616
    20  C    0.000093   0.000897  -0.005814  -0.000053   0.000003   0.102834
    21  O    0.000000   0.000055  -0.000097   0.000000   0.000000  -0.000785
    22  H    0.000000   0.000001  -0.000001   0.000000   0.000000  -0.000067
    23  C   -0.000027   0.012557  -0.004303  -0.000052  -0.000031  -0.205536
    24  O   -0.000003   0.005271  -0.008730  -0.000051  -0.000003  -0.022357
    25  H    0.000000  -0.000107   0.001404  -0.000001   0.000000  -0.001714
    26  C   -0.000148   0.026633  -0.073440   0.000568   0.000036  -0.245115
    27  O    0.000000  -0.000422   0.000482   0.000001   0.000000   0.008285
    28  C    0.000006  -0.001280  -0.002556   0.000022   0.000000  -0.003238
    29  O    0.000000   0.000000   0.000043   0.000000   0.000000  -0.000283
    30  H    0.226955   0.085062  -0.036546   0.001642  -0.003188   0.001546
    31  H   -0.043960   0.430216  -0.063670   0.000980   0.000048  -0.046199
    32  H   -0.008772   0.172095   0.274216  -0.055167  -0.000111  -0.396553
    33  H   -0.001388   0.136643  -0.246243   0.006932  -0.000048   0.202612
    34  H   -0.000198   0.034161  -0.055838   0.000154  -0.000001  -0.131840
    35  H    0.008262  -0.014418  -0.048076   0.000187   0.000012  -0.007613
    36  H    0.000320  -0.020610  -0.010158   0.000032   0.000000   0.005025
    37  H   -0.000001  -0.000682   0.000710   0.000005   0.000000   0.001841
    38  H    0.000000   0.000103   0.000184   0.000000   0.000000  -0.001293
    39  H    0.000000  -0.000121   0.000682   0.000000   0.000000   0.003594
    40  H    0.000000   0.000006   0.000088   0.000000   0.000000   0.001054
    41  H    0.000000  -0.000081   0.000194   0.000002   0.000000  -0.001176
    42  H    0.000000  -0.000005   0.000007   0.000000   0.000000   0.000121
    43  H    0.000000   0.000000   0.000000   0.000000   0.000000   0.000009
    44  H    0.000000   0.000060  -0.000019   0.000000   0.000000  -0.000009
    45  H    0.003623  -0.017055   0.006495  -0.000017   0.000001   0.012121
              7          8          9         10         11         12
     1  O   -0.002201   0.000015   0.003979  -0.009904   0.000310  -0.178459
     2  C    0.043990  -0.006531   0.537704   0.011819  -0.007242  -1.700496
     3  C   -0.186378   0.031192  -0.230825  -0.001803  -0.000516  -0.354327
     4  O    0.019464  -0.000773   0.006242   0.000018   0.000001   0.016292
     5  H   -0.001078   0.000003  -0.004443  -0.000012   0.000000   0.015181
     6  C    0.349119   0.007731  -0.039467  -0.006397  -0.000058   0.693364
     7  O    8.255978   0.207464   0.004938   0.000028   0.000000   0.038745
     8  H    0.207464   0.330647  -0.000042   0.000000   0.000000   0.000034
     9  C    0.004938  -0.000042   7.147905   0.047964   0.021508  -1.944185
    10  O    0.000028   0.000000   0.047964   8.319987   0.192930   0.062628
    11  H    0.000000   0.000000   0.021508   0.192930   0.446839   0.014346
    12  C    0.038745   0.000034  -1.944185   0.062628   0.014346  10.734532
    13  O    0.013453   0.001926   0.037920  -0.000256  -0.000597  -0.152654
    14  C   -0.113550  -0.045950  -0.502082   0.019062  -0.006000  -0.974032
    15  O   -0.011131   0.023165  -0.013775  -0.000032   0.000004   0.030826
    16  C    0.013476   0.015533  -0.130437  -0.002002  -0.000065  -0.174272
    17  C    0.005300  -0.002229   0.006506  -0.000146  -0.000020  -0.109591
    18  O   -0.000082   0.000002   0.009016   0.000000   0.000000  -0.031197
    19  H   -0.000066  -0.000011  -0.009626  -0.000067  -0.000003   0.019918
    20  C    0.004047   0.001408  -0.005169   0.000079   0.000004  -0.044173
    21  O   -0.000008   0.000000   0.000165   0.000000   0.000000   0.000055
    22  H    0.000000   0.000000   0.000005   0.000000   0.000000   0.000050
    23  C   -0.008617   0.025671   0.002323  -0.000006  -0.000001   0.005277
    24  O   -0.034379  -0.013941   0.000301   0.000000   0.000000   0.000451
    25  H    0.002985  -0.002046  -0.000007   0.000000   0.000000  -0.000319
    26  C   -0.001960  -0.043393   0.007371  -0.000006   0.000007   0.049560
    27  O    0.000196   0.000043  -0.000092   0.000000   0.000000  -0.000245
    28  C    0.000324  -0.000105  -0.002511  -0.000005   0.000000   0.005666
    29  O   -0.000005   0.000000   0.000010   0.000000   0.000000   0.000108
    30  H    0.000009   0.000000  -0.002763   0.000724   0.000005  -0.025438
    31  H    0.000313   0.000001   0.002755   0.000348  -0.000002  -0.128503
    32  H    0.009747  -0.000099   0.027576  -0.000027   0.000000  -0.030124
    33  H   -0.043704  -0.002624   0.021829   0.000029   0.000000   0.009504
    34  H    0.003719  -0.000921   0.020479   0.000120   0.000000   0.007954
    35  H   -0.000067   0.000003   0.062606   0.004011  -0.000110   0.178213
    36  H   -0.000015   0.000000   0.447373  -0.045119  -0.012735  -0.053097
    37  H   -0.000529   0.000181   0.000641   0.000001   0.000000   0.004708
    38  H   -0.000003   0.000004  -0.000007   0.000000   0.000000   0.001498
    39  H   -0.000048   0.000030   0.000074   0.000000   0.000000   0.000769
    40  H   -0.000768   0.000369  -0.000004   0.000000   0.000000  -0.000055
    41  H    0.001619   0.000831   0.000027   0.000000   0.000000   0.001055
    42  H    0.000000   0.000000   0.000002   0.000000   0.000000   0.000038
    43  H    0.000000   0.000000   0.000000   0.000000   0.000000  -0.000002
    44  H    0.000001   0.000000  -0.000082   0.000000   0.000000   0.000872
    45  H   -0.000001   0.000000   0.572585  -0.070064  -0.002093  -0.229117
             13         14         15         16         17         18
     1  O    0.005219   0.024909   0.000508   0.003864   0.000206   0.000006
     2  C   -0.002115   1.349714  -0.049935   0.033033  -0.010676   0.009513
     3  C   -0.023398  -0.886542   0.021225  -0.286924  -0.034437   0.000213
     4  O    0.000996  -0.024543  -0.000553   0.000712   0.000965  -0.000008
     5  H   -0.000221   0.017956   0.000062   0.001104   0.000057   0.000000
     6  C   -0.102747  -3.990351   0.187282  -0.261933  -0.032328  -0.003798
     7  O    0.013453  -0.113550  -0.011131   0.013476   0.005300  -0.000082
     8  H    0.001926  -0.045950   0.023165   0.015533  -0.002229   0.000002
     9  C    0.037920  -0.502082  -0.013775  -0.130437   0.006506   0.009016
    10  O   -0.000256   0.019062  -0.000032  -0.002002  -0.000146   0.000000
    11  H   -0.000597  -0.006000   0.000004  -0.000065  -0.000020   0.000000
    12  C   -0.152654  -0.974032   0.030826  -0.174272  -0.109591  -0.031197
    13  O    8.469813   0.203257  -0.038699   0.113707  -0.085050   0.029563
    14  C    0.203257  11.540684  -0.003615  -0.802485  -0.004911  -0.030675
    15  O   -0.038699  -0.003615   8.418948  -0.165754   0.082554  -0.005731
    16  C    0.113707  -0.802485  -0.165754  15.862753  -3.723072  -0.002265
    17  C   -0.085050  -0.004911   0.082554  -3.723072   9.761191   0.380451
    18  O    0.029563  -0.030675  -0.005731  -0.002265   0.380451   8.236089
    19  H    0.019756  -0.010307   0.019323  -0.117360   0.047780   0.176988
    20  C   -0.009395  -0.546444   0.060567  -2.679502  -0.063996  -0.206051
    21  O    0.000264   0.002100  -0.000721   0.036531  -0.193660   0.016680
    22  H    0.000000  -0.000473   0.000047  -0.011357   0.030980  -0.000780
    23  C    0.028151   0.168644  -0.035944   0.527411  -0.517212   0.005084
    24  O   -0.003209   0.068270  -0.013680  -0.039657   0.002471  -0.000001
    25  H    0.000017  -0.006622   0.001215   0.003020  -0.000747   0.000001
    26  C   -0.062695  -0.568495  -0.026768  -4.191355   1.220536  -0.010447
    27  O    0.000340   0.015441   0.009635   0.057582  -0.121452   0.002637
    28  C    0.006418  -0.061112  -0.000526   1.358565  -0.757336   0.014574
    29  O    0.000015   0.001538   0.000272  -0.030182   0.019288  -0.000496
    30  H   -0.000714   0.000462  -0.000008   0.000280  -0.000065   0.000000
    31  H    0.013788   0.068950  -0.000575  -0.000890   0.001285   0.000075
    32  H    0.011566   0.181486  -0.001330   0.009252   0.002315   0.000072
    33  H    0.018511   0.100593  -0.015871   0.016398   0.004280   0.000151
    34  H   -0.063834   0.389132  -0.067578   0.025594   0.026479  -0.000211
    35  H   -0.030562   0.088160  -0.000515   0.003021   0.005374   0.000150
    36  H   -0.002027   0.003637  -0.000022   0.002735   0.001673  -0.000568
    37  H    0.000380   0.023587  -0.053554   0.335525  -0.021319  -0.000200
    38  H    0.000238   0.043176  -0.010464   0.128619   0.285835  -0.054599
    39  H   -0.000410   0.052748   0.008520   0.005213  -0.010869  -0.000316
    40  H   -0.000006   0.001639   0.000687   0.026066  -0.008146   0.000043
    41  H    0.000289   0.013841   0.004482  -0.028232   0.003732  -0.000027
    42  H    0.000007   0.005950   0.000205   0.109043   0.005069  -0.000607
    43  H    0.000000   0.000216  -0.000009   0.000937   0.007200   0.000000
    44  H    0.000537   0.001143  -0.001499   0.205455  -0.281790   0.006474
    45  H    0.005419   0.000498  -0.000398  -0.002809   0.000197   0.000169
             19         20         21         22         23         24
     1  O   -0.000020   0.000093   0.000000   0.000000  -0.000027  -0.000003
     2  C   -0.007682   0.000897   0.000055   0.000001   0.012557   0.005271
     3  C    0.006234  -0.005814  -0.000097  -0.000001  -0.004303  -0.008730
     4  O   -0.000004  -0.000053   0.000000   0.000000  -0.000052  -0.000051
     5  H    0.000000   0.000003   0.000000   0.000000  -0.000031  -0.000003
     6  C    0.011616   0.102834  -0.000785  -0.000067  -0.205536  -0.022357
     7  O   -0.000066   0.004047  -0.000008   0.000000  -0.008617  -0.034379
     8  H   -0.000011   0.001408   0.000000   0.000000   0.025671  -0.013941
     9  C   -0.009626  -0.005169   0.000165   0.000005   0.002323   0.000301
    10  O   -0.000067   0.000079   0.000000   0.000000  -0.000006   0.000000
    11  H   -0.000003   0.000004   0.000000   0.000000  -0.000001   0.000000
    12  C    0.019918  -0.044173   0.000055   0.000050   0.005277   0.000451
    13  O    0.019756  -0.009395   0.000264   0.000000   0.028151  -0.003209
    14  C   -0.010307  -0.546444   0.002100  -0.000473   0.168644   0.068270
    15  O    0.019323   0.060567  -0.000721   0.000047  -0.035944  -0.013680
    16  C   -0.117360  -2.679502   0.036531  -0.011357   0.527411  -0.039657
    17  C    0.047780  -0.063996  -0.193660   0.030980  -0.517212   0.002471
    18  O    0.176988  -0.206051   0.016680  -0.000780   0.005084  -0.000001
    19  H    0.365672   0.029232  -0.001180   0.000004  -0.006009   0.000025
    20  C    0.029232  10.570092   0.214968  -0.022765  -0.119284  -0.005145
    21  O   -0.001180   0.214968   8.252228   0.204406   0.004203   0.000015
    22  H    0.000004  -0.022765   0.204406   0.421783  -0.000171   0.000000
    23  C   -0.006009  -0.119284   0.004203  -0.000171   6.173918  -0.012026
    24  O    0.000025  -0.005145   0.000015   0.000000  -0.012026   8.533878
    25  H    0.000000   0.000045   0.000000   0.000000  -0.007148   0.212438
    26  C    0.031642   0.923356  -0.009881   0.009965  -0.999688   0.070119
    27  O    0.000044  -0.291576   0.012359   0.001011  -0.093165  -0.000841
    28  C   -0.004206  -1.811117   0.024746  -0.011953   0.041780   0.004151
    29  O    0.000013  -0.140013  -0.008570   0.030034  -0.003231   0.000069
    30  H    0.000000   0.000002   0.000000   0.000000   0.000006   0.000000
    31  H   -0.000006   0.000035   0.000000   0.000000   0.000112   0.000008
    32  H    0.000000   0.000036   0.000000   0.000000   0.000399   0.000097
    33  H   -0.000022   0.000683   0.000000   0.000000   0.005255   0.000355
    34  H   -0.000363   0.010953   0.000002   0.000000   0.003172   0.000285
    35  H    0.000178   0.000940   0.000000   0.000000   0.000183   0.000004
    36  H    0.000781  -0.000850   0.000000   0.000000   0.000000   0.000000
    37  H   -0.000205  -0.001579  -0.000353   0.000003   0.006059  -0.000087
    38  H   -0.000892  -0.201326   0.006585  -0.000186   0.027512  -0.000081
    39  H    0.000037  -0.037137   0.000129   0.000003   0.030927   0.004588
    40  H    0.000000   0.001867  -0.000008   0.000000   0.486124  -0.044345
    41  H    0.000002  -0.003188  -0.000002   0.000000   0.557540  -0.089298
    42  H   -0.000001  -0.193618   0.004917  -0.001157   0.002257   0.000057
    43  H    0.000000  -0.003152  -0.002449  -0.004269   0.000057   0.000000
    44  H   -0.000108   0.273104  -0.038434  -0.003366   0.019489  -0.000008
    45  H   -0.000012   0.000066   0.000000   0.000000   0.000008   0.000000
             25         26         27         28         29         30
     1  O    0.000000  -0.000148   0.000000   0.000006   0.000000   0.226955
     2  C   -0.000107   0.026633  -0.000422  -0.001280   0.000000   0.085062
     3  C    0.001404  -0.073440   0.000482  -0.002556   0.000043  -0.036546
     4  O   -0.000001   0.000568   0.000001   0.000022   0.000000   0.001642
     5  H    0.000000   0.000036   0.000000   0.000000   0.000000  -0.003188
     6  C   -0.001714  -0.245115   0.008285  -0.003238  -0.000283   0.001546
     7  O    0.002985  -0.001960   0.000196   0.000324  -0.000005   0.000009
     8  H   -0.002046  -0.043393   0.000043  -0.000105   0.000000   0.000000
     9  C   -0.000007   0.007371  -0.000092  -0.002511   0.000010  -0.002763
    10  O    0.000000  -0.000006   0.000000  -0.000005   0.000000   0.000724
    11  H    0.000000   0.000007   0.000000   0.000000   0.000000   0.000005
    12  C   -0.000319   0.049560  -0.000245   0.005666   0.000108  -0.025438
    13  O    0.000017  -0.062695   0.000340   0.006418   0.000015  -0.000714
    14  C   -0.006622  -0.568495   0.015441  -0.061112   0.001538   0.000462
    15  O    0.001215  -0.026768   0.009635  -0.000526   0.000272  -0.000008
    16  C    0.003020  -4.191355   0.057582   1.358565  -0.030182   0.000280
    17  C   -0.000747   1.220536  -0.121452  -0.757336   0.019288  -0.000065
    18  O    0.000001  -0.010447   0.002637   0.014574  -0.000496   0.000000
    19  H    0.000000   0.031642   0.000044  -0.004206   0.000013   0.000000
    20  C    0.000045   0.923356  -0.291576  -1.811117  -0.140013   0.000002
    21  O    0.000000  -0.009881   0.012359   0.024746  -0.008570   0.000000
    22  H    0.000000   0.009965   0.001011  -0.011953   0.030034   0.000000
    23  C   -0.007148  -0.999688  -0.093165   0.041780  -0.003231   0.000006
    24  O    0.212438   0.070119  -0.000841   0.004151   0.000069   0.000000
    25  H    0.398067   0.024827  -0.000140  -0.000784   0.000001   0.000000
    26  C    0.024827  10.703999   0.220812  -0.800358  -0.023553  -0.000007
    27  O   -0.000140   0.220812   8.373975   0.224680  -0.039445   0.000000
    28  C   -0.000784  -0.800358   0.224680   6.612618   0.348003   0.000000
    29  O    0.000001  -0.023553  -0.039445   0.348003   8.239088   0.000000
    30  H    0.000000  -0.000007   0.000000   0.000000   0.000000   0.394894
    31  H    0.000000  -0.000070   0.000000  -0.000011   0.000000  -0.011422
    32  H    0.000000   0.001037   0.000000  -0.000039   0.000000   0.000098
    33  H   -0.000015   0.001845  -0.000005  -0.000160   0.000000   0.000029
    34  H    0.000009   0.012080   0.000191  -0.001167  -0.000003   0.000003
    35  H    0.000000  -0.000056   0.000000  -0.000082   0.000000  -0.000116
    36  H    0.000000   0.000044   0.000000   0.000043   0.000000  -0.000024
    37  H   -0.000006  -0.074703   0.007899   0.006934  -0.000586   0.000000
    38  H    0.000000  -0.057052   0.008467   0.026772  -0.000289   0.000000
    39  H   -0.000094   0.187018  -0.028624   0.027289  -0.000434   0.000000
    40  H   -0.009886  -0.124025  -0.006900  -0.001972  -0.000203   0.000000
    41  H   -0.001397  -0.206258   0.012260   0.008356  -0.000042   0.000000
    42  H    0.000000  -0.076718  -0.059070   0.484417  -0.054362   0.000000
    43  H    0.000000   0.003757  -0.001402  -0.001715   0.236504   0.000000
    44  H    0.000000  -0.048537   0.011389   0.089708  -0.004774   0.000000
    45  H    0.000000  -0.000235   0.000000  -0.000004   0.000000  -0.000181
             31         32         33         34         35         36
     1  O   -0.043960  -0.008772  -0.001388  -0.000198   0.008262   0.000320
     2  C    0.430216   0.172095   0.136643   0.034161  -0.014418  -0.020610
     3  C   -0.063670   0.274216  -0.246243  -0.055838  -0.048076  -0.010158
     4  O    0.000980  -0.055167   0.006932   0.000154   0.000187   0.000032
     5  H    0.000048  -0.000111  -0.000048  -0.000001   0.000012   0.000000
     6  C   -0.046199  -0.396553   0.202612  -0.131840  -0.007613   0.005025
     7  O    0.000313   0.009747  -0.043704   0.003719  -0.000067  -0.000015
     8  H    0.000001  -0.000099  -0.002624  -0.000921   0.000003   0.000000
     9  C    0.002755   0.027576   0.021829   0.020479   0.062606   0.447373
    10  O    0.000348  -0.000027   0.000029   0.000120   0.004011  -0.045119
    11  H   -0.000002   0.000000   0.000000   0.000000  -0.000110  -0.012735
    12  C   -0.128503  -0.030124   0.009504   0.007954   0.178213  -0.053097
    13  O    0.013788   0.011566   0.018511  -0.063834  -0.030562  -0.002027
    14  C    0.068950   0.181486   0.100593   0.389132   0.088160   0.003637
    15  O   -0.000575  -0.001330  -0.015871  -0.067578  -0.000515  -0.000022
    16  C   -0.000890   0.009252   0.016398   0.025594   0.003021   0.002735
    17  C    0.001285   0.002315   0.004280   0.026479   0.005374   0.001673
    18  O    0.000075   0.000072   0.000151  -0.000211   0.000150  -0.000568
    19  H   -0.000006   0.000000  -0.000022  -0.000363   0.000178   0.000781
    20  C    0.000035   0.000036   0.000683   0.010953   0.000940  -0.000850
    21  O    0.000000   0.000000   0.000000   0.000002   0.000000   0.000000
    22  H    0.000000   0.000000   0.000000   0.000000   0.000000   0.000000
    23  C    0.000112   0.000399   0.005255   0.003172   0.000183   0.000000
    24  O    0.000008   0.000097   0.000355   0.000285   0.000004   0.000000
    25  H    0.000000   0.000000  -0.000015   0.000009   0.000000   0.000000
    26  C   -0.000070   0.001037   0.001845   0.012080  -0.000056   0.000044
    27  O    0.000000   0.000000  -0.000005   0.000191   0.000000   0.000000
    28  C   -0.000011  -0.000039  -0.000160  -0.001167  -0.000082   0.000043
    29  O    0.000000   0.000000   0.000000  -0.000003   0.000000   0.000000
    30  H   -0.011422   0.000098   0.000029   0.000003  -0.000116  -0.000024
    31  H    0.616560   0.007225   0.004759   0.000065   0.005712   0.000210
    32  H    0.007225   0.656265   0.008490   0.005382   0.003991   0.000004
    33  H    0.004759   0.008490   0.629516   0.006038   0.000009   0.000001
    34  H    0.000065   0.005382   0.006038   0.634758   0.005526  -0.000032
    35  H    0.005712   0.003991   0.000009   0.005526   0.587822  -0.005788
    36  H    0.000210   0.000004   0.000001  -0.000032  -0.005788   0.602102
    37  H    0.000000  -0.000003   0.000005   0.009222   0.000002   0.000000
    38  H    0.000000   0.000000  -0.000004  -0.000020   0.000000  -0.000001
    39  H    0.000000   0.000000  -0.000009  -0.000014   0.000000   0.000000
    40  H    0.000000   0.000000   0.000001   0.000002   0.000000   0.000000
    41  H    0.000000   0.000000  -0.000007   0.000031   0.000000   0.000000
    42  H    0.000000   0.000000   0.000000   0.000000   0.000000   0.000000
    43  H    0.000000   0.000000   0.000000   0.000000   0.000000   0.000000
    44  H    0.000000   0.000000   0.000000  -0.000016   0.000000   0.000000
    45  H    0.005086  -0.000001  -0.000025  -0.000013   0.006587  -0.051348
             37         38         39         40         41         42
     1  O   -0.000001   0.000000   0.000000   0.000000   0.000000   0.000000
     2  C   -0.000682   0.000103  -0.000121   0.000006  -0.000081  -0.000005
     3  C    0.000710   0.000184   0.000682   0.000088   0.000194   0.000007
     4  O    0.000005   0.000000   0.000000   0.000000   0.000002   0.000000
     5  H    0.000000   0.000000   0.000000   0.000000   0.000000   0.000000
     6  C    0.001841  -0.001293   0.003594   0.001054  -0.001176   0.000121
     7  O   -0.000529  -0.000003  -0.000048  -0.000768   0.001619   0.000000
     8  H    0.000181   0.000004   0.000030   0.000369   0.000831   0.000000
     9  C    0.000641  -0.000007   0.000074  -0.000004   0.000027   0.000002
    10  O    0.000001   0.000000   0.000000   0.000000   0.000000   0.000000
    11  H    0.000000   0.000000   0.000000   0.000000   0.000000   0.000000
    12  C    0.004708   0.001498   0.000769  -0.000055   0.001055   0.000038
    13  O    0.000380   0.000238  -0.000410  -0.000006   0.000289   0.000007
    14  C    0.023587   0.043176   0.052748   0.001639   0.013841   0.005950
    15  O   -0.053554  -0.010464   0.008520   0.000687   0.004482   0.000205
    16  C    0.335525   0.128619   0.005213   0.026066  -0.028232   0.109043
    17  C   -0.021319   0.285835  -0.010869  -0.008146   0.003732   0.005069
    18  O   -0.000200  -0.054599  -0.000316   0.000043  -0.000027  -0.000607
    19  H   -0.000205  -0.000892   0.000037   0.000000   0.000002  -0.000001
    20  C   -0.001579  -0.201326  -0.037137   0.001867  -0.003188  -0.193618
    21  O   -0.000353   0.006585   0.000129  -0.000008  -0.000002   0.004917
    22  H    0.000003  -0.000186   0.000003   0.000000   0.000000  -0.001157
    23  C    0.006059   0.027512   0.030927   0.486124   0.557540   0.002257
    24  O   -0.000087  -0.000081   0.004588  -0.044345  -0.089298   0.000057
    25  H   -0.000006   0.000000  -0.000094  -0.009886  -0.001397   0.000000
    26  C   -0.074703  -0.057052   0.187018  -0.124025  -0.206258  -0.076718
    27  O    0.007899   0.008467  -0.028624  -0.006900   0.012260  -0.059070
    28  C    0.006934   0.026772   0.027289  -0.001972   0.008356   0.484417
    29  O   -0.000586  -0.000289  -0.000434  -0.000203  -0.000042  -0.054362
    30  H    0.000000   0.000000   0.000000   0.000000   0.000000   0.000000
    31  H    0.000000   0.000000   0.000000   0.000000   0.000000   0.000000
    32  H   -0.000003   0.000000   0.000000   0.000000   0.000000   0.000000
    33  H    0.000005  -0.000004  -0.000009   0.000001  -0.000007   0.000000
    34  H    0.009222  -0.000020  -0.000014   0.000002   0.000031   0.000000
    35  H    0.000002   0.000000   0.000000   0.000000   0.000000   0.000000
    36  H    0.000000  -0.000001   0.000000   0.000000   0.000000   0.000000
    37  H    0.596879   0.006264   0.004526   0.000236   0.005669  -0.000027
    38  H    0.006264   0.653309   0.003204   0.000000   0.000004   0.004398
    39  H    0.004526   0.003204   0.588241  -0.004944   0.006264   0.005932
    40  H    0.000236   0.000000  -0.004944   0.584184  -0.041560  -0.000038
    41  H    0.005669   0.000004   0.006264  -0.041560   0.613907  -0.000010
    42  H   -0.000027   0.004398   0.005932  -0.000038  -0.000010   0.635079
    43  H    0.000001   0.000006   0.000007  -0.000001   0.000000  -0.008146
    44  H    0.004212   0.007496  -0.000010   0.000002  -0.000019   0.005195
    45  H    0.000000   0.000000   0.000000   0.000000   0.000000   0.000000
             43         44         45
     1  O    0.000000   0.000000   0.003623
     2  C    0.000000   0.000060  -0.017055
     3  C    0.000000  -0.000019   0.006495
     4  O    0.000000   0.000000  -0.000017
     5  H    0.000000   0.000000   0.000001
     6  C    0.000009  -0.000009   0.012121
     7  O    0.000000   0.000001  -0.000001
     8  H    0.000000   0.000000   0.000000
     9  C    0.000000  -0.000082   0.572585
    10  O    0.000000   0.000000  -0.070064
    11  H    0.000000   0.000000  -0.002093
    12  C   -0.000002   0.000872  -0.229117
    13  O    0.000000   0.000537   0.005419
    14  C    0.000216   0.001143   0.000498
    15  O   -0.000009  -0.001499  -0.000398
    16  C    0.000937   0.205455  -0.002809
    17  C    0.007200  -0.281790   0.000197
    18  O    0.000000   0.006474   0.000169
    19  H    0.000000  -0.000108  -0.000012
    20  C   -0.003152   0.273104   0.000066
    21  O   -0.002449  -0.038434   0.000000
    22  H   -0.004269  -0.003366   0.000000
    23  C    0.000057   0.019489   0.000008
    24  O    0.000000  -0.000008   0.000000
    25  H    0.000000   0.000000   0.000000
    26  C    0.003757  -0.048537  -0.000235
    27  O   -0.001402   0.011389   0.000000
    28  C   -0.001715   0.089708  -0.000004
    29  O    0.236504  -0.004774   0.000000
    30  H    0.000000   0.000000  -0.000181
    31  H    0.000000   0.000000   0.005086
    32  H    0.000000   0.000000  -0.000001
    33  H    0.000000   0.000000  -0.000025
    34  H    0.000000  -0.000016  -0.000013
    35  H    0.000000   0.000000   0.006587
    36  H    0.000000   0.000000  -0.051348
    37  H    0.000001   0.004212   0.000000
    38  H    0.000006   0.007496   0.000000
    39  H    0.000007  -0.000010   0.000000
    40  H   -0.000001   0.000002   0.000000
    41  H    0.000000  -0.000019   0.000000
    42  H   -0.008146   0.005195   0.000000
    43  H    0.402188   0.000101   0.000000
    44  H    0.000101   0.613769   0.000000
    45  H    0.000000   0.000000   0.634777
 Mulliken atomic charges:
              1
     1  O   -0.522345
     2  C   -0.172598
     3  C   -0.028461
     4  O   -0.513854
     5  H    0.362207
     6  C    0.099668
     7  O   -0.570327
     8  H    0.472411
     9  C   -0.104285
    10  O   -0.523903
    11  H    0.353489
    12  C    0.238641
    13  O   -0.402965
    14  C    0.191395
    15  O   -0.350842
    16  C   -0.244877
    17  C    0.077327
    18  O   -0.539892
    19  H    0.428905
    20  C    0.196035
    21  O   -0.524262
    22  H    0.358253
    23  C   -0.121672
    24  O   -0.615008
    25  H    0.387005
    26  C    0.149750
    27  O   -0.324350
    28  C    0.177165
    29  O   -0.568516
    30  H    0.368756
    31  H    0.136778
    32  H    0.120874
    33  H    0.135658
    34  H    0.126536
    35  H    0.146451
    36  H    0.138412
    37  H    0.138340
    38  H    0.122544
    39  H    0.153237
    40  H    0.140492
    41  H    0.141195
    42  H    0.131065
    43  H    0.370162
    44  H    0.139663
    45  H    0.125739
 Sum of Mulliken atomic charges =   0.00000
 Mulliken charges with hydrogens summed into heavy atoms:
              1
     1  O   -0.153590
     2  C   -0.035820
     3  C    0.092412
     4  O   -0.151647
     6  C    0.235327
     7  O   -0.097916
     9  C    0.159866
    10  O   -0.170414
    12  C    0.385093
    13  O   -0.402965
    14  C    0.317931
    15  O   -0.350842
    16  C   -0.106537
    17  C    0.199871
    18  O   -0.110987
    20  C    0.335698
    21  O   -0.166008
    23  C    0.160015
    24  O   -0.228003
    26  C    0.302987
    27  O   -0.324350
    28  C    0.308231
    29  O   -0.198354
 Sum of Mulliken charges with hydrogens summed into heavy atoms =   0.00000
 APT atomic charges:
              1
     1  O   -0.623601
     2  C    0.390067
     3  C    0.445641
     4  O   -0.658037
     5  H    0.277949
     6  C    0.378900
     7  O   -0.785030
     8  H    0.514180
     9  C    0.468821
    10  O   -0.603859
    11  H    0.250643
    12  C    0.436430
    13  O   -0.875473
    14  C    0.944075
    15  O   -0.881501
    16  C    0.439908
    17  C    0.395831
    18  O   -0.706262
    19  H    0.413989
    20  C    0.381325
    21  O   -0.669934
    22  H    0.279034
    23  C    0.452511
    24  O   -0.702242
    25  H    0.274631
    26  C    0.468914
    27  O   -0.824884
    28  C    0.963275
    29  O   -0.681694
    30  H    0.265097
    31  H   -0.046363
    32  H   -0.062212
    33  H   -0.051353
    34  H   -0.065747
    35  H   -0.042257
    36  H   -0.045737
    37  H   -0.032802
    38  H   -0.063113
    39  H   -0.036807
    40  H   -0.039311
    41  H   -0.030993
    42  H   -0.076919
    43  H    0.273154
    44  H   -0.046962
    45  H   -0.061283
 Sum of APT charges=   0.00000
 APT Atomic charges with hydrogens summed into heavy atoms:
              1
     1  O   -0.358504
     2  C    0.343704
     3  C    0.383429
     4  O   -0.380088
[...]
 3,0.00248247,-0.00050658,0.00054313,-0.00049991,0.00077220,-0.00005490
 ,0.00001935,-0.00020697,0.00008421,0.00018035,0.00003471,-0.00014765,0
 .00005131,0.00000738,-0.00000224,0.00002980,0.00077937,-0.00061124,0.0
 0030922,-0.00139866,-0.00085068,0.00238404,0.00962151,-0.00328684,0.02
 547006,-0.27701037,0.05614588,-0.27781492,0.00000278,-0.00000101,-0.00
 000214,-0.00000149,-0.00000015,0.00000126,-0.00000182,-0.00000029,-0.0
 0000073,-0.00000332,0.00000089,0.00000217,0.00000141,0.00000211,0.0000
 0189,0.00000045,0.00000075,0.00000271,0.00000140,-0.00000230,-0.000000
 13,-0.00000206,-0.00000917,0.00001862,-0.00003796,0.00000630,-0.000082
 29,-0.00003328,0.00001355,-0.00005357,-0.00000144,-0.00001285,-0.00000
 326,0.00000413,0.00000959,-0.00000278,0.00059107,-0.00067797,0.0024687
 7,0.26880666,0.00000060,-0.00001093,0.00000293,0.00000031,0.00000482,-
 0.00000529,-0.00000170,0.00000410,-0.00000745,0.00000152,-0.00001482,0
 .00000897,-0.00000025,0.00000413,-0.00000079,0.00000005,0.00002902,0.0
 0001383,0.00000229,-0.00003591,-0.00002265,0.00000375,0.00002470,0.000
 02527,0.00000269,0.00000903,-0.00000471,-0.00000438,-0.00000791,0.0000
 0488,0.00000289,0.00000304,-0.00000604,0.00000076,0.00001127,0.0000010
 1,0.00000192,-0.00001282,0.00000748,-0.00002717,0.00002266,-0.00002964
 ,0.00001453,-0.00003779,0.00012739,-0.00015648,-0.00011512,0.00003582,
 0.00012668,-0.00095896,0.00022597,0.00010741,-0.00011622,-0.00048932,0
 .00004324,-0.00008695,-0.00005129,0.00015356,0.00280098,-0.00475719,0.
 00083605,-0.00061324,0.00179444,-0.00082386,-0.00229760,-0.00234373,-0
 .00028864,0.00019147,0.00033328,0.00004695,-0.00019977,-0.00003327,0.0
 0001655,-0.00000750,0.00007348,0.00033725,-0.00104153,0.00010456,-0.00
 158032,-0.00352560,0.00543923,0.00832997,-0.00283400,-0.00035434,0.042
 86011,-0.00606328,0.06814700,0.00000021,0.00000487,-0.00000193,-0.0000
 0032,0.00000033,0.00000045,-0.00000173,-0.00000008,0.00000067,0.000001
 73,-0.00000115,-0.00000061,0.00000336,0.00000208,0.00000300,-0.0000004
 6,0.00000083,-0.00000069,-0.00000067,-0.00000266,0.00000329,-0.0000046
 0,0.00001671,0.00000750,0.00000360,0.00005880,-0.00005076,-0.00009620,
 -0.00002733,0.00016003,-0.00002468,-0.00007705,-0.00000600,0.00000641,
 0.00000713,0.00000052,0.00011206,0.00035240,-0.00027212,-0.05023248,0.
 01464095,0.00000861,0.00000815,0.00008424,0.00000975,-0.00000961,-0.00
 004995,-0.00002329,0.00002510,-0.00007025,0.00000741,-0.00004079,0.000
 07870,-0.00000032,0.00000596,-0.00001168,0.00002252,0.00002435,0.00000
 179,0.00000468,-0.00002043,0.00009278,-0.00001669,0.00001089,-0.000099
 95,-0.00000326,-0.00003470,-0.00005034,0.00000934,0.00004939,0.0000605
 2,0.00000112,-0.00001145,-0.00001231,-0.00004332,-0.00003123,-0.000104
 18,0.00000734,0.00006447,0.00020712,-0.00008881,-0.00009239,-0.0002824
 1,0.00003969,-0.00006133,0.00042527,-0.00000361,0.00006461,-0.00005461
 ,-0.00030676,-0.00116510,-0.00014738,0.00010536,0.00015415,-0.00003509
 ,0.00004452,-0.00004981,-0.00016705,0.00280333,0.00182267,-0.00498760,
 0.00036863,0.00090310,0.00155989,-0.00055594,-0.00234683,-0.00015107,0
 .00012335,0.00020523,-0.00016426,-0.00002980,-0.00019917,0.00019584,-0
 .00000257,0.00004415,0.00000835,-0.00016433,0.00031510,-0.00040507,0.0
 0217591,-0.00164231,-0.00066245,-0.02800293,0.00372298,-0.02389866,-0.
 22210210,0.06663598,-0.29114531,0.00000469,-0.00000218,-0.00001626,0.0
 0000038,0.00000031,0.00000241,-0.00000299,-0.00000103,0.00000253,-0.00
 000140,0.00000120,-0.00000117,0.00000710,0.00001340,0.00000984,0.00000
 625,0.00000009,0.00000793,0.00000026,-0.00001097,0.00000491,-0.0000154
 6,-0.00000778,0.00001162,0.00018163,0.00007297,-0.00003617,0.00002057,
 0.00006970,-0.00001378,-0.00001147,0.00000723,0.00001096,-0.00000808,-
 0.00002221,0.00000797,0.00064204,-0.00051739,0.00325100,0.24448100,-0.
 06837555,0.31601075,0.00000525,-0.00000927,-0.00001436,-0.00000133,0.0
 0001132,0.00001477,-0.00001204,-0.00001210,0.00002455,0.00001134,0.000
 00827,-0.00002305,-0.00000535,0.00000061,0.00000355,0.00001103,-0.0000
 0497,0.00001639,0.00003305,0.00000058,-0.00002494,-0.00002141,-0.00001
 308,0.00001541,-0.00001741,0.00000953,-0.00000468,0.00001867,-0.000005
 19,-0.00000185,-0.00000815,0.00000007,0.00000036,-0.00002695,-0.000013
 75,0.00001706,0.00007778,-0.00007160,-0.00000339,-0.00016575,0.0000493
 7,0.00015153,0.00080916,0.00004480,-0.00000379,-0.00083745,0.00164153,
 -0.00086777,-0.01676395,-0.00449032,-0.00147678,0.00207377,0.00093395,
 0.00016702,-0.00012723,0.00013088,-0.00010812,-0.35506490,-0.02283931,
 -0.02825363,-0.00678624,0.01126626,-0.00815157,-0.00026854,0.00045205,
 0.00053289,-0.00006776,-0.00007060,-0.00001260,0.00005694,0.00004652,-
 0.00003018,-0.00001468,-0.00001474,-0.00000121,-0.00001997,-0.00012236
 ,0.00000661,0.00209874,-0.00032583,0.00076778,-0.00921417,0.00050822,-
 0.00025508,0.00135433,-0.00032813,-0.00001719,-0.00000314,0.00000218,0
 .00000280,0.00000581,0.00000179,-0.00000544,0.00000937,0.00000141,0.00
 000018,0.00000929,0.00000897,-0.00001108,0.00004148,-0.00002295,0.0000
 2976,0.00001373,-0.00000178,0.00001048,-0.00001151,-0.00000292,0.00000
 123,0.00109840,-0.00083580,0.00024935,-0.00044465,-0.00080386,0.002616
 18,0.00012310,0.00026298,0.00000266,0.00001681,-0.00001155,0.00001360,
 0.00006947,-0.00006098,0.00001935,0.00037144,-0.00041145,-0.00041555,0
 .00029745,0.00022831,0.00030771,0.38126582,0.00000036,-0.00000402,0.00
 000823,-0.00000100,0.00000580,-0.00000406,0.00000004,0.00000669,-0.000
 00187,0.00000166,-0.00000726,0.00000227,-0.00000044,0.00000203,-0.0000
 0150,-0.00000196,0.00000318,-0.00000220,0.00001171,-0.00000782,-0.0000
 1040,-0.00001216,0.00000005,0.00000520,0.00000114,0.00000358,-0.000013
 03,-0.00000486,0.00000206,0.00001237,0.00000522,-0.00000130,-0.0000042
 3,0.00000540,-0.00000700,-0.00000917,0.00002114,-0.00004668,0.00003202
 ,-0.00002642,0.00008738,0.00001575,0.00014633,-0.00015615,-0.00016450,
 -0.00164059,-0.00006026,0.00088225,-0.00527571,0.00101097,-0.00003900,
 0.00036126,0.00052550,0.00077339,-0.00003968,0.00006265,-0.00004675,-0
 .02121040,-0.03954536,-0.00698487,0.03707382,-0.01390830,0.01411974,0.
 00168389,0.00070521,-0.00048458,-0.00007825,0.00002141,0.00001273,0.00
 003794,-0.00000097,-0.00001735,-0.00000587,-0.00000390,0.00000419,-0.0
 0023846,-0.00017250,0.00007233,0.00094972,0.00220688,0.00020463,-0.027
 67147,-0.00258236,-0.00302137,0.00186324,0.00126703,0.00157293,0.00000
 056,0.00000042,-0.00000188,-0.00000003,-0.00000093,0.00000045,-0.00000
 056,0.00000074,0.00000116,0.00000231,0.00000136,-0.00000296,0.00001377
 ,-0.00000078,0.00001143,-0.00000093,0.00000447,-0.00000032,0.00000472,
 -0.00000619,0.00000078,-0.00004732,-0.00039760,0.00052953,-0.00033875,
 0.00010681,0.00112208,0.00018806,0.00008041,-0.00000440,0.00000596,-0.
 00000023,-0.00000996,0.00005059,-0.00005342,0.00002839,-0.00072556,-0.
 00308069,-0.00300558,0.00003281,-0.00010094,0.00041868,0.01486083,0.05
 404298,-0.00000351,-0.00000706,-0.00000710,-0.00000082,0.00000590,0.00
 000275,0.00000786,0.00000664,0.00000708,-0.00000150,-0.00000286,-0.000
 00850,0.00000047,0.00000209,-0.00000026,-0.00000671,-0.00000754,-0.000
 00127,-0.00001202,-0.00000083,-0.00001559,0.00001150,-0.00000514,0.000
 01358,0.00000754,0.00001495,-0.00000659,-0.00000873,-0.00001129,0.0000
 0024,0.00000404,0.00000186,-0.00000460,0.00001746,0.00000054,0.0000187
 7,-0.00001666,-0.00007325,0.00000236,0.00003697,0.00009003,0.00011994,
 -0.00055293,-0.00005579,-0.00014002,0.00207282,-0.00099778,0.00068028,
 0.03299591,0.00521788,0.00139524,-0.00236211,-0.00017221,0.00212740,-0
 .00002236,0.00014673,0.00009493,-0.02802530,-0.00712224,-0.04769988,-0
 .01565640,0.01065287,-0.00316940,-0.00128796,-0.00002008,0.00025293,0.
 00000393,-0.00001228,0.00008140,-0.00000030,0.00000790,-0.00001039,-0.
 00000787,-0.00000488,0.00000146,0.00035437,0.00016579,-0.00035285,0.00
 173962,0.00151472,0.00073658,-0.02594004,-0.00423713,-0.00322258,0.001
 26611,0.00072820,0.00239493,0.00000036,0.00000228,0.00000054,-0.000002
 66,-0.00000032,0.00000303,-0.00000270,0.00000018,-0.00000058,-0.000002
 70,-0.00000710,0.00000807,-0.00003974,-0.00000075,-0.00004862,-0.00000
 899,0.00000271,-0.00001147,0.00000368,-0.00000415,0.00000146,-0.000513
 36,0.00062382,-0.00017074,0.00246538,0.00174770,-0.00515388,-0.0001683
 1,0.00001489,-0.00013901,-0.00001365,0.00002623,0.00000893,-0.00001397
 ,0.00003314,0.00000843,-0.00100308,-0.00255143,-0.00282135,-0.00002919
 ,0.00029255,0.00052965,0.03472035,-0.00600367,0.05448958,0.00036313,-0
 .00006355,-0.00034185,0.00027456,-0.00251954,0.00097560,0.00063406,0.0
 0007388,0.00008805,0.00012815,0.00006399,-0.00005707,-0.00007739,0.000
 02249,-0.00000423,-0.00016136,-0.00001701,0.00014971,0.00007571,0.0000
 2018,-0.00008994,-0.00001296,-0.00002226,0.00002052,-0.32817164,-0.043
 57060,0.07178253,-0.01252947,-0.01318859,-0.01234323,-0.00080150,0.000
 23799,-0.00045161,-0.01978730,-0.00083532,0.00525625,0.00133501,0.0004
 7671,0.00062920,0.00022563,-0.00020418,0.00002873,0.00013560,0.0001920
 7,0.00024116,-0.00000667,0.00004809,-0.00005786,-0.00003276,0.00000030
 ,-0.00000258,0.00014896,-0.00003547,0.00003476,-0.00019757,0.00006592,
 -0.00007907,-0.00001266,0.00000159,-0.00000398,0.00002269,-0.00000144,
 0.00001023,-0.00000719,-0.00000337,-0.00000289,-0.00001197,-0.00002004
 ,0.00000782,0.00001411,0.00001736,-0.00001599,-0.00000752,-0.00000213,
 0.00000130,-0.00002442,-0.00002410,-0.00000068,0.00001643,0.00000562,0
 .00001791,-0.00001641,0.00000476,-0.00000663,0.00000712,0.00000069,0.0
 0000048,-0.00030394,0.00024198,-0.00037080,0.00094256,0.00101346,-0.00
 062685,0.00028777,-0.00032508,-0.00014320,0.00007411,0.00005413,0.0000
 0598,0.00009847,-0.00018672,-0.00014163,-0.00021321,0.00297798,0.00095
 482,-0.00015114,0.00030700,0.00141573,0.00001047,-0.00000815,-0.000001
 00,0.00001153,0.00001336,0.00002246,0.00000621,0.00000257,0.00000645,0
 .00000014,0.00000364,-0.00000059,0.00000649,0.00000018,-0.00000149,0.0
 0000540,0.00000141,0.00000309,-0.00000299,-0.00000085,-0.00000007,0.00
 001032,-0.00000205,-0.00000481,0.35769542,-0.00029304,0.00028271,0.000
 39785,0.00277428,0.00128170,-0.00113293,0.00056641,0.00011278,-0.00045
 383,-0.00020687,0.00000316,0.00025431,0.00000787,-0.00008029,0.0000080
 7,0.00002065,0.00008264,-0.00001349,-0.00004120,-0.00001352,0.00004930
 ,0.00000174,0.00001800,0.00000241,-0.04699910,-0.05196432,0.01872566,-
 0.02177217,-0.00792775,-0.01175984,-0.00141580,-0.00024524,-0.00000004
 ,0.03380604,-0.00134007,-0.00749850,-0.00096305,0.00147740,0.00138920,
 0.00020715,0.00005314,0.00012116,-0.00013129,-0.00006842,-0.00013461,-
 0.00002800,-0.00002465,0.00007535,0.00000919,-0.00002167,-0.00002166,0
 .00007535,0.00007191,0.00001593,-0.00010820,-0.00013219,-0.00000694,-0
 .00000757,-0.00000472,0.00000943,0.00001069,0.00001635,-0.00000652,-0.
 00000448,-0.00000301,-0.00000128,0.00000092,0.00000845,0.,0.00000008,-
 0.00000765,0.00000274,0.00000076,0.00000281,-0.00000176,-0.00000393,0.
 00001118,0.00001271,0.00000346,0.00000631,-0.00002572,-0.00000228,-0.0
 0001593,0.00001669,0.00000601,0.00000451,-0.00001244,0.00000284,-0.000
 21029,0.00019754,-0.00026585,-0.00066984,0.00009801,-0.00039103,-0.000
 21119,0.00012089,-0.00004304,-0.00003865,-0.00002596,-0.00019858,0.000
 06240,0.00005525,0.00194333,-0.00508846,-0.00216313,-0.02175404,-0.001
 94084,0.00630900,0.00000471,0.00000139,0.00000256,0.00000418,0.0000165
 2,0.00001534,0.00000121,-0.00000043,-0.00000056,-0.00000162,-0.0000023
 8,-0.00000131,-0.00000074,0.00000016,0.00000231,0.00000103,0.00000216,
 0.00000008,-0.00000119,-0.00000015,0.00000239,0.00000210,-0.00000295,-
 0.00000182,0.05518307,0.06649891,0.00018117,-0.00008607,0.00031231,-0.
 00086977,0.00091335,-0.00002487,-0.00014654,0.00003065,0.00002445,0.00
 000704,-0.00014412,0.00001817,-0.00000847,0.00004753,-0.00001548,0.000
 06339,0.00003630,0.00004098,-0.00002895,-0.00004222,-0.00007284,0.0000
 2060,0.00001278,0.00004453,0.07385337,0.01817417,-0.06036946,-0.038279
 46,-0.01839438,-0.00516925,-0.00114650,0.00028565,0.00034959,0.0078874
 9,0.00090327,0.00077428,-0.00049635,0.00028233,0.00081765,0.00008173,-
 0.00009268,0.00011124,-0.00010276,-0.00000028,-0.00009314,0.00000658,-
 0.00001950,0.00001174,0.00001859,0.00002411,0.00003880,-0.00018373,-0.
 00003902,-0.00007976,0.00030066,0.00007634,0.00007616,0.00000941,-0.00
 001189,0.00001059,-0.00002148,0.00001209,-0.00002015,0.00000529,-0.000
 00068,0.00000440,0.00000447,-0.00000253,0.00000415,-0.00001831,-0.0000
 0881,-0.00002553,0.00000570,0.00000443,0.00000277,0.00001757,0.0000040
 4,0.00001801,-0.00001182,0.00000516,-0.00002179,0.00001221,-0.00000377
 ,0.00002452,-0.00000026,0.00000037,-0.00001791,-0.00012128,0.00014942,
 -0.00014897,-0.00029983,-0.00010446,0.00031811,-0.00007632,0.00010518,
 0.00001129,-0.00002507,-0.00003307,0.00000262,-0.00014515,0.00005336,0
 .00000101,-0.00027746,-0.00149362,-0.00025070,0.02673354,0.00399921,-0
 .00411765,-0.00001111,0.00000664,0.00000577,-0.00001430,-0.00002554,-0
 .00003268,-0.00000444,-0.00000260,-0.00000647,-0.00000013,-0.00000263,
 -0.00000380,-0.00000341,0.00000166,0.00000218,-0.00000423,-0.00000126,
 -0.00000363,0.00000238,-0.00000021,0.00000291,-0.00000931,0.00000312,0
 .00000513,-0.06690473,-0.00462180,0.06744074\\0.00253680,0.00079239,-0
 .00937657,0.01369439,-0.02740309,0.00424809,0.01714801,-0.01546524,0.0
 1204724,-0.01840299,0.00240283,0.01167071,0.00147390,0.00252271,-0.033
 14218,-0.00176724,-0.02504835,-0.01837670,0.01058172,0.00721695,0.0126
 2448,-0.00763307,0.00739492,0.01750903,-0.01183902,0.02455479,-0.00974
 488,0.00400938,0.01281397,-0.00071523,0.01156904,-0.02965128,0.0030685
 9,-0.00130527,0.02597250,0.02929293,-0.00187311,-0.01139203,0.01745664
 ,-0.02031980,0.00447116,-0.02968300,0.00253071,0.00279270,0.01713149,-
 0.03283942,0.01189812,0.00920283,-0.00305540,0.03229389,0.00927720,0.0
 1359058,-0.02074655,0.00771051,-0.00333871,0.01584581,-0.01719423,-0.0
 0537936,0.02076001,-0.03997814,-0.01052081,0.02326437,0.00151525,0.002
 65017,-0.01711122,0.03413679,0.01887480,-0.03450908,-0.01872916,-0.014
 76087,-0.01011504,0.01144287,-0.00892307,0.03273942,-0.00463738,0.0286
 3851,-0.01064282,0.01700161,-0.00443293,-0.01148902,-0.01494224,0.0261
 9016,-0.01110974,0.01052167,-0.00054850,-0.00787426,0.02127309,-0.0025
 6547,0.00570290,0.00148549,-0.01960848,0.00044854,0.00060860,0.0233032
 2,0.00503530,-0.00195048,-0.02217431,-0.00140713,0.00057571,0.02121696
 ,0.00269202,-0.00342732,0.02062244,0.00044291,-0.00088052,-0.00090234,
 0.00854314,-0.01860988,0.01836297,-0.00195538,0.00152447,-0.02219188,-
 0.00340195,-0.00141994,-0.01833134,0.00173927,-0.00046268,0.00083252,-
 0.00711057,-0.01833036,0.01936122,0.00450263,-0.00382370,-0.01944826,-
 0.00067786,-0.00358248,-0.00411230,-0.00511291,-0.00343796,0.02047641,
 0.00016522,0.00105769,-0.02138997,-0.00478496,0.00006205\\\@


                                                                                    A
                                                                                  AA
                                                                                 AAA
                                                                                AAAA
                                                                               AAAAA
                                                                              AAAAAA   KKKKKKKK
                                                                             AAAAAAA   KKKKKKKK
                                                                            AAAAAAAA   KKKKKKKK
                                       ZZZZZZZZZZZZZZZZZZZZ                AAAA  AAA   KKKKKKKK
                                       ZZZZZZZZZZZZZZZZZZZ                AAAA   AAA   KKKKKKKK          K
                                       ZZZZZZZZZZZZZZZZZZ                AAAA    AAA   KKKKKKKK         KKK
                                       ZZZZZZZZZZZZZZZZZ                AAAA     AAA   KKKKKKKK        KKKKK
                                       ZZZZZZZZZZZZZZZZ                AAAA      AAA   KKKKKKKK       KKKKKKK
                                                ZZZZZZ                AAAA       AAA   KKKKKKKK      KKKKKKK
                                               ZZZZZZ                AAAA        AAA   KKKKKKKK     KKKKKKK
                                              ZZZZZZ                AAAA         AAA   KKKKKKKK    KKKKKKK
                                             ZZZZZZ                AAAA          AAA   KKKKKKKK   KKKKKKK
                                            ZZZZZZ                AAAAAAAAAAAAAAAAAA   KKKKKKKK  KKKKKKK
                                           ZZZZZZ                AAAAAAAAAAAAAAAAAAA   KKKKKKKK KKKKKKK
                                          ZZZZZZ                AAAAAAAAAAAAAAAAAAAA   KKKKKKKKKKKKKKK
                                         ZZZZZZ                AAAAAAAAAAAAAAAAAAAAA   KKKKKKKKKKKKKK
                                        ZZZZZZ                AAAAAA        AAAAAAAA   KKKKKKKKKKKKK
                                       ZZZZZZ                AAAAAA         AAAAAAAA   KKKKKKKKKKKK
                                      ZZZZZZ                AAAAAA          AAAAAAAA   KKKKKKKKKKK
                                     ZZZZZZ                AAAAAA           AAAAAAAA   KKKKKKKKKKKK
                                    ZZZZZZ                AAAAAA            AAAAAAAA   KKKKKKKKKKKKK
                                   ZZZZZZ                AAAAAA             AAAAAAAA   KKKKKKKKKKKKKK
                                  ZZZZZZ                AAAAAA              AAAAAAAA   KKKKKKKKKKKKKKK
                                 ZZZZZZ                AAAAAA               AAAAAAAA   KKKKK KKKKKKKKKK
                                ZZZZZZ                AAAAAA                AAAAAAAA   KKKKK  KKKKKKKKKK
                               ZZZZZZ                AAAAAA                            KKKKK   KKKKKKKKKK
                              ZZZZZZ                AAAAAA                             KKKKK    KKKKKKKKKK
                             ZZZZZZ                                                    KKKKK     KKKKKKKKKK
                            ZZZZZZ                                                     KKKKK      KKKKKKKKKK
                           ZZZZZZ                                                      KKKKK       KKKKKKKKKK
                          ZZZZZZ                                                       KKKKK        KKKKKKKKKK
                         ZZZZZZZZZZZZZZZZZZZZZZZZZZZZZZZZZZZZZZZZ                      KKKKK         KKKKKKKKKK
                        ZZZZZZZZZZZZZZZZZZZZZZZZZZZZZZZZZZZZZZZZZ                      KKKKK          KKKKKKKKKK
                       ZZZZZZZZZZZZZZZZZZZZZZZZZZZZZZZZZZZZZZZZZZ                      KKKKK           KKKKKKKKKK
                       ZZZZZZZZZZZZZZZZZZZZZZZZZZZZZZZZZZZZZZZZZZ                      KKKKK            KKKKKKKKKK
                       ZZZZZZZZZZZZZZZZZZZZZZZZZZZZZZZZZZZZZZZZZZ                      KKKKK             KKKKKKKKKK
                       ZZZZZZZZZZZZZZZZZZZZZZZZZZZZZZZZZZZZZZZZZZ                      KKKKK              KKKKKKKKKK
                       ZZZZZZZZZZZZZZZZZZZZZZZZZZZZZZZZZZZZZZZZZZ                      KKKKK               KKKKKKKKKK
                       ZZZZZZZZZZZZZZZZZZZZZZZZZZZZZZZZZZZZZZZZZZ                      KKKKK                KKKKKKKKKK
                       ZZZZZZZZZZZZZZZZZZZZZZZZZZZZZZZZZZZZZZZZZZ                      KKKKK
                                                                                       KKKKK
                                                                                          (J.P.)
 Job cpu time:  0 days 13 hours  4 minutes 30.6 seconds.
 File lengths (MBytes):  RWF=   1324 Int=      0 D2E=      0 Chk=     19 Scr=      1
 Normal termination of Gaussian 09 at Thu Jan 21 05:04:22 2016.
Gaussian '09 finished on node021 at Thu Jan 21 05:04:22 EST 2016.
