Gaussian '09 started on node023 at Thu Jan 21 05:08:05 EST 2016.
 Entering Gaussian System, Link 0=/usr/local/gaussian/g09/g09
 Initial command:
 /usr/local/gaussian/g09/l1.exe /home/srmcgrat/thesis/gaussian/cellobiose/500/9000/gaussian15406/Gau-15442.inp -scrdir=/home/srmcgrat/thesis/gaussian/cellobiose/500/9000/gaussian15406/
 Entering Link 1 = /usr/local/gaussian/g09/l1.exe PID=     15444.
  
 Copyright (c) 1988,1990,1992,1993,1995,1998,2003,2009,2010,
            Gaussian, Inc.  All Rights Reserved.
  
 This is part of the Gaussian(R) 09 program.  It is based on
 the Gaussian(R) 03 system (copyright 2003, Gaussian, Inc.),
 the Gaussian(R) 98 system (copyright 1998, Gaussian, Inc.),
 the Gaussian(R) 94 system (copyright 1995, Gaussian, Inc.),
 the Gaussian 92(TM) system (copyright 1992, Gaussian, Inc.),
 the Gaussian 90(TM) system (copyright 1990, Gaussian, Inc.),
 the Gaussian 88(TM) system (copyright 1988, Gaussian, Inc.),
 the Gaussian 86(TM) system (copyright 1986, Carnegie Mellon
 University), and the Gaussian 82(TM) system (copyright 1983,
 Carnegie Mellon University). Gaussian is a federally registered
 trademark of Gaussian, Inc.
  
 This software contains proprietary and confidential information,
 including trade secrets, belonging to Gaussian, Inc.
  
 This software is provided under written license and may be
 used, copied, transmitted, or stored only in accord with that
 written license.
  
 The following legend is applicable only to US Government
 contracts under FAR:
  
                    RESTRICTED RIGHTS LEGEND
  
 Use, reproduction and disclosure by the US Government is
 subject to restrictions as set forth in subparagraphs (a)
 and (c) of the Commercial Computer Software - Restricted
 Rights clause in FAR 52.227-19.
  
 Gaussian, Inc.
 340 Quinnipiac St., Bldg. 40, Wallingford CT 06492
  
  
 ---------------------------------------------------------------
 Warning -- This program may not be used in any manner that
 competes with the business of Gaussian, Inc. or will provide
 assistance to any competitor of Gaussian, Inc.  The licensee
 of this program is prohibited from giving any competitor of
 Gaussian, Inc. access to this program.  By using this program,
 the user acknowledges that Gaussian, Inc. is engaged in the
 business of creating and licensing software in the field of
 computational chemistry and represents and warrants to the
 licensee that it is not a competitor of Gaussian, Inc. and that
 it will not use this program in any manner prohibited above.
 ---------------------------------------------------------------
  

 Cite this work as:
 Gaussian 09, Revision B.01,
 M. J. Frisch, G. W. Trucks, H. B. Schlegel, G. E. Scuseria, 
 M. A. Robb, J. R. Cheeseman, G. Scalmani, V. Barone, B. Mennucci, 
 G. A. Petersson, H. Nakatsuji, M. Caricato, X. Li, H. P. Hratchian, 
 A. F. Izmaylov, J. Bloino, G. Zheng, J. L. Sonnenberg, M. Hada, 
 M. Ehara, K. Toyota, R. Fukuda, J. Hasegawa, M. Ishida, T. Nakajima, 
 Y. Honda, O. Kitao, H. Nakai, T. Vreven, J. A. Montgomery, Jr., 
 J. E. Peralta, F. Ogliaro, M. Bearpark, J. J. Heyd, E. Brothers, 
 K. N. Kudin, V. N. Staroverov, T. Keith, R. Kobayashi, J. Normand, 
 K. Raghavachari, A. Rendell, J. C. Burant, S. S. Iyengar, J. Tomasi, 
 M. Cossi, N. Rega, J. M. Millam, M. Klene, J. E. Knox, J. B. Cross, 
 V. Bakken, C. Adamo, J. Jaramillo, R. Gomperts, R. E. Stratmann, 
 O. Yazyev, A. J. Austin, R. Cammi, C. Pomelli, J. W. Ochterski, 
 R. L. Martin, K. Morokuma, V. G. Zakrzewski, G. A. Voth, 
 P. Salvador, J. J. Dannenberg, S. Dapprich, A. D. Daniels, 
 O. Farkas, J. B. Foresman, J. V. Ortiz, J. Cioslowski, 
 and D. J. Fox, Gaussian, Inc., Wallingford CT, 2010.
 
 ******************************************
 Gaussian 09:  EM64L-G09RevB.01 12-Aug-2010
                21-Jan-2016 
 ******************************************
 ------------------------------------------------
 # freq=raman b3lyp/6-31+g(d,p) geom=connectivity
 ------------------------------------------------
 1/10=4,30=1,38=1,57=2/1,3;
 2/12=2,17=6,18=5,40=1/2;
 3/5=1,6=6,7=111,11=2,16=1,25=1,30=1,71=2,74=-5/1,2,3;
 4//1;
 5/5=2,38=5,98=1/2;
 8/6=4,10=90,11=11/1;
 10/13=10,15=4/2;
 11/6=3,8=1,9=11,15=111,16=1/1,2,10;
 10/6=1/2;
 6/7=2,8=2,9=2,10=2,18=1,28=1/1;
 7/8=1,10=1,25=1/1,2,3,16;
 1/10=4,30=1/3;
 99//99;
 ------------
 500 9000.com
 ------------
 Symbolic Z-matrix:
 Charge =  0 Multiplicity = 1
 O                     8.796     6.815     11.965 
 C                     9.264     7.254     13.248 
 C                     9.153     8.687     13.743 
 O                     9.76      9.581     12.799 
 H                     9.365     9.371     11.904 
 C                     9.372     8.967     15.221 
 O                     8.69      10.152    15.656 
 H                     8.884     11.027    15.213 
 C                     9.28      4.924     13.811 
 O                     8.653     3.88      14.571 
 H                     9.031     3.021     14.225 
 C                     8.811     6.277     14.321 
 O                     9.378     6.545     15.611 
 C                     8.966     7.818     16.13 
 O                     9.823     7.595     17.259 
 C                     9.194     7.276     18.509 
 C                     8.802     5.829     18.758 
 O                     7.968     5.287     17.723 
 H                     8.444     5.513     16.873 
 C                     8.18      5.598     20.125 
 O                     7.903     4.195     20.244 
 H                     7.297     3.953     19.486 
 C                     9.775     9.3       19.42 
 O                     10.193    10.326    20.332 
 H                     10.21     11.17     19.796 
 C                     10.015    7.82      19.667 
 O                     9.404     7.609     20.948 
 C                     9.074     6.232     21.178 
 O                     8.324     6.326     22.398 
 H                     8.92845   6.38329   23.14161 
 H                     9.95978   5.65      21.32488 
 H                     7.24267   6.11357   20.14715 
 H                     9.7107    5.26433   18.74051 
 H                     8.27655   7.82656   18.51694 
 H                     11.04972   7.55035   19.62769 
 H                     8.71905   9.41858   19.29428 
 H                     10.23046   9.5276    18.47891 
 H                     9.54718   6.62148   11.39942 
 H                     10.34242   4.85235   13.91604 
 H                     9.01622   4.82119   12.77913 
 H                     7.74314   6.28576   14.38808 
 H                     10.32116   7.10062   13.18643 
 H                     8.10974   8.89471   13.62738 
 H                     10.42     9.13075   15.36167 
 H                     7.92998   7.83287   16.3971 
 

 GradGradGradGradGradGradGradGradGradGradGradGradGradGradGradGradGradGrad
 Berny optimization.
 Initialization pass.
 Trust Radius=3.00D-01 FncErr=1.00D-07 GrdErr=1.00D-07
 Number of steps in this run=      2 maximum allowed number of steps=      2.
 GradGradGradGradGradGradGradGradGradGradGradGradGradGradGradGradGradGrad

                          Input orientation:                          
 ---------------------------------------------------------------------
 Center     Atomic      Atomic             Coordinates (Angstroms)
 Number     Number       Type             X           Y           Z
 ---------------------------------------------------------------------
      1          8           0        8.796000    6.815000   11.965000
      2          6           0        9.264000    7.254000   13.248000
      3          6           0        9.153000    8.687000   13.743000
      4          8           0        9.760000    9.581000   12.799000
      5          1           0        9.365000    9.371000   11.904000
      6          6           0        9.372000    8.967000   15.221000
      7          8           0        8.690000   10.152000   15.656000
      8          1           0        8.884000   11.027000   15.213000
      9          6           0        9.280000    4.924000   13.811000
     10          8           0        8.653000    3.880000   14.571000
     11          1           0        9.031000    3.021000   14.225000
     12          6           0        8.811000    6.277000   14.321000
     13          8           0        9.378000    6.545000   15.611000
     14          6           0        8.966000    7.818000   16.130000
     15          8           0        9.823000    7.595000   17.259000
     16          6           0        9.194000    7.276000   18.509000
     17          6           0        8.802000    5.829000   18.758000
     18          8           0        7.968000    5.287000   17.723000
     19          1           0        8.444000    5.513000   16.873000
     20          6           0        8.180000    5.598000   20.125000
     21          8           0        7.903000    4.195000   20.244000
     22          1           0        7.297000    3.953000   19.486000
     23          6           0        9.775000    9.300000   19.420000
     24          8           0       10.193000   10.326000   20.332000
     25          1           0       10.210000   11.170000   19.796000
     26          6           0       10.015000    7.820000   19.667000
     27          8           0        9.404000    7.609000   20.948000
     28          6           0        9.074000    6.232000   21.178000
     29          8           0        8.324000    6.326000   22.398000
     30          1           0        8.928448    6.383295   23.141613
     31          1           0        9.959780    5.650004   21.324882
     32          1           0        7.242665    6.113571   20.147153
     33          1           0        9.710702    5.264328   18.740506
     34          1           0        8.276549    7.826564   18.516940
     35          1           0       11.049720    7.550353   19.627691
     36          1           0        8.719049    9.418580   19.294281
     37          1           0       10.230463    9.527595   18.478908
     38          1           0        9.547178    6.621477   11.399420
     39          1           0       10.342418    4.852352   13.916044
     40          1           0        9.016225    4.821192   12.779131
     41          1           0        7.743141    6.285764   14.388084
     42          1           0       10.321158    7.100618   13.186428
     43          1           0        8.109741    8.894709   13.627379
     44          1           0       10.419997    9.130751   15.361667
     45          1           0        7.929980    7.832865   16.397100
 ---------------------------------------------------------------------
                    Distance matrix (angstroms):
                    1          2          3          4          5
     1  O    0.000000
     2  C    1.434515   0.000000
     3  C    2.606361   1.520143   0.000000
     4  O    3.045588   2.421270   1.434859   0.000000
     5  H    2.619278   2.509627   1.973505   1.000575   0.000000
     6  C    3.945176   2.615103   1.520146   2.528562   3.341520
     7  O    4.976976   3.811344   2.453602   3.103770   3.891412
     8  H    5.319604   4.270966   2.776484   2.947149   3.731377
     9  C    2.686606   2.397108   3.765756   4.789801   4.839389
    10  O    3.927583   3.675259   4.903349   6.071806   6.145805
    11  H    4.422359   4.350530   5.687773   6.752667   6.769128
    12  C    2.416693   1.520219   2.501829   3.759455   3.965052
    13  O    3.702018   2.469706   2.851002   4.155787   4.661362
    14  C    4.287439   2.951749   2.547135   3.851515   4.519965
    15  O    5.448813   4.064097   3.742141   4.882598   5.660386
    16  C    6.572280   5.261512   4.970650   6.183646   6.931399
    17  C    6.864188   5.710006   5.782870   7.106683   7.735635
    18  O    6.014560   5.057107   5.366994   6.774620   7.245097
    19  H    5.089948   4.104157   4.513741   5.905756   6.357937
    20  C    8.273219   7.156153   7.156715   8.487106   9.122752
    21  O    8.729472   7.755889   8.000223   9.374725   9.923912
    22  H    8.185566   7.326550   7.670563   9.080568   9.545579
    23  C    7.919008   6.522332   5.743778   6.626977   7.527509
    24  O    9.180709   7.777100   6.868977   7.582124   8.522253
    25  H    9.071383   7.688061   6.627318   7.189258   8.138433
    26  C    7.862365   6.487520   6.048844   7.094757   7.943064
    27  O    9.038495   7.709450   7.289521   8.391765   9.214125
    28  C    9.235613   7.997842   7.830229   9.049532   9.795156
    29  O   10.455113   9.244852   9.009472  10.237086  10.976326
    30  H   11.185731   9.937519   9.679432  10.857552  11.636189
    31  H    9.503630   8.263954   8.207263   9.390597  10.146556
    32  H    8.357779   7.279058   7.161361   8.506197   9.113985
    33  H    7.010616   5.858836   6.082827   7.344221   7.982611
    34  H    6.649888   5.391161   4.929403   6.162265   6.877571
    35  H    8.021024   6.631521   6.286422   7.240022   8.112240
    36  H    7.778362   6.445145   5.616071   6.580170   7.418610
    37  H    7.200476   5.784953   4.929133   5.699609   6.633473
    38  H    0.960000   1.974215   3.148671   3.280685   2.801369
    39  H    3.170169   2.716097   4.018605   4.893579   5.042009
    40  H    2.164851   2.489937   3.986505   4.817610   4.646316
    41  H    2.694428   2.133140   2.858281   4.177498   4.280162
    42  H    1.974733   1.070000   2.047187   2.572410   2.777318
    43  H    2.749481   2.041609   1.070000   1.969914   2.184620
    44  H    4.420115   3.053868   2.102922   2.684322   3.623010
    45  H    4.629206   3.468648   3.044597   4.399008   4.961158
                    6          7          8          9         10
     6  C    0.000000
     7  O    1.434773   0.000000
     8  H    2.117028   0.999755   0.000000
     9  C    4.282804   5.575312   6.274474   0.000000
    10  O    5.178516   6.365263   7.179494   1.435502   0.000000
    11  H    6.038478   7.281154   8.068072   1.963366   1.000240
    12  C    2.891508   4.100304   4.833580   1.520089   2.415176
    13  O    2.453206   3.672304   4.526673   2.424303   2.951178
    14  C    1.520302   2.397584   3.338457   3.721773   4.246916
    15  O    2.497845   3.223592   4.104444   4.395201   4.732385
    16  C    3.701636   4.082279   5.002971   5.254570   5.228130
    17  C    4.762595   5.321962   6.292293   5.051764   4.620798
    18  O    4.666221   5.334979   6.331410   4.142084   3.519088
    19  H    3.939594   4.802283   5.775240   3.228260   2.830119
    20  C    6.067968   6.400858   7.355094   6.444445   5.832853
    21  O    7.082406   7.560090   8.541051   6.618992   5.731026
    22  H    6.901887   7.418689   8.415377   6.089397   5.099146
    23  C    4.231418   4.008843   4.634141   7.131289   7.358538
    24  O    5.351938   4.914698   5.330013   8.516960   8.781323
    25  H    5.146463   4.526182   4.773114   8.700439   9.103240
    26  C    4.636375   4.825139   5.603760   6.574175   6.583909
    27  O    5.885891   5.914551   6.696518   7.626360   7.425333
    28  C    6.561622   6.782797   7.655674   7.485051   7.025781
    29  O    7.718971   7.760593   8.604489   8.753063   8.206893
    30  H    8.343163   8.384175   9.188519   9.450580   8.932959
    31  H    6.971752   7.349594   8.211242   7.579420   7.103204
    32  H    6.078084   6.210809   7.154134   6.761113   6.170199
    33  H    5.119709   5.869016   6.806991   4.959975   4.518835
    34  H    3.655657   3.709929   4.639807   5.619400   5.593525
    35  H    4.923470   5.301997   6.022202   6.622955   6.692225
    36  H    4.149927   3.711582   4.389884   7.112123   7.279397
    37  H    3.415434   3.275930   3.837620   6.624639   7.046664
    38  H    4.487387   5.596233   5.864455   2.961171   4.286511
    39  H    4.424359   5.817577   6.475752   1.070000   2.056348
    40  H    4.824627   6.066326   6.667327   1.070000   2.056348
    41  H    3.245914   4.177552   4.945844   2.132923   2.578565
    42  H    2.919549   4.250929   4.646385   2.492341   3.882289
    43  H    2.034244   2.456172   2.767731   4.143640   5.131555
    44  H    1.070000   2.030387   2.444821   4.626112   5.596232
    45  H    2.179195   2.550538   3.537618   4.119704   4.413903
                   11         12         13         14         15
    11  H    0.000000
    12  C    3.264836   0.000000
    13  O    3.802628   1.434369   0.000000
    14  C    5.161827   2.381425   1.435143   0.000000
    15  O    5.545620   3.375368   2.004103   1.434859   0.000000
    16  C    6.040219   4.322503   2.994432   2.450590   1.435236
    17  C    5.337171   4.459569   3.278421   3.299909   2.531442
    18  O    4.301247   3.642026   2.833939   3.152715   2.997196
    19  H    3.683278   2.689068   1.878836   2.477410   2.526927
    20  C    6.494238   5.877552   4.765313   4.637480   3.860235
    21  O    6.235304   6.343589   5.400261   5.584003   4.914939
    22  H    5.617250   5.862627   5.105355   5.383913   4.960279
    23  C    8.183361   6.005633   4.717639   3.697960   2.753044
    24  O    9.592117   7.378106   6.103116   5.045037   4.127783
    25  H    9.941443   7.474910   6.292621   5.120839   4.400768
    26  C    7.322160   5.692994   4.299131   3.689278   2.426098
    27  O    8.147859   6.785499   5.442090   4.842381   3.712745
    28  C    7.658758   6.862189   5.584073   5.292387   4.216317
    29  O    8.844253   8.091817   6.871844   6.475033   5.501516
    30  H    9.530033   8.822035   7.545752   7.156990   6.072362
    31  H    7.627753   7.125109   5.812739   5.716170   4.509225
    32  H    6.916215   6.035763   5.032143   4.691746   4.146587
    33  H    5.087662   4.622445   3.397737   3.727005   2.763965
    34  H    6.487171   4.504742   3.361560   2.484532   2.006875
    35  H    7.333439   5.898666   4.465332   4.080118   2.667870
    36  H    8.168474   5.883155   4.717864   3.554648   2.947291
    37  H    7.865763   5.465294   4.224626   3.168430   2.321449
    38  H    4.605842   3.032533   4.215671   4.914044   5.946302
    39  H    2.273570   2.130459   2.582254   3.948569   4.355143
    40  H    2.308992   2.130459   3.334948   4.495743   5.330490
    41  H    3.513383   1.070000   2.058031   2.622480   3.779163
    42  H    4.403002   2.060626   2.660227   3.318992   4.132604
    43  H    5.975477   2.797370   3.326314   2.855800   4.220565
    44  H    6.367918   3.437405   2.798934   2.104224   2.512928
    45  H    5.392987   2.739909   2.091246   1.070000   2.093556
                   16         17         18         19         20
    16  C    0.000000
    17  C    1.519695   0.000000
    18  O    2.465156   1.435460   0.000000
    19  H    2.519358   1.944542   1.000076   0.000000
    20  C    2.540735   1.519518   2.431310   3.263805   0.000000
    21  O    3.764235   2.384608   2.748114   3.659706   1.435026
    22  H    3.949110   2.512844   2.310404   3.252227   1.973331
    23  C    2.294354   3.665080   4.716909   4.753960   4.092170
    24  O    3.691047   4.963403   6.095000   6.179697   5.142859
    25  H    4.225146   5.620159   6.628241   6.607899   5.939388
    26  C    1.520178   2.502345   3.792813   3.949269   2.917923
    27  O    2.470569   2.885638   4.225447   4.681927   2.493918
    28  C    2.868431   2.468358   3.748771   4.409862   1.519869
    29  O    4.096794   3.704739   4.802279   5.585785   2.391077
    30  H    4.725308   4.420327   5.611211   6.347252   3.205747
    31  H    3.340580   2.821591   4.131890   4.704850   2.147100
    32  H    2.800445   2.107665   2.661925   3.538922   1.070000
    33  H    2.089833   1.070000   2.018128   2.270231   2.090744
    34  H    1.070000   2.079536   2.678605   2.843089   2.749850
    35  H    2.184132   2.961699   4.271722   4.304521   3.506322
    36  H    2.330857   3.630367   4.483632   4.603457   3.946834
    37  H    2.478879   3.974671   4.865468   4.678393   4.728185
    38  H    7.148375   7.438549   6.652992   5.692610   8.891143
    39  H    5.318663   5.174096   4.507737   3.575477   6.616886
    40  H    6.236111   6.066996   5.075194   4.191157   7.434009
    41  H    4.479677   4.519511   3.488517   2.695027   5.794486
    42  H    5.443438   5.913313   5.422827   4.431147   7.415268
    43  H    5.256050   6.016732   5.459832   4.699121   7.286447
    44  H    3.853423   5.005452   5.134452   4.390537   6.339342
    45  H    2.523483   3.217102   2.870694   2.423318   4.353662
                   21         22         23         24         25
    21  O    0.000000
    22  H    1.000182   0.000000
    23  C    5.499490   5.893662   0.000000
    24  O    6.545304   7.051075   1.434972   0.000000
    25  H    7.360270   7.788887   1.956400   0.999960   0.000000
    26  C    4.234867   4.730114   1.519542   2.598835   3.358149
    27  O    3.795262   4.465784   2.309092   2.895525   3.828506
    28  C    2.528432   3.348796   3.604801   4.327668   5.252072
    29  O    3.059104   3.894304   4.451804   4.874579   5.813066
    30  H    3.773107   4.683104   4.803563   5.003792   5.978967
    31  H    2.741476   3.653999   4.121309   4.785932   5.733275
    32  H    2.031338   2.260120   4.134586   5.146183   5.873318
    33  H    2.582972   2.846278   4.092982   5.327851   6.019994
    34  H    4.038630   4.111337   2.287332   3.635163   4.068512
    35  H    4.641129   5.200378   2.174698   2.989019   3.719584
    36  H    5.371563   5.650801   1.070000   2.018119   2.354173
    37  H    6.080231   6.379306   1.070000   2.018119   2.105384
    38  H    9.317602   8.807772   8.459084   9.691830   9.572406
    39  H    6.813655   6.411537   7.099089   8.434906   8.631575
    40  H    7.573351   6.977935   8.045906   9.419848   9.537762
    41  H    6.220016   5.624017   6.207596   7.593119   7.693290
    42  H    8.006212   7.664049   6.632721   7.840836   7.762646
    43  H    8.118478   7.707430   6.040845   7.165228   6.902167
    44  H    7.384720   7.319312   4.112752   5.117065   4.885278
    45  H    5.294661   4.999532   3.833342   5.178843   5.280860
                   26         27         28         29         30
    26  C    0.000000
    27  O    1.434853   0.000000
    28  C    2.385445   1.434548   0.000000
    29  O    3.542581   2.216977   1.435178   0.000000
    30  H    3.913777   2.557428   1.974804   0.960000   0.000000
    31  H    2.731392   2.070893   1.070000   2.069862   2.214017
    32  H    3.290636   2.747550   2.104865   2.506137   3.446941
    33  H    2.735407   3.234901   2.698733   4.053067   4.608009
    34  H    2.084441   2.688593   3.203093   4.161318   4.888312
    35  H    1.070000   2.110699   2.836368   4.074703   4.267255
    36  H    2.091380   2.545295   3.718694   4.399226   4.904974
    37  H    2.091380   3.234264   4.414006   5.407781   5.772580
    38  H    8.367090   9.600577   9.797766  11.070331  11.760895
    39  H    6.479786   7.611054   7.499888   8.842467   9.458023
    40  H    7.578465   8.640177   8.516731   9.760444  10.479928
    41  H    5.948292   6.895064   6.919323   8.031050   8.833953
    42  H    6.527562   7.832090   8.134810   9.457364  10.077693
    43  H    6.423553   7.544511   8.064223   9.141552   9.874114
    44  H    4.518626   5.878358   6.636580   7.859377   8.384556
    45  H    3.878108   4.788898   5.169967   6.199734   6.970412
                   31         32         33         34         35
    31  H    0.000000
    32  H    2.997441   0.000000
    33  H    2.624840   2.964975   0.000000
    34  H    3.931312   2.580863   2.944797   0.000000
    35  H    2.771236   4.102176   2.793918   3.000089   0.000000
    36  H    4.457008   3.718896   4.306723   1.826084   3.005572
    37  H    4.817525   4.833791   4.302794   2.590894   2.429068
    38  H    9.981423   9.060440   7.467271   7.329790   8.415752
    39  H    7.461470   7.072896   4.883054   5.855083   6.356287
    40  H    8.637539   7.687880   6.018027   6.519343   7.647626
    41  H    7.310051   5.783338   4.884485   4.439148   6.323458
    42  H    8.274618   7.674834   5.881530   5.755153   6.497917
    43  H    8.555835   7.141008   6.472002   5.007650   6.815754
    44  H    6.920067   6.488427   5.183520   4.031255   4.592729
    45  H    5.759167   4.182257   3.906393   2.147992   4.499923
                   36         37         38         39         40
    36  H    0.000000
    37  H    1.720782   0.000000
    38  H    8.416557   7.683200   0.000000
    39  H    7.239559   6.533771   3.177359   0.000000
    40  H    7.979441   7.490799   2.329494   1.747092   0.000000
    41  H    5.902348   5.781962   3.507045   3.005617   2.520802
    42  H    6.726483   5.823126   2.005497   2.363788   2.657917
    43  H    5.723589   5.332479   3.492508   4.626968   4.258495
    44  H    4.294360   3.148110   4.770500   4.516696   5.216547
    45  H    3.395701   3.535287   5.390695   4.567160   4.831128
                   41         42         43         44         45
    41  H    0.000000
    42  H    2.958739   0.000000
    43  H    2.742201   2.881591   0.000000
    44  H    4.025838   2.977058   2.898405   0.000000
    45  H    2.542553   4.069684   2.971730   2.992793   0.000000
 Stoichiometry    C12H22O11
 Framework group  C1[X(C12H22O11)]
 Deg. of freedom   129
 Full point group                 C1      NOp   1
 Largest Abelian subgroup         C1      NOp   1
 Largest concise Abelian subgroup C1      NOp   1
                         Standard orientation:                         
 ---------------------------------------------------------------------
 Center     Atomic      Atomic             Coordinates (Angstroms)
 Number     Number       Type             X           Y           Z
 ---------------------------------------------------------------------
      1          8           0       -5.071901   -0.749647    0.256133
      2          6           0       -3.835139   -0.125665   -0.116561
      3          6           0       -3.435947    1.278704    0.306794
      4          8           0       -4.454972    2.214528   -0.073525
      5          1           0       -5.322378    1.857561    0.274800
      6          6           0       -1.987029    1.706820    0.138876
      7          8           0       -1.615061    2.738641    1.063841
      8          1           0       -2.121764    3.600393    1.075913
      9          6           0       -3.115519   -2.346553   -0.660555
     10          8           0       -2.269237   -3.446001   -0.292198
     11          1           0       -2.566256   -4.222088   -0.848929
     12          6           0       -2.686057   -1.098555    0.093590
     13          8           0       -1.433404   -0.618279   -0.413963
     14          6           0       -0.991093    0.565280    0.266611
     15          8           0        0.126421    0.621070   -0.631648
     16          6           0        1.412091    0.261559   -0.104670
     17          6           0        1.769704   -1.214435   -0.049636
     18          8           0        0.797369   -2.002037    0.653778
     19          1           0       -0.078835   -1.737996    0.250417
     20          6           0        3.165876   -1.478351    0.488867
     21          8           0        3.387677   -2.895397    0.443198
     22          1           0        2.664893   -3.320505    0.988386
     23          6           0        2.166867    2.424686   -0.228165
     24          8           0        2.995056    3.581334   -0.416344
     25          1           0        2.402592    4.366810   -0.237641
     26          6           0        2.507316    1.057129   -0.796400
     27          8           0        3.816056    0.808871   -0.263136
     28          6           0        4.148248   -0.586646   -0.252624
     29          8           0        5.379224   -0.573738    0.485120
     30          1           0        6.100274   -0.329591   -0.099757
     31          1           0        4.309935   -0.944674   -1.247899
     32          1           0        3.178709   -1.184122    1.517538
     33          1           0        1.765648   -1.562437   -1.061456
     34          1           0        1.407820    0.593204    0.912627
     35          1           0        2.457952    1.022423   -1.864697
     36          1           0        2.062516    2.295833    0.828910
     37          1           0        1.200274    2.679103   -0.610094
     38          1           0       -5.643483   -0.811606   -0.512668
     39          1           0       -3.035159   -2.172131   -1.713180
     40          1           0       -4.130336   -2.580022   -0.414511
     41          1           0       -2.590324   -1.322846    1.135429
     42          1           0       -3.915238   -0.043956   -1.180426
     43          1           0       -3.536644    1.240061    1.371345
     44          1           0       -1.886765    2.109474   -0.847388
     45          1           0       -0.697177    0.368508    1.276460
 ---------------------------------------------------------------------
 Rotational constants (GHZ):      0.3892331      0.1511355      0.1133030
 Standard basis: 6-31+G(d,p) (6D, 7F)
 There are   547 symmetry adapted basis functions of A   symmetry.
 Integral buffers will be    131072 words long.
 Raffenetti 2 integral format.
 Two-electron integral symmetry is turned on.
   547 basis functions,   890 primitive gaussians,   547 cartesian basis functions
    91 alpha electrons       91 beta electrons
       nuclear repulsion energy      2285.8439346134 Hartrees.
 NAtoms=   45 NActive=   45 NUniq=   45 SFac= 1.00D+00 NAtFMM=   50 NAOKFM=F Big=F
 One-electron integrals computed using PRISM.
 NBasis=   547 RedAO= T  NBF=   547
 NBsUse=   547 1.00D-06 NBFU=   547
 Harris functional with IExCor=  402 diagonalized for initial guess.
 ExpMin= 4.38D-02 ExpMax= 5.48D+03 ExpMxC= 8.25D+02 IAcc=2 IRadAn=         0 AccDes= 0.00D+00
 HarFok:  IExCor=  402 AccDes= 0.00D+00 IRadAn=         0 IDoV= 1
 ScaDFX=  1.000000  1.000000  1.000000  1.000000
 FoFCou: FMM=F IPFlag=           0 FMFlag=      100000 FMFlg1=           0
         NFxFlg=           0 DoJE=T BraDBF=F KetDBF=T FulRan=T
         Omega=  0.000000  0.000000  1.000000  0.000000  0.000000 ICntrl=     500 IOpCl=  0
         NMat0=    1 NMatS0=    1 NMatT0=    0 NMatD0=    1 NMtDS0=    0 NMtDT0=    0
         I1Cent=           4 NGrid=           0.
 Petite list used in FoFCou.
 Initial guess orbital symmetries:
       Occupied  (A) (A) (A) (A) (A) (A) (A) (A) (A) (A) (A) (A)
                 (A) (A) (A) (A) (A) (A) (A) (A) (A) (A) (A) (A)
                 (A) (A) (A) (A) (A) (A) (A) (A) (A) (A) (A) (A)
                 (A) (A) (A) (A) (A) (A) (A) (A) (A) (A) (A) (A)
                 (A) (A) (A) (A) (A) (A) (A) (A) (A) (A) (A) (A)
                 (A) (A) (A) (A) (A) (A) (A) (A) (A) (A) (A) (A)
                 (A) (A) (A) (A) (A) (A) (A) (A) (A) (A) (A) (A)
                 (A) (A) (A) (A) (A) (A) (A)
       Virtual   (A) (A) (A) (A) (A) (A) (A) (A) (A) (A) (A) (A)
                 (A) (A) (A) (A) (A) (A) (A) (A) (A) (A) (A) (A)
                 (A) (A) (A) (A) (A) (A) (A) (A) (A) (A) (A) (A)
                 (A) (A) (A) (A) (A) (A) (A) (A) (A) (A) (A) (A)
                 (A) (A) (A) (A) (A) (A) (A) (A) (A) (A) (A) (A)
                 (A) (A) (A) (A) (A) (A) (A) (A) (A) (A) (A) (A)
                 (A) (A) (A) (A) (A) (A) (A) (A) (A) (A) (A) (A)
                 (A) (A) (A) (A) (A) (A) (A) (A) (A) (A) (A) (A)
                 (A) (A) (A) (A) (A) (A) (A) (A) (A) (A) (A) (A)
                 (A) (A) (A) (A) (A) (A) (A) (A) (A) (A) (A) (A)
                 (A) (A) (A) (A) (A) (A) (A) (A) (A) (A) (A) (A)
                 (A) (A) (A) (A) (A) (A) (A) (A) (A) (A) (A) (A)
                 (A) (A) (A) (A) (A) (A) (A) (A) (A) (A) (A) (A)
                 (A) (A) (A) (A) (A) (A) (A) (A) (A) (A) (A) (A)
                 (A) (A) (A) (A) (A) (A) (A) (A) (A) (A) (A) (A)
                 (A) (A) (A) (A) (A) (A) (A) (A) (A) (A) (A) (A)
                 (A) (A) (A) (A) (A) (A) (A) (A) (A) (A) (A) (A)
                 (A) (A) (A) (A) (A) (A) (A) (A) (A) (A) (A) (A)
                 (A) (A) (A) (A) (A) (A) (A) (A) (A) (A) (A) (A)
                 (A) (A) (A) (A) (A) (A) (A) (A) (A) (A) (A) (A)
                 (A) (A) (A) (A) (A) (A) (A) (A) (A) (A) (A) (A)
                 (A) (A) (A) (A) (A) (A) (A) (A) (A) (A) (A) (A)
                 (A) (A) (A) (A) (A) (A) (A) (A) (A) (A) (A) (A)
                 (A) (A) (A) (A) (A) (A) (A) (A) (A) (A) (A) (A)
                 (A) (A) (A) (A) (A) (A) (A) (A) (A) (A) (A) (A)
                 (A) (A) (A) (A) (A) (A) (A) (A) (A) (A) (A) (A)
                 (A) (A) (A) (A) (A) (A) (A) (A) (A) (A) (A) (A)
                 (A) (A) (A) (A) (A) (A) (A) (A) (A) (A) (A) (A)
                 (A) (A) (A) (A) (A) (A) (A) (A) (A) (A) (A) (A)
                 (A) (A) (A) (A) (A) (A) (A) (A) (A) (A) (A) (A)
                 (A) (A) (A) (A) (A) (A) (A) (A) (A) (A) (A) (A)
                 (A) (A) (A) (A) (A) (A) (A) (A) (A) (A) (A) (A)
                 (A) (A) (A) (A) (A) (A) (A) (A) (A) (A) (A) (A)
                 (A) (A) (A) (A) (A) (A) (A) (A) (A) (A) (A) (A)
                 (A) (A) (A) (A) (A) (A) (A) (A) (A) (A) (A) (A)
                 (A) (A) (A) (A) (A) (A) (A) (A) (A) (A) (A) (A)
                 (A) (A) (A) (A) (A) (A) (A) (A) (A) (A) (A) (A)
                 (A) (A) (A) (A) (A) (A) (A) (A) (A) (A) (A) (A)
 The electronic state of the initial guess is 1-A.
 Requested convergence on RMS density matrix=1.00D-08 within 128 cycles.
 Requested convergence on MAX density matrix=1.00D-06.
 Requested convergence on             energy=1.00D-06.
 No special actions if energy rises.
 SCF Done:  E(RB3LYP) =  -1297.88803404     A.U. after   13 cycles
             Convg  =    0.7391D-08             -V/T =  2.0086
 Range of M.O.s used for correlation:     1   547
 NBasis=   547 NAE=    91 NBE=    91 NFC=     0 NFV=     0
 NROrb=    547 NOA=    91 NOB=    91 NVA=   456 NVB=   456

 **** Warning!!: The largest alpha MO coefficient is  0.83660273D+02

          Differentiating once with respect to electric field.
                with respect to dipole field.
          Electric field/nuclear overlap derivatives assumed to be zero.
          There are     3 degrees of freedom in the 1st order CPHF.  IDoFFX=0.
      3 vectors produced by pass  0 Test12= 1.38D-12 3.33D-08 XBig12= 1.18D+02 1.46D+00.
 AX will form     3 AO Fock derivatives at one time.
      3 vectors produced by pass  1 Test12= 1.38D-12 3.33D-08 XBig12= 2.37D+01 4.59D-01.
      3 vectors produced by pass  2 Test12= 1.38D-12 3.33D-08 XBig12= 1.03D+01 3.36D-01.
      3 vectors produced by pass  3 Test12= 1.38D-12 3.33D-08 XBig12= 1.03D+00 8.55D-02.
      3 vectors produced by pass  4 Test12= 1.38D-12 3.33D-08 XBig12= 3.87D-01 5.56D-02.
      3 vectors produced by pass  5 Test12= 1.38D-12 3.33D-08 XBig12= 6.14D-02 1.93D-02.
      3 vectors produced by pass  6 Test12= 1.38D-12 3.33D-08 XBig12= 2.04D-02 1.48D-02.
      3 vectors produced by pass  7 Test12= 1.38D-12 3.33D-08 XBig12= 2.64D-03 6.11D-03.
      3 vectors produced by pass  8 Test12= 1.38D-12 3.33D-08 XBig12= 4.85D-04 2.25D-03.
      3 vectors produced by pass  9 Test12= 1.38D-12 3.33D-08 XBig12= 1.23D-04 1.22D-03.
      3 vectors produced by pass 10 Test12= 1.38D-12 3.33D-08 XBig12= 3.49D-05 4.68D-04.
      3 vectors produced by pass 11 Test12= 1.38D-12 3.33D-08 XBig12= 7.40D-06 2.54D-04.
      3 vectors produced by pass 12 Test12= 1.38D-12 3.33D-08 XBig12= 7.62D-07 7.94D-05.
      3 vectors produced by pass 13 Test12= 1.38D-12 3.33D-08 XBig12= 1.29D-07 2.50D-05.
      3 vectors produced by pass 14 Test12= 1.38D-12 3.33D-08 XBig12= 3.47D-08 1.40D-05.
      3 vectors produced by pass 15 Test12= 1.38D-12 3.33D-08 XBig12= 6.47D-09 7.40D-06.
      3 vectors produced by pass 16 Test12= 1.38D-12 3.33D-08 XBig12= 9.22D-10 3.23D-06.
      3 vectors produced by pass 17 Test12= 1.38D-12 3.33D-08 XBig12= 1.78D-10 1.35D-06.
      3 vectors produced by pass 18 Test12= 1.38D-12 3.33D-08 XBig12= 3.35D-11 4.55D-07.
      3 vectors produced by pass 19 Test12= 1.38D-12 3.33D-08 XBig12= 1.18D-11 3.28D-07.
      3 vectors produced by pass 20 Test12= 1.38D-12 3.33D-08 XBig12= 9.55D-12 2.58D-07.
      2 vectors produced by pass 21 Test12= 1.38D-12 3.33D-08 XBig12= 9.50D-13 6.76D-08.
 Inverted reduced A of dimension    65 with in-core refinement.
 End of Minotr Frequency-dependent properties file   721 does not exist.
 End of Minotr Frequency-dependent properties file   722 does not exist.
 Symmetrizing basis deriv contribution to polar:
 IMax=3 JMax=2 DiffMx= 0.00D+00
 G2DrvN: will do    23 centers at a time, making    2 passes doing MaxLOS=2.
 Calling FoFCou, ICntrl=  3107 FMM=F I1Cent=   0 AccDes= 0.00D+00.
 Calling FoFCou, ICntrl=  3107 FMM=F I1Cent=   0 AccDes= 0.00D+00.
 FoFDir/FoFCou used for L=0 through L=2.
 End of G2Drv Frequency-dependent properties file   721 does not exist.
 End of G2Drv Frequency-dependent properties file   722 does not exist.
          IDoAtm=111111111111111111111111111111111111111111111
          Differentiating once with respect to electric field.
                with respect to dipole field.
          Differentiating once with respect to nuclear coordinates.
          There are   138 degrees of freedom in the 1st order CPHF.  IDoFFX=5.
 Will reuse    3 saved solutions.
    135 vectors produced by pass  0 Test12= 4.15D-14 1.00D-09 XBig12= 2.64D-01 7.36D-02.
 AX will form    68 AO Fock derivatives at one time.
    135 vectors produced by pass  1 Test12= 4.15D-14 1.00D-09 XBig12= 2.88D-02 2.22D-02.
    132 vectors produced by pass  2 Test12= 4.15D-14 1.00D-09 XBig12= 1.47D-04 1.39D-03.
    132 vectors produced by pass  3 Test12= 4.15D-14 1.00D-09 XBig12= 6.30D-07 8.64D-05.
    132 vectors produced by pass  4 Test12= 4.15D-14 1.00D-09 XBig12= 1.24D-09 2.45D-06.
    131 vectors produced by pass  5 Test12= 4.15D-14 1.00D-09 XBig12= 4.40D-12 1.97D-07.
     79 vectors produced by pass  6 Test12= 4.15D-14 1.00D-09 XBig12= 1.15D-13 2.16D-08.
      1 vectors produced by pass  7 Test12= 4.15D-14 1.00D-09 XBig12= 2.09D-16 1.06D-09.
 Inverted reduced A of dimension   877 with in-core refinement.
 Isotropic polarizability for W=    0.000000      186.94 Bohr**3.
 End of Minotr Frequency-dependent properties file   721 does not exist.
 End of Minotr Frequency-dependent properties file   722 does not exist.

 **********************************************************************

            Population analysis using the SCF density.

 **********************************************************************

 Orbital symmetries:
       Occupied  (A) (A) (A) (A) (A) (A) (A) (A) (A) (A) (A) (A)
                 (A) (A) (A) (A) (A) (A) (A) (A) (A) (A) (A) (A)
                 (A) (A) (A) (A) (A) (A) (A) (A) (A) (A) (A) (A)
                 (A) (A) (A) (A) (A) (A) (A) (A) (A) (A) (A) (A)
                 (A) (A) (A) (A) (A) (A) (A) (A) (A) (A) (A) (A)
                 (A) (A) (A) (A) (A) (A) (A) (A) (A) (A) (A) (A)
                 (A) (A) (A) (A) (A) (A) (A) (A) (A) (A) (A) (A)
                 (A) (A) (A) (A) (A) (A) (A)
       Virtual   (A) (A) (A) (A) (A) (A) (A) (A) (A) (A) (A) (A)
                 (A) (A) (A) (A) (A) (A) (A) (A) (A) (A) (A) (A)
                 (A) (A) (A) (A) (A) (A) (A) (A) (A) (A) (A) (A)
                 (A) (A) (A) (A) (A) (A) (A) (A) (A) (A) (A) (A)
                 (A) (A) (A) (A) (A) (A) (A) (A) (A) (A) (A) (A)
                 (A) (A) (A) (A) (A) (A) (A) (A) (A) (A) (A) (A)
                 (A) (A) (A) (A) (A) (A) (A) (A) (A) (A) (A) (A)
                 (A) (A) (A) (A) (A) (A) (A) (A) (A) (A) (A) (A)
                 (A) (A) (A) (A) (A) (A) (A) (A) (A) (A) (A) (A)
                 (A) (A) (A) (A) (A) (A) (A) (A) (A) (A) (A) (A)
                 (A) (A) (A) (A) (A) (A) (A) (A) (A) (A) (A) (A)
                 (A) (A) (A) (A) (A) (A) (A) (A) (A) (A) (A) (A)
                 (A) (A) (A) (A) (A) (A) (A) (A) (A) (A) (A) (A)
                 (A) (A) (A) (A) (A) (A) (A) (A) (A) (A) (A) (A)
                 (A) (A) (A) (A) (A) (A) (A) (A) (A) (A) (A) (A)
                 (A) (A) (A) (A) (A) (A) (A) (A) (A) (A) (A) (A)
                 (A) (A) (A) (A) (A) (A) (A) (A) (A) (A) (A) (A)
                 (A) (A) (A) (A) (A) (A) (A) (A) (A) (A) (A) (A)
                 (A) (A) (A) (A) (A) (A) (A) (A) (A) (A) (A) (A)
                 (A) (A) (A) (A) (A) (A) (A) (A) (A) (A) (A) (A)
                 (A) (A) (A) (A) (A) (A) (A) (A) (A) (A) (A) (A)
                 (A) (A) (A) (A) (A) (A) (A) (A) (A) (A) (A) (A)
                 (A) (A) (A) (A) (A) (A) (A) (A) (A) (A) (A) (A)
                 (A) (A) (A) (A) (A) (A) (A) (A) (A) (A) (A) (A)
                 (A) (A) (A) (A) (A) (A) (A) (A) (A) (A) (A) (A)
                 (A) (A) (A) (A) (A) (A) (A) (A) (A) (A) (A) (A)
                 (A) (A) (A) (A) (A) (A) (A) (A) (A) (A) (A) (A)
                 (A) (A) (A) (A) (A) (A) (A) (A) (A) (A) (A) (A)
                 (A) (A) (A) (A) (A) (A) (A) (A) (A) (A) (A) (A)
                 (A) (A) (A) (A) (A) (A) (A) (A) (A) (A) (A) (A)
                 (A) (A) (A) (A) (A) (A) (A) (A) (A) (A) (A) (A)
                 (A) (A) (A) (A) (A) (A) (A) (A) (A) (A) (A) (A)
                 (A) (A) (A) (A) (A) (A) (A) (A) (A) (A) (A) (A)
                 (A) (A) (A) (A) (A) (A) (A) (A) (A) (A) (A) (A)
                 (A) (A) (A) (A) (A) (A) (A) (A) (A) (A) (A) (A)
                 (A) (A) (A) (A) (A) (A) (A) (A) (A) (A) (A) (A)
                 (A) (A) (A) (A) (A) (A) (A) (A) (A) (A) (A) (A)
                 (A) (A) (A) (A) (A) (A) (A) (A) (A) (A) (A) (A)
 The electronic state is 1-A.
 Alpha  occ. eigenvalues --  -19.20547 -19.20337 -19.19220 -19.19078 -19.18527
 Alpha  occ. eigenvalues --  -19.17358 -19.17348 -19.15823 -19.15507 -19.15425
 Alpha  occ. eigenvalues --  -19.15181 -10.32862 -10.29532 -10.28640 -10.27435
 Alpha  occ. eigenvalues --  -10.27295 -10.26263 -10.25259 -10.25007 -10.24821
 Alpha  occ. eigenvalues --  -10.24313 -10.23743 -10.22336  -1.11884  -1.07836
 Alpha  occ. eigenvalues --   -1.07473  -1.05676  -1.04144  -1.03918  -1.02964
 Alpha  occ. eigenvalues --   -1.02595  -1.01254  -1.00409  -0.99931  -0.83083
 Alpha  occ. eigenvalues --   -0.82537  -0.79228  -0.78194  -0.72624  -0.69474
 Alpha  occ. eigenvalues --   -0.68269  -0.65466  -0.63796  -0.62213  -0.61587
 Alpha  occ. eigenvalues --   -0.59675  -0.57973  -0.57302  -0.55657  -0.54485
 Alpha  occ. eigenvalues --   -0.54006  -0.53620  -0.53405  -0.52391  -0.51322
 Alpha  occ. eigenvalues --   -0.50803  -0.49538  -0.49269  -0.48702  -0.46934
 Alpha  occ. eigenvalues --   -0.46118  -0.45292  -0.44592  -0.44207  -0.43580
 Alpha  occ. eigenvalues --   -0.43080  -0.42035  -0.41165  -0.40213  -0.39909
 Alpha  occ. eigenvalues --   -0.37992  -0.37777  -0.37125  -0.36627  -0.36194
 Alpha  occ. eigenvalues --   -0.35909  -0.35574  -0.34332  -0.34171  -0.33474
 Alpha  occ. eigenvalues --   -0.33026  -0.31385  -0.31030  -0.30318  -0.29636
 Alpha  occ. eigenvalues --   -0.29599  -0.28866  -0.28313  -0.27190  -0.27117
 Alpha  occ. eigenvalues --   -0.26052
 Alpha virt. eigenvalues --   -0.03677  -0.02141  -0.01303  -0.00477   0.00681
 Alpha virt. eigenvalues --    0.00740   0.01360   0.01579   0.01948   0.02815
 Alpha virt. eigenvalues --    0.03165   0.04228   0.04698   0.05098   0.05838
 Alpha virt. eigenvalues --    0.06280   0.06694   0.06802   0.06948   0.08060
 Alpha virt. eigenvalues --    0.08508   0.09085   0.09255   0.09766   0.09965
 Alpha virt. eigenvalues --    0.10225   0.10796   0.11003   0.11317   0.11954
 Alpha virt. eigenvalues --    0.12160   0.12316   0.12570   0.13267   0.13742
 Alpha virt. eigenvalues --    0.14010   0.14538   0.14675   0.15000   0.15486
 Alpha virt. eigenvalues --    0.15651   0.15935   0.16031   0.16390   0.16752
 Alpha virt. eigenvalues --    0.16902   0.17610   0.17901   0.18256   0.18463
 Alpha virt. eigenvalues --    0.18638   0.19046   0.19176   0.19618   0.19889
 Alpha virt. eigenvalues --    0.20018   0.20165   0.20773   0.21313   0.21373
 Alpha virt. eigenvalues --    0.21831   0.22104   0.22644   0.22807   0.23187
 Alpha virt. eigenvalues --    0.23626   0.24023   0.24191   0.24361   0.24477
 Alpha virt. eigenvalues --    0.24739   0.25172   0.25403   0.25656   0.25944
 Alpha virt. eigenvalues --    0.26280   0.26568   0.26925   0.26979   0.27117
 Alpha virt. eigenvalues --    0.27876   0.28178   0.28282   0.28726   0.29111
 Alpha virt. eigenvalues --    0.29256   0.29751   0.30046   0.30136   0.30514
 Alpha virt. eigenvalues --    0.30861   0.31103   0.31800   0.32011   0.32325
 Alpha virt. eigenvalues --    0.33004   0.33220   0.33392   0.33592   0.34520
 Alpha virt. eigenvalues --    0.34610   0.35048   0.35311   0.35816   0.36025
 Alpha virt. eigenvalues --    0.36201   0.36473   0.36872   0.37157   0.37484
 Alpha virt. eigenvalues --    0.38438   0.38608   0.38687   0.39011   0.39777
 Alpha virt. eigenvalues --    0.40071   0.40344   0.40551   0.40675   0.41357
 Alpha virt. eigenvalues --    0.41752   0.42195   0.42762   0.43063   0.43572
 Alpha virt. eigenvalues --    0.43933   0.44663   0.45062   0.45527   0.46816
 Alpha virt. eigenvalues --    0.47164   0.47531   0.48091   0.49231   0.50379
 Alpha virt. eigenvalues --    0.50749   0.52921   0.57248   0.62526   0.63741
 Alpha virt. eigenvalues --    0.64233   0.66147   0.68540   0.69656   0.70488
 Alpha virt. eigenvalues --    0.71160   0.71900   0.72257   0.73469   0.73764
 Alpha virt. eigenvalues --    0.74364   0.74949   0.77228   0.77304   0.78688
 Alpha virt. eigenvalues --    0.79521   0.79982   0.80856   0.82285   0.83218
 Alpha virt. eigenvalues --    0.85253   0.86000   0.86861   0.87414   0.88843
 Alpha virt. eigenvalues --    0.89502   0.90141   0.92532   0.93633   0.94959
 Alpha virt. eigenvalues --    0.95157   0.97545   0.98912   1.00898   1.01298
 Alpha virt. eigenvalues --    1.01721   1.02085   1.02769   1.03113   1.03739
 Alpha virt. eigenvalues --    1.04382   1.05546   1.05959   1.06430   1.06934
 Alpha virt. eigenvalues --    1.07448   1.07841   1.07985   1.08373   1.09706
 Alpha virt. eigenvalues --    1.10415   1.11824   1.13350   1.13689   1.14574
 Alpha virt. eigenvalues --    1.15626   1.17742   1.17933   1.19437   1.20884
 Alpha virt. eigenvalues --    1.21537   1.22103   1.23032   1.24170   1.24983
 Alpha virt. eigenvalues --    1.25710   1.26125   1.26503   1.27297   1.28374
 Alpha virt. eigenvalues --    1.29179   1.29227   1.30585   1.31226   1.31461
 Alpha virt. eigenvalues --    1.31962   1.32155   1.32471   1.33108   1.34020
 Alpha virt. eigenvalues --    1.34328   1.35130   1.35486   1.36783   1.38530
 Alpha virt. eigenvalues --    1.38861   1.39435   1.40452   1.41458   1.42379
 Alpha virt. eigenvalues --    1.43523   1.44619   1.45424   1.46357   1.48136
 Alpha virt. eigenvalues --    1.48338   1.51363   1.51901   1.52794   1.54157
 Alpha virt. eigenvalues --    1.54251   1.55271   1.55932   1.56180   1.56871
 Alpha virt. eigenvalues --    1.57557   1.58823   1.59379   1.59859   1.60639
 Alpha virt. eigenvalues --    1.61061   1.61364   1.61645   1.63549   1.64232
 Alpha virt. eigenvalues --    1.64607   1.65314   1.66313   1.67398   1.67728
 Alpha virt. eigenvalues --    1.67995   1.70149   1.70613   1.71179   1.72633
 Alpha virt. eigenvalues --    1.74020   1.75659   1.76400   1.77381   1.77862
 Alpha virt. eigenvalues --    1.79220   1.80046   1.81045   1.81611   1.81961
 Alpha virt. eigenvalues --    1.83399   1.83771   1.84954   1.85686   1.86457
 Alpha virt. eigenvalues --    1.86966   1.88527   1.89779   1.91024   1.91347
 Alpha virt. eigenvalues --    1.92161   1.93297   1.93631   1.95032   1.95227
 Alpha virt. eigenvalues --    1.95566   1.96194   1.96572   1.97275   1.98787
 Alpha virt. eigenvalues --    1.99185   2.00144   2.00250   2.01134   2.02724
 Alpha virt. eigenvalues --    2.02979   2.04027   2.05123   2.05829   2.06504
 Alpha virt. eigenvalues --    2.06823   2.08483   2.10194   2.10992   2.11926
 Alpha virt. eigenvalues --    2.12327   2.13359   2.14251   2.15140   2.16798
 Alpha virt. eigenvalues --    2.17141   2.19046   2.19752   2.20864   2.23253
 Alpha virt. eigenvalues --    2.24035   2.24404   2.25938   2.27978   2.28083
 Alpha virt. eigenvalues --    2.28845   2.30186   2.32032   2.33884   2.34751
 Alpha virt. eigenvalues --    2.35059   2.37513   2.38178   2.38695   2.39870
 Alpha virt. eigenvalues --    2.40349   2.41177   2.41393   2.42303   2.43621
 Alpha virt. eigenvalues --    2.43871   2.44764   2.46231   2.47987   2.48532
 Alpha virt. eigenvalues --    2.49581   2.50553   2.51876   2.52859   2.54430
 Alpha virt. eigenvalues --    2.55230   2.56322   2.56662   2.58071   2.59927
 Alpha virt. eigenvalues --    2.60845   2.61748   2.62584   2.62712   2.63318
 Alpha virt. eigenvalues --    2.63925   2.64951   2.65973   2.66443   2.68613
 Alpha virt. eigenvalues --    2.69904   2.71209   2.73281   2.73510   2.73875
 Alpha virt. eigenvalues --    2.76749   2.77179   2.77576   2.78762   2.79776
 Alpha virt. eigenvalues --    2.81680   2.83237   2.84218   2.84633   2.85839
 Alpha virt. eigenvalues --    2.86063   2.88059   2.89359   2.89657   2.89815
 Alpha virt. eigenvalues --    2.90635   2.92309   2.92594   2.93864   2.94053
 Alpha virt. eigenvalues --    2.94571   2.96774   2.97912   2.99707   3.00297
 Alpha virt. eigenvalues --    3.00578   3.03033   3.04202   3.05384   3.06164
 Alpha virt. eigenvalues --    3.06594   3.09394   3.10818   3.12385   3.13849
 Alpha virt. eigenvalues --    3.15137   3.19156   3.20361   3.21100   3.26023
 Alpha virt. eigenvalues --    3.31172   3.36743   3.38461   3.39799   3.41734
 Alpha virt. eigenvalues --    3.43325   3.44650   3.45383   3.46676   3.48235
 Alpha virt. eigenvalues --    3.48866   3.49107   3.51049   3.51554   3.51755
 Alpha virt. eigenvalues --    3.53276   3.54893   3.58077   3.59888   3.61167
 Alpha virt. eigenvalues --    3.65235   3.66306   3.71447   4.25219   4.30953
 Alpha virt. eigenvalues --    4.32333   4.35911   4.37531   4.40786   4.42712
 Alpha virt. eigenvalues --    4.46770   4.49713   4.50030   4.52099   4.55266
 Alpha virt. eigenvalues --    4.57318   4.58874   4.63836   4.66191   4.70659
 Alpha virt. eigenvalues --    4.79817   4.80570   4.83954   4.86907   4.91574
 Alpha virt. eigenvalues --    4.94235
          Condensed to atoms (all electrons):
              1          2          3          4          5          6
     1  O    8.284714   0.547425  -0.155405  -0.002916   0.019243   0.032829
     2  C    0.547425   9.247922  -2.006723  -0.138702  -0.057140  -0.748875
     3  C   -0.155405  -2.006723  10.053946   0.233170   0.001235  -1.232409
     4  O   -0.002916  -0.138702   0.233170   8.252716   0.217538  -0.007146
     5  H    0.019243  -0.057140   0.001235   0.217538   0.410080   0.041323
     6  C    0.032829  -0.748875  -1.232409  -0.007146   0.041323  12.523448
     7  O   -0.000947   0.015475  -0.062071  -0.004994   0.000004   0.061979
     8  H   -0.000045   0.006028  -0.039780   0.004616  -0.000212   0.052098
     9  C   -0.014350   0.339985  -0.234578   0.003762  -0.003275   0.316022
    10  O    0.001542   0.022610   0.006038   0.000086  -0.000003  -0.021103
    11  H    0.000550  -0.000278   0.002241   0.000000   0.000000   0.001521
    12  C   -0.347538  -2.105961  -0.917605   0.051748   0.024051   0.193718
    13  O    0.003459  -0.032337   0.057129  -0.003589   0.000203  -0.050384
    14  C   -0.004472   0.220704   0.344039  -0.019276  -0.006321  -4.339881
    15  O   -0.000640   0.011783  -0.064672   0.000127   0.000038   0.022465
    16  C    0.002188   0.292713  -0.049765  -0.003948   0.000525  -0.111808
    17  C   -0.002239  -0.105284  -0.077732   0.000894   0.000082  -0.546063
    18  O    0.000071  -0.008813   0.000852  -0.000015   0.000000   0.036199
    19  H   -0.000019   0.011108  -0.000566   0.000002   0.000000   0.004552
    20  C    0.000010   0.000512  -0.018469   0.000020   0.000001  -0.089877
    21  O    0.000000   0.000182  -0.000146   0.000000   0.000000   0.001283
    22  H    0.000000  -0.000025   0.000007   0.000000   0.000000   0.000249
    23  C    0.000036  -0.005479   0.014117  -0.000188  -0.000040  -0.043889
    24  O    0.000000  -0.000040  -0.000389   0.000002   0.000000  -0.005418
    25  H    0.000000   0.000049  -0.000786   0.000000   0.000000  -0.001361
    26  C    0.000070   0.064462  -0.096785   0.000531   0.000009  -0.095167
    27  O    0.000000   0.000277   0.000663   0.000001   0.000000  -0.001490
    28  C    0.000002   0.000487   0.000672   0.000007   0.000000   0.003917
    29  O    0.000000  -0.000006   0.000055   0.000000   0.000000   0.000250
    30  H    0.000000   0.000000   0.000000   0.000000   0.000000   0.000000
    31  H    0.000000  -0.000016   0.000021   0.000000   0.000000   0.000213
    32  H    0.000000   0.000021  -0.000059   0.000000   0.000000   0.002441
    33  H    0.000000  -0.001119   0.000552   0.000000   0.000000   0.009123
    34  H   -0.000002  -0.000822   0.003301   0.000000   0.000000  -0.024518
    35  H    0.000000  -0.000495   0.000463   0.000000   0.000000  -0.004382
    36  H    0.000000  -0.000825  -0.000555  -0.000001   0.000000   0.009078
    37  H    0.000000   0.000263   0.007600   0.000005   0.000000  -0.011481
    38  H    0.244719   0.010109   0.009266  -0.000006  -0.001414  -0.000570
    39  H    0.000254   0.005894  -0.008661  -0.000018  -0.000001   0.010228
    40  H   -0.000974   0.082386  -0.002322  -0.000141  -0.000005  -0.004498
    41  H    0.007101   0.035308  -0.077954  -0.000182  -0.000014   0.004239
    42  H   -0.062835   0.437469  -0.139333  -0.001294  -0.000826  -0.037615
    43  H   -0.006342   0.040507   0.359806  -0.066467  -0.007003  -0.316400
    44  H   -0.000726   0.037480   0.010061  -0.001935  -0.000049   0.153019
    45  H    0.000100   0.028010  -0.038580  -0.000311   0.000005  -0.171434
              7          8          9         10         11         12
     1  O   -0.000947  -0.000045  -0.014350   0.001542   0.000550  -0.347538
     2  C    0.015475   0.006028   0.339985   0.022610  -0.000278  -2.105961
     3  C   -0.062071  -0.039780  -0.234578   0.006038   0.002241  -0.917605
     4  O   -0.004994   0.004616   0.003762   0.000086   0.000000   0.051748
     5  H    0.000004  -0.000212  -0.003275  -0.000003   0.000000   0.024051
     6  C    0.061979   0.052098   0.316022  -0.021103   0.001521   0.193718
     7  O    8.318730   0.211169  -0.000218  -0.000010   0.000001   0.002488
     8  H    0.211169   0.389614   0.000960   0.000000   0.000000   0.006920
     9  C   -0.000218   0.000960   6.439977   0.028582   0.017656  -1.345181
    10  O   -0.000010   0.000000   0.028582   8.356428   0.188989   0.044329
    11  H    0.000001   0.000000   0.017656   0.188989   0.448700   0.005807
    12  C    0.002488   0.006920  -1.345181   0.044329   0.005807  11.565677
    13  O    0.007934  -0.000805   0.003363  -0.003546  -0.000126  -0.077939
    14  C    0.013466   0.004990  -0.224597   0.002180  -0.002118  -0.850994
    15  O   -0.001543  -0.000141  -0.027179  -0.007736   0.000029  -0.001911
    16  C    0.082788  -0.016519  -0.073131   0.055378  -0.001343   0.048971
    17  C   -0.001765  -0.000554  -0.120397  -0.041714  -0.000159  -0.130810
    18  O    0.000454  -0.000007   0.006994  -0.001285   0.000349  -0.000408
    19  H   -0.000085   0.000000  -0.018717   0.005746  -0.000244   0.002705
    20  C    0.000369  -0.000081  -0.006923  -0.004346  -0.000239  -0.063981
    21  O    0.000001   0.000000  -0.000476   0.000010  -0.000003   0.000531
    22  H    0.000000   0.000000   0.000041  -0.000015   0.000000   0.000120
    23  C   -0.022062   0.000714   0.009843   0.000369   0.000002   0.009351
    24  O    0.000573  -0.000018  -0.000032   0.000000   0.000000  -0.000270
    25  H    0.000182   0.000001  -0.000001   0.000000   0.000000  -0.000032
    26  C   -0.000808   0.001940  -0.005673  -0.000003  -0.000121   0.000481
    27  O   -0.000065   0.000000  -0.000259   0.000010   0.000000  -0.000588
    28  C    0.000303   0.000003  -0.001876   0.000816  -0.000003   0.004007
    29  O   -0.000002   0.000000   0.000001   0.000000   0.000000   0.000032
    30  H    0.000000   0.000000   0.000001   0.000000   0.000000  -0.000001
    31  H    0.000000   0.000000   0.000046   0.000000   0.000000  -0.000006
    32  H    0.000010   0.000000   0.000275   0.000006   0.000000   0.000903
    33  H    0.000018   0.000000   0.005532   0.000109  -0.000001   0.001640
    34  H   -0.000387   0.000006   0.001401   0.000008   0.000000   0.008563
    35  H   -0.000034   0.000000   0.000316   0.000001   0.000000   0.000231
    36  H   -0.000438   0.000016   0.000184   0.000000   0.000000   0.001849
    37  H   -0.000571  -0.000033  -0.000317  -0.000001   0.000000  -0.003378
    38  H   -0.000025   0.000000  -0.001672   0.000392  -0.000012  -0.005513
    39  H   -0.000008   0.000000   0.496742  -0.045689  -0.005876  -0.169869
    40  H   -0.000003   0.000000   0.457582  -0.051087  -0.005069  -0.159234
    41  H   -0.000400  -0.000001   0.058456   0.003015   0.000004   0.180688
    42  H   -0.000152  -0.000003   0.032000   0.000889  -0.000016  -0.108777
    43  H   -0.007197  -0.001139   0.003853  -0.000013   0.000000  -0.015785
    44  H   -0.054271  -0.004077   0.001196  -0.000015   0.000000   0.012671
    45  H    0.003124  -0.000101  -0.000096  -0.000274  -0.000001  -0.007843
             13         14         15         16         17         18
     1  O    0.003459  -0.004472  -0.000640   0.002188  -0.002239   0.000071
     2  C   -0.032337   0.220704   0.011783   0.292713  -0.105284  -0.008813
     3  C    0.057129   0.344039  -0.064672  -0.049765  -0.077732   0.000852
     4  O   -0.003589  -0.019276   0.000127  -0.003948   0.000894  -0.000015
     5  H    0.000203  -0.006321   0.000038   0.000525   0.000082   0.000000
     6  C   -0.050384  -4.339881   0.022465  -0.111808  -0.546063   0.036199
     7  O    0.007934   0.013466  -0.001543   0.082788  -0.001765   0.000454
     8  H   -0.000805   0.004990  -0.000141  -0.016519  -0.000554  -0.000007
     9  C    0.003363  -0.224597  -0.027179  -0.073131  -0.120397   0.006994
    10  O   -0.003546   0.002180  -0.007736   0.055378  -0.041714  -0.001285
    11  H   -0.000126  -0.002118   0.000029  -0.001343  -0.000159   0.000349
    12  C   -0.077939  -0.850994  -0.001911   0.048971  -0.130810  -0.000408
    13  O    8.660243   0.052423  -0.192135   0.240028  -0.165132   0.007864
    14  C    0.052423  11.806204   0.217165  -1.044871  -0.212027   0.075111
    15  O   -0.192135   0.217165   8.458348  -0.197082   0.280726  -0.024288
    16  C    0.240028  -1.044871  -0.197082  18.217796  -6.224048  -0.140262
    17  C   -0.165132  -0.212027   0.280726  -6.224048  12.585300   0.241259
    18  O    0.007864   0.075111  -0.024288  -0.140262   0.241259   8.286984
    19  H    0.015481  -0.014177   0.019575  -0.088830   0.084194   0.185010
    20  C   -0.042023  -0.046422   0.084733  -3.053797   1.176056  -0.104717
    21  O    0.000467   0.000001  -0.001137   0.001035  -0.185054  -0.001562
    22  H    0.000038   0.005875  -0.000109   0.054537  -0.093821   0.023197
    23  C    0.009078   0.259085  -0.113710   0.595161  -0.563237   0.007605
    24  O    0.000079   0.011078  -0.003394  -0.054700  -0.006441   0.000171
    25  H    0.000002  -0.000794   0.000098   0.006656   0.002032   0.000001
    26  C   -0.032499  -1.257310   0.015012  -4.367957   0.165881   0.006938
    27  O    0.000921  -0.029957   0.005361  -0.121863   0.092495  -0.000836
    28  C    0.008082   0.011305   0.003477   0.931111  -0.445851   0.011116
    29  O   -0.000027   0.001608   0.000183   0.034120   0.017635   0.000022
    30  H    0.000000   0.000406   0.000002   0.009445  -0.000893   0.000008
    31  H    0.000020   0.006178  -0.000309   0.125069  -0.024988  -0.000341
    32  H    0.000352   0.008265  -0.002426   0.151917  -0.104006   0.002669
    33  H    0.003257   0.060376  -0.015058   0.131535   0.244478  -0.046587
    34  H    0.001486   0.096678  -0.083928   0.437834  -0.182846   0.001230
    35  H   -0.000360   0.058067   0.008814   0.105106  -0.046088  -0.000506
    36  H    0.000336   0.075057   0.001251   0.074567  -0.003981   0.000000
    37  H   -0.001803  -0.052554  -0.008660   0.104123   0.034807  -0.000031
    38  H   -0.000989  -0.004330   0.000001   0.000206  -0.000043  -0.000001
    39  H   -0.000749   0.014129   0.000628  -0.009042   0.009431   0.000321
    40  H    0.001438  -0.004470  -0.000265   0.003538  -0.002977  -0.000206
    41  H   -0.049210   0.072067  -0.002406  -0.002225   0.016934   0.000284
    42  H    0.007306   0.085517  -0.001406  -0.000941   0.003309   0.000038
    43  H    0.001305   0.193277  -0.000102   0.008656   0.003050   0.000052
    44  H    0.013998   0.029628  -0.014137   0.047081   0.004467   0.000045
    45  H   -0.046604   0.401295  -0.058682   0.080270   0.026695   0.000010
             19         20         21         22         23         24
     1  O   -0.000019   0.000010   0.000000   0.000000   0.000036   0.000000
     2  C    0.011108   0.000512   0.000182  -0.000025  -0.005479  -0.000040
     3  C   -0.000566  -0.018469  -0.000146   0.000007   0.014117  -0.000389
     4  O    0.000002   0.000020   0.000000   0.000000  -0.000188   0.000002
     5  H    0.000000   0.000001   0.000000   0.000000  -0.000040   0.000000
     6  C    0.004552  -0.089877   0.001283   0.000249  -0.043889  -0.005418
     7  O   -0.000085   0.000369   0.000001   0.000000  -0.022062   0.000573
     8  H    0.000000  -0.000081   0.000000   0.000000   0.000714  -0.000018
     9  C   -0.018717  -0.006923  -0.000476   0.000041   0.009843  -0.000032
    10  O    0.005746  -0.004346   0.000010  -0.000015   0.000369   0.000000
    11  H   -0.000244  -0.000239  -0.000003   0.000000   0.000002   0.000000
    12  C    0.002705  -0.063981   0.000531   0.000120   0.009351  -0.000270
    13  O    0.015481  -0.042023   0.000467   0.000038   0.009078   0.000079
    14  C   -0.014177  -0.046422   0.000001   0.005875   0.259085   0.011078
    15  O    0.019575   0.084733  -0.001137  -0.000109  -0.113710  -0.003394
    16  C   -0.088830  -3.053797   0.001035   0.054537   0.595161  -0.054700
    17  C    0.084194   1.176056  -0.185054  -0.093821  -0.563237  -0.006441
    18  O    0.185010  -0.104717  -0.001562   0.023197   0.007605   0.000171
    19  H    0.351580   0.020740   0.001440  -0.000550  -0.004734   0.000002
    20  C    0.020740   8.686264   0.478030  -0.012565  -0.098696   0.000376
    21  O    0.001440   0.478030   8.158221   0.223842  -0.000860  -0.000025
    22  H   -0.000550  -0.012565   0.223842   0.394182   0.000109   0.000000
    23  C   -0.004734  -0.098696  -0.000860   0.000109   6.739935   0.287815
    24  O    0.000002   0.000376  -0.000025   0.000000   0.287815   8.285696
    25  H    0.000000   0.000350   0.000000   0.000000  -0.042211   0.203533
    26  C    0.002470   0.216913   0.036636  -0.010650  -1.824108  -0.110551
    27  O   -0.000013  -0.123495   0.003479  -0.000397  -0.094197   0.010862
    28  C    0.000325  -0.753475  -0.180014   0.046049  -0.088779  -0.007574
    29  O    0.000032  -0.136145   0.002968  -0.000152  -0.001063   0.000053
    30  H    0.000000   0.011219  -0.000865   0.000019   0.000270  -0.000013
    31  H    0.000003  -0.118325   0.004778  -0.000123   0.011378  -0.000148
    32  H   -0.000188   0.281837  -0.053117  -0.004775   0.014285  -0.000049
    33  H   -0.007980  -0.144045  -0.004047   0.000023   0.012493   0.000022
    34  H   -0.000816   0.009364  -0.000422   0.000018   0.063338   0.001602
    35  H    0.000010   0.015253  -0.000188  -0.000001   0.069812   0.003648
    36  H   -0.000001   0.001855  -0.000016   0.000000   0.595825  -0.065738
    37  H    0.000000  -0.001975  -0.000013   0.000000   0.425608  -0.041686
    38  H    0.000001  -0.000002   0.000000   0.000000  -0.000002   0.000000
    39  H    0.000105   0.000562   0.000001   0.000000  -0.000062   0.000000
    40  H    0.000022  -0.000056   0.000000   0.000000   0.000015   0.000000
    41  H    0.000012   0.001612   0.000007   0.000000  -0.000019   0.000000
    42  H   -0.000018   0.000117   0.000000   0.000000   0.000143   0.000000
    43  H   -0.000005   0.000048   0.000000   0.000000   0.000195   0.000000
    44  H   -0.000017   0.000316   0.000000   0.000000   0.005516  -0.000027
    45  H   -0.000689   0.004759   0.000037  -0.000001  -0.000564  -0.000023
             25         26         27         28         29         30
     1  O    0.000000   0.000070   0.000000   0.000002   0.000000   0.000000
     2  C    0.000049   0.064462   0.000277   0.000487  -0.000006   0.000000
     3  C   -0.000786  -0.096785   0.000663   0.000672   0.000055   0.000000
     4  O    0.000000   0.000531   0.000001   0.000007   0.000000   0.000000
     5  H    0.000000   0.000009   0.000000   0.000000   0.000000   0.000000
     6  C   -0.001361  -0.095167  -0.001490   0.003917   0.000250   0.000000
     7  O    0.000182  -0.000808  -0.000065   0.000303  -0.000002   0.000000
     8  H    0.000001   0.001940   0.000000   0.000003   0.000000   0.000000
     9  C   -0.000001  -0.005673  -0.000259  -0.001876   0.000001   0.000001
    10  O    0.000000  -0.000003   0.000010   0.000816   0.000000   0.000000
    11  H    0.000000  -0.000121   0.000000  -0.000003   0.000000   0.000000
    12  C   -0.000032   0.000481  -0.000588   0.004007   0.000032  -0.000001
    13  O    0.000002  -0.032499   0.000921   0.008082  -0.000027   0.000000
    14  C   -0.000794  -1.257310  -0.029957   0.011305   0.001608   0.000406
    15  O    0.000098   0.015012   0.005361   0.003477   0.000183   0.000002
    16  C    0.006656  -4.367957  -0.121863   0.931111   0.034120   0.009445
    17  C    0.002032   0.165881   0.092495  -0.445851   0.017635  -0.000893
    18  O    0.000001   0.006938  -0.000836   0.011116   0.000022   0.000008
    19  H    0.000000   0.002470  -0.000013   0.000325   0.000032   0.000000
    20  C    0.000350   0.216913  -0.123495  -0.753475  -0.136145   0.011219
    21  O    0.000000   0.036636   0.003479  -0.180014   0.002968  -0.000865
    22  H    0.000000  -0.010650  -0.000397   0.046049  -0.000152   0.000019
    23  C   -0.042211  -1.824108  -0.094197  -0.088779  -0.001063   0.000270
    24  O    0.203533  -0.110551   0.010862  -0.007574   0.000053  -0.000013
    25  H    0.454231   0.051677  -0.000712   0.000952  -0.000012   0.000000
    26  C    0.051677  14.345872   0.223622  -0.557332  -0.056585  -0.012432
    27  O   -0.000712   0.223622   8.406277   0.083053  -0.091444  -0.006696
    28  C    0.000952  -0.557332   0.083053   5.817706   0.359486   0.009683
    29  O   -0.000012  -0.056585  -0.091444   0.359486   8.184820   0.235992
    30  H    0.000000  -0.012432  -0.006696   0.009683   0.235992   0.412489
    31  H    0.000000  -0.063645  -0.062116   0.404404  -0.045316  -0.008994
    32  H    0.000000   0.013920   0.004360  -0.078200  -0.005921   0.000199
    33  H    0.000000  -0.042307   0.002098   0.009301  -0.000678   0.000008
    34  H   -0.000005  -0.155384   0.006048   0.011985  -0.001320   0.000005
    35  H    0.000014   0.060328  -0.037182   0.010293  -0.001197   0.000006
    36  H   -0.001069  -0.415308  -0.003817   0.004677  -0.000405   0.000003
    37  H   -0.012040  -0.132569   0.011506  -0.001046   0.000132   0.000000
    38  H    0.000000   0.000008   0.000000   0.000000   0.000000   0.000000
    39  H    0.000000   0.000016   0.000000  -0.000031   0.000000   0.000000
    40  H    0.000000   0.000063   0.000000   0.000005   0.000000   0.000000
    41  H    0.000000   0.000888   0.000000  -0.000010   0.000000   0.000000
    42  H    0.000000  -0.000320   0.000000  -0.000005   0.000000   0.000000
    43  H    0.000000  -0.000108   0.000000   0.000003   0.000000   0.000000
    44  H   -0.000001  -0.007778   0.000017   0.000009   0.000000   0.000000
    45  H    0.000001   0.023160   0.000247   0.001555  -0.000004   0.000000
             31         32         33         34         35         36
     1  O    0.000000   0.000000   0.000000  -0.000002   0.000000   0.000000
     2  C   -0.000016   0.000021  -0.001119  -0.000822  -0.000495  -0.000825
     3  C    0.000021  -0.000059   0.000552   0.003301   0.000463  -0.000555
     4  O    0.000000   0.000000   0.000000   0.000000   0.000000  -0.000001
     5  H    0.000000   0.000000   0.000000   0.000000   0.000000   0.000000
     6  C    0.000213   0.002441   0.009123  -0.024518  -0.004382   0.009078
     7  O    0.000000   0.000010   0.000018  -0.000387  -0.000034  -0.000438
     8  H    0.000000   0.000000   0.000000   0.000006   0.000000   0.000016
     9  C    0.000046   0.000275   0.005532   0.001401   0.000316   0.000184
    10  O    0.000000   0.000006   0.000109   0.000008   0.000001   0.000000
    11  H    0.000000   0.000000  -0.000001   0.000000   0.000000   0.000000
    12  C   -0.000006   0.000903   0.001640   0.008563   0.000231   0.001849
    13  O    0.000020   0.000352   0.003257   0.001486  -0.000360   0.000336
    14  C    0.006178   0.008265   0.060376   0.096678   0.058067   0.075057
    15  O   -0.000309  -0.002426  -0.015058  -0.083928   0.008814   0.001251
    16  C    0.125069   0.151917   0.131535   0.437834   0.105106   0.074567
    17  C   -0.024988  -0.104006   0.244478  -0.182846  -0.046088  -0.003981
    18  O   -0.000341   0.002669  -0.046587   0.001230  -0.000506   0.000000
    19  H    0.000003  -0.000188  -0.007980  -0.000816   0.000010  -0.000001
    20  C   -0.118325   0.281837  -0.144045   0.009364   0.015253   0.001855
    21  O    0.004778  -0.053117  -0.004047  -0.000422  -0.000188  -0.000016
    22  H   -0.000123  -0.004775   0.000023   0.000018  -0.000001   0.000000
    23  C    0.011378   0.014285   0.012493   0.063338   0.069812   0.595825
    24  O   -0.000148  -0.000049   0.000022   0.001602   0.003648  -0.065738
    25  H    0.000000   0.000000   0.000000  -0.000005   0.000014  -0.001069
    26  C   -0.063645   0.013920  -0.042307  -0.155384   0.060328  -0.415308
    27  O   -0.062116   0.004360   0.002098   0.006048  -0.037182  -0.003817
    28  C    0.404404  -0.078200   0.009301   0.011985   0.010293   0.004677
    29  O   -0.045316  -0.005921  -0.000678  -0.001320  -0.001197  -0.000405
    30  H   -0.008994   0.000199   0.000008   0.000005   0.000006   0.000003
    31  H    0.637768   0.005894   0.003112   0.000087   0.003296  -0.000011
    32  H    0.005894   0.603493   0.006679   0.003478  -0.000054  -0.000109
    33  H    0.003112   0.006679   0.623277   0.007951   0.001472  -0.000029
    34  H    0.000087   0.003478   0.007951   0.662838   0.006254   0.012130
    35  H    0.003296  -0.000054   0.001472   0.006254   0.596697   0.006383
    36  H   -0.000011  -0.000109  -0.000029   0.012130   0.006383   0.643252
    37  H    0.000022   0.000003  -0.000003  -0.001382  -0.004512  -0.056169
    38  H    0.000000   0.000000   0.000000   0.000000   0.000000   0.000000
    39  H    0.000000   0.000000  -0.000005   0.000000   0.000000   0.000000
    40  H    0.000000   0.000000   0.000000   0.000000   0.000000   0.000000
    41  H    0.000000   0.000000  -0.000008  -0.000022   0.000000   0.000000
    42  H    0.000000   0.000000   0.000000   0.000000   0.000000   0.000000
    43  H    0.000000   0.000000   0.000000   0.000000   0.000000   0.000000
    44  H    0.000000   0.000000  -0.000002   0.000063  -0.000003  -0.000029
    45  H    0.000000  -0.000032  -0.000050   0.007655  -0.000013  -0.000198
             37         38         39         40         41         42
     1  O    0.000000   0.244719   0.000254  -0.000974   0.007101  -0.062835
     2  C    0.000263   0.010109   0.005894   0.082386   0.035308   0.437469
     3  C    0.007600   0.009266  -0.008661  -0.002322  -0.077954  -0.139333
     4  O    0.000005  -0.000006  -0.000018  -0.000141  -0.000182  -0.001294
     5  H    0.000000  -0.001414  -0.000001  -0.000005  -0.000014  -0.000826
     6  C   -0.011481  -0.000570   0.010228  -0.004498   0.004239  -0.037615
     7  O   -0.000571  -0.000025  -0.000008  -0.000003  -0.000400  -0.000152
     8  H   -0.000033   0.000000   0.000000   0.000000  -0.000001  -0.000003
     9  C   -0.000317  -0.001672   0.496742   0.457582   0.058456   0.032000
    10  O   -0.000001   0.000392  -0.045689  -0.051087   0.003015   0.000889
    11  H    0.000000  -0.000012  -0.005876  -0.005069   0.000004  -0.000016
    12  C   -0.003378  -0.005513  -0.169869  -0.159234   0.180688  -0.108777
    13  O   -0.001803  -0.000989  -0.000749   0.001438  -0.049210   0.007306
    14  C   -0.052554  -0.004330   0.014129  -0.004470   0.072067   0.085517
    15  O   -0.008660   0.000001   0.000628  -0.000265  -0.002406  -0.001406
    16  C    0.104123   0.000206  -0.009042   0.003538  -0.002225  -0.000941
    17  C    0.034807  -0.000043   0.009431  -0.002977   0.016934   0.003309
    18  O   -0.000031  -0.000001   0.000321  -0.000206   0.000284   0.000038
    19  H    0.000000   0.000001   0.000105   0.000022   0.000012  -0.000018
    20  C   -0.001975  -0.000002   0.000562  -0.000056   0.001612   0.000117
    21  O   -0.000013   0.000000   0.000001   0.000000   0.000007   0.000000
    22  H    0.000000   0.000000   0.000000   0.000000   0.000000   0.000000
    23  C    0.425608  -0.000002  -0.000062   0.000015  -0.000019   0.000143
    24  O   -0.041686   0.000000   0.000000   0.000000   0.000000   0.000000
    25  H   -0.012040   0.000000   0.000000   0.000000   0.000000   0.000000
    26  C   -0.132569   0.000008   0.000016   0.000063   0.000888  -0.000320
    27  O    0.011506   0.000000   0.000000   0.000000   0.000000   0.000000
    28  C   -0.001046   0.000000  -0.000031   0.000005  -0.000010  -0.000005
    29  O    0.000132   0.000000   0.000000   0.000000   0.000000   0.000000
    30  H    0.000000   0.000000   0.000000   0.000000   0.000000   0.000000
    31  H    0.000022   0.000000   0.000000   0.000000   0.000000   0.000000
    32  H    0.000003   0.000000   0.000000   0.000000   0.000000   0.000000
    33  H   -0.000003   0.000000  -0.000005   0.000000  -0.000008   0.000000
    34  H   -0.001382   0.000000   0.000000   0.000000  -0.000022   0.000000
    35  H   -0.004512   0.000000   0.000000   0.000000   0.000000   0.000000
    36  H   -0.056169   0.000000   0.000000   0.000000   0.000000   0.000000
    37  H    0.606013   0.000000   0.000000   0.000000   0.000000   0.000000
    38  H    0.000000   0.385933   0.000242  -0.003120  -0.000039  -0.013732
    39  H    0.000000   0.000242   0.609363  -0.055735   0.005609   0.005571
    40  H    0.000000  -0.003120  -0.055735   0.597823  -0.003433  -0.001531
    41  H    0.000000  -0.000039   0.005609  -0.003433   0.584052   0.007070
    42  H    0.000000  -0.013732   0.005571  -0.001531   0.007070   0.645247
    43  H    0.000001  -0.000061   0.000000  -0.000038   0.003268   0.009221
    44  H    0.000371   0.000008  -0.000005  -0.000001   0.000023   0.002111
    45  H    0.000187   0.000001   0.000003   0.000006   0.004806   0.000021
             43         44         45
     1  O   -0.006342  -0.000726   0.000100
     2  C    0.040507   0.037480   0.028010
     3  C    0.359806   0.010061  -0.038580
     4  O   -0.066467  -0.001935  -0.000311
     5  H   -0.007003  -0.000049   0.000005
     6  C   -0.316400   0.153019  -0.171434
     7  O   -0.007197  -0.054271   0.003124
     8  H   -0.001139  -0.004077  -0.000101
     9  C    0.003853   0.001196  -0.000096
    10  O   -0.000013  -0.000015  -0.000274
    11  H    0.000000   0.000000  -0.000001
    12  C   -0.015785   0.012671  -0.007843
    13  O    0.001305   0.013998  -0.046604
    14  C    0.193277   0.029628   0.401295
    15  O   -0.000102  -0.014137  -0.058682
    16  C    0.008656   0.047081   0.080270
    17  C    0.003050   0.004467   0.026695
    18  O    0.000052   0.000045   0.000010
    19  H   -0.000005  -0.000017  -0.000689
    20  C    0.000048   0.000316   0.004759
    21  O    0.000000   0.000000   0.000037
    22  H    0.000000   0.000000  -0.000001
    23  C    0.000195   0.005516  -0.000564
    24  O    0.000000  -0.000027  -0.000023
    25  H    0.000000  -0.000001   0.000001
    26  C   -0.000108  -0.007778   0.023160
    27  O    0.000000   0.000017   0.000247
    28  C    0.000003   0.000009   0.001555
    29  O    0.000000   0.000000  -0.000004
    30  H    0.000000   0.000000   0.000000
    31  H    0.000000   0.000000   0.000000
    32  H    0.000000   0.000000  -0.000032
    33  H    0.000000  -0.000002  -0.000050
    34  H    0.000000   0.000063   0.007655
    35  H    0.000000  -0.000003  -0.000013
    36  H    0.000000  -0.000029  -0.000198
    37  H    0.000001   0.000371   0.000187
    38  H   -0.000061   0.000008   0.000001
    39  H    0.000000  -0.000005   0.000003
    40  H   -0.000038  -0.000001   0.000006
    41  H    0.003268   0.000023   0.004806
    42  H    0.009221   0.002111   0.000021
    43  H    0.640791   0.008103   0.001703
    44  H    0.008103   0.595468   0.004961
    45  H    0.001703   0.004961   0.578442
 Mulliken atomic charges:
              1
     1  O   -0.544864
     2  C   -0.246226
     3  C    0.120112
     4  O   -0.514095
     5  H    0.361964
     6  C    0.385574
     7  O   -0.561013
     8  H    0.384442
     9  C   -0.145821
    10  O   -0.540696
    11  H    0.349762
    12  C    0.146145
    13  O   -0.396032
    14  C   -0.011602
    15  O   -0.306761
    16  C   -0.280224
    17  C    0.298426
    18  O   -0.564987
    19  H    0.432536
    20  C   -0.171664
    21  O   -0.485005
    22  H    0.374880
    23  C   -0.228197
    24  O   -0.508976
    25  H    0.339246
    26  C    0.014504
    27  O   -0.276170
    28  C    0.379408
    29  O   -0.497114
    30  H    0.350140
    31  H    0.122048
    32  H    0.147932
    33  H    0.138863
    34  H    0.108536
    35  H    0.148553
    36  H    0.122235
    37  H    0.139582
    38  H    0.380645
    39  H    0.136651
    40  H    0.152286
    41  H    0.150480
    42  H    0.132772
    43  H    0.146820
    44  H    0.156462
    45  H    0.158447
 Sum of Mulliken atomic charges =   0.00000
 Mulliken charges with hydrogens summed into heavy atoms:
              1
     1  O   -0.164219
     2  C   -0.113454
     3  C    0.266932
     4  O   -0.152131
     6  C    0.542036
     7  O   -0.176571
     9  C    0.143116
    10  O   -0.190934
    12  C    0.296625
    13  O   -0.396032
    14  C    0.146845
    15  O   -0.306761
    16  C   -0.171688
    17  C    0.437288
    18  O   -0.132451
    20  C   -0.023732
    21  O   -0.110126
    23  C    0.033621
    24  O   -0.169730
    26  C    0.163056
    27  O   -0.276170
    28  C    0.501456
    29  O   -0.146974
 Sum of Mulliken charges with hydrogens summed into heavy atoms =   0.00000
 APT atomic charges:
              1
     1  O   -0.645088
     2  C    0.414075
     3  C    0.370751
     4  O   -0.648504
     5  H    0.269790
     6  C    0.406543
     7  O   -0.655709
     8  H    0.290823
     9  C    0.430193
    10  O   -0.589513
    11  H    0.232637
    12  C    0.367210
    13  O   -0.702842
    14  C    0.852148
    15  O   -0.844428
    16  C    0.445418
    17  C    0.333542
    18  O   -0.714042
    19  H    0.386805
    20  C    0.391326
    21  O   -0.625012
    22  H    0.294028
    23  C    0.514792
    24  O   -0.647273
    25  H    0.235870
    26  C    0.376448
    27  O   -0.703756
    28  C    0.903804
    29  O   -0.665604
    30  H    0.264293
    31  H   -0.084471
    32  H   -0.039867
    33  H   -0.060427
    34  H   -0.030473
    35  H   -0.043417
    36  H   -0.049311
    37  H   -0.033532
    38  H    0.266527
    39  H   -0.045071
    40  H   -0.014137
    41  H   -0.039624
    42  H   -0.053948
    43  H   -0.059559
    44  H   -0.021412
    45  H   -0.030007
 Sum of APT charges=   0.00000
 APT Atomic charges with hydrogens summed into heavy atoms:
              1
[...]
 5074,-0.00002815,-0.00012034,-0.00005228,-0.01556402,-0.00111802,0.003
 53788,0.00229534,0.00046693,-0.00015994,-0.00017257,-0.00002437,-0.000
 10202,0.00009900,0.00001904,0.00027325,0.00003922,0.00002927,-0.000027
 57,-0.00003894,0.00000725,-0.00002586,0.00007581,-0.00001792,0.0000050
 7,-0.00009066,0.00002313,-0.00000302,0.00000381,0.00000462,-0.00000387
 ,0.00000745,-0.00001527,0.00000447,-0.00000794,0.00000783,-0.00000358,
 -0.00001732,-0.00001454,-0.00001319,0.00002348,0.00001292,0.00001410,-
 0.00001343,-0.00000149,-0.00000303,-0.00003536,0.00000195,-0.00000114,
 0.00001794,-0.00000682,0.00001539,-0.00001565,0.00000976,-0.00001244,0
 .00000422,-0.00000429,0.00000781,-0.00000210,0.00000273,-0.00000090,0.
 00000476,-0.00000243,0.00000271,0.00000500,-0.00000233,-0.00000414,0.0
 0001956,-0.00000657,0.00001507,0.00000927,-0.00000645,-0.00000972,0.00
 001032,-0.00000334,0.00000799,0.00001369,0.00000144,-0.00000583,-0.000
 01306,0.00000191,-0.00000018,0.00193283,-0.00037187,-0.00078857,0.0011
 5784,-0.00079023,-0.00015252,-0.00014611,0.00001098,-0.00000059,0.0003
 5319,-0.00138550,0.00154105,0.36943007,-0.01131753,0.00167220,-0.00808
 542,0.05059283,-0.04932703,-0.00148450,0.03957310,-0.01471199,-0.00650
 390,-0.00192629,0.00539178,-0.00014776,0.00048242,-0.00035427,0.000180
 59,0.00049965,0.00094863,0.00128543,-0.00065470,-0.00035016,-0.0007289
 6,0.00014441,0.00007011,0.00008774,-0.00281112,-0.00106700,0.00111329,
 0.00050900,0.00038915,-0.00040646,0.00004347,-0.00002643,-0.00008330,-
 0.02652022,0.00102364,0.00561980,0.00126307,0.00093117,-0.00193108,0.0
 0011991,-0.00051966,-0.00001297,-0.00000262,0.00007996,-0.00004734,-0.
 00003545,0.00001363,0.00004387,-0.00000662,-0.00002142,-0.00001697,0.0
 0008676,0.00003004,-0.00002854,-0.00015612,-0.00003941,-0.00000321,0.0
 0000164,0.00000057,0.00000912,0.00000658,0.00000820,-0.00000800,-0.000
 00585,0.00000031,0.00000078,0.00000913,0.00001711,0.00001561,-0.000016
 80,-0.00001280,-0.00001627,0.00000996,0.00000324,0.00000501,0.00000691
 ,0.00000086,0.00000362,-0.00000258,0.00000856,-0.00001506,-0.00000276,
 -0.00000927,0.00001259,0.00000342,0.00000213,-0.00000976,0.00000006,-0
 .00000081,0.00000219,0.00000029,0.00000186,-0.00000022,-0.00000059,-0.
 00000087,-0.00000181,0.00000808,0.00000368,0.00000836,-0.00000324,-0.0
 0000496,0.00000729,-0.00000283,0.00000400,-0.00000341,-0.00000930,-0.0
 0000239,0.00000485,0.00001601,-0.00000128,-0.00000029,-0.00151967,0.00
 166249,-0.00018782,0.00031327,-0.00025831,0.00047903,0.00000187,0.0000
 6212,-0.00015487,-0.00116798,-0.00275779,0.00318178,-0.04758245,0.0642
 2240,-0.04667410,-0.00577086,-0.02496067,0.03154512,-0.00245219,-0.041
 25946,0.01272159,-0.00351190,0.00163490,-0.00175525,0.00027915,0.00059
 858,-0.00022319,-0.00012052,-0.00015299,0.00037995,0.00047398,0.000520
 36,-0.00033618,0.00005161,-0.00011735,0.00004904,0.00004898,0.00009009
 ,0.00063681,-0.00089187,0.00034602,-0.00019985,-0.00026092,0.00006901,
 -0.00009543,-0.00002479,0.00006126,0.02673350,0.00007969,-0.00387827,-
 0.00121272,-0.00013390,0.00270725,0.00035210,-0.00044086,-0.00025560,-
 0.00000851,0.00005163,-0.00017440,-0.00002817,-0.00001057,-0.00003116,
 0.00005467,0.00001941,0.00003972,-0.00013067,-0.00003296,-0.00002295,0
 .00019705,0.00005819,0.00000871,-0.00001026,-0.00000833,0.00000003,-0.
 00000185,0.00000987,-0.00000966,0.00000068,-0.00000831,0.00000975,0.00
 001239,0.00001327,0.00000571,-0.00001457,-0.00001061,-0.00000946,0.000
 00678,0.00000088,0.00000231,0.00002125,-0.00000345,0.00000468,-0.00001
 150,0.00000219,-0.00001227,0.00001191,-0.00000024,0.00001616,-0.000000
 99,0.00000090,-0.00001357,0.00000107,-0.00000200,0.00000161,-0.0000033
 5,0.00000096,-0.00000257,-0.00000312,0.00000152,0.00000552,-0.00002083
 ,0.00000255,-0.00001689,-0.00000806,0.00000521,0.00001318,-0.00000683,
 0.00000222,-0.00000710,-0.00000714,-0.00000049,0.00000142,0.00000667,-
 0.00000302,-0.00000109,-0.00426444,0.00104014,0.00217764,-0.00034159,0
 .00047530,0.00010256,-0.00026969,0.00028031,0.00013772,0.00071057,0.00
 296513,-0.00336799,-0.01720124,0.01057251,0.06624956,0.00118350,0.0002
 2519,0.00098911,-0.00755955,0.00627643,-0.00072194,-0.32358486,0.06394
 943,-0.04150929,-0.02325830,-0.01101994,0.01526433,0.00010384,-0.00061
 170,-0.00011199,-0.01200973,0.00449260,-0.00623255,0.00311446,0.000337
 98,0.00321658,-0.00023969,-0.00025167,-0.00029264,0.00040909,0.0000909
 4,-0.00022355,-0.00000722,0.00020884,0.00007190,0.00001064,0.00004204,
 -0.00002016,-0.00015335,0.00032861,0.00017060,0.00025603,0.00015364,0.
 00005918,-0.00083828,-0.00126892,0.00034572,0.00026244,0.00028735,-0.0
 0062294,-0.00015152,0.00010828,0.00011604,0.00000187,-0.00003695,-0.00
 010398,0.00007093,0.00000971,0.00002603,-0.00007302,-0.00002084,0.0000
 2995,-0.00001998,0.00001350,0.00002630,0.00002640,0.00002273,-0.000012
 97,-0.00001443,-0.00000054,-0.00000232,-0.00003254,0.00000225,0.000030
 30,0.00002949,-0.00001760,-0.00001475,-0.00002367,0.00000467,0.,0.0000
 1210,0.00001483,0.00002087,0.00001700,0.00000921,-0.00003724,-0.000015
 97,-0.00002171,0.00001894,0.00001139,0.00000215,-0.00001609,-0.0000008
 6,-0.00000081,0.00000333,0.00000359,0.00000109,0.00000115,0.00000490,-
 0.00000266,-0.00000535,0.00000828,-0.00000664,0.00000955,0.00002444,-0
 .00000694,-0.00002654,0.00000675,-0.00000824,0.00000647,0.00001843,0.0
 0000611,-0.00001216,-0.00001051,0.00002026,0.00000166,0.00018083,-0.00
 024003,-0.00010739,0.00002321,-0.00021930,-0.00005205,0.00000820,-0.00
 003611,0.00002368,0.00042419,0.00059298,-0.00035792,0.00108620,0.00046
 983,-0.00027601,0.35979588,-0.00314509,0.00287613,0.00047561,0.0401049
 0,-0.01663297,0.00161083,0.07065644,-0.05278304,0.00751535,-0.03623871
 ,-0.00400086,0.01245054,-0.00005094,0.00083752,-0.00116930,-0.00537658
 ,0.00253975,-0.00434686,-0.00113124,0.00056440,0.00025873,-0.00053287,
 -0.00033587,-0.00035379,0.00018407,0.00014892,-0.00024993,-0.00029356,
 -0.00017783,0.00006278,0.00003069,0.00001693,0.00001041,0.00094889,0.0
 0240845,-0.00065420,-0.00036572,-0.00035697,0.00025799,0.00042868,-0.0
 0015541,-0.00016632,-0.00005699,0.00010818,-0.00016138,-0.00001548,0.0
 0002172,0.00001645,0.00000362,-0.00001215,-0.00002927,-0.00003648,0.00
 000727,0.00003549,0.00006367,0.00001273,-0.00005334,0.00000366,0.00000
 519,0.00000231,-0.00000363,0.00000283,0.00000143,0.00000583,-0.0000001
 5,-0.00000289,-0.00001022,-0.00000169,0.00000572,0.00000535,-0.0000020
 6,-0.00000129,-0.00000599,-0.00000008,-0.00000336,0.00000986,0.0000055
 9,-0.00000063,-0.00000304,-0.00000399,0.00000028,0.00000336,0.00000100
 ,-0.00000088,-0.00000263,-0.00000024,0.00000465,0.00000010,0.00000030,
 -0.00000145,-0.00000115,-0.00000014,-0.00000088,-0.00000103,0.00000075
 ,0.00000136,-0.00000440,0.00000057,-0.00000476,-0.00000021,0.00000307,
 0.00000552,-0.00000137,-0.00000237,-0.00000183,0.00000444,0.00000366,-
 0.00000250,-0.00000246,0.00000597,0.00000121,0.00000885,0.00042549,0.0
 0052589,-0.00032567,0.00009899,0.00004066,0.00003573,0.00000863,-0.000
 00003,-0.00082996,-0.00028599,0.00046834,0.00098371,-0.00677150,-0.002
 53124,-0.06451475,0.07148828,-0.00030750,0.00206426,0.00135378,0.01145
 497,-0.00680674,0.00340754,-0.04287248,0.00462110,-0.04461645,0.034685
 97,0.00991531,-0.00974577,0.00198040,0.00007556,0.00087030,-0.03857369
 ,0.00490211,-0.01404348,0.00142991,0.00201827,0.00409616,-0.00022417,-
 0.00057792,-0.00043026,0.00002798,-0.00001433,0.00005983,-0.00004297,-
 0.00007306,-0.00000257,-0.00000015,-0.00001445,0.00000536,-0.00064406,
 0.00000692,-0.00023972,0.00022722,0.00066505,-0.00061516,-0.00088635,-
 0.00099194,0.00174676,0.00029347,0.00022959,-0.00048567,-0.00004821,0.
 00009567,0.00011885,0.00002057,-0.00003338,-0.00008094,0.00006035,0.00
 002628,-0.00000360,-0.00007135,-0.00003819,0.00003866,-0.00002493,0.00
 000828,0.00002339,0.00002372,0.00003112,-0.00001599,-0.00001057,-0.000
 00469,0.00000132,-0.00005023,0.00002371,0.00010514,0.00002065,-0.00004
 678,-0.00005317,-0.00002202,0.00001742,0.00000793,0.00000849,-0.000014
 73,0.00003566,0.00001915,0.00003340,-0.00005279,-0.00001353,-0.0000334
 0,0.00003120,0.00001463,0.00000542,-0.00003012,-0.00000050,-0.00000231
 ,0.00000582,0.00000123,0.00000347,-0.00000019,0.00000287,-0.00000096,-
 0.00000162,0.00000142,-0.00000266,0.00000502,0.00002359,-0.00000116,-0
 .00003964,0.00000551,-0.00000778,0.00000465,0.00001929,0.00000578,-0.0
 0001931,0.00000375,0.00003694,0.00000922,0.00012654,0.00029013,0.00003
 294,-0.00005013,0.00002123,-0.00002013,0.00000438,0.00000170,0.0000100
 2,0.00002262,0.00010161,0.00010855,0.00107120,-0.00217926,-0.00036974,
 0.03220108,-0.01297801,0.06526680,0.00009240,-0.00021432,-0.00004862,-
 0.00044575,0.00066641,-0.00049568,-0.00572909,-0.00340447,-0.00384917,
 0.00110128,0.00043094,-0.00027185,0.00014102,0.00010924,0.00016928,-0.
 34001650,-0.05737137,-0.04363640,-0.01830653,0.01324739,0.00357536,-0.
 00009607,-0.00024331,0.00030279,-0.00004032,0.00000828,0.00001298,0.00
 003561,0.00000183,0.00000122,-0.00001123,-0.00000493,-0.00000897,0.000
 02561,0.00000548,0.00011006,0.00094952,-0.00070623,-0.00015373,-0.0108
 8997,-0.00339069,-0.00003786,0.00133068,0.00122187,-0.00190565,-0.0000
 1169,0.00041118,0.00032681,0.00008416,-0.00006100,-0.00030703,0.000075
 45,-0.00002347,0.00004501,-0.00003070,-0.00001090,-0.00002111,-0.00003
 269,0.00004919,0.00007283,0.00004922,0.00006401,-0.00004205,-0.0000182
 2,-0.00000446,-0.00000617,-0.00013538,0.00002679,0.00022722,0.00005537
 ,-0.00008395,-0.00009836,-0.00005415,0.00002892,0.00000899,0.00002094,
 -0.00004298,0.00007243,0.00003261,0.00005618,-0.00007596,-0.00002550,-
 0.00004713,0.00005174,0.00002282,0.00000541,-0.00004158,-0.00000140,-0
 .00000191,0.00000748,0.00000301,0.00000476,-0.00000071,0.00000729,-0.0
 0000483,-0.00000601,0.00000454,-0.00001632,0.00001500,0.00004903,0.000
 00853,-0.00016653,0.00000848,-0.00001877,0.00000613,0.00005730,0.00002
 000,-0.00005642,0.00003017,0.00008961,0.00004569,-0.00006084,-0.000039
 63,-0.00001235,0.00002405,-0.00002295,-0.00000400,0.00000852,0.0000044
 9,0.00000344,0.00005627,0.00006664,0.00001682,0.00021881,-0.00036834,-
 0.00021594,0.00060533,-0.00046314,-0.00019871,0.37067864,0.00018124,0.
 00003205,-0.00001289,-0.00041448,0.00048227,0.00075418,-0.00909719,0.0
 0243625,-0.00078287,0.00134309,0.00039065,-0.00043226,-0.00005120,-0.0
 0009414,0.00011702,-0.06057331,-0.05233986,-0.00481899,0.04172579,-0.0
 1108269,-0.00391337,0.00133710,0.00144863,0.00040277,-0.00007965,0.000
 05327,0.00005678,0.00003124,-0.00005765,-0.00000333,-0.00001063,-0.000
 00780,-0.00000495,-0.00008354,-0.00005838,-0.00003477,0.00125530,0.000
 84737,-0.00001630,-0.02815428,-0.00426735,-0.00175891,0.00097028,0.001
 33606,-0.00175412,0.00007392,0.00040123,0.00020736,-0.00006961,-0.0000
 9693,-0.00037939,0.00014959,-0.00018496,0.00019956,-0.00014540,0.00013
 610,0.00004748,0.00000585,0.00003393,0.00003618,0.00001988,0.00003151,
 0.00000210,0.00000477,0.00001077,-0.00002342,0.00003890,0.00001748,0.0
 0000954,-0.00003604,-0.00000656,-0.00001503,0.00004382,0.00000086,-0.0
 0001390,0.00000057,-0.00000533,0.00005091,0.00001482,0.00001990,-0.000
 02999,-0.00002228,-0.00003870,0.00000590,0.00000720,0.00001071,0.00000
 588,-0.00000110,-0.00000157,0.00000192,0.00000159,0.00000268,0.0000023
 6,0.00000464,-0.00000212,-0.00000850,0.00002473,-0.00001258,0.00002889
 ,0.00014260,-0.00008999,-0.00013086,0.00001251,0.00000982,0.00002551,-
 0.00002508,-0.00002280,0.00002572,0.00002669,0.00005325,0.00001356,0.0
 0000127,0.00000662,-0.00002611,0.00003122,-0.00004662,-0.00001467,0.00
 000742,-0.00001103,-0.00001126,0.00011408,0.00008275,0.00003213,0.0001
 9602,-0.00023411,-0.00029732,0.00028543,-0.00006805,-0.00175572,0.0507
 3587,0.06397369,0.00062861,-0.00043732,-0.00068733,-0.00148161,0.00236
 922,0.00063015,-0.03703247,-0.00909443,-0.00986203,0.00256162,0.000548
 29,0.00364663,0.00006192,-0.00022499,0.00064226,-0.04682357,-0.0059454
 4,-0.04857537,0.01422266,-0.00498398,0.00252986,-0.00027519,0.00048346
 ,0.00023129,-0.00007978,0.00003206,0.00008967,0.00001416,-0.00007761,0
 .00002870,-0.00000781,-0.00000710,0.00000740,-0.00025069,-0.00006886,-
 0.00070462,-0.00081448,-0.00016893,0.00018007,0.02334947,0.00692378,0.
 00160300,-0.00009104,-0.00144363,0.00160306,0.00024826,-0.00019120,-0.
 00028884,0.00005509,0.00010107,0.00030469,-0.00012690,0.00012490,-0.00
 019532,0.00009276,-0.00013097,0.00000162,0.00001284,-0.00002349,-0.000
 02920,-0.00003302,-0.00005092,0.,0.00000240,-0.00000736,0.00001653,0.0
 0018482,-0.00001803,-0.00034825,-0.00005764,0.00008769,0.00016960,0.00
 004721,-0.00005308,-0.00004242,-0.00011204,0.00007787,-0.00002302,-0.0
 0004619,-0.00013363,0.00012546,0.00006028,0.00012528,-0.00003810,-0.00
 003651,-0.00003105,0.00004258,0.00000136,0.00000655,-0.00001174,-0.000
 00381,-0.00001492,-0.00000050,-0.00000452,0.00000116,0.00000637,-0.000
 02202,0.00000784,-0.00001724,-0.00015583,0.00007648,0.00010617,-0.0000
 2056,0.00000515,-0.00003763,-0.00005287,-0.00001855,0.00006213,-0.0000
 2051,-0.00013220,-0.00007427,-0.00004220,-0.00023244,-0.00009733,0.000
 02260,-0.00003001,-0.00000322,-0.00000179,0.00004781,0.00001037,0.0000
 7406,0.00001734,-0.00005859,0.00058390,-0.00055459,-0.00024584,-0.0014
 8994,-0.00114653,-0.00612689,0.04620701,0.01162482,0.05770704,0.000042
 01,-0.00002132,0.00009455,-0.00006736,0.00017726,-0.00001890,-0.000641
 04,-0.00048787,-0.00006012,0.00020735,0.00002967,0.00011390,-0.0000591
 1,-0.00002082,0.00005283,-0.00516895,0.00106762,0.00266443,0.00099578,
 0.00017026,-0.00054936,0.00027512,-0.00003422,-0.00020295,0.00035067,-
 0.00003871,0.00014016,0.00000964,0.00003631,0.00000652,-0.00000030,-0.
 00000656,-0.00000369,0.00050695,-0.00026364,0.00025254,-0.00184323,0.0
 0706163,0.00240302,-0.34382443,-0.00582547,0.07875385,-0.02037503,0.00
 298233,-0.00476463,-0.00006432,-0.00071413,0.00375981,0.00001120,0.000
 08537,-0.00070777,0.00042028,-0.00090936,0.00018166,-0.00074103,0.0005
 2360,0.00050182,0.00004931,0.00006768,0.00010480,0.00003193,0.00005609
 ,-0.00002187,0.00000399,0.00001463,-0.00003580,-0.00021743,-0.00008935
 ,0.00005120,0.00011787,0.00000859,-0.00000377,-0.00003506,0.00000317,-
 0.00000177,0.00048731,-0.00019941,0.00000589,0.00000807,-0.00003119,-0
 .00014743,-0.00004951,-0.00005390,0.00002823,0.00001876,0.00000944,-0.
 00000321,-0.00000315,0.00000099,0.00000447,0.00000813,0.00000180,0.000
 00299,0.00002007,-0.00000165,-0.00002593,0.00000159,-0.00017226,0.0001
 0809,0.00139344,-0.00020755,-0.00118135,0.00013502,0.00004458,0.000255
 82,0.00011735,-0.00003111,-0.00009445,-0.00004942,0.00012106,-0.000003
 65,0.00000184,0.00000136,0.00000256,0.00000849,-0.00014682,-0.00011789
 ,-0.00000610,0.00005799,0.00002608,0.00016200,0.00043333,0.00092935,0.
 00003908,-0.00004859,-0.00011966,0.00029407,-0.00006854,0.00029060,0.0
 0013792,-0.00002361,0.00065201,0.36729022,0.00004338,0.00035097,-0.000
 23178,-0.00041245,-0.00085182,-0.00015104,-0.00125313,-0.00081275,-0.0
 0144166,0.00041153,0.00003297,0.00089278,-0.00000802,-0.00016765,0.000
 13847,-0.02336260,0.00185696,0.00828417,0.00067700,0.00289262,-0.00059
 161,0.00033358,0.00034359,-0.00029713,-0.00000251,0.00002502,-0.000363
 90,-0.00011275,-0.00013425,0.00007757,0.00000565,0.00003228,0.00000521
 ,0.00299158,0.00143905,0.00418703,0.03329238,-0.01288665,-0.01498832,-
 0.01131208,-0.04387238,0.00406496,0.00205739,0.00301264,0.00155058,0.0
 0050631,0.00002017,0.00044016,0.00066530,0.00008593,0.00062939,-0.0008
 0701,0.00065642,-0.00054835,0.00171393,-0.00092109,-0.00066080,-0.0000
 7765,-0.00000613,0.00001471,0.00002345,0.00004221,-0.00010326,-0.00004
 360,-0.00006344,0.00006308,-0.00016052,0.00005304,-0.00004460,0.000047
 13,-0.00004419,0.00001961,-0.00002618,-0.00000752,-0.00000230,0.000004
 39,-0.00005141,0.00003704,-0.00001508,-0.00004105,0.00000058,0.0000578
 9,0.00008363,0.00007536,-0.00000288,-0.00002626,-0.00007551,0.00000328
 ,-0.00000218,0.00000304,-0.00000582,-0.00000705,-0.00001145,-0.0000032
 8,0.00000748,0.00002712,-0.00017104,-0.00003117,-0.00010283,0.00036430
 ,0.00025093,0.00029639,-0.00000289,-0.00002772,-0.00000708,0.00001723,
 -0.00001402,-0.00008107,-0.00000720,-0.00000584,0.00003649,-0.00000433
 ,-0.00000952,-0.00000704,-0.00019858,0.00010795,0.00007171,-0.00012268
 ,-0.00016950,-0.00005886,-0.00110432,0.00031827,-0.00022787,-0.0000517
 3,-0.00007639,0.00008072,0.00032924,-0.00000099,0.00037719,-0.00071793
 ,-0.00308864,0.00256052,-0.00355869,0.05170752,-0.00002155,-0.00008460
 ,-0.00027997,-0.00011858,0.00015445,-0.00012908,0.00056798,-0.00037176
 ,0.00149052,-0.00028912,0.00011323,-0.00027207,-0.00002218,-0.00000384
 ,-0.00005578,0.02077193,0.00180911,-0.00011286,-0.00134407,-0.00097589
 ,0.00059952,-0.00027048,-0.00011769,0.00012593,-0.00012795,-0.00010069
 ,-0.00011907,-0.00004539,-0.00008305,0.00001696,0.00000316,0.00001041,
 -0.00000141,0.00267872,0.00081160,0.00294828,0.01431107,-0.00847053,-0
 .00428305,0.08591018,0.00419150,-0.06969606,-0.03345568,0.00439302,-0.
 00535312,-0.00537403,-0.00009657,0.00464959,-0.00016997,0.00006878,-0.
 00073355,0.00009083,-0.00013612,0.00036800,0.00010188,0.00054930,-0.00
 032662,-0.00001473,0.00007770,0.00007308,0.00006056,0.00007208,0.00000
 174,0.00000582,0.00002067,-0.00003339,-0.00017779,0.00009298,0.0002026
 8,0.00006603,-0.00007168,-0.00011334,-0.00000897,0.00002526,0.00000060
 ,0.00000213,-0.00017629,-0.00004263,0.00015941,0.00005554,-0.00024116,
 -0.00009157,-0.00017720,0.00005629,0.00004582,0.00004061,-0.00003842,-
 0.00000269,-0.00000671,0.00001373,0.00000731,0.00001595,0.00000805,0.0
 0003237,0.00000243,-0.00004179,0.00007385,-0.00016694,0.00000686,0.000
 77929,-0.00056498,-0.00057973,0.00025112,0.00004308,0.00005042,0.00008
 371,-0.00005781,-0.00005778,0.00007031,0.00015498,-0.00007524,-0.00003
 035,-0.00000318,0.00000554,-0.00014776,0.00010870,0.00002351,-0.000050
 80,-0.00004713,-0.00002572,-0.00087238,0.00016295,-0.00000061,-0.00011
 407,-0.00002169,0.00010527,-0.00038299,0.00010915,-0.00035169,0.000382
 60,0.00258831,-0.00227689,-0.08332298,-0.00393745,0.07449446\\0.024708
 16,-0.03143694,-0.00242075,-0.04585146,0.01490274,-0.02311939,0.054831
 74,0.00294908,0.04687445,-0.00833718,-0.00070373,0.00938393,-0.0100834
 4,-0.00600125,-0.02841291,-0.02417052,-0.02617114,0.00770587,0.0110869
 9,-0.01357983,-0.00029981,-0.00496961,0.03607972,-0.00406207,0.0188562
 2,0.01351000,-0.02666275,-0.01391073,0.02526172,0.01160573,0.01415088,
 -0.02384059,-0.01394726,-0.00680304,0.02118167,0.01822032,0.02831294,0
 .00357838,0.06275324,-0.04866874,0.04451865,-0.02318256,0.00058333,-0.
 03902033,-0.02948214,0.01939565,0.01150387,-0.00183675,-0.01364930,0.0
 0692162,0.02348454,-0.00628482,-0.01583778,0.00863780,0.01104367,0.012
 98106,-0.01628201,0.00959926,0.00000428,0.02866624,0.00406002,0.000005
 61,0.00264154,-0.01994619,-0.00997283,-0.01962700,-0.01466152,-0.03320
 731,0.00339143,-0.01048444,-0.01311593,0.00463357,-0.00041363,0.026663
 87,-0.01874850,0.01988285,-0.04968449,-0.01169244,-0.00251823,0.032198
 16,0.02801234,0.02741675,-0.01094422,-0.04736544,-0.00067491,0.0168683
 3,0.01621465,-0.00488138,-0.00191811,-0.00307149,-0.01855357,0.0102451
 1,-0.00170809,0.01695763,-0.01310219,-0.00445069,-0.01985097,0.0144318
 2,-0.00131015,0.01743556,-0.00670176,-0.00213237,-0.01725001,0.0086410
 6,-0.00226637,0.01760984,-0.00139602,-0.00123545,-0.00594308,-0.000937
 65,0.01669569,-0.00341005,-0.00244950,0.00083359,-0.02094183,-0.002045
 48,-0.00267509,0.00470762,0.00046528,0.01284385,0.02166353,0.00240799,
 -0.00188656,-0.02420030,0.00253491,-0.00316846,0.02738190,-0.00506053,
 -0.00211550,-0.02116001,0.00118956,-0.00556796,0.01793440,-0.00191690,
 -0.00386881\\\@


 MEN HAVE BECOME THE TOOLS OF THEIR TOOLS... THOREAU   
 Job cpu time:  0 days 13 hours  1 minutes 51.8 seconds.
 File lengths (MBytes):  RWF=   1326 Int=      0 D2E=      0 Chk=     19 Scr=      1
 Normal termination of Gaussian 09 at Thu Jan 21 18:10:15 2016.
Gaussian '09 finished on node023 at Thu Jan 21 18:10:15 EST 2016.
