Gaussian '09 started on node018 at Wed Jan 20 15:58:13 EST 2016.
 Entering Gaussian System, Link 0=/usr/local/gaussian/g09/g09
 Initial command:
 /usr/local/gaussian/g09/l1.exe /home/srmcgrat/thesis/gaussian/cellobiose/300/5000/gaussian20856/Gau-20892.inp -scrdir=/home/srmcgrat/thesis/gaussian/cellobiose/300/5000/gaussian20856/
 Entering Link 1 = /usr/local/gaussian/g09/l1.exe PID=     20894.
  
 Copyright (c) 1988,1990,1992,1993,1995,1998,2003,2009,2010,
            Gaussian, Inc.  All Rights Reserved.
  
 This is part of the Gaussian(R) 09 program.  It is based on
 the Gaussian(R) 03 system (copyright 2003, Gaussian, Inc.),
 the Gaussian(R) 98 system (copyright 1998, Gaussian, Inc.),
 the Gaussian(R) 94 system (copyright 1995, Gaussian, Inc.),
 the Gaussian 92(TM) system (copyright 1992, Gaussian, Inc.),
 the Gaussian 90(TM) system (copyright 1990, Gaussian, Inc.),
 the Gaussian 88(TM) system (copyright 1988, Gaussian, Inc.),
 the Gaussian 86(TM) system (copyright 1986, Carnegie Mellon
 University), and the Gaussian 82(TM) system (copyright 1983,
 Carnegie Mellon University). Gaussian is a federally registered
 trademark of Gaussian, Inc.
  
 This software contains proprietary and confidential information,
 including trade secrets, belonging to Gaussian, Inc.
  
 This software is provided under written license and may be
 used, copied, transmitted, or stored only in accord with that
 written license.
  
 The following legend is applicable only to US Government
 contracts under FAR:
  
                    RESTRICTED RIGHTS LEGEND
  
 Use, reproduction and disclosure by the US Government is
 subject to restrictions as set forth in subparagraphs (a)
 and (c) of the Commercial Computer Software - Restricted
 Rights clause in FAR 52.227-19.
  
 Gaussian, Inc.
 340 Quinnipiac St., Bldg. 40, Wallingford CT 06492
  
  
 ---------------------------------------------------------------
 Warning -- This program may not be used in any manner that
 competes with the business of Gaussian, Inc. or will provide
 assistance to any competitor of Gaussian, Inc.  The licensee
 of this program is prohibited from giving any competitor of
 Gaussian, Inc. access to this program.  By using this program,
 the user acknowledges that Gaussian, Inc. is engaged in the
 business of creating and licensing software in the field of
 computational chemistry and represents and warrants to the
 licensee that it is not a competitor of Gaussian, Inc. and that
 it will not use this program in any manner prohibited above.
 ---------------------------------------------------------------
  

 Cite this work as:
 Gaussian 09, Revision B.01,
 M. J. Frisch, G. W. Trucks, H. B. Schlegel, G. E. Scuseria, 
 M. A. Robb, J. R. Cheeseman, G. Scalmani, V. Barone, B. Mennucci, 
 G. A. Petersson, H. Nakatsuji, M. Caricato, X. Li, H. P. Hratchian, 
 A. F. Izmaylov, J. Bloino, G. Zheng, J. L. Sonnenberg, M. Hada, 
 M. Ehara, K. Toyota, R. Fukuda, J. Hasegawa, M. Ishida, T. Nakajima, 
 Y. Honda, O. Kitao, H. Nakai, T. Vreven, J. A. Montgomery, Jr., 
 J. E. Peralta, F. Ogliaro, M. Bearpark, J. J. Heyd, E. Brothers, 
 K. N. Kudin, V. N. Staroverov, T. Keith, R. Kobayashi, J. Normand, 
 K. Raghavachari, A. Rendell, J. C. Burant, S. S. Iyengar, J. Tomasi, 
 M. Cossi, N. Rega, J. M. Millam, M. Klene, J. E. Knox, J. B. Cross, 
 V. Bakken, C. Adamo, J. Jaramillo, R. Gomperts, R. E. Stratmann, 
 O. Yazyev, A. J. Austin, R. Cammi, C. Pomelli, J. W. Ochterski, 
 R. L. Martin, K. Morokuma, V. G. Zakrzewski, G. A. Voth, 
 P. Salvador, J. J. Dannenberg, S. Dapprich, A. D. Daniels, 
 O. Farkas, J. B. Foresman, J. V. Ortiz, J. Cioslowski, 
 and D. J. Fox, Gaussian, Inc., Wallingford CT, 2010.
 
 ******************************************
 Gaussian 09:  EM64L-G09RevB.01 12-Aug-2010
                20-Jan-2016 
 ******************************************
 ------------------------------------------------
 # freq=raman b3lyp/6-31+g(d,p) geom=connectivity
 ------------------------------------------------
 1/10=4,30=1,38=1,57=2/1,3;
 2/12=2,17=6,18=5,40=1/2;
 3/5=1,6=6,7=111,11=2,16=1,25=1,30=1,71=2,74=-5/1,2,3;
 4//1;
 5/5=2,38=5,98=1/2;
 8/6=4,10=90,11=11/1;
 10/13=10,15=4/2;
 11/6=3,8=1,9=11,15=111,16=1/1,2,10;
 10/6=1/2;
 6/7=2,8=2,9=2,10=2,18=1,28=1/1;
 7/8=1,10=1,25=1/1,2,3,16;
 1/10=4,30=1/3;
 99//99;
 ------------
 300 5000.com
 ------------
 Symbolic Z-matrix:
 Charge =  0 Multiplicity = 1
 O                     7.803     7.595     12.015 
 C                     8.247     7.899     13.346 
 C                     7.801     9.262     13.848 
 O                     8.043     10.306    12.894 
 H                     7.657     9.865     12.084 
 C                     8.333     9.611     15.229 
 O                     7.531     10.668    15.777 
 H                     7.739     10.894    16.729 
 C                     8.484     5.493     14.16 
 O                     8.131     4.783     12.964 
 H                     7.98      3.803     13.096 
 C                     7.848     6.856     14.377 
 O                     8.302     7.149     15.707 
 C                     7.914     8.463     16.134 
 O                     8.784     8.614     17.265 
 C                     8.237     8.328     18.56 
 C                     8.79      7.038     19.144 
 O                     8.572     5.974     18.207 
 H                     8.863     6.372     17.337 
 C                     8.122     6.697     20.466 
 O                     8.743     5.501     20.957 
 H                     8.293     5.408     21.845 
 C                     8.091     10.845    19.112 
 O                     8.751     11.536    18.041 
 H                     8.629     12.482    18.34 
 C                     8.502     9.449     19.552 
 O                     7.863     9.135     20.798 
 C                     8.424     7.92      21.317 
 O                     7.703     7.59      22.513 
 H                     8.32477   7.39545   23.21809 
 H                     8.56476   7.46491   11.44544 
 H                     6.88254   8.51505   16.4138 
 H                     9.38375   9.81164   15.25285 
 H                     6.73779   9.20092   13.95172 
 H                     9.31651   7.91372   13.31734 
 H                     6.78299   6.75282   14.38137 
 H                     8.22636   4.87538   14.99491 
 H                     9.54596   5.62388   14.16108 
 H                     8.16665   11.47319   19.97488 
 H                     7.05499   10.79132   18.84988 
 H                     9.55682   9.47115   19.73021 
 H                     7.17766   8.21904   18.45599 
 H                     9.84186   7.15108   19.30433 
 H                     7.06775   6.56377   20.34065 
 H                     9.47232   8.01741   21.50789 
 

 GradGradGradGradGradGradGradGradGradGradGradGradGradGradGradGradGradGrad
 Berny optimization.
 Initialization pass.
 Trust Radius=3.00D-01 FncErr=1.00D-07 GrdErr=1.00D-07
 Number of steps in this run=      2 maximum allowed number of steps=      2.
 GradGradGradGradGradGradGradGradGradGradGradGradGradGradGradGradGradGrad

                          Input orientation:                          
 ---------------------------------------------------------------------
 Center     Atomic      Atomic             Coordinates (Angstroms)
 Number     Number       Type             X           Y           Z
 ---------------------------------------------------------------------
      1          8           0        7.803000    7.595000   12.015000
      2          6           0        8.247000    7.899000   13.346000
      3          6           0        7.801000    9.262000   13.848000
      4          8           0        8.043000   10.306000   12.894000
      5          1           0        7.657000    9.865000   12.084000
      6          6           0        8.333000    9.611000   15.229000
      7          8           0        7.531000   10.668000   15.777000
      8          1           0        7.739000   10.894000   16.729000
      9          6           0        8.484000    5.493000   14.160000
     10          8           0        8.131000    4.783000   12.964000
     11          1           0        7.980000    3.803000   13.096000
     12          6           0        7.848000    6.856000   14.377000
     13          8           0        8.302000    7.149000   15.707000
     14          6           0        7.914000    8.463000   16.134000
     15          8           0        8.784000    8.614000   17.265000
     16          6           0        8.237000    8.328000   18.560000
     17          6           0        8.790000    7.038000   19.144000
     18          8           0        8.572000    5.974000   18.207000
     19          1           0        8.863000    6.372000   17.337000
     20          6           0        8.122000    6.697000   20.466000
     21          8           0        8.743000    5.501000   20.957000
     22          1           0        8.293000    5.408000   21.845000
     23          6           0        8.091000   10.845000   19.112000
     24          8           0        8.751000   11.536000   18.041000
     25          1           0        8.629000   12.482000   18.340000
     26          6           0        8.502000    9.449000   19.552000
     27          8           0        7.863000    9.135000   20.798000
     28          6           0        8.424000    7.920000   21.317000
     29          8           0        7.703000    7.590000   22.513000
     30          1           0        8.324771    7.395452   23.218090
     31          1           0        8.564760    7.464913   11.445439
     32          1           0        6.882543    8.515047   16.413800
     33          1           0        9.383750    9.811636   15.252848
     34          1           0        6.737792    9.200917   13.951720
     35          1           0        9.316515    7.913720   13.317341
     36          1           0        6.782995    6.752825   14.381372
     37          1           0        8.226365    4.875382   14.994908
     38          1           0        9.545965    5.623882   14.161084
     39          1           0        8.166654   11.473189   19.974876
     40          1           0        7.054992   10.791319   18.849881
     41          1           0        9.556822    9.471150   19.730213
     42          1           0        7.177656    8.219041   18.455990
     43          1           0        9.841859    7.151076   19.304329
     44          1           0        7.067753    6.563769   20.340648
     45          1           0        9.472319    8.017414   21.507887
 ---------------------------------------------------------------------
                    Distance matrix (angstroms):
                    1          2          3          4          5
     1  O    0.000000
     2  C    1.435658   0.000000
     3  C    2.477657   1.519437   0.000000
     4  O    2.860028   2.457553   1.434788   0.000000
     5  H    2.275737   2.409544   1.869770   0.999788   0.000000
     6  C    3.830790   2.546376   1.520522   2.453436   3.226843
     7  O    4.865178   3.753635   2.402244   2.950403   3.781393
     8  H    5.754068   4.546733   3.311711   3.891707   4.758318
     9  C    3.079479   2.551000   3.843071   4.996219   4.909999
    10  O    2.985888   3.141470   4.577313   5.524145   5.179363
    11  H    3.947044   4.112299   5.513459   6.506442   6.154374
    12  C    2.475316   1.519872   2.463917   3.760294   3.787930
    13  O    3.752170   2.477871   2.858610   4.236354   4.573709
    14  C    4.210927   2.863901   2.424245   3.729731   4.293501
    15  O    5.437207   4.019721   3.614150   4.745270   5.447742
    16  C    6.600202   5.231629   4.823422   6.004471   6.681119
    17  C    7.218522   5.886678   5.828543   7.092273   7.688902
    18  O    6.446694   5.238375   5.514188   6.875612   7.312198
    19  H    5.562644   4.317322   4.653285   5.990743   6.422577
    20  C    8.504561   7.221830   7.104941   8.388463   8.972757
    21  O    9.231890   7.995232   8.097553   9.412226   9.947564
    22  H   10.082260   8.856647   8.890860  10.206532  10.749254
    23  C    7.811072   6.476883   5.504515   6.241502   7.109257
    24  O    7.262428   5.960269   4.863623   5.339080   6.282907
    25  H    8.035588   6.788951   5.588564   5.893835   6.850621
    26  C    7.793092   6.401715   5.749955   6.728603   7.527158
    27  O    8.917191   7.563561   6.951437   7.992300   8.746950
    28  C    9.328369   7.972993   7.614135   8.762710   9.466763
    29  O   10.498477   9.188324   8.825385  10.000871  10.674352
    30  H   11.217009   9.885230   9.568539  10.730216  11.424209
    31  H    0.960000   1.975230   3.095989   3.231461   2.644278
    32  H    4.587283   3.413598   2.825744   4.116208   4.601013
    33  H    4.230355   2.930264   2.186503   2.757928   3.609170
    34  H    2.732128   2.083169   1.070000   2.010857   2.185023
    35  H    2.021980   1.070000   2.096722   2.743003   2.842994
    36  H    2.710975   2.128150   2.759852   4.052770   3.965784
    37  H    4.056527   3.444066   4.553982   5.825723   5.804641
    38  H    3.395425   2.743690   4.047076   5.078054   5.086212
    39  H    8.861841   7.531486   6.523930   7.177494   8.069197
    40  H    7.582320   6.330806   5.283385   6.056749   6.855482
    41  H    8.131442   6.704138   6.142238   7.051414   7.888537
    42  H    6.501295   5.230480   4.765490   6.003328   6.598576
    43  H    7.582106   6.213264   6.196179   7.367616   8.016991
    44  H    8.421427   7.217934   7.069129   8.390945   8.911654
    45  H    9.647796   8.254201   7.938273   9.026607   9.773362
                    6          7          8          9         10
     6  C    0.000000
     7  O    1.435534   0.000000
     8  H    2.061292   1.000322   0.000000
     9  C    4.257169   5.504864   6.027071   0.000000
    10  O    5.336723   6.550282   7.188408   1.434965   0.000000
    11  H    6.197351   7.383603   7.971139   2.059663   1.000312
    12  C    2.924236   4.073307   4.674316   1.519656   2.524676
    13  O    2.508164   3.603152   3.922560   2.273471   3.626465
    14  C    1.520687   2.266310   2.508866   3.611437   4.861933
    15  O    2.311429   2.828970   2.564707   4.412671   5.796686
    16  C    3.570835   3.703934   3.191382   5.240060   6.625215
    17  C    4.707059   5.108686   4.669643   5.226941   6.611483
    18  O    4.706737   5.387227   5.204303   4.076434   5.394628
    19  H    3.900729   4.760613   4.699098   3.318073   4.709976
    20  C    5.996840   6.172912   5.632643   6.430109   7.742318
    21  O    7.061882   7.416147   6.925926   6.801938   8.048485
    22  H    7.838257   8.066528   7.521740   7.687843   8.904439
    23  C    4.081545   3.386319   2.409356   7.302099   8.634081
    24  O    3.433321   2.714318   1.776978   7.186884   8.471324
    25  H    4.243651   3.326435   2.430877   8.144909   9.403403
    26  C    4.329334   4.084045   3.261828   6.687595   8.081518
    27  O    5.609032   5.260300   4.434661   7.596897   8.965673
    28  C    6.319138   6.248244   5.510322   7.557551   8.927442
    29  O    7.585380   7.407926   6.661259   8.647542   9.962220
    30  H    8.290614   8.167587   7.395354   9.257088  10.583422
    31  H    4.356000   5.485512   6.352679   3.356159   3.112367
    32  H    2.169951   2.336925   2.547997   4.095979   5.233349
    33  H    1.070000   2.107316   2.460842   4.544720   5.665279
    34  H    2.084299   2.472480   3.403268   4.103812   4.736519
    35  H    2.739069   4.101712   4.796878   2.695002   3.366259
    36  H    3.360083   4.223256   4.855372   2.128281   2.776017
    37  H    4.742599   5.886393   6.282385   1.070000   2.035244
    38  H    4.302190   5.666956   6.134611   1.070000   2.035244
    39  H    5.100858   4.321406   3.324764   8.347224   9.690835
    40  H    4.017118   3.111975   2.230817   7.218672   8.479463
    41  H    4.666714   4.600467   3.786325   6.928485   8.354242
    42  H    3.699437   3.646812   3.233111   5.252939   6.548069
    43  H    4.993615   5.490981   5.006377   5.572892   6.981017
    44  H    6.084029   6.155176   5.678510   6.430607   7.662674
    45  H    6.577385   6.605860   5.840968   7.832042   9.233557
                   11         12         13         14         15
    11  H    0.000000
    12  C    3.313487   0.000000
    13  O    4.256374   1.435571   0.000000
    14  C    5.563218   2.381985   1.435085   0.000000
    15  O    6.416596   3.508162   2.192239   1.434874   0.000000
    16  C    7.099082   4.451471   3.087697   2.451128   1.434584
    17  C    6.906492   4.862590   3.473245   3.443559   2.452438
    18  O    5.584445   3.996373   2.775522   3.305361   2.811033
    19  H    5.036420   3.166399   1.890860   2.592314   2.244547
    20  C    7.919110   6.097235   4.783804   4.682760   3.789398
    21  O    8.078409   6.777422   5.520225   5.720316   4.829422
    22  H    8.900505   7.620089   6.380142   6.487849   5.612122
    23  C    9.262523   6.196079   5.029807   3.817556   2.978090
    24  O    9.211230   6.011880   4.989482   3.712216   3.023466
    25  H   10.160993   6.925836   5.956552   4.640045   4.017596
    26  C    8.592423   5.825117   4.484866   3.605643   2.450942
    27  O    9.368283   6.813465   5.482262   4.712439   3.688058
    28  C    9.204980   7.044677   5.664047   5.236262   4.126735
    29  O   10.153718   8.170329   6.846526   6.441917   5.455148
    30  H   10.746222   8.870355   7.515167   7.175843   6.093852
    31  H    4.059051   3.078728   4.281325   4.837589   5.935971
    32  H    5.866481   2.798767   2.092966   1.070000   2.085635
    33  H    6.536529   3.444042   2.909651   2.180691   2.417186
    34  H    5.604716   2.629080   3.120596   2.586568   3.938180
    35  H    4.328196   2.097185   2.706382   3.194108   4.044499
    36  H    3.433143   1.070000   2.054658   2.697328   3.972821
    37  H    2.194664   2.108985   2.383723   3.777050   4.409256
    38  H    2.627215   2.108985   2.502656   3.823127   4.376721
    39  H   10.304639   7.263346   6.077145   4.886451   3.987418
    40  H    9.099417   6.010180   4.969831   3.678991   3.200318
    41  H    8.867191   6.198062   4.811777   4.080193   2.721991
    42  H    6.991042   4.352632   3.156911   2.448133   2.038331
    43  H    7.295169   5.323638   3.913049   3.935578   2.723614
    44  H    7.806341   6.021568   4.830792   4.692451   4.075360
    45  H    9.526182   7.405190   5.981144   5.612982   4.339561
                   16         17         18         19         20
    16  C    0.000000
    17  C    1.520186   0.000000
    18  O    2.403778   1.434430   0.000000
    19  H    2.390301   1.927209   0.999992   0.000000
    20  C    2.511219   1.519931   2.414189   3.231926   0.000000
    21  O    3.740799   2.377298   2.795616   3.725244   1.434273
    22  H    4.395539   3.193636   3.692322   4.645025   1.895364
    23  C    2.580951   3.870772   4.977653   4.873842   4.363506
    24  O    3.290110   4.631429   5.567355   5.212970   5.449054
    25  H    4.178251   5.505404   6.509608   6.196198   6.184105
    26  C    1.520174   2.462180   3.726869   3.808474   2.924603
    27  O    2.408271   2.827093   4.148239   4.540120   2.474096
    28  C    2.793292   2.373565   3.671637   4.292951   1.520241
    29  O    4.056601   3.582797   4.680625   5.442435   2.272272
    30  H    4.751332   4.116117   5.214659   5.993694   2.846568
    31  H    7.174212   7.713678   6.923985   5.999491   9.064008
    32  H    2.544743   3.643357   3.539315   3.060581   4.611060
    33  H    3.801772   4.815253   4.910540   4.055363   6.202413
    34  H    4.924008   5.987449   5.646656   4.896877   7.114877
    35  H    5.368655   5.915577   5.312775   4.328999   7.349190
    36  H    4.696407   5.176101   4.294477   3.634169   6.230469
    37  H    4.962919   4.712702   3.412324   2.851414   5.767324
    38  H    5.326922   5.234564   4.176197   3.333551   6.552192
    39  H    3.449498   4.555197   5.790576   5.784930   4.801581
    40  H    2.747565   4.145378   5.091284   5.008800   4.529216
    41  H    2.101933   2.617610   3.939557   3.976630   3.208739
    42  H    1.070000   2.113734   2.654506   2.739359   2.692310
    43  H    2.124794   1.070000   2.049923   2.331418   2.124519
    44  H    2.765928   2.150115   2.676385   3.504510   1.070000
    45  H    3.211311   2.648164   3.985219   4.524926   2.156938
                   21         22         23         24         25
    21  O    0.000000
    22  H    0.999846   0.000000
    23  C    5.690999   6.088601   0.000000
    24  O    6.702563   7.227210   1.435313   0.000000
    25  H    7.456276   7.901860   1.888173   0.999600   0.000000
    26  C    4.197477   4.650937   1.520308   2.588569   3.268664
    27  O    3.742411   3.895079   2.412194   3.762233   4.222668
    28  C    2.466358   2.570231   3.678116   4.890252   5.451275
    29  O    2.804756   2.357000   4.723597   6.055411   6.496389
    30  H    2.979328   2.415854   5.367868   6.642897   7.054169
    31  H    9.713831  10.604509   8.391996   7.753055   8.527031
    32  H    5.760768   6.414130   3.764217   3.907054   4.743108
    33  H    7.178405   8.002388   4.199060   3.338802   4.151024
    34  H    8.172160   8.894311   5.582354   5.121312   5.796480
    35  H    8.032093   8.946909   6.608507   5.979438   6.824146
    36  H    6.974781   7.732685   6.390275   6.335984   7.204299
    37  H    6.017046   6.871090   7.252938   7.342871   8.319398
    38  H    6.844291   7.788394   7.340883   7.116098   8.083189
    39  H    6.079785   6.348216   1.070000   2.021208   1.975926
    40  H    5.939427   6.283592   1.070000   2.021208   2.365562
    41  H    4.234313   4.751711   2.101972   2.786825   3.443656
    42  H    4.011621   4.542173   2.856607   3.694569   4.504739
    43  H    2.581001   3.448520   4.092380   4.691858   5.551550
    44  H    2.077455   2.258342   4.570071   5.731037   6.439375
    45  H    2.677260   2.883311   3.955194   4.991999   5.538883
                   26         27         28         29         30
    26  C    0.000000
    27  O    1.435072   0.000000
    28  C    2.336482   1.435377   0.000000
    29  O    3.586336   2.313839   1.434976   0.000000
    30  H    4.205792   3.015974   1.974624   0.960000   0.000000
    31  H    8.346069   9.526387   9.883047  11.101765  11.775302
    32  H    3.652836   4.535069   5.174122   6.223271   7.044990
    33  H    4.403601   5.789580   6.424434   7.776272   8.390738
    34  H    5.876829   6.938443   7.663641   8.764827   9.573078
    35  H    6.472364   7.717803   8.049296   9.341754   9.963784
    36  H    6.079452   6.929234   7.222059   8.226217   8.993199
    37  H    6.462278   7.207791   7.019801   8.010291   8.601230
    38  H    6.692037   7.694736   7.598559   8.775912   9.309089
    39  H    2.094904   2.497372   3.806925   4.662211   5.212618
    40  H    2.094904   2.681685   4.025584   4.907830   5.676751
    41  H    1.070000   2.030320   2.491434   3.836572   4.241670
    42  H    2.113746   2.606470   3.134992   4.138962   4.967069
    43  H    2.671520   3.175357   2.579227   3.881101   4.204617
    44  H    3.317166   2.729985   2.152216   2.485116   3.248302
    45  H    2.610834   2.083950   1.070000   2.079285   2.151395
                   31         32         33         34         35
    31  H    0.000000
    32  H    5.349509   0.000000
    33  H    4.546891   3.047128   0.000000
    34  H    3.554288   2.559924   3.011147   0.000000
    35  H    2.066538   3.984202   2.711603   2.951123   0.000000
    36  H    3.507343   2.691858   4.108494   2.485921   2.983046
    37  H    4.406689   4.131134   5.076680   4.691945   3.637878
    38  H    3.424454   4.530715   4.330767   4.552455   2.451103
    39  H    9.432712   4.804249   5.151663   6.594185   7.636411
    40  H    8.256521   3.338509   4.395628   5.159649   6.633556
    41  H    8.581763   4.366291   4.493627   6.435133   6.603655
    42  H    7.186139   2.084527   4.202777   4.630984   5.574375
    43  H    7.968163   4.355815   4.868567   6.518244   6.058188
    44  H    9.065198   4.388841   6.465153   6.919670   7.497075
    45  H   10.118388   5.736227   6.507887   8.122437   8.192684
                   36         37         38         39         40
    36  H    0.000000
    37  H    2.446331   0.000000
    38  H    2.992831   1.731144   0.000000
    39  H    7.448734   8.266481   8.361642   0.000000
    40  H    6.029178   7.157600   7.408925   1.722310   0.000000
    41  H    6.610107   6.731590   6.768810   2.449610   2.962597
    42  H    4.348340   4.925336   5.548870   3.724864   2.605150
    43  H    5.809541   5.134171   5.373346   4.683653   4.607007
    44  H    5.969070   5.724505   6.723981   5.044183   4.482714
    45  H    7.721325   7.337824   7.727220   3.999658   4.539054
                   41         42         43         44         45
    41  H    0.000000
    42  H    2.975206   0.000000
    43  H    2.375998   2.993027   0.000000
    44  H    3.875688   2.510765   3.019032   0.000000
    45  H    2.297959   3.823638   2.396407   3.042609   0.000000
 Stoichiometry    C12H22O11
 Framework group  C1[X(C12H22O11)]
 Deg. of freedom   129
 Full point group                 C1      NOp   1
 Largest Abelian subgroup         C1      NOp   1
 Largest concise Abelian subgroup C1      NOp   1
                         Standard orientation:                         
 ---------------------------------------------------------------------
 Center     Atomic      Atomic             Coordinates (Angstroms)
 Number     Number       Type             X           Y           Z
 ---------------------------------------------------------------------
      1          8           0        5.059657   -0.351673   -0.277574
      2          6           0        3.707192   -0.106390    0.136899
      3          6           0        3.178484    1.260706   -0.263356
      4          8           0        4.092947    2.319335    0.055518
      5          1           0        4.927217    1.919736   -0.323811
      6          6           0        1.772026    1.545473    0.239405
      7          8           0        1.217412    2.621984   -0.531494
      8          1           0        0.253155    2.810985   -0.344064
      9          6           0        2.958731   -2.542952    0.239721
     10          8           0        4.185692   -3.201658   -0.106396
     11          1           0        4.087776   -4.177092   -0.305305
     12          6           0        2.720573   -1.159036   -0.341150
     13          8           0        1.369131   -0.925166    0.082846
     14          6           0        0.915047    0.392489   -0.259299
     15          8           0       -0.246052    0.471216    0.580054
     16          6           0       -1.514568    0.173708   -0.020267
     17          6           0       -2.076323   -1.156368    0.455437
     18          8           0       -1.101654   -2.182122    0.219983
     19          1           0       -0.253271   -1.773192    0.556148
     20          6           0       -3.366466   -1.504033   -0.269028
     21          8           0       -3.840202   -2.740702    0.281755
     22          1           0       -4.710837   -2.838317   -0.200073
     23          6           0       -2.136962    2.677979   -0.070849
     24          8           0       -1.107824    3.368341    0.653305
     25          1           0       -1.431143    4.310016    0.564348
     26          6           0       -2.547331    1.252660    0.262916
     27          8           0       -3.763239    0.932798   -0.428957
     28          6           0       -4.262545   -0.320899    0.060171
     29          8           0       -5.425511   -0.651561   -0.712699
     30          1           0       -6.143151   -0.894377   -0.123094
     31          1           0        5.609288   -0.500164    0.495379
     32          1           0        0.665498    0.483653   -1.295790
     33          1           0        1.710049    1.697080    1.296795
     34          1           0        3.109213    1.245380   -1.331001
     35          1           0        3.702667   -0.139789    1.206368
     36          1           0        2.751874   -1.213477   -1.409306
     37          1           0        2.150962   -3.171706   -0.071853
     38          1           0        2.921242   -2.460861    1.305908
     39          1           0       -3.020171    3.277181    0.005308
     40          1           0       -1.841783    2.679236   -1.099327
     41          1           0       -2.758312    1.221451    1.311445
     42          1           0       -1.374985    0.116324   -1.079570
     43          1           0       -2.272069   -1.096137    1.505654
     44          1           0       -3.204990   -1.585278   -1.323648
     45          1           0       -4.488243   -0.277017    1.105175
 ---------------------------------------------------------------------
 Rotational constants (GHZ):      0.4081566      0.1494636      0.1123877
 Standard basis: 6-31+G(d,p) (6D, 7F)
 There are   547 symmetry adapted basis functions of A   symmetry.
 Integral buffers will be    131072 words long.
 Raffenetti 2 integral format.
 Two-electron integral symmetry is turned on.
   547 basis functions,   890 primitive gaussians,   547 cartesian basis functions
    91 alpha electrons       91 beta electrons
       nuclear repulsion energy      2300.7351641675 Hartrees.
 NAtoms=   45 NActive=   45 NUniq=   45 SFac= 1.00D+00 NAtFMM=   50 NAOKFM=F Big=F
 One-electron integrals computed using PRISM.
 NBasis=   547 RedAO= T  NBF=   547
 NBsUse=   547 1.00D-06 NBFU=   547
 Harris functional with IExCor=  402 diagonalized for initial guess.
 ExpMin= 4.38D-02 ExpMax= 5.48D+03 ExpMxC= 8.25D+02 IAcc=2 IRadAn=         0 AccDes= 0.00D+00
 HarFok:  IExCor=  402 AccDes= 0.00D+00 IRadAn=         0 IDoV= 1
 ScaDFX=  1.000000  1.000000  1.000000  1.000000
 FoFCou: FMM=F IPFlag=           0 FMFlag=      100000 FMFlg1=           0
         NFxFlg=           0 DoJE=T BraDBF=F KetDBF=T FulRan=T
         Omega=  0.000000  0.000000  1.000000  0.000000  0.000000 ICntrl=     500 IOpCl=  0
         NMat0=    1 NMatS0=    1 NMatT0=    0 NMatD0=    1 NMtDS0=    0 NMtDT0=    0
         I1Cent=           4 NGrid=           0.
 Petite list used in FoFCou.
 Initial guess orbital symmetries:
       Occupied  (A) (A) (A) (A) (A) (A) (A) (A) (A) (A) (A) (A)
                 (A) (A) (A) (A) (A) (A) (A) (A) (A) (A) (A) (A)
                 (A) (A) (A) (A) (A) (A) (A) (A) (A) (A) (A) (A)
                 (A) (A) (A) (A) (A) (A) (A) (A) (A) (A) (A) (A)
                 (A) (A) (A) (A) (A) (A) (A) (A) (A) (A) (A) (A)
                 (A) (A) (A) (A) (A) (A) (A) (A) (A) (A) (A) (A)
                 (A) (A) (A) (A) (A) (A) (A) (A) (A) (A) (A) (A)
                 (A) (A) (A) (A) (A) (A) (A)
       Virtual   (A) (A) (A) (A) (A) (A) (A) (A) (A) (A) (A) (A)
                 (A) (A) (A) (A) (A) (A) (A) (A) (A) (A) (A) (A)
                 (A) (A) (A) (A) (A) (A) (A) (A) (A) (A) (A) (A)
                 (A) (A) (A) (A) (A) (A) (A) (A) (A) (A) (A) (A)
                 (A) (A) (A) (A) (A) (A) (A) (A) (A) (A) (A) (A)
                 (A) (A) (A) (A) (A) (A) (A) (A) (A) (A) (A) (A)
                 (A) (A) (A) (A) (A) (A) (A) (A) (A) (A) (A) (A)
                 (A) (A) (A) (A) (A) (A) (A) (A) (A) (A) (A) (A)
                 (A) (A) (A) (A) (A) (A) (A) (A) (A) (A) (A) (A)
                 (A) (A) (A) (A) (A) (A) (A) (A) (A) (A) (A) (A)
                 (A) (A) (A) (A) (A) (A) (A) (A) (A) (A) (A) (A)
                 (A) (A) (A) (A) (A) (A) (A) (A) (A) (A) (A) (A)
                 (A) (A) (A) (A) (A) (A) (A) (A) (A) (A) (A) (A)
                 (A) (A) (A) (A) (A) (A) (A) (A) (A) (A) (A) (A)
                 (A) (A) (A) (A) (A) (A) (A) (A) (A) (A) (A) (A)
                 (A) (A) (A) (A) (A) (A) (A) (A) (A) (A) (A) (A)
                 (A) (A) (A) (A) (A) (A) (A) (A) (A) (A) (A) (A)
                 (A) (A) (A) (A) (A) (A) (A) (A) (A) (A) (A) (A)
                 (A) (A) (A) (A) (A) (A) (A) (A) (A) (A) (A) (A)
                 (A) (A) (A) (A) (A) (A) (A) (A) (A) (A) (A) (A)
                 (A) (A) (A) (A) (A) (A) (A) (A) (A) (A) (A) (A)
                 (A) (A) (A) (A) (A) (A) (A) (A) (A) (A) (A) (A)
                 (A) (A) (A) (A) (A) (A) (A) (A) (A) (A) (A) (A)
                 (A) (A) (A) (A) (A) (A) (A) (A) (A) (A) (A) (A)
                 (A) (A) (A) (A) (A) (A) (A) (A) (A) (A) (A) (A)
                 (A) (A) (A) (A) (A) (A) (A) (A) (A) (A) (A) (A)
                 (A) (A) (A) (A) (A) (A) (A) (A) (A) (A) (A) (A)
                 (A) (A) (A) (A) (A) (A) (A) (A) (A) (A) (A) (A)
                 (A) (A) (A) (A) (A) (A) (A) (A) (A) (A) (A) (A)
                 (A) (A) (A) (A) (A) (A) (A) (A) (A) (A) (A) (A)
                 (A) (A) (A) (A) (A) (A) (A) (A) (A) (A) (A) (A)
                 (A) (A) (A) (A) (A) (A) (A) (A) (A) (A) (A) (A)
                 (A) (A) (A) (A) (A) (A) (A) (A) (A) (A) (A) (A)
                 (A) (A) (A) (A) (A) (A) (A) (A) (A) (A) (A) (A)
                 (A) (A) (A) (A) (A) (A) (A) (A) (A) (A) (A) (A)
                 (A) (A) (A) (A) (A) (A) (A) (A) (A) (A) (A) (A)
                 (A) (A) (A) (A) (A) (A) (A) (A) (A) (A) (A) (A)
                 (A) (A) (A) (A) (A) (A) (A) (A) (A) (A) (A) (A)
 The electronic state of the initial guess is 1-A.
 Requested convergence on RMS density matrix=1.00D-08 within 128 cycles.
 Requested convergence on MAX density matrix=1.00D-06.
 Requested convergence on             energy=1.00D-06.
 No special actions if energy rises.
 SCF Done:  E(RB3LYP) =  -1297.92840750     A.U. after   13 cycles
             Convg  =    0.5726D-08             -V/T =  2.0085
 Range of M.O.s used for correlation:     1   547
 NBasis=   547 NAE=    91 NBE=    91 NFC=     0 NFV=     0
 NROrb=    547 NOA=    91 NOB=    91 NVA=   456 NVB=   456

 **** Warning!!: The largest alpha MO coefficient is  0.64940783D+02

          Differentiating once with respect to electric field.
                with respect to dipole field.
          Electric field/nuclear overlap derivatives assumed to be zero.
          There are     3 degrees of freedom in the 1st order CPHF.  IDoFFX=0.
      3 vectors produced by pass  0 Test12= 1.38D-12 3.33D-08 XBig12= 1.17D+02 1.28D+00.
 AX will form     3 AO Fock derivatives at one time.
      3 vectors produced by pass  1 Test12= 1.38D-12 3.33D-08 XBig12= 2.25D+01 4.00D-01.
      3 vectors produced by pass  2 Test12= 1.38D-12 3.33D-08 XBig12= 9.62D+00 1.98D-01.
      3 vectors produced by pass  3 Test12= 1.38D-12 3.33D-08 XBig12= 1.01D+00 7.81D-02.
      3 vectors produced by pass  4 Test12= 1.38D-12 3.33D-08 XBig12= 3.22D-01 4.25D-02.
      3 vectors produced by pass  5 Test12= 1.38D-12 3.33D-08 XBig12= 5.56D-02 1.92D-02.
      3 vectors produced by pass  6 Test12= 1.38D-12 3.33D-08 XBig12= 2.16D-02 1.54D-02.
      3 vectors produced by pass  7 Test12= 1.38D-12 3.33D-08 XBig12= 2.17D-03 7.55D-03.
      3 vectors produced by pass  8 Test12= 1.38D-12 3.33D-08 XBig12= 4.18D-04 2.26D-03.
      3 vectors produced by pass  9 Test12= 1.38D-12 3.33D-08 XBig12= 9.92D-05 1.25D-03.
      3 vectors produced by pass 10 Test12= 1.38D-12 3.33D-08 XBig12= 3.39D-05 5.64D-04.
      3 vectors produced by pass 11 Test12= 1.38D-12 3.33D-08 XBig12= 6.06D-06 3.29D-04.
      3 vectors produced by pass 12 Test12= 1.38D-12 3.33D-08 XBig12= 5.49D-07 6.92D-05.
      3 vectors produced by pass 13 Test12= 1.38D-12 3.33D-08 XBig12= 2.06D-07 2.79D-05.
      3 vectors produced by pass 14 Test12= 1.38D-12 3.33D-08 XBig12= 3.14D-08 1.48D-05.
      3 vectors produced by pass 15 Test12= 1.38D-12 3.33D-08 XBig12= 9.81D-09 5.34D-06.
      3 vectors produced by pass 16 Test12= 1.38D-12 3.33D-08 XBig12= 9.12D-10 2.22D-06.
      3 vectors produced by pass 17 Test12= 1.38D-12 3.33D-08 XBig12= 8.06D-11 6.91D-07.
      3 vectors produced by pass 18 Test12= 1.38D-12 3.33D-08 XBig12= 2.77D-11 4.55D-07.
      3 vectors produced by pass 19 Test12= 1.38D-12 3.33D-08 XBig12= 1.83D-11 3.01D-07.
      2 vectors produced by pass 20 Test12= 1.38D-12 3.33D-08 XBig12= 7.78D-12 2.01D-07.
      2 vectors produced by pass 21 Test12= 1.38D-12 3.33D-08 XBig12= 1.54D-12 9.19D-08.
 Inverted reduced A of dimension    64 with in-core refinement.
 End of Minotr Frequency-dependent properties file   721 does not exist.
 End of Minotr Frequency-dependent properties file   722 does not exist.
 Symmetrizing basis deriv contribution to polar:
 IMax=3 JMax=2 DiffMx= 0.00D+00
 G2DrvN: will do    23 centers at a time, making    2 passes doing MaxLOS=2.
 Calling FoFCou, ICntrl=  3107 FMM=F I1Cent=   0 AccDes= 0.00D+00.
 Calling FoFCou, ICntrl=  3107 FMM=F I1Cent=   0 AccDes= 0.00D+00.
 FoFDir/FoFCou used for L=0 through L=2.
 End of G2Drv Frequency-dependent properties file   721 does not exist.
 End of G2Drv Frequency-dependent properties file   722 does not exist.
          IDoAtm=111111111111111111111111111111111111111111111
          Differentiating once with respect to electric field.
                with respect to dipole field.
          Differentiating once with respect to nuclear coordinates.
          There are   138 degrees of freedom in the 1st order CPHF.  IDoFFX=5.
 Will reuse    3 saved solutions.
    135 vectors produced by pass  0 Test12= 4.15D-14 1.00D-09 XBig12= 2.24D-01 9.34D-02.
 AX will form    68 AO Fock derivatives at one time.
    135 vectors produced by pass  1 Test12= 4.15D-14 1.00D-09 XBig12= 3.17D-02 1.32D-02.
    132 vectors produced by pass  2 Test12= 4.15D-14 1.00D-09 XBig12= 2.49D-04 1.58D-03.
    132 vectors produced by pass  3 Test12= 4.15D-14 1.00D-09 XBig12= 7.63D-07 8.04D-05.
    132 vectors produced by pass  4 Test12= 4.15D-14 1.00D-09 XBig12= 1.26D-09 3.17D-06.
    132 vectors produced by pass  5 Test12= 4.15D-14 1.00D-09 XBig12= 3.36D-12 1.22D-07.
     78 vectors produced by pass  6 Test12= 4.15D-14 1.00D-09 XBig12= 1.69D-13 2.30D-08.
 Inverted reduced A of dimension   876 with in-core refinement.
 Isotropic polarizability for W=    0.000000      186.05 Bohr**3.
 End of Minotr Frequency-dependent properties file   721 does not exist.
 End of Minotr Frequency-dependent properties file   722 does not exist.

 **********************************************************************

            Population analysis using the SCF density.

 **********************************************************************

 Orbital symmetries:
       Occupied  (A) (A) (A) (A) (A) (A) (A) (A) (A) (A) (A) (A)
                 (A) (A) (A) (A) (A) (A) (A) (A) (A) (A) (A) (A)
                 (A) (A) (A) (A) (A) (A) (A) (A) (A) (A) (A) (A)
                 (A) (A) (A) (A) (A) (A) (A) (A) (A) (A) (A) (A)
                 (A) (A) (A) (A) (A) (A) (A) (A) (A) (A) (A) (A)
                 (A) (A) (A) (A) (A) (A) (A) (A) (A) (A) (A) (A)
                 (A) (A) (A) (A) (A) (A) (A) (A) (A) (A) (A) (A)
                 (A) (A) (A) (A) (A) (A) (A)
       Virtual   (A) (A) (A) (A) (A) (A) (A) (A) (A) (A) (A) (A)
                 (A) (A) (A) (A) (A) (A) (A) (A) (A) (A) (A) (A)
                 (A) (A) (A) (A) (A) (A) (A) (A) (A) (A) (A) (A)
                 (A) (A) (A) (A) (A) (A) (A) (A) (A) (A) (A) (A)
                 (A) (A) (A) (A) (A) (A) (A) (A) (A) (A) (A) (A)
                 (A) (A) (A) (A) (A) (A) (A) (A) (A) (A) (A) (A)
                 (A) (A) (A) (A) (A) (A) (A) (A) (A) (A) (A) (A)
                 (A) (A) (A) (A) (A) (A) (A) (A) (A) (A) (A) (A)
                 (A) (A) (A) (A) (A) (A) (A) (A) (A) (A) (A) (A)
                 (A) (A) (A) (A) (A) (A) (A) (A) (A) (A) (A) (A)
                 (A) (A) (A) (A) (A) (A) (A) (A) (A) (A) (A) (A)
                 (A) (A) (A) (A) (A) (A) (A) (A) (A) (A) (A) (A)
                 (A) (A) (A) (A) (A) (A) (A) (A) (A) (A) (A) (A)
                 (A) (A) (A) (A) (A) (A) (A) (A) (A) (A) (A) (A)
                 (A) (A) (A) (A) (A) (A) (A) (A) (A) (A) (A) (A)
                 (A) (A) (A) (A) (A) (A) (A) (A) (A) (A) (A) (A)
                 (A) (A) (A) (A) (A) (A) (A) (A) (A) (A) (A) (A)
                 (A) (A) (A) (A) (A) (A) (A) (A) (A) (A) (A) (A)
                 (A) (A) (A) (A) (A) (A) (A) (A) (A) (A) (A) (A)
                 (A) (A) (A) (A) (A) (A) (A) (A) (A) (A) (A) (A)
                 (A) (A) (A) (A) (A) (A) (A) (A) (A) (A) (A) (A)
                 (A) (A) (A) (A) (A) (A) (A) (A) (A) (A) (A) (A)
                 (A) (A) (A) (A) (A) (A) (A) (A) (A) (A) (A) (A)
                 (A) (A) (A) (A) (A) (A) (A) (A) (A) (A) (A) (A)
                 (A) (A) (A) (A) (A) (A) (A) (A) (A) (A) (A) (A)
                 (A) (A) (A) (A) (A) (A) (A) (A) (A) (A) (A) (A)
                 (A) (A) (A) (A) (A) (A) (A) (A) (A) (A) (A) (A)
                 (A) (A) (A) (A) (A) (A) (A) (A) (A) (A) (A) (A)
                 (A) (A) (A) (A) (A) (A) (A) (A) (A) (A) (A) (A)
                 (A) (A) (A) (A) (A) (A) (A) (A) (A) (A) (A) (A)
                 (A) (A) (A) (A) (A) (A) (A) (A) (A) (A) (A) (A)
                 (A) (A) (A) (A) (A) (A) (A) (A) (A) (A) (A) (A)
                 (A) (A) (A) (A) (A) (A) (A) (A) (A) (A) (A) (A)
                 (A) (A) (A) (A) (A) (A) (A) (A) (A) (A) (A) (A)
                 (A) (A) (A) (A) (A) (A) (A) (A) (A) (A) (A) (A)
                 (A) (A) (A) (A) (A) (A) (A) (A) (A) (A) (A) (A)
                 (A) (A) (A) (A) (A) (A) (A) (A) (A) (A) (A) (A)
                 (A) (A) (A) (A) (A) (A) (A) (A) (A) (A) (A) (A)
 The electronic state is 1-A.
 Alpha  occ. eigenvalues --  -19.20341 -19.19901 -19.19102 -19.19045 -19.18663
 Alpha  occ. eigenvalues --  -19.18125 -19.17600 -19.16403 -19.15800 -19.14516
 Alpha  occ. eigenvalues --  -19.14318 -10.31456 -10.30683 -10.26844 -10.26228
 Alpha  occ. eigenvalues --  -10.25692 -10.25580 -10.25516 -10.25055 -10.24904
 Alpha  occ. eigenvalues --  -10.24270 -10.24061 -10.24017  -1.10376  -1.09765
 Alpha  occ. eigenvalues --   -1.06519  -1.05391  -1.04714  -1.03963  -1.03145
 Alpha  occ. eigenvalues --   -1.02270  -1.01795  -1.00767  -1.00208  -0.82318
 Alpha  occ. eigenvalues --   -0.80544  -0.79757  -0.78239  -0.72037  -0.70036
 Alpha  occ. eigenvalues --   -0.67251  -0.64731  -0.63251  -0.62644  -0.61854
 Alpha  occ. eigenvalues --   -0.60248  -0.56643  -0.56302  -0.55436  -0.54776
 Alpha  occ. eigenvalues --   -0.54384  -0.53318  -0.52818  -0.52140  -0.51233
 Alpha  occ. eigenvalues --   -0.50919  -0.50050  -0.49108  -0.48516  -0.46909
 Alpha  occ. eigenvalues --   -0.46400  -0.45414  -0.44196  -0.43766  -0.43216
 Alpha  occ. eigenvalues --   -0.42433  -0.42087  -0.41102  -0.40474  -0.40092
 Alpha  occ. eigenvalues --   -0.39553  -0.38653  -0.38205  -0.36041  -0.35751
 Alpha  occ. eigenvalues --   -0.35543  -0.35016  -0.34523  -0.34261  -0.33645
 Alpha  occ. eigenvalues --   -0.32985  -0.31710  -0.31132  -0.30763  -0.29914
 Alpha  occ. eigenvalues --   -0.29301  -0.28759  -0.28496  -0.27953  -0.26623
 Alpha  occ. eigenvalues --   -0.26400
 Alpha virt. eigenvalues --   -0.02549  -0.02166  -0.01478  -0.00104   0.00311
 Alpha virt. eigenvalues --    0.00926   0.01929   0.02172   0.03179   0.03412
 Alpha virt. eigenvalues --    0.03957   0.04318   0.04644   0.05411   0.05679
 Alpha virt. eigenvalues --    0.06134   0.06427   0.07185   0.07803   0.07924
 Alpha virt. eigenvalues --    0.08743   0.08904   0.09035   0.09773   0.10108
 Alpha virt. eigenvalues --    0.10548   0.10818   0.11152   0.11542   0.11952
 Alpha virt. eigenvalues --    0.12402   0.13019   0.13133   0.13275   0.14025
 Alpha virt. eigenvalues --    0.14218   0.14239   0.14455   0.14658   0.15058
 Alpha virt. eigenvalues --    0.15608   0.15959   0.16696   0.17001   0.17149
 Alpha virt. eigenvalues --    0.17657   0.17754   0.17929   0.18426   0.18455
 Alpha virt. eigenvalues --    0.19010   0.19160   0.19553   0.19676   0.20262
 Alpha virt. eigenvalues --    0.20707   0.21060   0.21113   0.21588   0.21831
 Alpha virt. eigenvalues --    0.22143   0.22364   0.22749   0.22865   0.23300
 Alpha virt. eigenvalues --    0.23393   0.23972   0.24226   0.24476   0.24689
 Alpha virt. eigenvalues --    0.25084   0.25391   0.25605   0.25768   0.25977
 Alpha virt. eigenvalues --    0.26365   0.26669   0.26986   0.27272   0.27593
 Alpha virt. eigenvalues --    0.27794   0.28016   0.28247   0.28503   0.28797
 Alpha virt. eigenvalues --    0.29359   0.29439   0.29922   0.30022   0.30542
 Alpha virt. eigenvalues --    0.31085   0.31444   0.31733   0.32140   0.32361
 Alpha virt. eigenvalues --    0.32712   0.33120   0.33496   0.33680   0.33980
 Alpha virt. eigenvalues --    0.34318   0.34717   0.34931   0.35174   0.35736
 Alpha virt. eigenvalues --    0.36090   0.36426   0.36937   0.37234   0.37527
 Alpha virt. eigenvalues --    0.37632   0.38067   0.38645   0.39215   0.39745
 Alpha virt. eigenvalues --    0.40217   0.41182   0.41404   0.41752   0.41985
 Alpha virt. eigenvalues --    0.42496   0.42886   0.43166   0.43357   0.44150
 Alpha virt. eigenvalues --    0.45063   0.45423   0.46194   0.46613   0.47064
 Alpha virt. eigenvalues --    0.47867   0.48590   0.48735   0.49719   0.50987
 Alpha virt. eigenvalues --    0.51553   0.52172   0.55509   0.62493   0.64274
 Alpha virt. eigenvalues --    0.65254   0.67445   0.68309   0.68497   0.69895
 Alpha virt. eigenvalues --    0.70838   0.72021   0.72924   0.73822   0.74725
 Alpha virt. eigenvalues --    0.75282   0.76484   0.76751   0.78066   0.78629
 Alpha virt. eigenvalues --    0.79381   0.81094   0.81550   0.82348   0.82842
 Alpha virt. eigenvalues --    0.85090   0.86389   0.87593   0.89213   0.90276
 Alpha virt. eigenvalues --    0.90588   0.91927   0.92882   0.93380   0.94545
 Alpha virt. eigenvalues --    0.95614   0.96800   0.97243   0.98055   1.00538
 Alpha virt. eigenvalues --    1.01143   1.02238   1.03091   1.03686   1.04433
 Alpha virt. eigenvalues --    1.04566   1.05146   1.06118   1.06846   1.07393
 Alpha virt. eigenvalues --    1.07716   1.08362   1.09156   1.09946   1.11288
 Alpha virt. eigenvalues --    1.11608   1.12978   1.13308   1.14031   1.15882
 Alpha virt. eigenvalues --    1.16813   1.18280   1.18885   1.19148   1.21107
 Alpha virt. eigenvalues --    1.22186   1.22830   1.23848   1.24686   1.25743
 Alpha virt. eigenvalues --    1.26694   1.27306   1.27637   1.28179   1.28975
 Alpha virt. eigenvalues --    1.29595   1.29872   1.30867   1.31006   1.31442
 Alpha virt. eigenvalues --    1.31853   1.32641   1.33470   1.33785   1.34699
 Alpha virt. eigenvalues --    1.35100   1.36655   1.36726   1.37592   1.38330
 Alpha virt. eigenvalues --    1.39652   1.39997   1.41619   1.42358   1.42625
 Alpha virt. eigenvalues --    1.43229   1.43878   1.45196   1.46621   1.47327
 Alpha virt. eigenvalues --    1.48676   1.49706   1.50026   1.52058   1.52826
 Alpha virt. eigenvalues --    1.53225   1.54619   1.55480   1.56433   1.57457
 Alpha virt. eigenvalues --    1.57943   1.58871   1.60051   1.61128   1.62286
 Alpha virt. eigenvalues --    1.63462   1.64060   1.64557   1.65100   1.65843
 Alpha virt. eigenvalues --    1.66581   1.67219   1.68015   1.68209   1.69487
 Alpha virt. eigenvalues --    1.70671   1.70842   1.72272   1.73326   1.74290
 Alpha virt. eigenvalues --    1.75009   1.75370   1.76111   1.77368   1.77964
 Alpha virt. eigenvalues --    1.78653   1.79022   1.80369   1.82299   1.82784
 Alpha virt. eigenvalues --    1.83734   1.84530   1.85136   1.86425   1.86633
 Alpha virt. eigenvalues --    1.87862   1.88308   1.89384   1.90331   1.90894
 Alpha virt. eigenvalues --    1.91182   1.92190   1.93299   1.93585   1.94486
 Alpha virt. eigenvalues --    1.94834   1.95604   1.96018   1.97441   1.97982
 Alpha virt. eigenvalues --    1.98828   1.99944   2.00613   2.00908   2.01895
 Alpha virt. eigenvalues --    2.03422   2.04118   2.05558   2.05988   2.06463
 Alpha virt. eigenvalues --    2.08172   2.08544   2.10745   2.11930   2.12608
 Alpha virt. eigenvalues --    2.13175   2.14178   2.15492   2.16723   2.16967
 Alpha virt. eigenvalues --    2.17950   2.19285   2.20091   2.21561   2.22371
 Alpha virt. eigenvalues --    2.22519   2.23784   2.24841   2.25462   2.28025
 Alpha virt. eigenvalues --    2.30416   2.31745   2.32037   2.33677   2.35201
 Alpha virt. eigenvalues --    2.36209   2.37215   2.37553   2.38692   2.40218
 Alpha virt. eigenvalues --    2.42061   2.43257   2.44158   2.44933   2.45396
 Alpha virt. eigenvalues --    2.46373   2.46903   2.48726   2.49786   2.49942
 Alpha virt. eigenvalues --    2.51176   2.51965   2.52594   2.53273   2.55738
 Alpha virt. eigenvalues --    2.56451   2.57083   2.57912   2.58541   2.59982
 Alpha virt. eigenvalues --    2.60681   2.61960   2.63265   2.63948   2.65034
 Alpha virt. eigenvalues --    2.66215   2.66790   2.68498   2.68915   2.70384
 Alpha virt. eigenvalues --    2.71400   2.72326   2.73010   2.75030   2.75471
 Alpha virt. eigenvalues --    2.76290   2.77976   2.78487   2.79877   2.80679
 Alpha virt. eigenvalues --    2.82138   2.82613   2.83904   2.84759   2.85559
 Alpha virt. eigenvalues --    2.86771   2.88407   2.88699   2.89208   2.90162
 Alpha virt. eigenvalues --    2.90682   2.91771   2.93641   2.93914   2.94971
 Alpha virt. eigenvalues --    2.95467   2.96357   2.97898   2.98844   3.01413
 Alpha virt. eigenvalues --    3.01656   3.03275   3.04845   3.05291   3.05606
 Alpha virt. eigenvalues --    3.07732   3.07844   3.10853   3.11702   3.13410
 Alpha virt. eigenvalues --    3.17382   3.18155   3.23895   3.26035   3.30866
 Alpha virt. eigenvalues --    3.32743   3.36289   3.37669   3.38798   3.41508
 Alpha virt. eigenvalues --    3.42148   3.44492   3.46453   3.46745   3.49679
 Alpha virt. eigenvalues --    3.50009   3.50698   3.51982   3.53186   3.54149
 Alpha virt. eigenvalues --    3.56653   3.57191   3.59730   3.61040   3.64842
 Alpha virt. eigenvalues --    3.65815   3.68734   3.70137   4.29588   4.35436
 Alpha virt. eigenvalues --    4.35750   4.39408   4.40336   4.43463   4.44851
 Alpha virt. eigenvalues --    4.49284   4.49928   4.51647   4.52225   4.56856
 Alpha virt. eigenvalues --    4.57482   4.59004   4.60726   4.66191   4.75631
 Alpha virt. eigenvalues --    4.79515   4.82704   4.85839   4.88659   4.91562
 Alpha virt. eigenvalues --    4.96067
          Condensed to atoms (all electrons):
              1          2          3          4          5          6
     1  O    8.218994   0.468031  -0.246225  -0.006752   0.030986   0.067770
     2  C    0.468031   8.670743  -1.978287  -0.076019  -0.111449  -1.691207
     3  C   -0.246225  -1.978287  10.988963   0.266389   0.021706  -0.413302
     4  O   -0.006752  -0.076019   0.266389   8.217509   0.199938  -0.148515
     5  H    0.030986  -0.111449   0.021706   0.199938   0.426606   0.075623
     6  C    0.067770  -1.691207  -0.413302  -0.148515   0.075623   9.960838
     7  O   -0.001016   0.064753  -0.178045   0.010682  -0.000761   0.187226
     8  H    0.000027  -0.014441   0.021698  -0.000945   0.000012   0.030488
     9  C    0.003984   0.206178  -0.376570   0.008698  -0.003532   0.239253
    10  O   -0.001141   0.058515   0.015498   0.000045  -0.000040  -0.008233
    11  H    0.001292  -0.013319  -0.001661   0.000002   0.000000   0.000551
    12  C   -0.228824  -1.330765  -0.320938   0.022294   0.020919   0.261296
    13  O    0.006668  -0.050539  -0.046076   0.000096  -0.000063  -0.114418
    14  C    0.009321   0.951552  -0.533921   0.023258  -0.005335  -2.422547
    15  O    0.000466  -0.050085   0.018627  -0.000181   0.000085   0.130383
    16  C    0.003520   0.176160  -0.719567  -0.000417   0.001336  -0.297645
    17  C    0.000765  -0.034802  -0.029348   0.000277   0.000059   0.106294
    18  O    0.000005   0.008023  -0.003549  -0.000010   0.000000   0.010565
    19  H   -0.000011  -0.009798   0.008556  -0.000002   0.000000   0.007376
    20  C    0.000042  -0.007706  -0.002280  -0.000116   0.000003   0.082430
    21  O    0.000000  -0.000020  -0.000044   0.000000   0.000000  -0.000158
    22  H    0.000000   0.000003   0.000001   0.000000   0.000000  -0.000041
    23  C    0.000208   0.023779  -0.109116   0.000006   0.000018  -0.204153
    24  O    0.000004   0.004203  -0.002475   0.000157  -0.000004   0.049580
    25  H    0.000000   0.000009  -0.000694   0.000000   0.000000  -0.007235
    26  C   -0.000313   0.030160  -0.018688   0.000647  -0.000026  -0.078515
    27  O    0.000000  -0.000142   0.000934   0.000001   0.000000   0.005789
    28  C   -0.000004   0.000078   0.004433   0.000004   0.000000   0.006633
    29  O    0.000000   0.000013   0.000028   0.000000   0.000000  -0.000707
    30  H    0.000000   0.000000   0.000001   0.000000   0.000000   0.000000
    31  H    0.247190  -0.000039   0.019636   0.000235  -0.002725   0.000145
    32  H   -0.000062   0.030048  -0.050219  -0.000322   0.000009  -0.053863
    33  H   -0.000907   0.090219  -0.212412   0.006110  -0.000080   0.301177
    34  H   -0.002993   0.152742   0.085735  -0.039814  -0.006807  -0.178583
    35  H   -0.049062   0.516515  -0.170586   0.004097  -0.000482  -0.000737
    36  H    0.006994   0.056078  -0.073117   0.000031  -0.000014   0.002585
    37  H    0.000495  -0.004630   0.000547   0.000012   0.000000   0.001135
    38  H   -0.000287   0.000436  -0.015733   0.000020  -0.000001   0.014380
    39  H    0.000000   0.000052  -0.000031   0.000000   0.000000  -0.000443
    40  H    0.000000  -0.000274   0.002989  -0.000001   0.000000   0.006546
    41  H    0.000000  -0.000185   0.001703   0.000000   0.000000   0.004097
    42  H   -0.000002  -0.001041   0.004293  -0.000001   0.000000   0.014573
    43  H    0.000000   0.000479   0.000642   0.000000   0.000000   0.003715
    44  H    0.000000   0.000020   0.000104   0.000000   0.000000   0.000183
    45  H    0.000000  -0.000007   0.000035   0.000000   0.000000   0.000094
              7          8          9         10         11         12
     1  O   -0.001016   0.000027   0.003984  -0.001141   0.001292  -0.228824
     2  C    0.064753  -0.014441   0.206178   0.058515  -0.013319  -1.330765
     3  C   -0.178045   0.021698  -0.376570   0.015498  -0.001661  -0.320938
     4  O    0.010682  -0.000945   0.008698   0.000045   0.000002   0.022294
     5  H   -0.000761   0.000012  -0.003532  -0.000040   0.000000   0.020919
     6  C    0.187226   0.030488   0.239253  -0.008233   0.000551   0.261296
     7  O    8.286991   0.198913  -0.002975   0.000031   0.000001   0.028929
     8  H    0.198913   0.369533   0.000824   0.000000   0.000000   0.002996
     9  C   -0.002975   0.000824   8.229304   0.154748   0.025206  -3.254854
    10  O    0.000031   0.000000   0.154748   8.369320   0.210654  -0.125653
    11  H    0.000001   0.000000   0.025206   0.210654   0.419630   0.005553
    12  C    0.028929   0.002996  -3.254854  -0.125653   0.005553  12.092723
    13  O    0.016487   0.000188   0.163776  -0.000743  -0.000215  -0.270892
    14  C   -0.057162  -0.001878  -0.243904   0.000932  -0.002875  -0.802067
    15  O   -0.015354   0.018664  -0.025735  -0.000411   0.000000   0.056297
    16  C    0.039032   0.000370  -0.225591  -0.003381  -0.000294   0.173479
    17  C    0.010301   0.000865  -0.004106   0.000335   0.000012  -0.154506
    18  O   -0.000234  -0.000035   0.008294   0.000007   0.000005  -0.019156
    19  H   -0.000019  -0.000006   0.000733  -0.000035  -0.000002   0.000145
    20  C    0.004015   0.000943   0.009735   0.000141   0.000016  -0.020603
    21  O   -0.000008  -0.000001   0.000145   0.000000   0.000000  -0.000171
    22  H    0.000000   0.000000  -0.000001   0.000000   0.000000   0.000032
    23  C    0.043310   0.003898   0.002125  -0.000027   0.000000  -0.006834
    24  O   -0.061620   0.008061   0.000272   0.000000   0.000000  -0.002503
    25  H    0.003239  -0.002888   0.000001   0.000000   0.000000  -0.000081
    26  C   -0.026074  -0.042427  -0.002065   0.000035   0.000001   0.042243
    27  O    0.000361   0.000024  -0.000184   0.000000   0.000000   0.000002
    28  C   -0.000682   0.000083  -0.004026  -0.000009   0.000000   0.004857
    29  O   -0.000002  -0.000001  -0.000009   0.000000   0.000000   0.000069
    30  H    0.000000   0.000000   0.000000   0.000000   0.000000   0.000000
    31  H   -0.000044   0.000000  -0.011169  -0.001850  -0.000029   0.002084
    32  H   -0.007212  -0.002576   0.003292   0.000059   0.000000  -0.014852
    33  H   -0.027882  -0.004425   0.004861   0.000024   0.000000   0.008555
    34  H    0.006248   0.000045   0.023141   0.000134   0.000001  -0.025306
    35  H    0.000434   0.000003   0.053676   0.000526   0.000003  -0.213465
    36  H   -0.000370   0.000003   0.101394   0.008859  -0.000023   0.100511
    37  H   -0.000018   0.000000   0.369397  -0.034378  -0.013949   0.004511
    38  H    0.000007   0.000000   0.723575  -0.068856   0.002740  -0.366377
    39  H   -0.000573   0.000416  -0.000009   0.000000   0.000000  -0.000156
    40  H    0.003315   0.001829   0.000002   0.000000   0.000000   0.000881
    41  H   -0.000112   0.000107   0.000060   0.000000   0.000000   0.000527
    42  H   -0.001291  -0.000003  -0.000179   0.000001   0.000000   0.001698
    43  H   -0.000006   0.000002  -0.000276   0.000000   0.000000   0.001744
    44  H    0.000005   0.000000  -0.000079   0.000000   0.000000   0.000533
    45  H    0.000000   0.000000   0.000001   0.000000   0.000000   0.000033
             13         14         15         16         17         18
     1  O    0.006668   0.009321   0.000466   0.003520   0.000765   0.000005
     2  C   -0.050539   0.951552  -0.050085   0.176160  -0.034802   0.008023
     3  C   -0.046076  -0.533921   0.018627  -0.719567  -0.029348  -0.003549
     4  O    0.000096   0.023258  -0.000181  -0.000417   0.000277  -0.000010
     5  H   -0.000063  -0.005335   0.000085   0.001336   0.000059   0.000000
     6  C   -0.114418  -2.422547   0.130383  -0.297645   0.106294   0.010565
     7  O    0.016487  -0.057162  -0.015354   0.039032   0.010301  -0.000234
     8  H    0.000188  -0.001878   0.018664   0.000370   0.000865  -0.000035
     9  C    0.163776  -0.243904  -0.025735  -0.225591  -0.004106   0.008294
    10  O   -0.000743   0.000932  -0.000411  -0.003381   0.000335   0.000007
    11  H   -0.000215  -0.002875   0.000000  -0.000294   0.000012   0.000005
    12  C   -0.270892  -0.802067   0.056297   0.173479  -0.154506  -0.019156
    13  O    8.598359   0.175519  -0.072265   0.097377  -0.101779   0.022973
    14  C    0.175519  10.529375   0.158273  -0.980920  -0.420865  -0.072032
    15  O   -0.072265   0.158273   8.373864  -0.242339   0.078475  -0.002587
    16  C    0.097377  -0.980920  -0.242339  15.340785  -3.042983  -0.184963
    17  C   -0.101779  -0.420865   0.078475  -3.042983   8.841966   0.409567
    18  O    0.022973  -0.072032  -0.002587  -0.184963   0.409567   8.171365
    19  H    0.000106   0.011366   0.032618  -0.148800   0.089624   0.186473
    20  C   -0.021693  -0.126613   0.058426  -1.999340   0.554584  -0.103279
    21  O   -0.000241  -0.000511  -0.000659  -0.030524  -0.137671   0.006371
    22  H    0.000000  -0.000569   0.000036  -0.007913   0.011592  -0.000330
    23  C    0.027151  -0.289086  -0.058118   0.258386  -0.324702   0.007192
    24  O   -0.001835   0.026987  -0.009801   0.026724   0.002217   0.000148
    25  H    0.000011  -0.004723   0.000787  -0.008383  -0.000059   0.000000
    26  C   -0.006347  -0.814252   0.012374  -3.634813   0.543708   0.073041
    27  O    0.000493  -0.016139   0.010595  -0.119617  -0.098028   0.002227
    28  C    0.004081  -0.012311   0.020911   0.845102  -0.256474   0.002149
    29  O    0.000060  -0.004176  -0.000090   0.000988  -0.032627  -0.000091
    30  H    0.000000   0.000037   0.000002  -0.008023   0.016008  -0.000058
    31  H   -0.000998  -0.000342  -0.000026   0.000184  -0.000048   0.000000
    32  H   -0.050682   0.364669  -0.064935   0.019852   0.035794  -0.000900
    33  H    0.011143   0.038898  -0.012404   0.045523   0.002435   0.000077
    34  H    0.008093   0.162169  -0.000197   0.015330   0.000457   0.000055
    35  H    0.017763   0.067788  -0.000967  -0.001592   0.000966   0.000082
    36  H   -0.027718   0.068297  -0.002800  -0.000914   0.003660   0.000269
    37  H   -0.006872   0.000424  -0.000298   0.008505  -0.001549  -0.001019
    38  H    0.011412  -0.002391  -0.000839  -0.007307   0.001722   0.000219
    39  H    0.000006  -0.005200   0.000339   0.027436  -0.002937   0.000032
    40  H    0.000207   0.010622   0.004125  -0.032117   0.000978   0.000019
    41  H   -0.000292   0.056476   0.005834   0.020913  -0.034921   0.000106
    42  H   -0.001412   0.037288  -0.063741   0.291844  -0.005996  -0.001179
    43  H    0.003358   0.034840  -0.008428   0.081636   0.293142  -0.042376
    44  H    0.000513   0.004370  -0.001323   0.121719  -0.180706   0.005568
    45  H    0.000010   0.007448   0.000228   0.117445  -0.039754  -0.000702
             19         20         21         22         23         24
     1  O   -0.000011   0.000042   0.000000   0.000000   0.000208   0.000004
     2  C   -0.009798  -0.007706  -0.000020   0.000003   0.023779   0.004203
     3  C    0.008556  -0.002280  -0.000044   0.000001  -0.109116  -0.002475
     4  O   -0.000002  -0.000116   0.000000   0.000000   0.000006   0.000157
     5  H    0.000000   0.000003   0.000000   0.000000   0.000018  -0.000004
     6  C    0.007376   0.082430  -0.000158  -0.000041  -0.204153   0.049580
     7  O   -0.000019   0.004015  -0.000008   0.000000   0.043310  -0.061620
     8  H   -0.000006   0.000943  -0.000001   0.000000   0.003898   0.008061
     9  C    0.000733   0.009735   0.000145  -0.000001   0.002125   0.000272
    10  O   -0.000035   0.000141   0.000000   0.000000  -0.000027   0.000000
    11  H   -0.000002   0.000016   0.000000   0.000000   0.000000   0.000000
    12  C    0.000145  -0.020603  -0.000171   0.000032  -0.006834  -0.002503
    13  O    0.000106  -0.021693  -0.000241   0.000000   0.027151  -0.001835
    14  C    0.011366  -0.126613  -0.000511  -0.000569  -0.289086   0.026987
    15  O    0.032618   0.058426  -0.000659   0.000036  -0.058118  -0.009801
    16  C   -0.148800  -1.999340  -0.030524  -0.007913   0.258386   0.026724
    17  C    0.089624   0.554584  -0.137671   0.011592  -0.324702   0.002217
    18  O    0.186473  -0.103279   0.006371  -0.000330   0.007192   0.000148
    19  H    0.391355   0.035730  -0.001060   0.000021  -0.007688   0.000033
    20  C    0.035730   8.147860   0.245807   0.004192  -0.013538  -0.006036
    21  O   -0.001060   0.245807   8.223936   0.190600   0.006388   0.000012
    22  H    0.000021   0.004192   0.190600   0.447820  -0.000370   0.000000
    23  C   -0.007688  -0.013538   0.006388  -0.000370   7.180589  -0.267590
    24  O    0.000033  -0.006036   0.000012   0.000000  -0.267590   8.513411
    25  H    0.000000   0.000779   0.000000   0.000000   0.088166   0.186132
    26  C    0.010371   0.351329   0.052651   0.001234  -1.043324   0.181614
    27  O    0.000082  -0.137213   0.006492   0.000354  -0.065051   0.002687
    28  C   -0.001442  -1.017231  -0.054896  -0.004608  -0.181885   0.012780
    29  O    0.000042  -0.199555   0.000486   0.027355  -0.008420   0.000100
    30  H    0.000000  -0.022584  -0.002068  -0.003119   0.000949   0.000000
    31  H    0.000000   0.000000   0.000000   0.000000   0.000003   0.000000
    32  H    0.000574   0.007731   0.000002   0.000000   0.006662   0.000850
    33  H    0.000003   0.000150   0.000000   0.000000   0.008563   0.002278
    34  H   -0.000001  -0.000045   0.000000   0.000000   0.001790   0.000160
    35  H    0.000003   0.000021   0.000000   0.000000   0.000135   0.000014
    36  H    0.000085   0.000390   0.000000   0.000000   0.000301   0.000002
    37  H    0.000141  -0.001160  -0.000005   0.000000   0.000013   0.000000
    38  H    0.000027   0.000203   0.000001   0.000000   0.000006   0.000000
    39  H    0.000000   0.002344  -0.000009   0.000000   0.477022  -0.040344
    40  H    0.000002  -0.000644   0.000001   0.000000   0.513010  -0.086703
    41  H    0.000056  -0.023155  -0.000049   0.000007  -0.011609   0.004468
    42  H   -0.000248   0.034333  -0.000370   0.000003  -0.006591  -0.000547
    43  H   -0.005909  -0.093136   0.002436  -0.000093   0.014586  -0.000118
    44  H   -0.000001   0.363283  -0.033678  -0.007012   0.011975  -0.000005
    45  H    0.000010  -0.105378   0.003525  -0.000107  -0.006034  -0.000014
             25         26         27         28         29         30
     1  O    0.000000  -0.000313   0.000000  -0.000004   0.000000   0.000000
     2  C    0.000009   0.030160  -0.000142   0.000078   0.000013   0.000000
     3  C   -0.000694  -0.018688   0.000934   0.004433   0.000028   0.000001
     4  O    0.000000   0.000647   0.000001   0.000004   0.000000   0.000000
     5  H    0.000000  -0.000026   0.000000   0.000000   0.000000   0.000000
     6  C   -0.007235  -0.078515   0.005789   0.006633  -0.000707   0.000000
     7  O    0.003239  -0.026074   0.000361  -0.000682  -0.000002   0.000000
     8  H   -0.002888  -0.042427   0.000024   0.000083  -0.000001   0.000000
     9  C    0.000001  -0.002065  -0.000184  -0.004026  -0.000009   0.000000
    10  O    0.000000   0.000035   0.000000  -0.000009   0.000000   0.000000
    11  H    0.000000   0.000001   0.000000   0.000000   0.000000   0.000000
    12  C   -0.000081   0.042243   0.000002   0.004857   0.000069   0.000000
    13  O    0.000011  -0.006347   0.000493   0.004081   0.000060   0.000000
    14  C   -0.004723  -0.814252  -0.016139  -0.012311  -0.004176   0.000037
    15  O    0.000787   0.012374   0.010595   0.020911  -0.000090   0.000002
    16  C   -0.008383  -3.634813  -0.119617   0.845102   0.000988  -0.008023
    17  C   -0.000059   0.543708  -0.098028  -0.256474  -0.032627   0.016008
    18  O    0.000000   0.073041   0.002227   0.002149  -0.000091  -0.000058
    19  H    0.000000   0.010371   0.000082  -0.001442   0.000042   0.000000
    20  C    0.000779   0.351329  -0.137213  -1.017231  -0.199555  -0.022584
    21  O    0.000000   0.052651   0.006492  -0.054896   0.000486  -0.002068
    22  H    0.000000   0.001234   0.000354  -0.004608   0.027355  -0.003119
    23  C    0.088166  -1.043324  -0.065051  -0.181885  -0.008420   0.000949
    24  O    0.186132   0.181614   0.002687   0.012780   0.000100   0.000000
    25  H    0.422060  -0.033145  -0.000644  -0.003600   0.000002   0.000000
    26  C   -0.033145  11.039665   0.402610  -0.775151  -0.039697   0.014731
    27  O   -0.000644   0.402610   8.304361   0.118326  -0.027707   0.001205
    28  C   -0.003600  -0.775151   0.118326   6.164185   0.390566   0.007493
    29  O    0.000002  -0.039697  -0.027707   0.390566   8.302720   0.233061
    30  H    0.000000   0.014731   0.001205   0.007493   0.233061   0.400875
    31  H    0.000000  -0.000006   0.000000   0.000000   0.000000   0.000000
    32  H    0.000003   0.016693   0.000073  -0.001625  -0.000002   0.000000
    33  H   -0.000011  -0.003396   0.000004  -0.000128   0.000000   0.000000
    34  H    0.000000   0.000310   0.000000  -0.000020   0.000000   0.000000
    35  H    0.000000   0.000181   0.000000  -0.000011   0.000000   0.000000
    36  H    0.000000   0.000220   0.000000  -0.000079   0.000000   0.000000
    37  H    0.000000  -0.000057   0.000000   0.000099   0.000000   0.000000
    38  H    0.000000  -0.000052   0.000000  -0.000032   0.000000   0.000000
    39  H   -0.014665  -0.117031  -0.003192   0.001651  -0.000257  -0.000001
    40  H   -0.001061  -0.170554   0.009410   0.009529  -0.000032   0.000000
    41  H   -0.000136   0.215144  -0.042176   0.034158  -0.000533   0.000012
    42  H   -0.000004  -0.080222   0.005085  -0.002200  -0.000961   0.000002
    43  H    0.000000  -0.056148   0.004598  -0.008288  -0.000523   0.000024
    44  H    0.000000  -0.012079   0.003260  -0.017125  -0.001822   0.000261
    45  H    0.000000  -0.074668  -0.056279   0.437651  -0.047320  -0.008356
             31         32         33         34         35         36
     1  O    0.247190  -0.000062  -0.000907  -0.002993  -0.049062   0.006994
     2  C   -0.000039   0.030048   0.090219   0.152742   0.516515   0.056078
     3  C    0.019636  -0.050219  -0.212412   0.085735  -0.170586  -0.073117
     4  O    0.000235  -0.000322   0.006110  -0.039814   0.004097   0.000031
     5  H   -0.002725   0.000009  -0.000080  -0.006807  -0.000482  -0.000014
     6  C    0.000145  -0.053863   0.301177  -0.178583  -0.000737   0.002585
     7  O   -0.000044  -0.007212  -0.027882   0.006248   0.000434  -0.000370
     8  H    0.000000  -0.002576  -0.004425   0.000045   0.000003   0.000003
     9  C   -0.011169   0.003292   0.004861   0.023141   0.053676   0.101394
    10  O   -0.001850   0.000059   0.000024   0.000134   0.000526   0.008859
    11  H   -0.000029   0.000000   0.000000   0.000001   0.000003  -0.000023
    12  C    0.002084  -0.014852   0.008555  -0.025306  -0.213465   0.100511
    13  O   -0.000998  -0.050682   0.011143   0.008093   0.017763  -0.027718
    14  C   -0.000342   0.364669   0.038898   0.162169   0.067788   0.068297
    15  O   -0.000026  -0.064935  -0.012404  -0.000197  -0.000967  -0.002800
    16  C    0.000184   0.019852   0.045523   0.015330  -0.001592  -0.000914
    17  C   -0.000048   0.035794   0.002435   0.000457   0.000966   0.003660
    18  O    0.000000  -0.000900   0.000077   0.000055   0.000082   0.000269
    19  H    0.000000   0.000574   0.000003  -0.000001   0.000003   0.000085
    20  C    0.000000   0.007731   0.000150  -0.000045   0.000021   0.000390
    21  O    0.000000   0.000002   0.000000   0.000000   0.000000   0.000000
    22  H    0.000000   0.000000   0.000000   0.000000   0.000000   0.000000
    23  C    0.000003   0.006662   0.008563   0.001790   0.000135   0.000301
    24  O    0.000000   0.000850   0.002278   0.000160   0.000014   0.000002
    25  H    0.000000   0.000003  -0.000011   0.000000   0.000000   0.000000
    26  C   -0.000006   0.016693  -0.003396   0.000310   0.000181   0.000220
    27  O    0.000000   0.000073   0.000004   0.000000   0.000000   0.000000
    28  C    0.000000  -0.001625  -0.000128  -0.000020  -0.000011  -0.000079
    29  O    0.000000  -0.000002   0.000000   0.000000   0.000000   0.000000
    30  H    0.000000   0.000000   0.000000   0.000000   0.000000   0.000000
    31  H    0.382101   0.000001   0.000009  -0.000133  -0.011790  -0.000046
    32  H    0.000001   0.595453   0.003498   0.001823  -0.000006   0.003320
    33  H    0.000009   0.003498   0.572115   0.006266   0.002926  -0.000032
    34  H   -0.000133   0.001823   0.006266   0.643974   0.008061   0.004020
    35  H   -0.011790  -0.000006   0.002926   0.008061   0.637805   0.006808
    36  H   -0.000046   0.003320  -0.000032   0.004020   0.006808   0.609363
    37  H   -0.000022  -0.000015   0.000001   0.000004   0.000060  -0.007059
    38  H    0.000208  -0.000016  -0.000018   0.000004   0.006229   0.006334
    39  H    0.000000   0.000002   0.000004   0.000000   0.000000   0.000000
    40  H    0.000000   0.000030  -0.000034  -0.000001   0.000000   0.000000
    41  H    0.000000  -0.000007  -0.000015   0.000000   0.000000   0.000000
    42  H    0.000000   0.011759  -0.000011  -0.000007   0.000000  -0.000002
    43  H    0.000000  -0.000010  -0.000006   0.000000   0.000000   0.000000
    44  H    0.000000  -0.000013   0.000000   0.000000   0.000000   0.000000
    45  H    0.000000   0.000000   0.000000   0.000000   0.000000   0.000000
             37         38         39         40         41         42
     1  O    0.000495  -0.000287   0.000000   0.000000   0.000000  -0.000002
     2  C   -0.004630   0.000436   0.000052  -0.000274  -0.000185  -0.001041
     3  C    0.000547  -0.015733  -0.000031   0.002989   0.001703   0.004293
     4  O    0.000012   0.000020   0.000000  -0.000001   0.000000  -0.000001
     5  H    0.000000  -0.000001   0.000000   0.000000   0.000000   0.000000
     6  C    0.001135   0.014380  -0.000443   0.006546   0.004097   0.014573
     7  O   -0.000018   0.000007  -0.000573   0.003315  -0.000112  -0.001291
     8  H    0.000000   0.000000   0.000416   0.001829   0.000107  -0.000003
     9  C    0.369397   0.723575  -0.000009   0.000002   0.000060  -0.000179
    10  O   -0.034378  -0.068856   0.000000   0.000000   0.000000   0.000001
    11  H   -0.013949   0.002740   0.000000   0.000000   0.000000   0.000000
    12  C    0.004511  -0.366377  -0.000156   0.000881   0.000527   0.001698
    13  O   -0.006872   0.011412   0.000006   0.000207  -0.000292  -0.001412
    14  C    0.000424  -0.002391  -0.005200   0.010622   0.056476   0.037288
    15  O   -0.000298  -0.000839   0.000339   0.004125   0.005834  -0.063741
    16  C    0.008505  -0.007307   0.027436  -0.032117   0.020913   0.291844
    17  C   -0.001549   0.001722  -0.002937   0.000978  -0.034921  -0.005996
    18  O   -0.001019   0.000219   0.000032   0.000019   0.000106  -0.001179
    19  H    0.000141   0.000027   0.000000   0.000002   0.000056  -0.000248
    20  C   -0.001160   0.000203   0.002344  -0.000644  -0.023155   0.034333
    21  O   -0.000005   0.000001  -0.000009   0.000001  -0.000049  -0.000370
    22  H    0.000000   0.000000   0.000000   0.000000   0.000007   0.000003
    23  C    0.000013   0.000006   0.477022   0.513010  -0.011609  -0.006591
    24  O    0.000000   0.000000  -0.040344  -0.086703   0.004468  -0.000547
    25  H    0.000000   0.000000  -0.014665  -0.001061  -0.000136  -0.000004
    26  C   -0.000057  -0.000052  -0.117031  -0.170554   0.215144  -0.080222
    27  O    0.000000   0.000000  -0.003192   0.009410  -0.042176   0.005085
    28  C    0.000099  -0.000032   0.001651   0.009529   0.034158  -0.002200
    29  O    0.000000   0.000000  -0.000257  -0.000032  -0.000533  -0.000961
    30  H    0.000000   0.000000  -0.000001   0.000000   0.000012   0.000002
    31  H   -0.000022   0.000208   0.000000   0.000000   0.000000   0.000000
    32  H   -0.000015  -0.000016   0.000002   0.000030  -0.000007   0.011759
    33  H    0.000001  -0.000018   0.000004  -0.000034  -0.000015  -0.000011
    34  H    0.000004   0.000004   0.000000  -0.000001   0.000000  -0.000007
    35  H    0.000060   0.006229   0.000000   0.000000   0.000000   0.000000
    36  H   -0.007059   0.006334   0.000000   0.000000   0.000000  -0.000002
    37  H    0.589546  -0.045129   0.000000   0.000000   0.000000   0.000000
    38  H   -0.045129   0.601384   0.000000   0.000000   0.000000   0.000000
    39  H    0.000000   0.000000   0.584807  -0.043871  -0.006849  -0.000036
    40  H    0.000000   0.000000  -0.043871   0.614280   0.007041   0.004666
    41  H    0.000000   0.000000  -0.006849   0.007041   0.615203   0.006719
    42  H    0.000000   0.000000  -0.000036   0.004666   0.006719   0.619699
    43  H    0.000000   0.000001   0.000003   0.000008   0.003599   0.006198
    44  H    0.000000   0.000000   0.000001  -0.000001   0.000014   0.002786
    45  H    0.000000   0.000000  -0.000043  -0.000005   0.007323   0.000047
             43         44         45
     1  O    0.000000   0.000000   0.000000
     2  C    0.000479   0.000020  -0.000007
     3  C    0.000642   0.000104   0.000035
     4  O    0.000000   0.000000   0.000000
     5  H    0.000000   0.000000   0.000000
     6  C    0.003715   0.000183   0.000094
     7  O   -0.000006   0.000005   0.000000
     8  H    0.000002   0.000000   0.000000
     9  C   -0.000276  -0.000079   0.000001
    10  O    0.000000   0.000000   0.000000
    11  H    0.000000   0.000000   0.000000
    12  C    0.001744   0.000533   0.000033
    13  O    0.003358   0.000513   0.000010
    14  C    0.034840   0.004370   0.007448
    15  O   -0.008428  -0.001323   0.000228
    16  C    0.081636   0.121719   0.117445
    17  C    0.293142  -0.180706  -0.039754
    18  O   -0.042376   0.005568  -0.000702
    19  H   -0.005909  -0.000001   0.000010
    20  C   -0.093136   0.363283  -0.105378
    21  O    0.002436  -0.033678   0.003525
    22  H   -0.000093  -0.007012  -0.000107
    23  C    0.014586   0.011975  -0.006034
    24  O   -0.000118  -0.000005  -0.000014
    25  H    0.000000   0.000000   0.000000
    26  C   -0.056148  -0.012079  -0.074668
    27  O    0.004598   0.003260  -0.056279
    28  C   -0.008288  -0.017125   0.437651
    29  O   -0.000523  -0.001822  -0.047320
    30  H    0.000024   0.000261  -0.008356
    31  H    0.000000   0.000000   0.000000
    32  H   -0.000010  -0.000013   0.000000
    33  H   -0.000006   0.000000   0.000000
    34  H    0.000000   0.000000   0.000000
    35  H    0.000000   0.000000   0.000000
    36  H    0.000000   0.000000   0.000000
    37  H    0.000000   0.000000   0.000000
    38  H    0.000001   0.000000   0.000000
    39  H    0.000003   0.000001  -0.000043
    40  H    0.000008  -0.000001  -0.000005
    41  H    0.003599   0.000014   0.007323
    42  H    0.006198   0.002786   0.000047
    43  H    0.616505   0.005503   0.002357
    44  H    0.005503   0.571897   0.004385
    45  H    0.002357   0.004385   0.618533
 Mulliken atomic charges:
              1
     1  O   -0.529163
     2  C   -0.134033
     3  C    0.040369
     4  O   -0.487412
     5  H    0.354020
     6  C    0.049574
     7  O   -0.522817
     8  H    0.409632
     9  C   -0.177411
    10  O   -0.575108
    11  H    0.366701
    12  C    0.325090
    13  O   -0.390766
    14  C    0.079909
    15  O   -0.347824
    16  C   -0.016201
    17  C   -0.101939
    18  O   -0.482330
    19  H    0.399490
    20  C   -0.003178
    21  O   -0.476711
    22  H    0.340913
    23  C   -0.072095
    24  O   -0.543299
    25  H    0.376140
    26  C    0.040087
    27  O   -0.312600
    28  C    0.277060
    29  O   -0.590961
    30  H    0.369551
    31  H    0.377472
    32  H    0.145119
    33  H    0.156922
    34  H    0.133346
    35  H    0.124605
    36  H    0.132651
    37  H    0.141269
    38  H    0.138129
    39  H    0.141529
    40  H    0.145809
    41  H    0.136471
    42  H    0.125047
    43  H    0.139941
    44  H    0.157463
    45  H    0.139540
 Sum of Mulliken atomic charges =   0.00000
 Mulliken charges with hydrogens summed into heavy atoms:
              1
     1  O   -0.151691
     2  C   -0.009429
     3  C    0.173715
     4  O   -0.133392
     6  C    0.206496
     7  O   -0.113185
     9  C    0.101987
    10  O   -0.208407
    12  C    0.457740
    13  O   -0.390766
    14  C    0.225028
    15  O   -0.347824
    16  C    0.108846
    17  C    0.038002
    18  O   -0.082840
    20  C    0.154285
    21  O   -0.135798
    23  C    0.215244
    24  O   -0.167159
    26  C    0.176558
    27  O   -0.312600
    28  C    0.416600
    29  O   -0.221411
 Sum of Mulliken charges with hydrogens summed into heavy atoms =   0.00000
 APT atomic charges:
              1
     1  O   -0.635532
     2  C    0.396846
     3  C    0.407335
     4  O   -0.629758
     5  H    0.268157
     6  C    0.359381
     7  O   -0.723681
     8  H    0.419547
     9  C    0.510470
    10  O   -0.650714
    11  H    0.254846
    12  C    0.420924
    13  O   -0.829383
    14  C    0.918664
    15  O   -0.854095
    16  C    0.435024
    17  C    0.365359
    18  O   -0.676215
    19  H    0.360389
    20  C    0.381100
    21  O   -0.579416
    22  H    0.248954
    23  C    0.431627
    24  O   -0.625769
    25  H    0.253572
    26  C    0.440141
    27  O   -0.776031
    28  C    0.873863
    29  O   -0.683093
    30  H    0.264880
    31  H    0.272515
    32  H   -0.046634
    33  H   -0.012077
    34  H   -0.055755
    35  H   -0.052978
    36  H   -0.059646
    37  H   -0.034225
    38  H   -0.048874
    39  H   -0.035361
    40  H   -0.037314
    41  H   -0.055723
    42  H   -0.037248
    43  H   -0.055870
    44  H   -0.024918
    45  H   -0.063285
 Sum of APT charges=   0.00000
 APT Atomic charges with hydrogens summed into heavy atoms:
              1
     1  O   -0.363017
     2  C    0.343868
     3  C    0.351580
     4  O   -0.361601
[...]
 22,-0.01655855,-0.00391347,0.01086949,-0.34872667,-0.02925318,-0.03548
 962,-0.01430546,-0.00125720,-0.00479477,0.00240247,-0.00093026,0.00086
 515,-0.00058738,-0.00008402,0.00009009,-0.00065925,-0.00041038,0.00096
 507,0.00061621,-0.00003693,0.00015723,-0.00000777,0.00005552,-0.000095
 03,0.00032673,0.00036281,0.00023785,0.00020121,0.00008503,-0.00011212,
 0.00002457,-0.00002093,-0.00002315,-0.00708062,-0.00080177,-0.00134371
 ,0.00203624,0.00087881,-0.00012881,-0.00022879,0.00002771,-0.00013044,
 0.00009063,-0.00000376,-0.00011462,-0.00000059,-0.00002281,-0.00000981
 ,-0.00000114,-0.00000352,-0.00000487,0.00151628,0.00024384,0.00094926,
 0.00002666,0.00023400,-0.00032588,0.00001106,-0.00000212,0.00003668,0.
 00001526,0.00000057,-0.00000935,0.00003201,0.00000937,0.00004591,-0.00
 000678,0.00001411,-0.00000055,0.00001689,0.00000433,-0.00001254,0.0002
 1597,-0.00002358,0.00002466,0.00036728,-0.00077373,0.00017126,0.000519
 22,-0.00058874,-0.00027991,0.37729327,0.00000286,-0.00002558,0.0000174
 7,-0.00000137,0.00004297,-0.00001548,0.00001977,0.00001389,0.00000537,
 0.00000691,-0.00002149,-0.00001637,-0.00000527,0.00000889,-0.00000087,
 -0.00005127,0.00006827,0.00002590,0.00020078,-0.00002733,-0.00017409,-
 0.00019322,-0.00026578,0.00010043,0.00002271,-0.00001630,-0.00000633,-
 0.00001010,0.00001770,0.00002494,0.00000437,-0.00000201,-0.00000442,-0
 .00005741,0.00003219,-0.00002111,0.00027543,-0.00007388,0.00024470,-0.
 00098226,0.00128687,-0.00091462,-0.00787675,0.00037947,0.00420023,-0.0
 2946092,-0.04745641,-0.00528825,0.03199720,0.00113017,0.00607467,-0.00
 205131,0.00298252,0.00038626,0.00046850,-0.00017920,-0.00025464,0.0010
 8518,0.00101384,-0.00058856,-0.00044299,-0.00018098,-0.00015083,-0.000
 08865,0.00000524,0.00000386,-0.00175338,0.00200353,0.00035096,0.000415
 10,0.00002369,-0.00011328,-0.00002399,-0.00003115,-0.00000515,-0.02952
 362,-0.00469087,-0.00637533,0.00156724,0.00158293,0.00254796,0.0001673
 2,-0.00035476,-0.00008795,-0.00003385,0.00010003,0.00009009,-0.0000121
 0,0.00000572,0.00000525,0.00000101,0.00000139,-0.00000176,0.00036187,0
 .00025018,0.00034225,0.00005610,0.00002202,-0.00004517,0.00000953,0.00
 000629,0.00001436,0.00000113,-0.00000615,0.00000076,-0.00000464,0.0000
 1400,-0.00000532,0.00000778,-0.00001406,-0.00000004,-0.00000678,-0.000
 00434,0.00000300,0.00039141,0.00024082,0.00011232,0.00100373,-0.000290
 19,0.00037507,-0.00080459,-0.00338336,-0.00359930,0.03414881,0.0508826
 6,-0.00001042,-0.00001504,-0.00003477,0.00001271,0.00001855,0.00003293
 ,-0.00003075,0.00002723,0.00003829,-0.00002537,-0.00000628,-0.00001227
 ,0.00000537,-0.00000071,0.00000009,0.00023083,0.00023463,-0.00013026,-
 0.00027438,-0.00001581,0.00002488,0.00012463,-0.00005327,-0.00008236,-
 0.00002120,0.00003037,-0.00001722,-0.00000257,-0.00003393,-0.00001314,
 0.00000159,-0.00000022,-0.00000411,-0.00001157,-0.00008783,-0.00011636
 ,-0.00080731,-0.00024957,-0.00016386,0.00780939,0.00066760,0.00212919,
 0.03775474,0.00802885,-0.01738942,-0.04281446,-0.00546045,-0.04472244,
 -0.01372220,-0.00117225,-0.00125057,0.00165294,-0.00054582,0.00068035,
 0.00002642,0.00028506,-0.00007221,-0.00152260,0.00008016,0.00012958,0.
 00038570,0.00000038,-0.00005362,-0.00002973,-0.00000603,-0.00003755,-0
 .00003640,0.00117873,0.00027640,0.00013697,0.00002967,0.00010408,-0.00
 001619,0.00003610,0.00002914,-0.02184635,-0.00364217,-0.00328697,0.000
 56227,0.00031992,0.00233515,-0.00052381,0.00028220,-0.00018453,0.00008
 965,0.00000899,-0.00018918,0.00001915,-0.00000645,0.00000427,-0.000000
 68,0.00000367,0.00000567,-0.00130876,0.00024049,-0.00039552,-0.0002935
 2,-0.00010925,0.00000288,-0.00006056,-0.00001164,-0.00005561,-0.000014
 91,0.00000916,0.00001157,-0.00001937,-0.00002369,-0.00006387,-0.000002
 75,-0.00001077,-0.00000027,-0.00000575,0.00000868,0.00000540,0.0001359
 2,0.00014391,0.00001204,0.00053088,-0.00028905,0.00025417,-0.00045191,
 -0.00286102,-0.00278266,0.03455634,0.00029001,0.06577358,0.00000910,0.
 00002345,-0.00006681,-0.00003612,-0.00003360,0.00003921,0.00000728,-0.
 00002914,0.00003306,0.00000600,0.00005311,-0.00004450,0.00000023,-0.00
 001035,0.00000553,0.00002954,-0.00007873,-0.00000942,0.00004394,0.0001
 4301,0.00004112,-0.00008574,-0.00009935,-0.00009976,-0.00002708,0.0000
 0357,0.00009952,0.00000724,-0.00003537,-0.00008581,-0.00000761,0.00001
 286,0.00001857,0.00001955,0.00007405,0.00012429,-0.00004344,0.00022296
 ,-0.00025510,0.00019076,-0.00029837,-0.00014601,0.00151828,0.00016970,
 -0.00022467,-0.01442389,-0.00035155,-0.00067970,-0.34927384,-0.0231227
 5,-0.03743067,0.00126800,-0.00764195,-0.00831626,0.00011160,-0.0008646
 7,0.00042302,-0.01663419,0.00015242,-0.00156363,0.00199202,0.00037237,
 -0.00061109,0.00025624,0.00012575,-0.00013229,0.00053810,0.00034418,0.
 00016305,0.00004715,0.00000242,0.00007437,-0.00000403,0.00001460,-0.00
 000219,-0.00091865,-0.00127391,-0.00077097,0.00072311,0.00045475,0.000
 26973,-0.00189712,-0.00136252,-0.00134168,0.00091558,0.00025617,0.0001
 2231,-0.00003023,-0.00000532,0.00019472,-0.00001035,-0.00000259,0.0000
 0988,0.00008423,-0.00001199,0.00023611,-0.00000496,0.00001844,-0.00003
 680,0.00001089,-0.00000066,0.00000296,0.00000942,0.00000004,-0.0000075
 2,-0.00000176,-0.00000620,-0.00000366,0.00001371,0.00004235,0.00000160
 ,0.00000620,-0.00000017,-0.00000500,-0.00001529,0.00011975,-0.00001083
 ,0.00013149,-0.00032956,0.00005807,0.00109639,0.00057413,0.00071085,-0
 .00005699,0.00173443,-0.00070389,0.37341348,0.00000262,0.00004038,-0.0
 0006664,-0.00003906,-0.00006207,0.00002682,0.00001691,-0.00002634,-0.0
 0000869,-0.00000470,0.00004849,-0.00000950,0.00000773,-0.00001658,0.00
 000302,-0.00014101,-0.00002849,-0.00002882,-0.00006564,0.00010388,0.00
 007609,0.00003855,0.00003163,-0.00006040,-0.00003098,-0.00002541,0.000
 15615,0.00000688,-0.00003165,-0.00011168,-0.00001006,0.00001707,0.0000
 2534,0.00004701,0.00014034,0.00011707,-0.00003887,0.00056846,-0.000376
 39,0.00013105,-0.00039330,-0.00020421,-0.00161020,0.00139679,-0.001236
 29,0.03178385,-0.00082637,0.00401853,-0.02491639,-0.04105542,0.0017380
 6,-0.02882654,-0.01337550,-0.01821407,-0.00035489,-0.00043404,0.001324
 51,-0.00942938,0.00044253,0.00014952,-0.00012168,0.00067486,-0.0008162
 0,0.00013827,0.00009573,-0.00022310,0.00004138,-0.00003348,0.00004605,
 -0.00006763,-0.00003688,0.00005835,0.00000034,0.00000723,-0.00000329,0
 .00197074,0.00193890,0.00118126,-0.00033625,-0.00016408,-0.00033346,0.
 00082608,-0.00038673,-0.00090063,0.00026470,-0.00006378,0.00020486,-0.
 00000539,0.00007883,0.00008256,-0.00000692,-0.00000219,0.00000748,-0.0
 0022334,0.00000760,-0.00007016,-0.00000681,-0.00001154,0.00002413,-0.0
 0000127,-0.00000003,0.00000018,0.00000182,-0.00000017,-0.00000147,-0.0
 0001079,-0.00002078,-0.00000992,0.00000774,0.00006989,0.00001171,0.000
 00870,0.00001209,-0.00001399,-0.00008122,-0.00002402,-0.00000878,-0.00
 022746,0.00003755,-0.00007195,-0.00066868,-0.00042187,-0.00041609,0.00
 187186,-0.00470007,0.00218172,0.03028967,0.05619264,0.00001118,0.00002
 578,-0.00005463,-0.00004738,-0.00003851,0.00002374,0.00000181,-0.00005
 137,0.00002119,0.00000901,0.00004058,-0.00001506,0.00000023,-0.0000108
 0,0.00000595,-0.00000445,-0.00001232,0.00005172,0.00004783,0.00008160,
 0.00000569,-0.00005225,-0.00003783,-0.00001420,-0.00006215,-0.00003172
 ,0.00011379,0.00002277,-0.00001898,-0.00007888,-0.00000958,0.00001127,
 0.00002135,0.00002465,0.00011854,0.00008564,0.00006558,0.00031081,-0.0
 0040555,-0.00021751,-0.00054191,-0.00041635,0.00065219,-0.00098156,0.0
 0175716,-0.01561662,0.00204694,-0.00045437,-0.03961504,0.00229152,-0.0
 4776009,-0.02473366,-0.01621493,-0.01177316,-0.00121607,-0.00063647,0.
 00094520,0.03189291,0.00271130,0.00216775,-0.00143253,-0.00115227,0.00
 205350,-0.00003450,-0.00052178,0.00042861,0.00016586,0.00017793,0.0000
 6558,0.00003211,0.00000192,0.00000905,0.00000311,-0.00000370,0.0000008
 2,0.00020979,-0.00110479,-0.00048071,-0.00016153,-0.00017617,-0.000150
 63,0.00180393,0.00048369,0.00025643,-0.00042259,-0.00004023,-0.0000869
 7,-0.00007555,-0.00013883,-0.00003652,-0.00000870,-0.00000170,0.000003
 81,0.00018607,0.00001961,0.00004444,0.00000970,0.00002431,-0.00003197,
 0.00001011,0.00000027,0.00000331,0.00001174,-0.00000078,-0.00000953,0.
 00000609,-0.00001329,-0.00000068,0.00000523,0.00005473,0.00000845,0.00
 002251,0.00000841,-0.00002358,0.00003147,0.00008655,0.00000308,0.00008
 368,-0.00013202,0.00000789,0.00049470,-0.00014820,0.00043686,-0.000961
 83,0.00198580,-0.00063631,0.04719761,0.01069831,0.05938319,0.00000315,
 -0.00000426,-0.00002543,-0.00000765,0.00000101,0.00001700,-0.00000616,
 -0.00001320,0.00002337,0.00000648,0.00001140,-0.00002235,-0.00000206,-
 0.00000033,0.00000399,0.00001220,-0.00000665,0.00002115,0.00001942,0.0
 0001602,-0.00001935,-0.00001369,-0.00001912,0.00000392,-0.00001640,0.0
 0001277,0.00001406,0.00001226,-0.00001713,-0.00001620,-0.00000735,0.00
 000374,0.00000255,-0.00000238,0.00000984,0.00004263,0.00002992,-0.0000
 2441,-0.00006911,-0.00006615,-0.00003530,0.00013253,0.00053394,0.00007
 774,-0.00002226,-0.00082396,0.00084017,-0.00048926,-0.01306515,-0.0039
 5947,-0.00153933,0.00164922,0.00043162,-0.00058876,0.00018355,0.000021
 58,-0.00006787,-0.35452899,-0.04963282,-0.03393608,-0.01179815,0.00933
 165,-0.00623445,0.00008745,0.00074276,0.00040820,0.00000490,-0.0000403
 8,0.00000066,0.00003634,0.00003866,-0.00001939,-0.00001010,-0.00000567
 ,-0.00000181,0.00000504,-0.00009469,-0.00007115,0.00140800,-0.00072598
 ,0.00037309,-0.00600134,0.00009960,0.00159003,0.00152953,0.00038879,0.
 00074744,0.00034693,0.00037395,0.00032416,-0.00000378,0.00000213,0.000
 00383,0.00002349,-0.00001979,0.00002455,-0.00000037,0.00000499,-0.0000
 0670,0.00000582,0.00000011,-0.00000051,0.00000498,0.00000084,-0.000003
 17,0.00000561,-0.00000255,0.00000209,-0.00000716,0.00000536,-0.0000003
 9,0.00000750,0.00000258,-0.00000572,0.00000426,0.00000133,0.00001043,0
 .00002742,-0.00003170,0.00001083,0.00006606,0.00017930,0.00000742,0.00
 086525,-0.00047440,0.00024023,-0.00016654,-0.00057298,0.00168161,0.379
 27852,0.00000096,-0.00000397,0.00001340,0.00000229,0.00000454,-0.00000
 910,-0.00000421,0.00000643,-0.00000214,0.00000359,-0.00000961,0.000005
 81,-0.00000236,0.00000298,-0.00000142,0.00000246,0.00000270,-0.0000027
 7,0.00001264,-0.00000985,-0.00000079,-0.00001454,-0.00000445,-0.000007
 13,0.00000291,0.00000343,-0.00002306,-0.00000392,0.00000743,0.00001966
 ,0.00000489,-0.00000353,-0.00000594,-0.00000180,-0.00000878,-0.0000158
 0,0.00002343,-0.00004773,0.00004247,-0.00004090,0.00006507,0.00001680,
 0.00018019,-0.00003952,-0.00001382,-0.00102772,0.00010495,0.00000420,-
 0.00612467,-0.00047197,-0.00192083,0.00087795,0.00045784,0.00030219,-0
 .00005204,-0.00002376,-0.00008828,-0.04989632,-0.04810287,-0.00651663,
 0.03756874,-0.00901139,0.01005950,0.00062736,0.00076232,-0.00123861,-0
 .00005605,0.00004355,-0.00003919,0.00003036,-0.00001848,-0.00000136,-0
 .00000526,0.00000182,0.00000502,-0.00021182,-0.00024783,0.00008515,0.0
 0121217,0.00205881,0.00044850,-0.02760048,-0.00401033,-0.00264263,0.00
 124533,0.00156789,0.00232169,0.00006836,-0.00002005,0.00039380,0.00000
 101,0.00000043,-0.00000282,0.00001648,-0.00000512,0.00001268,0.0000014
 1,0.00000199,-0.00000465,0.00000019,0.00000094,0.00000100,0.00000066,-
 0.00000082,0.00000016,0.00000103,0.00000431,0.00000072,0.00000158,-0.0
 0000869,0.00000010,-0.00000083,-0.00000308,0.00000183,0.00000276,-0.00
 001316,-0.00000028,0.00003846,-0.00004861,0.00003483,0.00021315,0.0001
 2239,-0.00002839,0.00013266,-0.00020785,0.00048712,-0.00025532,-0.0000
 4517,0.00130053,0.04330981,0.06050002,-0.00000292,-0.00000956,0.000005
 51,0.00000241,0.00001024,-0.00000573,0.00000847,0.00001829,0.00000114,
 -0.00000233,-0.00001014,-0.00000358,0.00000031,0.00000388,-0.00000211,
 -0.00001523,-0.00001291,-0.00002033,-0.00001192,-0.00001420,-0.0000054
 7,0.00001011,-0.00000075,0.00000628,0.00001141,0.00001217,-0.00002121,
 -0.00000745,-0.00000275,0.00001416,0.00000415,-0.00000207,-0.00000761,
 0.00001477,-0.00001493,-0.00000650,0.00000634,-0.00010269,0.00004396,0
 .00005569,0.00020380,0.00010399,-0.00059575,-0.00012774,-0.00033038,0.
 00144496,-0.00113412,0.00113746,0.03141232,0.00637058,0.00320551,-0.00
 206532,-0.00003543,0.00264512,-0.00018757,0.00027388,0.00025262,-0.031
 99953,-0.00619103,-0.04731326,-0.01485166,0.00608779,-0.00084418,-0.00
 131634,-0.00011439,0.00050329,0.00003532,0.00001551,0.00008339,-0.0000
 0455,-0.00000139,-0.00000616,-0.00000672,-0.00000009,-0.00000121,0.000
 34142,0.00017894,-0.00037009,0.00147272,0.00079234,0.00076018,-0.02222
 692,-0.00593285,-0.00372421,0.00000293,0.00039228,0.00217055,-0.000081
 28,0.00011264,0.00045684,0.00000115,0.00000190,-0.00000128,-0.00003387
 ,0.00000916,-0.00004905,0.00000049,-0.00000758,0.00001065,-0.00000232,
 0.00000063,0.00000063,-0.00000338,-0.00000013,0.00000323,-0.00000664,0
 .00000321,-0.00000822,0.00000010,-0.00001104,0.00000092,-0.00000531,-0
 .00000182,0.00000500,-0.00001152,0.00002878,0.00000337,-0.00000422,0.0
 0002119,-0.00000391,-0.00013610,-0.00002303,-0.00017860,-0.00054798,0.
 00046343,-0.00032310,0.00226320,0.00133900,-0.00494826,0.03754941,-0.0
 0006285,0.04912966,0.00000405,-0.00000772,-0.00001301,-0.00000609,0.00
 000884,0.00000759,-0.00000208,-0.00000208,0.00001425,0.00000641,0.0000
 0128,-0.00001788,-0.00000310,0.00000204,0.00000234,-0.00002776,0.00001
 481,0.00001031,0.00001937,-0.00002333,-0.00004510,0.00000821,0.0000056
 0,0.00004325,-0.00001353,0.00000842,-0.00000506,0.00000936,-0.00000926
 ,-0.00000086,-0.00000448,0.00000180,-0.00000047,-0.00000163,-0.0000071
 2,0.00001320,0.00002099,-0.00006461,-0.00003258,0.00002808,0.00006368,
 0.00008314,0.00006841,-0.00011452,-0.00030526,0.00006855,0.00056359,-0
 .00002271,-0.00099955,-0.00017672,0.00064605,0.00059255,0.00016105,0.0
 0028228,-0.00004298,0.00003474,-0.00013289,-0.00619131,0.00098053,-0.0
 0132116,0.00177534,-0.00043667,0.00105631,-0.00038285,0.00000472,-0.00
 000815,0.00068787,-0.00011373,-0.00003828,-0.00000006,0.00021633,-0.00
 013658,-0.00001677,-0.00000748,-0.00003164,-0.00007807,-0.00099086,0.0
 0174012,-0.01093778,0.01002368,-0.00682360,-0.34569139,-0.03956955,-0.
 05905995,-0.01313956,-0.00536383,0.00531808,0.00044846,0.00019014,0.00
 069933,-0.00000320,0.00000147,0.00000213,0.00000413,-0.00000430,-0.000
 00145,0.00000261,-0.00000123,-0.00000112,0.00000394,0.00000089,0.00000
 058,0.00000387,0.00000002,-0.00000180,0.00000352,-0.00000006,-0.000000
 05,-0.00000392,-0.00000232,0.00000021,0.00000554,0.00000133,-0.0000026
 9,-0.00002333,-0.00004869,0.00000751,0.00006557,-0.00026025,0.00015866
 ,0.00083742,0.00033976,-0.00113252,0.00005773,-0.00009029,0.00028167,0
 .00118831,0.00034222,-0.00001155,0.00037009,-0.00028459,-0.00051086,0.
 37128908,0.00000071,0.00001468,0.00001486,0.00000268,-0.00001577,-0.00
 000649,-0.00000710,0.00000421,-0.00001448,-0.00000090,0.00000372,0.000
 01604,0.00000040,-0.00000263,-0.00000267,0.00002721,-0.00003883,-0.000
 02215,-0.00000875,0.00005754,0.00007575,-0.00002756,-0.00003281,-0.000
 09737,-0.00000129,-0.00001809,0.00000725,0.00000586,0.00001367,0.00000
 044,-0.00000415,-0.00000030,0.00000379,-0.00001480,0.00000904,-0.00001
 183,-0.00000572,0.00011754,0.00003745,-0.00008722,-0.00008090,-0.00012
 710,0.00002552,0.00032552,0.00030189,-0.00045259,-0.00063364,0.0001409
 6,-0.00146926,-0.00013780,0.00102716,0.00062652,-0.00001604,-0.0003872
 6,0.00013139,-0.00009613,0.00003757,-0.02536742,-0.00066179,-0.0064889
 7,0.00139456,0.00313490,0.00097532,-0.00046204,-0.00006665,0.00008322,
 0.00001183,0.00015554,-0.00006769,-0.00016273,-0.00020594,0.00015933,0
 .00001174,0.00003563,0.00002662,0.00479651,0.00149176,-0.00424003,0.03
 416385,-0.00973007,0.01570594,-0.03941288,-0.04897003,-0.00944360,-0.0
 0613323,0.00127770,0.00326602,-0.00096733,0.00080052,-0.00024961,0.000
 00149,-0.00000295,-0.00000214,0.00000461,-0.00000183,0.00000253,-0.000
 00202,0.00000494,-0.00000393,0.00000048,-0.00000113,0.00000070,0.00000
 038,0.00000058,-0.00000016,0.00000366,-0.00000175,0.00000456,0.0000010
 4,0.00000670,0.00000011,0.00000161,0.00000139,-0.00000137,0.00005892,0
 .00001924,-0.00000886,-0.00018669,0.00007361,-0.00005518,-0.00148885,0
 .00019709,-0.00005526,-0.00000366,-0.00018353,0.00000807,0.00060986,0.
 00028107,-0.00047024,-0.00022695,-0.00335322,-0.00252612,0.03461228,0.
 05622524,0.00000091,-0.00000275,-0.00002035,-0.00000565,0.00000286,0.0
 0001282,0.00000329,-0.00000375,0.00001541,0.00000191,0.00000774,-0.000
 01914,0.00000058,-0.00000030,0.00000194,-0.00001674,-0.00000151,0.0000
 0231,0.00000862,-0.00000065,-0.00002687,0.00000081,-0.00000145,0.00002
 618,-0.00000577,0.00001013,0.00001158,0.00000210,-0.00001339,-0.000015
 18,-0.00000150,0.00000273,0.00000247,0.00000591,0.00000590,0.00002881,
 0.00000507,-0.00002501,-0.00004838,0.00003821,0.00003059,0.00005570,0.
 00004065,0.00000486,-0.00027703,0.00028353,-0.00010104,-0.00007638,-0.
 00194014,-0.00044105,0.00054980,0.00056064,0.00009409,-0.00003084,0.00
 001785,0.00001587,0.00001343,-0.02209173,-0.00216436,-0.00132588,0.002
 01277,0.00058548,0.00123660,0.00014305,-0.00034053,-0.00023551,0.00007
 189,0.00002420,-0.00002193,0.00008741,0.00011687,-0.00010332,-0.000008
 96,-0.00000990,-0.00001057,-0.00333035,0.00009221,0.00273458,-0.011894
 42,0.00690984,-0.00324723,-0.06479965,-0.01226521,-0.05906337,0.038113
 64,0.00861411,-0.00653727,0.00187935,-0.00037544,0.00339762,-0.0000022
 8,0.00000088,0.00000349,0.00000259,-0.00000466,0.00000705,0.00000071,-
 0.00000045,-0.00000231,0.00000243,0.00000044,-0.00000019,0.00000191,-0
 .00000015,-0.00000117,0.00000005,-0.00000065,-0.00000144,-0.00000082,0
 .00000277,-0.00000055,0.00000184,0.00000014,-0.00000180,-0.00000918,-0
 .00004248,0.00000434,0.00013040,-0.00007285,0.00001296,0.00084252,0.00
 016882,-0.00010823,0.00019277,0.00000380,0.00016851,0.00045946,-0.0002
 8499,-0.00052676,-0.00009589,-0.00292869,-0.00236901,0.05929020,0.0023
 8693,0.06578512\\0.01666860,-0.01164260,-0.01389974,-0.02156099,-0.002
 32246,-0.00520051,0.00491363,-0.02302779,0.01495325,0.00603056,0.02613
 708,0.01902559,-0.01246252,-0.02058954,-0.01265493,0.04965997,0.004331
 10,-0.00658053,0.00023931,-0.01591880,0.00125007,-0.01285631,0.0054422
 6,0.02961326,0.00521167,0.02419362,0.01249562,0.01035311,0.01584397,0.
 00823492,-0.00642919,-0.03478686,-0.00487329,-0.00216419,0.02756732,0.
 00936109,0.01159934,-0.02087120,0.02431341,-0.07178488,0.02248487,-0.0
 2333185,0.01162854,-0.00785766,-0.01815652,-0.00020472,-0.00354598,-0.
 00136081,0.02087292,0.02990996,0.02831511,-0.01175580,-0.01741555,0.01
 387173,0.00982146,0.01836880,-0.01633166,-0.04305374,-0.00889130,0.037
 80317,0.02327128,-0.01622442,-0.03337833,-0.01479231,0.00687548,0.0216
 7686,0.01803280,-0.00129818,-0.01213254,-0.00528566,-0.01823960,-0.018
 34459,-0.00930129,0.02476356,0.02027317,-0.01478580,-0.00518791,0.0143
 4409,-0.00486345,0.00912874,0.00102104,0.04928926,0.01766100,-0.027245
 76,-0.00471049,-0.01420221,-0.00356793,-0.00312584,-0.00581941,-0.0063
 8621,-0.00298072,0.00314513,-0.00011275,0.01707955,0.00036177,-0.00053
 675,-0.01601945,-0.00128272,-0.00149823,0.02345700,0.00040456,-0.00547
 850,-0.02186586,0.00011536,-0.00106782,0.02159260,0.00136028,0.0007262
 6,0.00308018,0.00559490,-0.01734478,-0.01995452,-0.00346482,-0.0015586
 2,0.00066426,-0.00564624,-0.01831333,0.02234758,0.00073910,0.00132861,
 -0.02340774,-0.00186836,-0.00229928,0.02000538,0.00210942,0.00094386,-
 0.02133261,-0.00159568,-0.00462858,0.01740625,-0.00005543,-0.00035934,
 -0.01852714,-0.00478357,-0.00290792\\\@


 A CHEMICAL PHYSICIST MAKES PRECISE MEASUREMENTS ON IMPURE COMPOUNDS.
 A THEORETICAL PHYSICAL CHEMIST MAKES IMPRECISE
     MEASUREMENTS ON PURE COMPOUNDS.
 AN EXPERIMENTAL PHYSICAL CHEMIST MAKES IMPRECISE
     MEASUREMENTS ON IMPURE COMPOUNDS.
 Job cpu time:  0 days 13 hours 15 minutes 25.2 seconds.
 File lengths (MBytes):  RWF=   1324 Int=      0 D2E=      0 Chk=     19 Scr=      1
 Normal termination of Gaussian 09 at Thu Jan 21 05:14:39 2016.
Gaussian '09 finished on node018 at Thu Jan 21 05:14:39 EST 2016.
