Gaussian '09 started on node024 at Sun Mar 27 05:18:39 EDT 2016.
 Entering Gaussian System, Link 0=/usr/local/gaussian/g09/g09
 Initial command:
 /usr/local/gaussian/g09/l1.exe /home/srmcgrat/thesis/gaussian/cellobiose/450K/9144ps/1/2dp/gaussian29279/Gau-29315.inp -scrdir=/home/srmcgrat/thesis/gaussian/cellobiose/450K/9144ps/1/2dp/gaussian29279/
 Entering Link 1 = /usr/local/gaussian/g09/l1.exe PID=     29317.
  
 Copyright (c) 1988,1990,1992,1993,1995,1998,2003,2009,2010,
            Gaussian, Inc.  All Rights Reserved.
  
 This is part of the Gaussian(R) 09 program.  It is based on
 the Gaussian(R) 03 system (copyright 2003, Gaussian, Inc.),
 the Gaussian(R) 98 system (copyright 1998, Gaussian, Inc.),
 the Gaussian(R) 94 system (copyright 1995, Gaussian, Inc.),
 the Gaussian 92(TM) system (copyright 1992, Gaussian, Inc.),
 the Gaussian 90(TM) system (copyright 1990, Gaussian, Inc.),
 the Gaussian 88(TM) system (copyright 1988, Gaussian, Inc.),
 the Gaussian 86(TM) system (copyright 1986, Carnegie Mellon
 University), and the Gaussian 82(TM) system (copyright 1983,
 Carnegie Mellon University). Gaussian is a federally registered
 trademark of Gaussian, Inc.
  
 This software contains proprietary and confidential information,
 including trade secrets, belonging to Gaussian, Inc.
  
 This software is provided under written license and may be
 used, copied, transmitted, or stored only in accord with that
 written license.
  
 The following legend is applicable only to US Government
 contracts under FAR:
  
                    RESTRICTED RIGHTS LEGEND
  
 Use, reproduction and disclosure by the US Government is
 subject to restrictions as set forth in subparagraphs (a)
 and (c) of the Commercial Computer Software - Restricted
 Rights clause in FAR 52.227-19.
  
 Gaussian, Inc.
 340 Quinnipiac St., Bldg. 40, Wallingford CT 06492
  
  
 ---------------------------------------------------------------
 Warning -- This program may not be used in any manner that
 competes with the business of Gaussian, Inc. or will provide
 assistance to any competitor of Gaussian, Inc.  The licensee
 of this program is prohibited from giving any competitor of
 Gaussian, Inc. access to this program.  By using this program,
 the user acknowledges that Gaussian, Inc. is engaged in the
 business of creating and licensing software in the field of
 computational chemistry and represents and warrants to the
 licensee that it is not a competitor of Gaussian, Inc. and that
 it will not use this program in any manner prohibited above.
 ---------------------------------------------------------------
  

 Cite this work as:
 Gaussian 09, Revision B.01,
 M. J. Frisch, G. W. Trucks, H. B. Schlegel, G. E. Scuseria, 
 M. A. Robb, J. R. Cheeseman, G. Scalmani, V. Barone, B. Mennucci, 
 G. A. Petersson, H. Nakatsuji, M. Caricato, X. Li, H. P. Hratchian, 
 A. F. Izmaylov, J. Bloino, G. Zheng, J. L. Sonnenberg, M. Hada, 
 M. Ehara, K. Toyota, R. Fukuda, J. Hasegawa, M. Ishida, T. Nakajima, 
 Y. Honda, O. Kitao, H. Nakai, T. Vreven, J. A. Montgomery, Jr., 
 J. E. Peralta, F. Ogliaro, M. Bearpark, J. J. Heyd, E. Brothers, 
 K. N. Kudin, V. N. Staroverov, T. Keith, R. Kobayashi, J. Normand, 
 K. Raghavachari, A. Rendell, J. C. Burant, S. S. Iyengar, J. Tomasi, 
 M. Cossi, N. Rega, J. M. Millam, M. Klene, J. E. Knox, J. B. Cross, 
 V. Bakken, C. Adamo, J. Jaramillo, R. Gomperts, R. E. Stratmann, 
 O. Yazyev, A. J. Austin, R. Cammi, C. Pomelli, J. W. Ochterski, 
 R. L. Martin, K. Morokuma, V. G. Zakrzewski, G. A. Voth, 
 P. Salvador, J. J. Dannenberg, S. Dapprich, A. D. Daniels, 
 O. Farkas, J. B. Foresman, J. V. Ortiz, J. Cioslowski, 
 and D. J. Fox, Gaussian, Inc., Wallingford CT, 2010.
 
 ******************************************
 Gaussian 09:  EM64L-G09RevB.01 12-Aug-2010
                27-Mar-2016 
 ******************************************
 -------------------------------------------------
 # freq=raman b3lyp/6-31+g(2d,p) geom=connectivity
 -------------------------------------------------
 1/10=4,30=1,38=1,57=2/1,3;
 2/12=2,17=6,18=5,40=1/2;
 3/5=1,6=6,7=112,11=2,16=1,25=1,30=1,71=2,74=-5/1,2,3;
 4//1;
 5/5=2,38=5,98=1/2;
 8/6=4,10=90,11=11/1;
 10/13=10,15=4/2;
 11/6=3,8=1,9=11,15=111,16=1/1,2,10;
 10/6=1/2;
 6/7=2,8=2,9=2,10=2,18=1,28=1/1;
 7/8=1,10=1,25=1/1,2,3,16;
 1/10=4,30=1/3;
 99//99;
 -----------------
 450 9144/9144.com
 -----------------
 Symbolic Z-matrix:
 Charge =  0 Multiplicity = 1
 O                     10.358    7.819     11.754 
 C                     11.21     7.808     12.909 
 C                     11.572    9.209     13.374 
 O                     12.589    9.754     12.522 
 H                     12.32     9.653     11.564 
 C                     12.156    9.264     14.776 
 O                     12.198    10.613    15.263 
 H                     12.555    11.118    14.477 
 C                     10.488    5.599     13.5 
 O                     10.054    4.554     14.382 
 H                     9.836     3.711     13.892 
 C                     10.533    7.026     14.023 
 O                     11.146    7.088     15.319 
 C                     11.436    8.407     15.805 
 O                     12.026    8.203     17.097 
 C                     11.12     8.347     18.201 
 C                     10.766    6.984     18.773 
 O                     9.815     6.381     17.883 
 H                     10.42     6.255     17.097 
 C                     10.017    7.031     20.094 
 O                     9.877     5.694     20.596 
 H                     8.906     5.493     20.464 
 C                     12.3      10.386    18.845 
 O                     13.184    11.223    19.606 
 H                     14.058    10.806    19.858 
 C                     11.887    9.008     19.334 
 O                     11.221    9.022     20.605 
 C                     11.023    7.669     21.04 
 O                     10.457    7.736     22.357 
 H                     10.89642   7.82657   10.95924 
 H                     11.4728   5.34837   13.16497 
 H                     9.84118   5.5894    12.64769 
 H                     9.52763   7.38048   14.11505 
 H                     12.1154   7.30048   12.64906 
 H                     10.70272   9.83128   13.32904 
 H                     13.16463   8.91199   14.71554 
 H                     10.49318   8.88256   15.97775 
 H                     11.16251   7.76908   23.0072 
 H                     11.94573   7.1273    21.04416 
 H                     9.09167   7.56559   20.04036 
 H                     11.63968   6.37208   18.85752 
 H                     10.24764   8.90576   17.9333 
 H                     12.78668   8.44438   19.46747 
 H                     11.39912   10.94358   18.69525 
 H                     12.75291   10.25035   17.88512 
 

 GradGradGradGradGradGradGradGradGradGradGradGradGradGradGradGradGradGrad
 Berny optimization.
 Initialization pass.
 Trust Radius=3.00D-01 FncErr=1.00D-07 GrdErr=1.00D-07
 Number of steps in this run=      2 maximum allowed number of steps=      2.
 GradGradGradGradGradGradGradGradGradGradGradGradGradGradGradGradGradGrad

                          Input orientation:                          
 ---------------------------------------------------------------------
 Center     Atomic      Atomic             Coordinates (Angstroms)
 Number     Number       Type             X           Y           Z
 ---------------------------------------------------------------------
      1          8           0       10.358000    7.819000   11.754000
      2          6           0       11.210000    7.808000   12.909000
      3          6           0       11.572000    9.209000   13.374000
      4          8           0       12.589000    9.754000   12.522000
      5          1           0       12.320000    9.653000   11.564000
      6          6           0       12.156000    9.264000   14.776000
      7          8           0       12.198000   10.613000   15.263000
      8          1           0       12.555000   11.118000   14.477000
      9          6           0       10.488000    5.599000   13.500000
     10          8           0       10.054000    4.554000   14.382000
     11          1           0        9.836000    3.711000   13.892000
     12          6           0       10.533000    7.026000   14.023000
     13          8           0       11.146000    7.088000   15.319000
     14          6           0       11.436000    8.407000   15.805000
     15          8           0       12.026000    8.203000   17.097000
     16          6           0       11.120000    8.347000   18.201000
     17          6           0       10.766000    6.984000   18.773000
     18          8           0        9.815000    6.381000   17.883000
     19          1           0       10.420000    6.255000   17.097000
     20          6           0       10.017000    7.031000   20.094000
     21          8           0        9.877000    5.694000   20.596000
     22          1           0        8.906000    5.493000   20.464000
     23          6           0       12.300000   10.386000   18.845000
     24          8           0       13.184000   11.223000   19.606000
     25          1           0       14.058000   10.806000   19.858000
     26          6           0       11.887000    9.008000   19.334000
     27          8           0       11.221000    9.022000   20.605000
     28          6           0       11.023000    7.669000   21.040000
     29          8           0       10.457000    7.736000   22.357000
     30          1           0       10.896425    7.826569   10.959241
     31          1           0       11.472802    5.348365   13.164968
     32          1           0        9.841182    5.589402   12.647689
     33          1           0        9.527631    7.380484   14.115051
     34          1           0       12.115402    7.300476   12.649064
     35          1           0       10.702722    9.831281   13.329039
     36          1           0       13.164629    8.911990   14.715536
     37          1           0       10.493185    8.882559   15.977752
     38          1           0       11.162510    7.769078   23.007201
     39          1           0       11.945735    7.127296   21.044157
     40          1           0        9.091668    7.565587   20.040357
     41          1           0       11.639678    6.372082   18.857519
     42          1           0       10.247636    8.905763   17.933296
     43          1           0       12.786676    8.444377   19.467466
     44          1           0       11.399123   10.943581   18.695253
     45          1           0       12.752908   10.250352   17.885118
 ---------------------------------------------------------------------
                    Distance matrix (angstroms):
                    1          2          3          4          5
     1  O    0.000000
     2  C    1.435287   0.000000
     3  C    2.455666   1.519891   0.000000
     4  O    3.051460   2.416263   1.434301   0.000000
     5  H    2.692415   2.538730   2.008168   1.000163   0.000000
     6  C    3.801751   2.549616   1.519765   2.346935   3.239624
     7  O    4.848208   3.792820   2.435449   2.898938   3.823491
     8  H    4.808840   3.901762   2.413955   2.384046   3.269101
     9  C    2.827334   2.397967   3.771344   4.757595   4.851725
    10  O    4.202264   3.754275   4.998941   6.076662   6.251054
    11  H    4.660385   4.431656   5.788784   6.780395   6.848153
    12  C    2.409945   1.520148   2.503240   3.731236   4.017609
    13  O    3.723510   2.516068   2.909148   4.124684   4.696544
    14  C    4.233017   2.965922   2.563486   3.731207   4.507777
    15  O    5.610466   4.285000   3.883153   4.863455   5.727393
    16  C    6.513312   5.320140   4.924152   6.032301   6.869891
    17  C    7.080258   5.938233   5.894867   7.076103   7.842714
    18  O    6.318808   5.359387   5.604972   6.914660   7.543923
    19  H    5.567548   4.535995   4.890189   6.154526   6.765389
    20  C    8.384082   7.324698   7.233264   8.447787   9.216268
    21  O    9.106478   8.083060   8.208869   9.435466  10.159673
    22  H    9.131412   8.230776   8.437080   9.736322  10.400529
    23  C    7.787370   6.562795   5.643328   6.361075   7.317831
    24  O    9.012624   7.772304   6.744818   7.259135   8.239245
    25  H    9.396115   8.086267   7.125508   7.555234   8.552221
    26  C    7.823552   6.571069   5.971702   6.888589   7.808740
    27  O    8.973972   7.791170   7.241929   8.230561   9.129383
    28  C    9.310989   8.134338   7.838403   8.908193   9.767960
    29  O   10.603787   9.478233   9.171000  10.263770  11.119105
    30  H    0.960000   1.974901   2.863316   3.003667   2.393355
    31  H    3.055757   2.486843   3.867562   4.590089   4.670195
    32  H    2.457008   2.619947   4.077346   4.991010   4.881777
    33  H    2.540939   2.113693   2.841140   4.188481   4.412428
    34  H    2.039232   1.070000   2.112648   2.502043   2.598768
    35  H    2.578538   2.127776   1.070000   2.053127   2.400570
    36  H    4.224037   2.881482   2.103426   2.419076   3.345844
    37  H    4.357696   3.329525   2.837240   4.134498   4.838599
    38  H   11.282033  10.098388   9.748827  10.766347  11.654861
    39  H    9.450205   8.196673   7.956411   8.940947   9.817975
    40  H    8.386390   7.443276   7.300218   8.575907   9.307419
    41  H    7.361810   6.134441   6.174274   7.244127   8.026374
    42  H    6.275105   5.232092   4.757423   5.956813   6.739510
    43  H    8.110926   6.775276   6.260225   7.070622   8.008954
    44  H    7.682964   6.583947   5.599500   6.398435   7.305367
    45  H    7.016955   5.753903   4.777985   5.388531   6.364021
                    6          7          8          9         10
     6  C    0.000000
     7  O    1.434829   0.000000
     8  H    1.919874   1.000135   0.000000
     9  C    4.224053   5.583231   5.973808   0.000000
    10  O    5.172788   6.487247   7.024964   1.434679   0.000000
    11  H    6.082735   7.422687   7.911943   2.035513   0.999136
    12  C    2.865272   4.144441   4.586836   1.520488   2.543444
    13  O    2.459660   3.679058   4.351453   2.441075   2.914033
    14  C    1.520424   2.396006   3.219513   3.754543   4.333643
    15  O    2.555320   3.033355   3.954929   4.699433   4.957339
    16  C    3.693888   3.863766   4.858584   5.481818   5.487073
    17  C    4.806923   5.247891   6.224636   5.458941   5.068799
    18  O    4.842047   5.518416   6.445743   4.502793   3.956267
    19  H    4.177896   5.051436   5.922111   3.656962   3.224683
    20  C    6.151645   6.397347   7.395654   6.764119   6.226062
    21  O    7.197996   7.617381   8.604279   7.122890   6.320184
    22  H    7.558855   8.006377   8.988882   7.142216   6.260220
    23  C    4.223314   3.590635   4.436245   7.400523   7.679525
    24  O    5.312567   4.495102   5.168492   8.728174   9.031204
    25  H    5.641107   4.960935   5.595669   8.960017   9.225297
    26  C    4.573102   4.387002   5.337488   6.900293   6.907989
    27  O    5.908471   5.658867   6.612500   7.920558   7.749235
    28  C    6.562424   6.589498   7.570706   7.837265   7.414253
    29  O    7.917888   7.850672   8.828019   9.111212   8.595822
    30  H    4.268534   5.289673   5.094999   3.403576   4.809851
    31  H    4.288867   5.713495   6.015086   1.070000   2.031055
    32  H    4.836399   6.134409   6.424685   1.070000   2.031055
    33  H    3.300426   4.347162   4.823380   2.115250   2.887445
    34  H    2.894984   4.220462   4.255360   2.503508   3.846502
    35  H    2.127797   2.566544   2.530690   4.241172   5.420264
    36  H    1.070000   2.031631   2.301093   4.429195   5.364637
    37  H    2.086782   2.532131   3.391244   4.113519   4.634192
    38  H    8.424636   8.314613   9.269231   9.775023   9.271441
    39  H    6.625671   6.755409   7.708727   7.834219   7.388156
    40  H    6.323622   6.462134   7.454211   6.970902   6.481724
    41  H    5.028775   5.587278   6.523074   5.534169   5.084296
    42  H    3.706576   3.721433   4.707856   5.535935   5.620235
    43  H    4.804101   4.767285   5.666276   6.999338   6.961646
    44  H    4.330635   3.539471   4.377229   7.509018   7.825615
    45  H    3.315992   2.704614   3.522392   6.781898   7.211405
                   11         12         13         14         15
    11  H    0.000000
    12  C    3.390014   0.000000
    13  O    3.893142   1.435001   0.000000
    14  C    5.317141   2.428599   1.435290   0.000000
    15  O    5.936850   3.614395   2.275722   1.434915   0.000000
    16  C    6.458222   4.421006   3.145104   2.417493   1.435405
    17  C    5.949924   4.755897   3.476396   3.358996   2.425394
    18  O    4.801814   3.978838   2.974140   3.324214   2.970859
    19  H    4.133403   3.171228   2.093382   2.707882   2.524666
    20  C    7.037042   6.092891   4.906986   4.722548   3.793636
    21  O    6.991251   6.738612   5.603599   5.722284   4.812098
    22  H    6.872526   6.817895   5.833751   6.049676   5.330590
    23  C    8.669437   6.137066   4.963990   3.728879   2.809994
    24  O   10.014442   7.470776   6.295239   5.043110   4.093464
    25  H   10.186141   7.794950   6.550251   5.390445   4.304388
    26  C    7.866395   5.828238   4.511730   3.608108   2.381494
    27  O    8.671177   6.912314   5.629190   4.844012   3.691185
    28  C    8.256430   7.063415   5.751742   5.302871   4.103464
    29  O    9.393747   8.364534   7.101272   6.658632   5.508852
    30  H    5.163670   3.187414   4.428913   4.910134   6.252178
    31  H    2.426657   2.105684   2.788007   4.040590   4.890383
    32  H    2.253160   2.105684   3.329301   4.522269   5.603632
    33  H    3.689167   1.070000   2.038175   2.748006   3.976229
    34  H    4.430000   2.113536   2.848411   3.412611   4.539458
    35  H    6.206930   2.894821   3.417899   2.949010   4.312760
    36  H    6.229629   3.310896   2.786749   2.104782   2.733224
    37  H    5.614916   2.696192   2.020041   1.070000   2.015946
    38  H   10.065511   9.036831   7.718327   7.235568   5.988688
    39  H    8.202159   7.162592   5.780878   5.417217   4.091898
    40  H    7.294804   6.211053   5.171033   4.913463   4.204754
    41  H    5.915318   5.002491   3.643813   3.674268   2.569228
    42  H    6.594474   4.348029   3.308454   2.488095   2.087066
    43  H    7.886518   6.060781   4.662762   3.903765   2.501200
    44  H    8.821838   6.158536   5.131146   3.845669   3.233910
    45  H    8.198565   5.499126   4.378080   3.075562   2.311098
                   16         17         18         19         20
    16  C    0.000000
    17  C    1.519957   0.000000
    18  O    2.381030   1.435308   0.000000
    19  H    2.466836   1.860143   0.999848   0.000000
    20  C    2.555761   1.519293   2.313401   3.121954   0.000000
    21  O    3.784109   2.403695   2.799318   3.585048   1.434982
    22  H    4.262427   2.922698   2.876871   3.769553   1.933046
    23  C    2.442265   3.732552   4.810478   4.863647   4.245953
    24  O    3.808608   4.950731   6.145230   6.214161   5.276447
    25  H    4.174227   5.159668   6.440831   6.447462   5.534980
    26  C    1.519506   2.380743   3.646877   3.838654   2.825425
    27  O    2.499008   2.777894   4.044873   4.539158   2.382188
    28  C    2.920448   2.382134   3.617300   4.232051   1.521182
    29  O    4.252673   3.675057   4.718566   5.464644   2.410766
    30  H    7.263877   7.860137   7.155249   6.353652   9.211413
    31  H    5.871789   5.884292   5.106317   4.170283   7.277507
    32  H    6.330797   6.349774   5.294884   4.535903   7.586611
    33  H    4.490520   4.836036   3.908835   3.309842   6.009114
    34  H    5.736727   6.278824   5.790628   4.873556   7.739702
    35  H    5.110109   6.143918   5.781959   5.202620   7.353672
    36  H    4.080218   5.092502   5.259159   4.501550   6.509498
    37  H    2.371192   3.390040   3.216785   2.856946   4.538560
    38  H    4.841009   4.324584   5.477224   6.146074   3.216161
    39  H    3.202040   2.563292   3.884573   4.320743   2.152229
    40  H    2.847450   2.178951   2.565277   3.485033   1.070000
    41  H    2.145084   1.070000   2.068626   2.144936   2.143861
    42  H    1.070000   2.160318   2.562056   2.784896   2.869942
    43  H    2.095525   2.588072   3.949546   4.001704   3.171952
    44  H    2.657899   4.010632   4.897586   5.049345   4.378932
    45  H    2.527631   3.924945   4.858312   4.693232   4.767450
                   21         22         23         24         25
    21  O    0.000000
    22  H    1.000333   0.000000
    23  C    5.563434   6.171049   0.000000
    24  O    6.518143   7.202107   1.435669   0.000000
    25  H    6.645145   7.425517   2.071988   1.000634   0.000000
    26  C    4.076192   4.745365   1.519399   2.581166   2.867163
    27  O    3.589150   4.222907   2.474336   3.113803   3.433545
    28  C    2.326172   3.090055   3.718984   4.399681   4.522070
    29  O    2.758131   3.319653   4.770041   5.211881   5.351364
    30  H    9.922409   9.987381   8.408680   9.567402   9.902549
    31  H    7.608304   7.738557   7.637067   8.884055   9.014749
    32  H    7.949080   7.872647   8.213392   9.556670   9.847996
    33  H    6.705892   6.652682   6.252326   7.634428   8.077120
    34  H    8.411005   8.639471   6.924172   8.057733   8.248099
    35  H    8.402835   8.541462   5.769301   6.891579   7.405086
    36  H    7.466178   7.929076   4.469090   5.409047   5.552506
    37  H    5.645778   5.842490   3.707564   5.087468   5.609265
    38  H    3.431089   4.091484   5.046393   5.252063   5.246353
    39  H    2.556335   3.499642   3.947271   4.514021   4.404713
    40  H    2.104358   2.123573   4.435877   5.505681   5.932789
    41  H    2.566933   3.290374   4.067889   5.145538   5.148677
    42  H    4.188410   4.455491   2.689703   4.097531   4.672714
    43  H    4.159853   4.976279   2.096239   2.810303   2.710359
    44  H    5.786864   6.249237   1.070000   2.023196   2.905260
    45  H    6.031590   6.639408   1.070000   2.023196   2.429871
                   26         27         28         29         30
    26  C    0.000000
    27  O    1.434989   0.000000
    28  C    2.334492   1.434935   0.000000
    29  O    3.577906   2.303692   1.435038   0.000000
    30  H    8.515492   9.724971  10.082785  11.406586   0.000000
    31  H    7.184807   8.301390   8.222153   9.551236   3.367333
    32  H    7.783247   8.775273   8.726529   9.962823   2.994880
    33  H    5.954230   6.905180   7.090436   8.301797   3.468678
    34  H    6.903345   8.189049   8.469767   9.858195   2.148995
    35  H    6.175748   7.339152   8.014796   9.271174   3.110037
    36  H    4.792887   6.202869   6.791940   8.191836   4.520248
    37  H    3.636325   4.686212   5.232570   6.481567   5.144236
    38  H    3.943630   2.709945   1.974679   0.960000  12.051035
    39  H    2.542663   2.075573   1.070000   2.076152  10.163443
    40  H    3.223876   2.640836   2.177160   2.694440   9.262393
    41  H    2.690031   3.201726   2.612568   3.937686   8.065404
    42  H    2.158689   2.845865   3.432547   4.580538   7.086821
    43  H    1.070000   2.019646   2.486890   3.778702   8.737542
    44  H    2.095828   2.715020   4.045020   4.958282   8.355498
    45  H    2.095828   3.354601   4.428232   5.620577   7.568951
                   31         32         33         34         35
    31  H    0.000000
    32  H    1.728543   0.000000
    33  H    2.969151   2.336544   0.000000
    34  H    2.118921   2.846024   2.975245   0.000000
    35  H    4.551536   4.381784   2.829322   2.977080   0.000000
    36  H    4.238627   5.134285   3.991723   2.822793   2.971272
    37  H    4.621897   4.728563   2.580345   4.026753   2.821287
    38  H   10.140300  10.668476   9.049539  10.412425   9.906105
    39  H    8.091347   8.791754   7.343286   8.398593   8.269200
    40  H    7.606369   7.688863   5.944206   7.990273   7.264342
    41  H    5.786275   6.512232   5.288536   6.295486   6.588478
    42  H    6.073966   6.253087   4.174192   5.829975   4.718355
    43  H    7.143742   7.958403   6.356225   6.946203   6.629228
    44  H    7.867397   8.226023   6.097245   7.095187   5.524350
    45  H    6.924447   7.591657   5.731663   6.043545   5.013655
                   36         37         38         39         40
    36  H    0.000000
    37  H    2.954771   0.000000
    38  H    8.606186   7.148496   0.000000
    39  H    6.687472   5.555116   2.208815   0.000000
    40  H    6.837802   4.494823   3.623804   3.057027   0.000000
    41  H    5.092409   3.988734   4.404446   2.333540   3.052198
    42  H    4.343141   1.971037   5.279541   3.965342   2.751734
    43  H    4.789818   4.198834   3.952678   2.219873   3.841036
    44  H    4.804428   3.528930   5.359697   4.514439   4.306333
    45  H    3.465109   3.258105   5.909469   4.514924   5.025704
                   41         42         43         44         45
    41  H    0.000000
    42  H    3.035046   0.000000
    43  H    2.445823   3.002212   0.000000
    44  H    4.580699   2.461545   2.961019   0.000000
    45  H    4.150401   2.843700   2.401356   1.723259   0.000000
 Stoichiometry    C12H22O11
 Framework group  C1[X(C12H22O11)]
 Deg. of freedom   129
 Full point group                 C1      NOp   1
 Largest Abelian subgroup         C1      NOp   1
 Largest concise Abelian subgroup C1      NOp   1
                         Standard orientation:                         
 ---------------------------------------------------------------------
 Center     Atomic      Atomic             Coordinates (Angstroms)
 Number     Number       Type             X           Y           Z
 ---------------------------------------------------------------------
      1          8           0       -5.070860   -0.485175    0.817623
      2          6           0       -3.935678   -0.116178    0.020595
      3          6           0       -3.434671    1.282693    0.340315
      4          8           0       -4.291049    2.255591   -0.273937
      5          1           0       -5.245654    2.057298   -0.050925
      6          6           0       -2.044730    1.580072   -0.197566
      7          8           0       -1.516389    2.782712    0.379708
      8          1           0       -2.293656    3.409921    0.327415
      9          6           0       -3.399125   -2.416078   -0.395114
     10          8           0       -2.541306   -3.558041   -0.530665
     11          1           0       -3.052813   -4.396127   -0.715718
     12          6           0       -2.832411   -1.143772    0.214766
     13          8           0       -1.548805   -0.824750   -0.341838
     14          6           0       -1.027831    0.467589    0.002402
     15          8           0        0.243878    0.540948   -0.658171
     16          6           0        1.371411    0.224190    0.171722
     17          6           0        1.907664   -1.155704   -0.172655
     18          8           0        1.020053   -2.118113    0.415584
     19          1           0        0.217431   -1.932088   -0.150888
     20          6           0        3.245542   -1.488429    0.465803
     21          8           0        3.707991   -2.743867   -0.053032
     22          1           0        3.590958   -3.373961    0.715051
     23          6           0        2.053566    2.566651    0.061288
     24          8           0        2.821130    3.706647   -0.353925
     25          1           0        3.040670    3.743296   -1.329490
     26          6           0        2.507696    1.147336   -0.235164
     27          8           0        3.792754    0.825228    0.316257
     28          6           0        4.189015   -0.470329   -0.156551
     29          8           0        5.519529   -0.699587    0.329771
     30          1           0       -5.876559   -0.212202    0.372725
     31          1           0       -3.763349   -2.170191   -1.370707
     32          1           0       -4.236975   -2.712501    0.200739
     33          1           0       -2.707259   -1.303267    1.265384
     34          1           0       -4.231242   -0.135726   -1.007588
     35          1           0       -3.440943    1.425921    1.400667
     36          1           0       -2.138312    1.742721   -1.250983
     37          1           0       -0.819579    0.442917    1.051651
     38          1           0        6.154878   -0.351356   -0.300044
     39          1           0        4.155892   -0.516618   -1.225036
     40          1           0        3.229049   -1.448769    1.534941
     41          1           0        1.953696   -1.288416   -1.233394
     42          1           0        1.140621    0.313804    1.212685
     43          1           0        2.603597    1.068597   -1.297945
     44          1           0        1.941233    2.639779    1.122860
     45          1           0        1.080210    2.675979   -0.369437
 ---------------------------------------------------------------------
 Rotational constants (GHZ):      0.3866600      0.1466953      0.1094183
 Standard basis: 6-31+G(2d,p) (6D, 7F)
 There are   685 symmetry adapted basis functions of A   symmetry.
 Integral buffers will be    131072 words long.
 Raffenetti 2 integral format.
 Two-electron integral symmetry is turned on.
   685 basis functions,  1028 primitive gaussians,   685 cartesian basis functions
    91 alpha electrons       91 beta electrons
       nuclear repulsion energy      2270.9174800830 Hartrees.
 NAtoms=   45 NActive=   45 NUniq=   45 SFac= 1.00D+00 NAtFMM=   50 NAOKFM=F Big=F
 One-electron integrals computed using PRISM.
 NBasis=   685 RedAO= T  NBF=   685
 NBsUse=   685 1.00D-06 NBFU=   685
 Harris functional with IExCor=  402 diagonalized for initial guess.
 ExpMin= 4.38D-02 ExpMax= 5.48D+03 ExpMxC= 8.25D+02 IAcc=2 IRadAn=         0 AccDes= 0.00D+00
 HarFok:  IExCor=  402 AccDes= 0.00D+00 IRadAn=         0 IDoV= 1
 ScaDFX=  1.000000  1.000000  1.000000  1.000000
 FoFCou: FMM=F IPFlag=           0 FMFlag=      100000 FMFlg1=           0
         NFxFlg=           0 DoJE=T BraDBF=F KetDBF=T FulRan=T
         Omega=  0.000000  0.000000  1.000000  0.000000  0.000000 ICntrl=     500 IOpCl=  0
         NMat0=    1 NMatS0=    1 NMatT0=    0 NMatD0=    1 NMtDS0=    0 NMtDT0=    0
         I1Cent=           4 NGrid=           0.
 Petite list used in FoFCou.
 Initial guess orbital symmetries:
       Occupied  (A) (A) (A) (A) (A) (A) (A) (A) (A) (A) (A) (A)
                 (A) (A) (A) (A) (A) (A) (A) (A) (A) (A) (A) (A)
                 (A) (A) (A) (A) (A) (A) (A) (A) (A) (A) (A) (A)
                 (A) (A) (A) (A) (A) (A) (A) (A) (A) (A) (A) (A)
                 (A) (A) (A) (A) (A) (A) (A) (A) (A) (A) (A) (A)
                 (A) (A) (A) (A) (A) (A) (A) (A) (A) (A) (A) (A)
                 (A) (A) (A) (A) (A) (A) (A) (A) (A) (A) (A) (A)
                 (A) (A) (A) (A) (A) (A) (A)
       Virtual   (A) (A) (A) (A) (A) (A) (A) (A) (A) (A) (A) (A)
                 (A) (A) (A) (A) (A) (A) (A) (A) (A) (A) (A) (A)
                 (A) (A) (A) (A) (A) (A) (A) (A) (A) (A) (A) (A)
                 (A) (A) (A) (A) (A) (A) (A) (A) (A) (A) (A) (A)
                 (A) (A) (A) (A) (A) (A) (A) (A) (A) (A) (A) (A)
                 (A) (A) (A) (A) (A) (A) (A) (A) (A) (A) (A) (A)
                 (A) (A) (A) (A) (A) (A) (A) (A) (A) (A) (A) (A)
                 (A) (A) (A) (A) (A) (A) (A) (A) (A) (A) (A) (A)
                 (A) (A) (A) (A) (A) (A) (A) (A) (A) (A) (A) (A)
                 (A) (A) (A) (A) (A) (A) (A) (A) (A) (A) (A) (A)
                 (A) (A) (A) (A) (A) (A) (A) (A) (A) (A) (A) (A)
                 (A) (A) (A) (A) (A) (A) (A) (A) (A) (A) (A) (A)
                 (A) (A) (A) (A) (A) (A) (A) (A) (A) (A) (A) (A)
                 (A) (A) (A) (A) (A) (A) (A) (A) (A) (A) (A) (A)
                 (A) (A) (A) (A) (A) (A) (A) (A) (A) (A) (A) (A)
                 (A) (A) (A) (A) (A) (A) (A) (A) (A) (A) (A) (A)
                 (A) (A) (A) (A) (A) (A) (A) (A) (A) (A) (A) (A)
                 (A) (A) (A) (A) (A) (A) (A) (A) (A) (A) (A) (A)
                 (A) (A) (A) (A) (A) (A) (A) (A) (A) (A) (A) (A)
                 (A) (A) (A) (A) (A) (A) (A) (A) (A) (A) (A) (A)
                 (A) (A) (A) (A) (A) (A) (A) (A) (A) (A) (A) (A)
                 (A) (A) (A) (A) (A) (A) (A) (A) (A) (A) (A) (A)
                 (A) (A) (A) (A) (A) (A) (A) (A) (A) (A) (A) (A)
                 (A) (A) (A) (A) (A) (A) (A) (A) (A) (A) (A) (A)
                 (A) (A) (A) (A) (A) (A) (A) (A) (A) (A) (A) (A)
                 (A) (A) (A) (A) (A) (A) (A) (A) (A) (A) (A) (A)
                 (A) (A) (A) (A) (A) (A) (A) (A) (A) (A) (A) (A)
                 (A) (A) (A) (A) (A) (A) (A) (A) (A) (A) (A) (A)
                 (A) (A) (A) (A) (A) (A) (A) (A) (A) (A) (A) (A)
                 (A) (A) (A) (A) (A) (A) (A) (A) (A) (A) (A) (A)
                 (A) (A) (A) (A) (A) (A) (A) (A) (A) (A) (A) (A)
                 (A) (A) (A) (A) (A) (A) (A) (A) (A) (A) (A) (A)
                 (A) (A) (A) (A) (A) (A) (A) (A) (A) (A) (A) (A)
                 (A) (A) (A) (A) (A) (A) (A) (A) (A) (A) (A) (A)
                 (A) (A) (A) (A) (A) (A) (A) (A) (A) (A) (A) (A)
                 (A) (A) (A) (A) (A) (A) (A) (A) (A) (A) (A) (A)
                 (A) (A) (A) (A) (A) (A) (A) (A) (A) (A) (A) (A)
                 (A) (A) (A) (A) (A) (A) (A) (A) (A) (A) (A) (A)
                 (A) (A) (A) (A) (A) (A) (A) (A) (A) (A) (A) (A)
                 (A) (A) (A) (A) (A) (A) (A) (A) (A) (A) (A) (A)
                 (A) (A) (A) (A) (A) (A) (A) (A) (A) (A) (A) (A)
                 (A) (A) (A) (A) (A) (A) (A) (A) (A) (A) (A) (A)
                 (A) (A) (A) (A) (A) (A) (A) (A) (A) (A) (A) (A)
                 (A) (A) (A) (A) (A) (A) (A) (A) (A) (A) (A) (A)
                 (A) (A) (A) (A) (A) (A) (A) (A) (A) (A) (A) (A)
                 (A) (A) (A) (A) (A) (A) (A) (A) (A) (A) (A) (A)
                 (A) (A) (A) (A) (A) (A) (A) (A) (A) (A) (A) (A)
                 (A) (A) (A) (A) (A) (A) (A) (A) (A) (A) (A) (A)
                 (A) (A) (A) (A) (A) (A) (A) (A) (A) (A) (A) (A)
                 (A) (A) (A) (A) (A) (A)
 The electronic state of the initial guess is 1-A.
 Requested convergence on RMS density matrix=1.00D-08 within 128 cycles.
 Requested convergence on MAX density matrix=1.00D-06.
 Requested convergence on             energy=1.00D-06.
 No special actions if energy rises.
 SCF Done:  E(RB3LYP) =  -1297.98104421     A.U. after   13 cycles
             Convg  =    0.5543D-08             -V/T =  2.0064
 Range of M.O.s used for correlation:     1   685
 NBasis=   685 NAE=    91 NBE=    91 NFC=     0 NFV=     0
 NROrb=    685 NOA=    91 NOB=    91 NVA=   594 NVB=   594

 **** Warning!!: The largest alpha MO coefficient is  0.81661329D+02

          Differentiating once with respect to electric field.
                with respect to dipole field.
          Electric field/nuclear overlap derivatives assumed to be zero.
          There are     3 degrees of freedom in the 1st order CPHF.  IDoFFX=0.
      3 vectors produced by pass  0 Test12= 1.80D-12 3.33D-08 XBig12= 1.21D+02 1.13D+00.
 AX will form     3 AO Fock derivatives at one time.
      3 vectors produced by pass  1 Test12= 1.80D-12 3.33D-08 XBig12= 2.49D+01 3.57D-01.
      3 vectors produced by pass  2 Test12= 1.80D-12 3.33D-08 XBig12= 1.02D+01 2.32D-01.
      3 vectors produced by pass  3 Test12= 1.80D-12 3.33D-08 XBig12= 1.12D+00 8.38D-02.
      3 vectors produced by pass  4 Test12= 1.80D-12 3.33D-08 XBig12= 3.44D-01 3.87D-02.
      3 vectors produced by pass  5 Test12= 1.80D-12 3.33D-08 XBig12= 6.55D-02 1.92D-02.
      3 vectors produced by pass  6 Test12= 1.80D-12 3.33D-08 XBig12= 2.26D-02 1.67D-02.
      3 vectors produced by pass  7 Test12= 1.80D-12 3.33D-08 XBig12= 3.19D-03 1.02D-02.
      3 vectors produced by pass  8 Test12= 1.80D-12 3.33D-08 XBig12= 7.26D-04 3.72D-03.
      3 vectors produced by pass  9 Test12= 1.80D-12 3.33D-08 XBig12= 1.75D-04 2.09D-03.
      3 vectors produced by pass 10 Test12= 1.80D-12 3.33D-08 XBig12= 4.35D-05 7.85D-04.
      3 vectors produced by pass 11 Test12= 1.80D-12 3.33D-08 XBig12= 9.41D-06 5.37D-04.
      3 vectors produced by pass 12 Test12= 1.80D-12 3.33D-08 XBig12= 1.45D-06 1.47D-04.
      3 vectors produced by pass 13 Test12= 1.80D-12 3.33D-08 XBig12= 4.18D-07 4.56D-05.
      3 vectors produced by pass 14 Test12= 1.80D-12 3.33D-08 XBig12= 8.24D-08 2.78D-05.
      3 vectors produced by pass 15 Test12= 1.80D-12 3.33D-08 XBig12= 1.52D-08 1.09D-05.
      3 vectors produced by pass 16 Test12= 1.80D-12 3.33D-08 XBig12= 1.24D-09 4.10D-06.
      3 vectors produced by pass 17 Test12= 1.80D-12 3.33D-08 XBig12= 1.34D-10 1.11D-06.
      3 vectors produced by pass 18 Test12= 1.80D-12 3.33D-08 XBig12= 3.65D-11 4.42D-07.
      3 vectors produced by pass 19 Test12= 1.80D-12 3.33D-08 XBig12= 1.78D-11 3.01D-07.
      3 vectors produced by pass 20 Test12= 1.80D-12 3.33D-08 XBig12= 8.19D-12 2.16D-07.
      2 vectors produced by pass 21 Test12= 1.80D-12 3.33D-08 XBig12= 1.20D-12 8.68D-08.
 Inverted reduced A of dimension    65 with in-core refinement.
 End of Minotr Frequency-dependent properties file   721 does not exist.
 End of Minotr Frequency-dependent properties file   722 does not exist.
 Symmetrizing basis deriv contribution to polar:
 IMax=3 JMax=2 DiffMx= 0.00D+00
 G2DrvN: will do    16 centers at a time, making    3 passes doing MaxLOS=2.
 Calling FoFCou, ICntrl=  3107 FMM=F I1Cent=   0 AccDes= 0.00D+00.
 Calling FoFCou, ICntrl=  3107 FMM=F I1Cent=   0 AccDes= 0.00D+00.
 Calling FoFCou, ICntrl=  3107 FMM=F I1Cent=   0 AccDes= 0.00D+00.
 FoFDir/FoFCou used for L=0 through L=2.
 End of G2Drv Frequency-dependent properties file   721 does not exist.
 End of G2Drv Frequency-dependent properties file   722 does not exist.
          IDoAtm=111111111111111111111111111111111111111111111
          Differentiating once with respect to electric field.
                with respect to dipole field.
          Differentiating once with respect to nuclear coordinates.
          There are   138 degrees of freedom in the 1st order CPHF.  IDoFFX=5.
 Will reuse    3 saved solutions.
    135 vectors produced by pass  0 Test12= 5.41D-14 1.00D-09 XBig12= 1.79D-01 7.65D-02.
 AX will form    45 AO Fock derivatives at one time.
    135 vectors produced by pass  1 Test12= 5.41D-14 1.00D-09 XBig12= 1.65D-02 1.15D-02.
    132 vectors produced by pass  2 Test12= 5.41D-14 1.00D-09 XBig12= 1.69D-04 1.31D-03.
    132 vectors produced by pass  3 Test12= 5.41D-14 1.00D-09 XBig12= 6.41D-07 5.85D-05.
    132 vectors produced by pass  4 Test12= 5.41D-14 1.00D-09 XBig12= 1.22D-09 1.99D-06.
    132 vectors produced by pass  5 Test12= 5.41D-14 1.00D-09 XBig12= 2.79D-12 9.00D-08.
     80 vectors produced by pass  6 Test12= 5.41D-14 1.00D-09 XBig12= 1.02D-13 2.03D-08.
 Inverted reduced A of dimension   878 with in-core refinement.
 Isotropic polarizability for W=    0.000000      190.80 Bohr**3.
 End of Minotr Frequency-dependent properties file   721 does not exist.
 End of Minotr Frequency-dependent properties file   722 does not exist.

 **********************************************************************

            Population analysis using the SCF density.

 **********************************************************************

 Orbital symmetries:
       Occupied  (A) (A) (A) (A) (A) (A) (A) (A) (A) (A) (A) (A)
                 (A) (A) (A) (A) (A) (A) (A) (A) (A) (A) (A) (A)
                 (A) (A) (A) (A) (A) (A) (A) (A) (A) (A) (A) (A)
                 (A) (A) (A) (A) (A) (A) (A) (A) (A) (A) (A) (A)
                 (A) (A) (A) (A) (A) (A) (A) (A) (A) (A) (A) (A)
                 (A) (A) (A) (A) (A) (A) (A) (A) (A) (A) (A) (A)
                 (A) (A) (A) (A) (A) (A) (A) (A) (A) (A) (A) (A)
                 (A) (A) (A) (A) (A) (A) (A)
       Virtual   (A) (A) (A) (A) (A) (A) (A) (A) (A) (A) (A) (A)
                 (A) (A) (A) (A) (A) (A) (A) (A) (A) (A) (A) (A)
                 (A) (A) (A) (A) (A) (A) (A) (A) (A) (A) (A) (A)
                 (A) (A) (A) (A) (A) (A) (A) (A) (A) (A) (A) (A)
                 (A) (A) (A) (A) (A) (A) (A) (A) (A) (A) (A) (A)
                 (A) (A) (A) (A) (A) (A) (A) (A) (A) (A) (A) (A)
                 (A) (A) (A) (A) (A) (A) (A) (A) (A) (A) (A) (A)
                 (A) (A) (A) (A) (A) (A) (A) (A) (A) (A) (A) (A)
                 (A) (A) (A) (A) (A) (A) (A) (A) (A) (A) (A) (A)
                 (A) (A) (A) (A) (A) (A) (A) (A) (A) (A) (A) (A)
                 (A) (A) (A) (A) (A) (A) (A) (A) (A) (A) (A) (A)
                 (A) (A) (A) (A) (A) (A) (A) (A) (A) (A) (A) (A)
                 (A) (A) (A) (A) (A) (A) (A) (A) (A) (A) (A) (A)
                 (A) (A) (A) (A) (A) (A) (A) (A) (A) (A) (A) (A)
                 (A) (A) (A) (A) (A) (A) (A) (A) (A) (A) (A) (A)
                 (A) (A) (A) (A) (A) (A) (A) (A) (A) (A) (A) (A)
                 (A) (A) (A) (A) (A) (A) (A) (A) (A) (A) (A) (A)
                 (A) (A) (A) (A) (A) (A) (A) (A) (A) (A) (A) (A)
                 (A) (A) (A) (A) (A) (A) (A) (A) (A) (A) (A) (A)
                 (A) (A) (A) (A) (A) (A) (A) (A) (A) (A) (A) (A)
                 (A) (A) (A) (A) (A) (A) (A) (A) (A) (A) (A) (A)
                 (A) (A) (A) (A) (A) (A) (A) (A) (A) (A) (A) (A)
                 (A) (A) (A) (A) (A) (A) (A) (A) (A) (A) (A) (A)
                 (A) (A) (A) (A) (A) (A) (A) (A) (A) (A) (A) (A)
                 (A) (A) (A) (A) (A) (A) (A) (A) (A) (A) (A) (A)
                 (A) (A) (A) (A) (A) (A) (A) (A) (A) (A) (A) (A)
                 (A) (A) (A) (A) (A) (A) (A) (A) (A) (A) (A) (A)
                 (A) (A) (A) (A) (A) (A) (A) (A) (A) (A) (A) (A)
                 (A) (A) (A) (A) (A) (A) (A) (A) (A) (A) (A) (A)
                 (A) (A) (A) (A) (A) (A) (A) (A) (A) (A) (A) (A)
                 (A) (A) (A) (A) (A) (A) (A) (A) (A) (A) (A) (A)
                 (A) (A) (A) (A) (A) (A) (A) (A) (A) (A) (A) (A)
                 (A) (A) (A) (A) (A) (A) (A) (A) (A) (A) (A) (A)
                 (A) (A) (A) (A) (A) (A) (A) (A) (A) (A) (A) (A)
                 (A) (A) (A) (A) (A) (A) (A) (A) (A) (A) (A) (A)
                 (A) (A) (A) (A) (A) (A) (A) (A) (A) (A) (A) (A)
                 (A) (A) (A) (A) (A) (A) (A) (A) (A) (A) (A) (A)
                 (A) (A) (A) (A) (A) (A) (A) (A) (A) (A) (A) (A)
                 (A) (A) (A) (A) (A) (A) (A) (A) (A) (A) (A) (A)
                 (A) (A) (A) (A) (A) (A) (A) (A) (A) (A) (A) (A)
                 (A) (A) (A) (A) (A) (A) (A) (A) (A) (A) (A) (A)
                 (A) (A) (A) (A) (A) (A) (A) (A) (A) (A) (A) (A)
                 (A) (A) (A) (A) (A) (A) (A) (A) (A) (A) (A) (A)
                 (A) (A) (A) (A) (A) (A) (A) (A) (A) (A) (A) (A)
                 (A) (A) (A) (A) (A) (A) (A) (A) (A) (A) (A) (A)
                 (A) (A) (A) (A) (A) (A) (A) (A) (A) (A) (A) (A)
                 (A) (A) (A) (A) (A) (A) (A) (A) (A) (A) (A) (A)
                 (A) (A) (A) (A) (A) (A) (A) (A) (A) (A) (A) (A)
                 (A) (A) (A) (A) (A) (A) (A) (A) (A) (A) (A) (A)
                 (A) (A) (A) (A) (A) (A)
 The electronic state is 1-A.
 Alpha  occ. eigenvalues --  -19.19609 -19.19202 -19.18512 -19.18360 -19.17459
 Alpha  occ. eigenvalues --  -19.16046 -19.15689 -19.15150 -19.14804 -19.14124
 Alpha  occ. eigenvalues --  -19.13593 -10.31102 -10.28166 -10.27287 -10.26876
 Alpha  occ. eigenvalues --  -10.26609 -10.26374 -10.24710 -10.24564 -10.23642
 Alpha  occ. eigenvalues --  -10.23425 -10.22938 -10.21733  -1.09898  -1.07897
 Alpha  occ. eigenvalues --   -1.06855  -1.06072  -1.04294  -1.03774  -1.02518
 Alpha  occ. eigenvalues --   -1.02272  -1.00915  -1.00174  -0.99719  -0.82829
 Alpha  occ. eigenvalues --   -0.81586  -0.78789  -0.77257  -0.71984  -0.69303
 Alpha  occ. eigenvalues --   -0.67742  -0.64645  -0.63596  -0.62096  -0.61184
 Alpha  occ. eigenvalues --   -0.60179  -0.57614  -0.56715  -0.55010  -0.53999
 Alpha  occ. eigenvalues --   -0.53419  -0.52904  -0.52715  -0.51777  -0.50618
 Alpha  occ. eigenvalues --   -0.50336  -0.49208  -0.48164  -0.47291  -0.47028
 Alpha  occ. eigenvalues --   -0.45995  -0.45068  -0.44494  -0.43743  -0.43286
 Alpha  occ. eigenvalues --   -0.42138  -0.41567  -0.40632  -0.40140  -0.39703
 Alpha  occ. eigenvalues --   -0.39214  -0.37418  -0.37060  -0.36729  -0.36409
 Alpha  occ. eigenvalues --   -0.35872  -0.35091  -0.34879  -0.34153  -0.33630
 Alpha  occ. eigenvalues --   -0.32407  -0.31373  -0.31221  -0.30038  -0.29957
 Alpha  occ. eigenvalues --   -0.29232  -0.28914  -0.28395  -0.27342  -0.26090
 Alpha  occ. eigenvalues --   -0.24998
 Alpha virt. eigenvalues --   -0.04432  -0.01693  -0.00350  -0.00209   0.00681
 Alpha virt. eigenvalues --    0.01157   0.01575   0.02026   0.02143   0.03171
 Alpha virt. eigenvalues --    0.03922   0.04127   0.04781   0.05382   0.05914
 Alpha virt. eigenvalues --    0.06111   0.06689   0.07168   0.07183   0.08293
 Alpha virt. eigenvalues --    0.08600   0.08965   0.09570   0.09901   0.10307
 Alpha virt. eigenvalues --    0.10361   0.10920   0.11329   0.11508   0.11745
 Alpha virt. eigenvalues --    0.12403   0.12756   0.13006   0.13167   0.13727
 Alpha virt. eigenvalues --    0.13870   0.14585   0.14764   0.14860   0.15090
 Alpha virt. eigenvalues --    0.15434   0.15616   0.16015   0.16321   0.16791
 Alpha virt. eigenvalues --    0.17230   0.17472   0.17972   0.18363   0.18520
 Alpha virt. eigenvalues --    0.18855   0.19143   0.19389   0.19741   0.20115
 Alpha virt. eigenvalues --    0.20475   0.20616   0.20814   0.21265   0.21557
 Alpha virt. eigenvalues --    0.22127   0.22386   0.22446   0.22770   0.23071
 Alpha virt. eigenvalues --    0.23354   0.23608   0.23949   0.24051   0.24467
 Alpha virt. eigenvalues --    0.24807   0.25116   0.25335   0.25720   0.26046
 Alpha virt. eigenvalues --    0.26476   0.26660   0.26826   0.27260   0.27348
 Alpha virt. eigenvalues --    0.27835   0.28062   0.28409   0.28799   0.29143
 Alpha virt. eigenvalues --    0.29310   0.29648   0.30159   0.30299   0.30666
 Alpha virt. eigenvalues --    0.31033   0.31514   0.31950   0.32237   0.32406
 Alpha virt. eigenvalues --    0.32769   0.32923   0.33010   0.33462   0.33867
 Alpha virt. eigenvalues --    0.34274   0.34627   0.35002   0.35400   0.35588
 Alpha virt. eigenvalues --    0.35778   0.35974   0.36475   0.37038   0.37150
 Alpha virt. eigenvalues --    0.38041   0.38189   0.38280   0.38693   0.38771
 Alpha virt. eigenvalues --    0.39283   0.39523   0.39971   0.40391   0.40723
 Alpha virt. eigenvalues --    0.41474   0.42025   0.42456   0.42787   0.43271
 Alpha virt. eigenvalues --    0.43982   0.44155   0.44802   0.45671   0.46500
 Alpha virt. eigenvalues --    0.46640   0.47511   0.48248   0.49201   0.49579
 Alpha virt. eigenvalues --    0.50783   0.52434   0.53696   0.57636   0.58571
 Alpha virt. eigenvalues --    0.59513   0.59680   0.61631   0.61950   0.62876
 Alpha virt. eigenvalues --    0.63253   0.63967   0.64993   0.66166   0.66418
 Alpha virt. eigenvalues --    0.67165   0.67405   0.68780   0.69307   0.70212
 Alpha virt. eigenvalues --    0.70572   0.72162   0.72965   0.73432   0.73766
 Alpha virt. eigenvalues --    0.74689   0.75108   0.75920   0.76927   0.77561
 Alpha virt. eigenvalues --    0.77956   0.78923   0.79554   0.80342   0.81218
 Alpha virt. eigenvalues --    0.81725   0.82965   0.83811   0.84627   0.84845
 Alpha virt. eigenvalues --    0.86484   0.87215   0.88459   0.89161   0.89429
 Alpha virt. eigenvalues --    0.89994   0.90517   0.90823   0.91622   0.91841
 Alpha virt. eigenvalues --    0.92350   0.92941   0.93262   0.93385   0.94081
 Alpha virt. eigenvalues --    0.94597   0.94780   0.95514   0.96118   0.96548
 Alpha virt. eigenvalues --    0.96915   0.97515   0.97804   0.98199   0.99041
 Alpha virt. eigenvalues --    0.99781   1.00459   1.01185   1.01631   1.02179
 Alpha virt. eigenvalues --    1.03307   1.03893   1.04023   1.05098   1.05504
 Alpha virt. eigenvalues --    1.06268   1.06599   1.07011   1.08016   1.08127
 Alpha virt. eigenvalues --    1.08977   1.10032   1.10358   1.11161   1.11465
 Alpha virt. eigenvalues --    1.12044   1.12869   1.13379   1.13962   1.14221
 Alpha virt. eigenvalues --    1.15154   1.15562   1.15975   1.16768   1.17300
 Alpha virt. eigenvalues --    1.17791   1.18260   1.18376   1.19312   1.19705
 Alpha virt. eigenvalues --    1.19875   1.21052   1.21244   1.21838   1.22226
 Alpha virt. eigenvalues --    1.22768   1.23412   1.23904   1.24207   1.24805
 Alpha virt. eigenvalues --    1.25114   1.25677   1.26226   1.27107   1.27955
 Alpha virt. eigenvalues --    1.28470   1.28513   1.29056   1.29306   1.30397
 Alpha virt. eigenvalues --    1.31255   1.31470   1.32045   1.32683   1.33839
 Alpha virt. eigenvalues --    1.34563   1.34720   1.35145   1.35777   1.36743
 Alpha virt. eigenvalues --    1.38214   1.38548   1.39995   1.40274   1.40674
 Alpha virt. eigenvalues --    1.41609   1.42643   1.43001   1.43403   1.43594
 Alpha virt. eigenvalues --    1.45141   1.45488   1.46716   1.47565   1.48271
 Alpha virt. eigenvalues --    1.48646   1.49206   1.50725   1.51494   1.51758
 Alpha virt. eigenvalues --    1.53370   1.54200   1.54461   1.55097   1.56288
 Alpha virt. eigenvalues --    1.56626   1.57935   1.58769   1.59526   1.59942
 Alpha virt. eigenvalues --    1.60160   1.61903   1.62311   1.62783   1.63542
 Alpha virt. eigenvalues --    1.65174   1.65639   1.66300   1.67621   1.69078
 Alpha virt. eigenvalues --    1.69805   1.72250   1.72346   1.73348   1.75112
 Alpha virt. eigenvalues --    1.75343   1.76587   1.76965   1.78336   1.80283
 Alpha virt. eigenvalues --    1.80913   1.81555   1.82117   1.83131   1.83844
 Alpha virt. eigenvalues --    1.84458   1.87055   1.87379   1.87682   1.88396
 Alpha virt. eigenvalues --    1.89651   1.91618   1.92389   1.93866   1.94138
 Alpha virt. eigenvalues --    1.94731   1.95453   1.96109   1.97782   1.98224
 Alpha virt. eigenvalues --    1.99382   2.00227   2.02720   2.03803   2.04350
 Alpha virt. eigenvalues --    2.04900   2.06766   2.08431   2.09387   2.10654
 Alpha virt. eigenvalues --    2.12017   2.12986   2.15815   2.16566   2.17803
 Alpha virt. eigenvalues --    2.19251   2.21613   2.22147   2.24797   2.25212
 Alpha virt. eigenvalues --    2.26471   2.28004   2.28851   2.29426   2.30452
 Alpha virt. eigenvalues --    2.31130   2.32520   2.34482   2.36367   2.37075
 Alpha virt. eigenvalues --    2.37952   2.39396   2.41695   2.42341   2.51802
 Alpha virt. eigenvalues --    2.52561   2.53046   2.54763   2.56118   2.56665
 Alpha virt. eigenvalues --    2.59442   2.61527   2.63263   2.63671   2.65570
 Alpha virt. eigenvalues --    2.67164   2.68655   2.69835   2.70760   2.71855
 Alpha virt. eigenvalues --    2.72562   2.74432   2.75503   2.77225   2.77926
 Alpha virt. eigenvalues --    2.78531   2.80072   2.82750   2.84865   2.85577
 Alpha virt. eigenvalues --    2.86182   2.88549   2.89664   2.90814   2.92412
 Alpha virt. eigenvalues --    2.93062   2.94463   2.95123   2.96255   2.97066
 Alpha virt. eigenvalues --    2.97651   2.98247   2.98917   2.99579   3.01252
 Alpha virt. eigenvalues --    3.01351   3.03517   3.04329   3.05001   3.05208
 Alpha virt. eigenvalues --    3.05939   3.07179   3.07824   3.09209   3.09513
 Alpha virt. eigenvalues --    3.09809   3.10452   3.11317   3.13842   3.14039
 Alpha virt. eigenvalues --    3.15277   3.16675   3.18767   3.20115   3.20887
 Alpha virt. eigenvalues --    3.23142   3.27596   3.28615   3.67630   3.85326
 Alpha virt. eigenvalues --    3.98864   4.05304   4.07743   4.08713   4.10002
 Alpha virt. eigenvalues --    4.12628   4.13500   4.15037   4.15358   4.16052
 Alpha virt. eigenvalues --    4.17257   4.17455   4.18868   4.20009   4.20870
 Alpha virt. eigenvalues --    4.21071   4.22908   4.23827   4.25218   4.25800
 Alpha virt. eigenvalues --    4.26484   4.26862   4.28164   4.29457   4.30059
 Alpha virt. eigenvalues --    4.30456   4.31149   4.31793   4.32569   4.32959
 Alpha virt. eigenvalues --    4.33534   4.33740   4.34080   4.35073   4.35256
 Alpha virt. eigenvalues --    4.35683   4.36317   4.37302   4.37873   4.37948
 Alpha virt. eigenvalues --    4.39400   4.39834   4.41295   4.42099   4.43713
 Alpha virt. eigenvalues --    4.44835   4.45821   4.47111   4.48614   4.49306
 Alpha virt. eigenvalues --    4.51437   4.52895   4.53369   4.53519   4.54752
 Alpha virt. eigenvalues --    4.55859   4.57598   4.57774   4.59011   4.59633
 Alpha virt. eigenvalues --    4.61365   4.62256   4.63097   4.63569   4.63887
 Alpha virt. eigenvalues --    4.65066   4.65390   4.66028   4.67053   4.68003
 Alpha virt. eigenvalues --    4.68305   4.68881   4.69244   4.69712   4.70601
 Alpha virt. eigenvalues --    4.71670   4.71911   4.72402   4.72969   4.73537
 Alpha virt. eigenvalues --    4.74290   4.75036   4.75663   4.76655   4.77598
 Alpha virt. eigenvalues --    4.78990   4.79144   4.79894   4.80366   4.81881
 Alpha virt. eigenvalues --    4.82187   4.83432   4.83795   4.84940   4.85680
 Alpha virt. eigenvalues --    4.86154   4.87621   4.88382   4.90009   4.91475
 Alpha virt. eigenvalues --    4.93236   4.93640   4.94865   4.95354   4.97161
 Alpha virt. eigenvalues --    4.99381   5.01358   5.02456   5.03768   5.04026
 Alpha virt. eigenvalues --    5.09755   5.11118   5.13993   5.16528   5.16908
 Alpha virt. eigenvalues --    5.20189   5.24633   5.28438   5.32567   5.36424
 Alpha virt. eigenvalues --    5.48959   5.78658   5.99513   6.12482   6.60859
 Alpha virt. eigenvalues --    6.71304   6.73125   6.75480   6.78626   6.84784
 Alpha virt. eigenvalues --    6.85316   6.88620   6.90470   6.97819   7.02074
 Alpha virt. eigenvalues --    7.20281  11.81015  12.00995  12.02243  12.12569
 Alpha virt. eigenvalues --   12.26115  12.42552  12.67617  12.75511  12.81942
 Alpha virt. eigenvalues --   12.86170  13.05169  13.10146  13.15078  13.23439
 Alpha virt. eigenvalues --   13.29566  13.34842  13.40729  13.43282  13.48763
 Alpha virt. eigenvalues --   13.51451  13.60462  13.67219  13.90073
          Condensed to atoms (all electrons):
              1          2          3          4          5          6
     1  O    8.212003   0.201422   0.030664  -0.005711   0.010598  -0.021073
     2  C    0.201422   7.845149  -0.994904   0.075307  -0.025481  -1.510948
     3  C    0.030664  -0.994904   6.818420  -0.105908   0.035121   0.246668
     4  O   -0.005711   0.075307  -0.105908   8.265801   0.223881   0.179671
     5  H    0.010598  -0.025481   0.035121   0.223881   0.449920  -0.037991
     6  C   -0.021073  -1.510948   0.246668   0.179671  -0.037991  10.491180
     7  O    0.000339   0.016418  -0.004819  -0.022402   0.000825   0.041108
     8  H   -0.000055   0.002245  -0.025708   0.012837  -0.000516   0.003492
     9  C   -0.083627   0.232991  -0.199102   0.008341  -0.001485   0.252099
    10  O   -0.000036  -0.009444   0.008778  -0.000019  -0.000001  -0.011853
    11  H    0.000077   0.004770   0.000258   0.000000   0.000000   0.000871
    12  C   -0.046376  -1.441366   0.217778   0.008135   0.010339   0.363932
    13  O    0.001480   0.020213  -0.041364  -0.002098  -0.000073   0.075279
    14  C    0.001435   1.061500  -0.481240  -0.041921   0.012896  -3.399223
    15  O    0.000051   0.007315  -0.016262   0.000240   0.000013  -0.084964
    16  C    0.001052   0.178309   0.146774  -0.002040   0.000196  -0.719899
    17  C   -0.000228  -0.043082  -0.025328   0.000004   0.000034   0.152119
    18  O    0.000014   0.001786  -0.001528  -0.000007   0.000000   0.003424
    19  H   -0.000017  -0.001774   0.001571   0.000001   0.000000   0.003807
    20  C    0.000022   0.001776   0.002063  -0.000004   0.000001  -0.029750
    21  O    0.000000   0.000078  -0.000002   0.000000   0.000000   0.000939
    22  H    0.000000  -0.000003   0.000000   0.000000   0.000000   0.000009
    23  C    0.000026   0.009958  -0.021586  -0.000083  -0.000032  -0.115714
    24  O    0.000000  -0.000133  -0.002175   0.000001   0.000000  -0.001139
    25  H    0.000000   0.000007  -0.000204   0.000000   0.000000   0.001774
    26  C    0.000024  -0.031691  -0.017206   0.000121   0.000020  -0.060965
    27  O    0.000000   0.000185  -0.000010   0.000000   0.000000   0.000583
    28  C   -0.000001   0.001880  -0.000625   0.000011   0.000000   0.005566
    29  O    0.000000   0.000000  -0.000004   0.000000   0.000000  -0.000024
    30  H    0.256260   0.036071  -0.042182  -0.000758   0.000903  -0.007923
    31  H   -0.000345   0.073206  -0.003903  -0.000102   0.000002   0.008211
    32  H   -0.006926   0.019152  -0.011190  -0.000038   0.000000  -0.004577
    33  H   -0.000508   0.136056  -0.070370  -0.000050   0.000006  -0.024489
    34  H   -0.029844   0.425742  -0.127365   0.003211  -0.000405  -0.007318
    35  H   -0.001358   0.038796   0.308986  -0.030581  -0.003320  -0.160016
    36  H   -0.000120  -0.011997  -0.016416  -0.004854  -0.000119   0.424917
    37  H   -0.000097  -0.031594  -0.007196  -0.000101   0.000006  -0.022705
    38  H    0.000000   0.000000   0.000000   0.000000   0.000000   0.000011
    39  H    0.000000   0.000010  -0.000005   0.000000   0.000000  -0.000003
    40  H    0.000000   0.000062  -0.000037   0.000000   0.000000  -0.000183
    41  H    0.000000   0.000147   0.000029   0.000000   0.000000   0.005842
    42  H    0.000000  -0.004055   0.000972   0.000003   0.000000   0.018736
    43  H    0.000000  -0.000070  -0.000727   0.000000   0.000000   0.001006
    44  H    0.000000   0.000205  -0.001300  -0.000001   0.000000   0.004689
    45  H    0.000000  -0.000445   0.005222  -0.000007   0.000000  -0.030525
              7          8          9         10         11         12
     1  O    0.000339  -0.000055  -0.083627  -0.000036   0.000077  -0.046376
     2  C    0.016418   0.002245   0.232991  -0.009444   0.004770  -1.441366
     3  C   -0.004819  -0.025708  -0.199102   0.008778   0.000258   0.217778
     4  O   -0.022402   0.012837   0.008341  -0.000019   0.000000   0.008135
     5  H    0.000825  -0.000516  -0.001485  -0.000001   0.000000   0.010339
     6  C    0.041108   0.003492   0.252099  -0.011853   0.000871   0.363932
     7  O    8.222029   0.233384  -0.001456  -0.000009   0.000000   0.004180
     8  H    0.233384   0.415872   0.000286   0.000000   0.000000   0.000772
     9  C   -0.001456   0.000286   6.291925   0.230912  -0.031185  -1.178108
    10  O   -0.000009   0.000000   0.230912   8.227733   0.235631  -0.096654
    11  H    0.000000   0.000000  -0.031185   0.235631   0.437842   0.020959
    12  C    0.004180   0.000772  -1.178108  -0.096654   0.020959   9.082447
    13  O    0.000577   0.000001  -0.022095   0.012797   0.000894   0.083867
    14  C    0.093466   0.003086  -0.280702   0.007641  -0.000570  -0.785070
    15  O    0.004101   0.000136  -0.000856  -0.000321   0.000013  -0.039247
    16  C   -0.008493   0.000596  -0.056988   0.009682  -0.000217  -0.188268
    17  C   -0.001521  -0.000226   0.031355  -0.005473   0.000106  -0.045211
    18  O    0.000113  -0.000003   0.000541   0.000173   0.000066  -0.001353
    19  H   -0.000063   0.000000  -0.005751   0.001522  -0.000026   0.011221
    20  C    0.000420  -0.000036   0.000725   0.000670  -0.000077  -0.015979
    21  O    0.000000   0.000000  -0.000276  -0.000002   0.000000   0.000214
    22  H    0.000000   0.000000   0.000006  -0.000001   0.000000  -0.000043
    23  C    0.000391   0.000400   0.003063   0.000068  -0.000002   0.003348
    24  O    0.000009  -0.000025   0.000012   0.000000   0.000000  -0.000046
    25  H    0.000053   0.000000   0.000003   0.000000   0.000000  -0.000011
    26  C   -0.008206   0.000443   0.007754  -0.000763   0.000014   0.016758
    27  O   -0.000053   0.000001  -0.000088   0.000001   0.000000  -0.000179
    28  C    0.000164  -0.000001  -0.003075   0.000123   0.000000  -0.002027
    29  O   -0.000001   0.000000  -0.000003   0.000000   0.000000   0.000067
    30  H   -0.000031   0.000000   0.005656   0.000005  -0.000002   0.005219
    31  H    0.000003   0.000000   0.633077  -0.050353  -0.000606  -0.387438
    32  H   -0.000005   0.000000   0.403240  -0.027682  -0.008113  -0.042376
    33  H    0.000102  -0.000001   0.088384   0.002220  -0.000079   0.031175
    34  H    0.000745  -0.000002   0.007602   0.000898  -0.000010  -0.089583
    35  H    0.008803  -0.000773   0.005253   0.000033   0.000000   0.020277
    36  H   -0.035330  -0.003207   0.007778  -0.000010   0.000000   0.052624
    37  H   -0.001203  -0.000320   0.015678  -0.000087   0.000000   0.070169
    38  H    0.000000   0.000000   0.000000   0.000000   0.000000  -0.000001
    39  H    0.000001   0.000000  -0.000013   0.000000   0.000000   0.000049
    40  H    0.000002   0.000000  -0.000006   0.000000   0.000000   0.000312
    41  H    0.000007   0.000000   0.000951  -0.000016   0.000000  -0.000623
    42  H   -0.000763   0.000004   0.000839  -0.000003   0.000000   0.009041
    43  H    0.000001   0.000000   0.000106   0.000000   0.000000   0.001263
    44  H    0.000254   0.000008   0.000061   0.000000   0.000000   0.000700
    45  H   -0.003315   0.000000  -0.000099   0.000000   0.000000   0.000910
             13         14         15         16         17         18
     1  O    0.001480   0.001435   0.000051   0.001052  -0.000228   0.000014
     2  C    0.020213   1.061500   0.007315   0.178309  -0.043082   0.001786
     3  C   -0.041364  -0.481240  -0.016262   0.146774  -0.025328  -0.001528
     4  O   -0.002098  -0.041921   0.000240  -0.002040   0.000004  -0.000007
     5  H   -0.000073   0.012896   0.000013   0.000196   0.000034   0.000000
     6  C    0.075279  -3.399223  -0.084964  -0.719899   0.152119   0.003424
     7  O    0.000577   0.093466   0.004101  -0.008493  -0.001521   0.000113
     8  H    0.000001   0.003086   0.000136   0.000596  -0.000226  -0.000003
     9  C   -0.022095  -0.280702  -0.000856  -0.056988   0.031355   0.000541
    10  O    0.012797   0.007641  -0.000321   0.009682  -0.005473   0.000173
    11  H    0.000894  -0.000570   0.000013  -0.000217   0.000106   0.000066
    12  C    0.083867  -0.785070  -0.039247  -0.188268  -0.045211  -0.001353
    13  O    8.132737   0.122665  -0.002188  -0.033689   0.004660  -0.016512
    14  C    0.122665   9.732766   0.280276  -0.756510   0.260084  -0.011604
    15  O   -0.002188   0.280276   8.037054   0.234382  -0.092954  -0.006014
    16  C   -0.033689  -0.756510   0.234382  11.335430  -1.886105  -0.136798
    17  C    0.004660   0.260084  -0.092954  -1.886105   8.659416   0.142816
    18  O   -0.016512  -0.011604  -0.006014  -0.136798   0.142816   8.227979
    19  H    0.014311   0.015175   0.004808  -0.063419   0.070300   0.239116
    20  C   -0.009330  -0.334087   0.009851  -1.105358  -0.759798   0.061383
    21  O    0.000131   0.003426   0.000140   0.050730  -0.087473   0.002808
    22  H   -0.000005  -0.000152   0.000010  -0.025539  -0.039954  -0.001496
    23  C    0.002177   0.202781  -0.086372   0.095111  -0.513835   0.015396
    24  O   -0.000030   0.002045  -0.001565  -0.057842   0.016661  -0.000007
    25  H   -0.000010  -0.000432  -0.000701   0.024789   0.007102   0.000005
    26  C   -0.008241  -0.469137   0.054662  -2.611640   0.149354   0.067531
    27  O    0.000004  -0.003258  -0.000289   0.035261  -0.044818  -0.001197
    28  C   -0.000682   0.046658   0.013355   0.728932  -0.235990  -0.028200
    29  O    0.000018   0.003150  -0.000151   0.007072  -0.004483   0.000447
    30  H   -0.000411   0.002174   0.000005  -0.000003   0.000005   0.000000
    31  H    0.003614   0.012825   0.000188   0.001516  -0.000063   0.000028
    32  H    0.002366   0.007194  -0.000046   0.000241   0.000179  -0.000019
    33  H   -0.033850   0.098929  -0.000325   0.014229   0.002068   0.000181
    34  H    0.004046   0.065147  -0.000456  -0.001738   0.000982   0.000014
    35  H    0.002530   0.074156  -0.000185  -0.006366   0.001418   0.000016
    36  H    0.009151  -0.143062  -0.007669  -0.018500   0.004166   0.000025
    37  H   -0.035808   0.274560  -0.046883  -0.035535   0.028209  -0.002344
    38  H    0.000000   0.000105   0.000009  -0.002477   0.001549  -0.000012
    39  H    0.000034   0.000268   0.000000   0.086838  -0.022849   0.001113
    40  H    0.000069  -0.009683  -0.000193   0.112072  -0.142330   0.004274
    41  H    0.000127  -0.003523  -0.003650  -0.074538   0.362092  -0.015645
    42  H   -0.001721   0.049239  -0.035159   0.140702   0.062391  -0.001174
    43  H   -0.000380   0.086928  -0.006044   0.062361   0.000110   0.000260
    44  H   -0.000002   0.032160  -0.002436   0.085366   0.006395   0.000192
    45  H    0.000172   0.020843  -0.002014   0.039344  -0.019201  -0.000193
             19         20         21         22         23         24
     1  O   -0.000017   0.000022   0.000000   0.000000   0.000026   0.000000
     2  C   -0.001774   0.001776   0.000078  -0.000003   0.009958  -0.000133
     3  C    0.001571   0.002063  -0.000002   0.000000  -0.021586  -0.002175
     4  O    0.000001  -0.000004   0.000000   0.000000  -0.000083   0.000001
     5  H    0.000000   0.000001   0.000000   0.000000  -0.000032   0.000000
     6  C    0.003807  -0.029750   0.000939   0.000009  -0.115714  -0.001139
     7  O   -0.000063   0.000420   0.000000   0.000000   0.000391   0.000009
     8  H    0.000000  -0.000036   0.000000   0.000000   0.000400  -0.000025
     9  C   -0.005751   0.000725  -0.000276   0.000006   0.003063   0.000012
    10  O    0.001522   0.000670  -0.000002  -0.000001   0.000068   0.000000
    11  H   -0.000026  -0.000077   0.000000   0.000000  -0.000002   0.000000
    12  C    0.011221  -0.015979   0.000214  -0.000043   0.003348  -0.000046
    13  O    0.014311  -0.009330   0.000131  -0.000005   0.002177  -0.000030
    14  C    0.015175  -0.334087   0.003426  -0.000152   0.202781   0.002045
    15  O    0.004808   0.009851   0.000140   0.000010  -0.086372  -0.001565
    16  C   -0.063419  -1.105358   0.050730  -0.025539   0.095111  -0.057842
    17  C    0.070300  -0.759798  -0.087473  -0.039954  -0.513835   0.016661
    18  O    0.239116   0.061383   0.002808  -0.001496   0.015396  -0.000007
    19  H    0.387047  -0.022071  -0.000020  -0.000033  -0.004956   0.000001
    20  C   -0.022071   7.077459   0.221066   0.078757   0.124302  -0.004922
    21  O   -0.000020   0.221066   8.183250   0.246198  -0.001266  -0.000047
    22  H   -0.000033   0.078757   0.246198   0.427753   0.000302   0.000000
    23  C   -0.004956   0.124302  -0.001266   0.000302   6.787199   0.137680
    24  O    0.000001  -0.004922  -0.000047   0.000000   0.137680   8.201082
    25  H    0.000000  -0.003079   0.000000   0.000000  -0.011874   0.240091
    26  C   -0.013491   1.037680  -0.039133   0.013999  -1.252716   0.088698
    27  O    0.000010  -0.078437  -0.002480  -0.000218  -0.081904  -0.000195
    28  C    0.007167  -0.187769  -0.065991  -0.019626  -0.118178  -0.007714
    29  O    0.000004  -0.056641  -0.027177  -0.000557   0.010914   0.000428
    30  H    0.000000   0.000000   0.000000   0.000000  -0.000002   0.000000
    31  H   -0.000012   0.000000   0.000000   0.000000   0.000008   0.000000
    32  H    0.000000   0.000026   0.000000   0.000000   0.000002   0.000000
    33  H   -0.000062   0.000666  -0.000001   0.000000   0.000143   0.000000
    34  H   -0.000002   0.000018   0.000000   0.000000   0.000197   0.000000
    35  H    0.000000   0.000016   0.000000   0.000000   0.000941   0.000000
    36  H   -0.000001   0.000301   0.000000   0.000000   0.002118  -0.000005
    37  H   -0.000013   0.011853   0.000012   0.000000  -0.008769   0.000027
    38  H    0.000000   0.017571  -0.002594   0.000055  -0.001339   0.000020
    39  H    0.000005  -0.148684   0.005398  -0.000263   0.009976  -0.000170
    40  H   -0.000116   0.302565  -0.010173  -0.012170   0.006999  -0.000032
    41  H   -0.008468  -0.035687   0.000334   0.000030   0.008376   0.000051
    42  H    0.000168   0.007641  -0.000259   0.000015  -0.015873   0.000247
    43  H    0.000042  -0.062169  -0.000033   0.000000   0.074460  -0.007800
    44  H    0.000000  -0.009114   0.000006   0.000000   0.565051  -0.045758
    45  H    0.000000   0.002031  -0.000005   0.000000   0.423919  -0.041875
             25         26         27         28         29         30
     1  O    0.000000   0.000024   0.000000  -0.000001   0.000000   0.256260
     2  C    0.000007  -0.031691   0.000185   0.001880   0.000000   0.036071
     3  C   -0.000204  -0.017206  -0.000010  -0.000625  -0.000004  -0.042182
     4  O    0.000000   0.000121   0.000000   0.000011   0.000000  -0.000758
     5  H    0.000000   0.000020   0.000000   0.000000   0.000000   0.000903
     6  C    0.001774  -0.060965   0.000583   0.005566  -0.000024  -0.007923
     7  O    0.000053  -0.008206  -0.000053   0.000164  -0.000001  -0.000031
     8  H    0.000000   0.000443   0.000001  -0.000001   0.000000   0.000000
     9  C    0.000003   0.007754  -0.000088  -0.003075  -0.000003   0.005656
    10  O    0.000000  -0.000763   0.000001   0.000123   0.000000   0.000005
    11  H    0.000000   0.000014   0.000000   0.000000   0.000000  -0.000002
    12  C   -0.000011   0.016758  -0.000179  -0.002027   0.000067   0.005219
    13  O   -0.000010  -0.008241   0.000004  -0.000682   0.000018  -0.000411
    14  C   -0.000432  -0.469137  -0.003258   0.046658   0.003150   0.002174
    15  O   -0.000701   0.054662  -0.000289   0.013355  -0.000151   0.000005
    16  C    0.024789  -2.611640   0.035261   0.728932   0.007072  -0.000003
    17  C    0.007102   0.149354  -0.044818  -0.235990  -0.004483   0.000005
    18  O    0.000005   0.067531  -0.001197  -0.028200   0.000447   0.000000
    19  H    0.000000  -0.013491   0.000010   0.007167   0.000004   0.000000
    20  C   -0.003079   1.037680  -0.078437  -0.187769  -0.056641   0.000000
    21  O    0.000000  -0.039133  -0.002480  -0.065991  -0.027177   0.000000
    22  H    0.000000   0.013999  -0.000218  -0.019626  -0.000557   0.000000
    23  C   -0.011874  -1.252716  -0.081904  -0.118178   0.010914  -0.000002
    24  O    0.240091   0.088698  -0.000195  -0.007714   0.000428   0.000000
    25  H    0.451664  -0.029275  -0.001413   0.001534   0.000007   0.000000
    26  C   -0.029275   9.955571   0.237218  -0.753020  -0.021571  -0.000001
    27  O   -0.001413   0.237218   8.174635   0.182629  -0.038048   0.000000
    28  C    0.001534  -0.753020   0.182629   5.448111   0.267867   0.000000
    29  O    0.000007  -0.021571  -0.038048   0.267867   8.147824   0.000000
    30  H    0.000000  -0.000001   0.000000   0.000000   0.000000   0.427372
    31  H    0.000000   0.000003   0.000000  -0.000001   0.000000  -0.000082
    32  H    0.000000   0.000001   0.000000  -0.000001   0.000000  -0.000079
    33  H    0.000000   0.000681   0.000001  -0.000035   0.000000  -0.000185
    34  H    0.000000  -0.000218   0.000000  -0.000003   0.000000  -0.010918
    35  H    0.000000  -0.001280   0.000000  -0.000001   0.000000  -0.000058
    36  H    0.000000  -0.004334   0.000004  -0.000102   0.000000   0.000003
    37  H    0.000000   0.037563   0.000254  -0.001002  -0.000004   0.000001
    38  H    0.000000  -0.004878   0.001049  -0.013439   0.253952   0.000000
    39  H   -0.000001  -0.024428  -0.047841   0.431552  -0.021091   0.000000
    40  H    0.000000  -0.005873   0.000768   0.028090   0.001185   0.000000
    41  H   -0.000001   0.046817   0.002698  -0.021713   0.000747   0.000000
    42  H    0.000001   0.031127  -0.001107   0.000350  -0.000109   0.000000
    43  H    0.002822   0.094674  -0.052091   0.036637   0.001238   0.000000
    44  H    0.006051  -0.327414  -0.001145  -0.003181   0.000120   0.000000
    45  H   -0.003672  -0.067326   0.001427  -0.000270   0.000003   0.000000
             31         32         33         34         35         36
     1  O   -0.000345  -0.006926  -0.000508  -0.029844  -0.001358  -0.000120
     2  C    0.073206   0.019152   0.136056   0.425742   0.038796  -0.011997
     3  C   -0.003903  -0.011190  -0.070370  -0.127365   0.308986  -0.016416
     4  O   -0.000102  -0.000038  -0.000050   0.003211  -0.030581  -0.004854
     5  H    0.000002   0.000000   0.000006  -0.000405  -0.003320  -0.000119
     6  C    0.008211  -0.004577  -0.024489  -0.007318  -0.160016   0.424917
     7  O    0.000003  -0.000005   0.000102   0.000745   0.008803  -0.035330
     8  H    0.000000   0.000000  -0.000001  -0.000002  -0.000773  -0.003207
     9  C    0.633077   0.403240   0.088384   0.007602   0.005253   0.007778
    10  O   -0.050353  -0.027682   0.002220   0.000898   0.000033  -0.000010
    11  H   -0.000606  -0.008113  -0.000079  -0.000010   0.000000   0.000000
    12  C   -0.387438  -0.042376   0.031175  -0.089583   0.020277   0.052624
    13  O    0.003614   0.002366  -0.033850   0.004046   0.002530   0.009151
    14  C    0.012825   0.007194   0.098929   0.065147   0.074156  -0.143062
    15  O    0.000188  -0.000046  -0.000325  -0.000456  -0.000185  -0.007669
    16  C    0.001516   0.000241   0.014229  -0.001738  -0.006366  -0.018500
    17  C   -0.000063   0.000179   0.002068   0.000982   0.001418   0.004166
    18  O    0.000028  -0.000019   0.000181   0.000014   0.000016   0.000025
    19  H   -0.000012   0.000000  -0.000062  -0.000002   0.000000  -0.000001
    20  C    0.000000   0.000026   0.000666   0.000018   0.000016   0.000301
    21  O    0.000000   0.000000  -0.000001   0.000000   0.000000   0.000000
    22  H    0.000000   0.000000   0.000000   0.000000   0.000000   0.000000
    23  C    0.000008   0.000002   0.000143   0.000197   0.000941   0.002118
    24  O    0.000000   0.000000   0.000000   0.000000   0.000000  -0.000005
    25  H    0.000000   0.000000   0.000000   0.000000   0.000000   0.000000
    26  C    0.000003   0.000001   0.000681  -0.000218  -0.001280  -0.004334
    27  O    0.000000   0.000000   0.000001   0.000000   0.000000   0.000004
    28  C   -0.000001  -0.000001  -0.000035  -0.000003  -0.000001  -0.000102
    29  O    0.000000   0.000000   0.000000   0.000000   0.000000   0.000000
    30  H   -0.000082  -0.000079  -0.000185  -0.010918  -0.000058   0.000003
    31  H    0.619438  -0.050764   0.006880   0.007866  -0.000009  -0.000032
    32  H   -0.050764   0.560075  -0.005372   0.000004  -0.000009  -0.000001
    33  H    0.006880  -0.005372   0.619977   0.006464   0.000808  -0.000086
    34  H    0.007866   0.000004   0.006464   0.610951   0.005740   0.000572
    35  H   -0.000009  -0.000009   0.000808   0.005740   0.588803   0.005614
    36  H   -0.000032  -0.000001  -0.000086   0.000572   0.005614   0.595191
    37  H    0.000005   0.000005   0.003572  -0.000020   0.001055   0.006200
    38  H    0.000000   0.000000   0.000000   0.000000   0.000000   0.000000
    39  H    0.000000   0.000000   0.000000   0.000000   0.000000   0.000000
    40  H    0.000000   0.000000   0.000000   0.000000   0.000000   0.000000
    41  H    0.000000   0.000000  -0.000001   0.000000   0.000000  -0.000002
    42  H    0.000000   0.000000  -0.000013   0.000000  -0.000001   0.000000
    43  H    0.000000   0.000000   0.000000   0.000000   0.000000   0.000000
    44  H    0.000000   0.000000   0.000000   0.000000   0.000000   0.000001
    45  H    0.000000   0.000000   0.000000   0.000000  -0.000001   0.000049
             37         38         39         40         41         42
     1  O   -0.000097   0.000000   0.000000   0.000000   0.000000   0.000000
     2  C   -0.031594   0.000000   0.000010   0.000062   0.000147  -0.004055
     3  C   -0.007196   0.000000  -0.000005  -0.000037   0.000029   0.000972
     4  O   -0.000101   0.000000   0.000000   0.000000   0.000000   0.000003
     5  H    0.000006   0.000000   0.000000   0.000000   0.000000   0.000000
     6  C   -0.022705   0.000011  -0.000003  -0.000183   0.005842   0.018736
     7  O   -0.001203   0.000000   0.000001   0.000002   0.000007  -0.000763
     8  H   -0.000320   0.000000   0.000000   0.000000   0.000000   0.000004
     9  C    0.015678   0.000000  -0.000013  -0.000006   0.000951   0.000839
    10  O   -0.000087   0.000000   0.000000   0.000000  -0.000016  -0.000003
    11  H    0.000000   0.000000   0.000000   0.000000   0.000000   0.000000
    12  C    0.070169  -0.000001   0.000049   0.000312  -0.000623   0.009041
    13  O   -0.035808   0.000000   0.000034   0.000069   0.000127  -0.001721
    14  C    0.274560   0.000105   0.000268  -0.009683  -0.003523   0.049239
    15  O   -0.046883   0.000009   0.000000  -0.000193  -0.003650  -0.035159
    16  C   -0.035535  -0.002477   0.086838   0.112072  -0.074538   0.140702
    17  C    0.028209   0.001549  -0.022849  -0.142330   0.362092   0.062391
    18  O   -0.002344  -0.000012   0.001113   0.004274  -0.015645  -0.001174
    19  H   -0.000013   0.000000   0.000005  -0.000116  -0.008468   0.000168
    20  C    0.011853   0.017571  -0.148684   0.302565  -0.035687   0.007641
    21  O    0.000012  -0.002594   0.005398  -0.010173   0.000334  -0.000259
    22  H    0.000000   0.000055  -0.000263  -0.012170   0.000030   0.000015
    23  C   -0.008769  -0.001339   0.009976   0.006999   0.008376  -0.015873
    24  O    0.000027   0.000020  -0.000170  -0.000032   0.000051   0.000247
    25  H    0.000000   0.000000  -0.000001   0.000000  -0.000001   0.000001
    26  C    0.037563  -0.004878  -0.024428  -0.005873   0.046817   0.031127
    27  O    0.000254   0.001049  -0.047841   0.000768   0.002698  -0.001107
    28  C   -0.001002  -0.013439   0.431552   0.028090  -0.021713   0.000350
    29  O   -0.000004   0.253952  -0.021091   0.001185   0.000747  -0.000109
    30  H    0.000001   0.000000   0.000000   0.000000   0.000000   0.000000
    31  H    0.000005   0.000000   0.000000   0.000000   0.000000   0.000000
    32  H    0.000005   0.000000   0.000000   0.000000   0.000000   0.000000
    33  H    0.003572   0.000000   0.000000   0.000000  -0.000001  -0.000013
    34  H   -0.000020   0.000000   0.000000   0.000000   0.000000   0.000000
    35  H    0.001055   0.000000   0.000000   0.000000   0.000000  -0.000001
    36  H    0.006200   0.000000   0.000000   0.000000  -0.000002   0.000000
    37  H    0.632758   0.000000   0.000000  -0.000008  -0.000008   0.009606
    38  H    0.000000   0.437430  -0.008635  -0.000113   0.000011   0.000001
    39  H    0.000000  -0.008635   0.601457   0.004580   0.001388  -0.000113
    40  H   -0.000008  -0.000113   0.004580   0.576844   0.004753   0.000090
    41  H   -0.000008   0.000011   0.001388   0.004753   0.583621   0.004689
    42  H    0.009606   0.000001  -0.000113   0.000090   0.004689   0.594504
    43  H   -0.000013  -0.000012   0.003991  -0.000143   0.000906   0.006302
    44  H    0.000045   0.000000  -0.000005  -0.000021  -0.000005   0.004370
    45  H    0.000024   0.000000   0.000006  -0.000001  -0.000038  -0.000375
             43         44         45
     1  O    0.000000   0.000000   0.000000
     2  C   -0.000070   0.000205  -0.000445
     3  C   -0.000727  -0.001300   0.005222
     4  O    0.000000  -0.000001  -0.000007
     5  H    0.000000   0.000000   0.000000
     6  C    0.001006   0.004689  -0.030525
     7  O    0.000001   0.000254  -0.003315
     8  H    0.000000   0.000008   0.000000
     9  C    0.000106   0.000061  -0.000099
    10  O    0.000000   0.000000   0.000000
    11  H    0.000000   0.000000   0.000000
    12  C    0.001263   0.000700   0.000910
    13  O   -0.000380  -0.000002   0.000172
    14  C    0.086928   0.032160   0.020843
    15  O   -0.006044  -0.002436  -0.002014
    16  C    0.062361   0.085366   0.039344
    17  C    0.000110   0.006395  -0.019201
    18  O    0.000260   0.000192  -0.000193
    19  H    0.000042   0.000000   0.000000
    20  C   -0.062169  -0.009114   0.002031
    21  O   -0.000033   0.000006  -0.000005
    22  H    0.000000   0.000000   0.000000
    23  C    0.074460   0.565051   0.423919
    24  O   -0.007800  -0.045758  -0.041875
    25  H    0.002822   0.006051  -0.003672
    26  C    0.094674  -0.327414  -0.067326
[...]
 556,0.00000099,-0.00002062,0.00008066,0.00000591,0.00041257,-0.0002283
 9,0.00030214,-0.00073413,0.00060135,-0.00560700,-0.02208220,0.01071572
 ,0.00583735,-0.24711400,0.13414637,-0.06604260,0.00745624,-0.00657255,
 0.00136326,0.00129294,0.00017486,0.00083969,-0.00010888,-0.00002144,-0
 .00000533,0.00031083,0.00050364,-0.00007483,-0.00013748,-0.00007849,-0
 .00003577,-0.00002543,0.00001155,0.00004268,-0.00005070,0.00135809,-0.
 00017362,0.00063889,-0.00023879,0.00025067,0.00013446,0.00023172,0.000
 05946,-0.01376296,0.00853188,-0.00499990,0.00173485,-0.00021807,-0.000
 46594,-0.00020558,-0.00047929,0.00000611,0.00010037,0.00002262,0.00000
 599,0.00000087,0.00000135,-0.00000056,0.00000079,0.00000015,-0.0000064
 6,0.00000314,0.00002341,0.00000626,0.00003297,0.00000796,0.00002928,0.
 00000210,-0.00000534,-0.00000520,0.00002004,-0.00000470,0.00003288,0.0
 0014337,0.00012938,-0.00026041,0.00221141,-0.00050076,0.00112822,-0.00
 001108,0.00001931,0.00002752,-0.00007753,-0.00002610,0.00008693,0.0000
 9788,-0.00008248,0.00002946,-0.00041213,-0.00207447,0.00041794,0.27015
 385,-0.00000907,-0.00001608,0.00001883,0.00001435,0.00003047,-0.000015
 38,0.00005383,0.00006007,-0.00004127,-0.00002911,-0.00003036,-0.000007
 27,0.00001074,0.00000620,-0.00000611,-0.00045764,0.00029594,-0.0000526
 0,-0.00000612,-0.00010955,-0.00004346,-0.00000153,0.00000370,-0.000006
 29,0.00000502,-0.00001778,-0.00001496,-0.00002981,0.00002764,0.0000103
 5,0.00000638,-0.00000916,0.00000568,0.00000904,-0.00003702,-0.00012141
 ,-0.00007699,-0.00000676,0.00016672,0.00020985,0.00104659,0.00201728,0
 .00328376,-0.00059650,-0.00203906,0.13450819,-0.13014975,0.04333988,0.
 02473379,-0.01630425,0.00989106,0.00041800,0.00463153,-0.00048148,0.00
 043770,-0.00040210,-0.00008332,0.00106792,-0.00016324,-0.00104425,-0.0
 0077604,-0.00004283,0.00013982,-0.00007538,-0.00006200,0.00019787,-0.0
 0105198,0.00125179,-0.00040860,0.00035912,0.00005515,0.00022137,0.0001
 4509,0.00003729,0.00005549,-0.01466297,0.00991122,-0.00446433,0.000884
 10,0.00022457,0.00115636,0.00004536,-0.00039388,-0.00012568,0.00000727
 ,0.00006904,0.00005358,0.00000105,0.00000153,-0.00000214,-0.00001327,0
 .00000814,0.00001017,0.00000270,0.00000140,0.00000022,-0.00002792,0.00
 000526,-0.00002829,-0.00000735,-0.00000293,0.00001035,-0.00000449,0.00
 000633,-0.00000400,-0.00004690,-0.00012530,0.00013936,-0.00063245,0.00
 062538,-0.00072174,-0.00000173,0.00000215,0.00000569,-0.00016880,-0.00
 002301,-0.00004477,-0.00058245,0.00023934,0.00057158,-0.00175795,-0.00
 405400,0.00179297,-0.14369770,0.13560357,-0.00001146,-0.00000582,-0.00
 003189,0.00000115,0.00000312,0.00001976,0.00003837,0.00003866,0.000028
 14,-0.00000995,0.00001772,-0.00003124,-0.00000009,0.00000120,-0.000005
 60,0.00004401,-0.00005372,-0.00024683,-0.00006314,0.00007881,-0.000007
 83,-0.00002492,-0.00000481,0.00000278,-0.00002291,0.00004309,-0.000052
 05,-0.00001302,-0.00002786,0.00002232,0.00000086,0.00000455,-0.0000019
 6,-0.00001383,-0.00006521,-0.00005964,-0.00095434,0.00014933,-0.000374
 72,0.00761767,-0.00336865,0.00342351,0.02812879,-0.01347415,-0.0075330
 0,-0.07308722,0.04851219,-0.06619073,-0.01111693,0.00387982,-0.0017227
 1,0.00078153,-0.00171356,0.00081071,0.00009777,0.00006202,-0.00014505,
 -0.00081901,0.00014384,0.00035606,0.00032115,-0.00003224,0.00000822,0.
 00001630,0.00002969,-0.00002924,0.00055007,0.00177784,0.00002411,0.000
 27685,-0.00028667,0.00015108,0.00017491,0.00022797,-0.00000822,-0.0205
 1459,0.01271519,-0.00483680,0.00152168,-0.00045862,0.00167475,-0.00024
 074,0.00021160,0.00009645,0.00007897,-0.00007059,-0.00017511,-0.000000
 40,0.00000428,0.00000174,-0.00000057,0.00000349,0.00000798,-0.00000046
 ,-0.00002136,-0.00000353,-0.00003440,-0.00001981,-0.00007960,-0.000003
 38,0.00000335,0.00000748,-0.00001710,0.00001164,-0.00004165,-0.0002043
 6,0.00001466,0.00003906,-0.00043303,0.00045645,-0.00107436,0.00000440,
 0.00003364,0.00002378,0.00017409,-0.00017264,0.00009605,0.00044454,0.0
 0022221,-0.00036550,0.00080506,0.00177987,-0.00040637,0.06866734,-0.04
 757827,0.07936528,0.00000297,-0.00000680,-0.00001115,-0.00000688,0.000
 00492,0.00000641,-0.00001019,-0.00000267,0.00002358,0.00002316,-0.0000
 0020,-0.00002385,-0.00000493,0.00000260,0.00000005,-0.00000089,-0.0000
 3368,-0.00002040,0.00003589,0.00000509,-0.00001396,-0.00000909,-0.0000
 0580,-0.00000703,-0.00000779,0.00002263,-0.00000156,0.00001628,-0.0000
 2088,0.00000647,-0.00000787,0.00000368,-0.00000188,-0.00001136,0.00002
 275,0.00002937,0.00008308,-0.00010539,-0.00003083,0.00031730,0.0001059
 5,-0.00017464,0.00148053,-0.00058444,0.00100957,-0.02048334,0.01254204
 ,-0.00682727,-0.00054881,0.00171080,-0.00007124,0.00083498,-0.00050393
 ,0.00022738,-0.00008699,0.00012716,-0.00012456,0.00021939,-0.00020856,
 0.00022512,-0.00012571,-0.00043395,0.00000030,0.00001375,-0.00003446,0
 .00001191,0.00660406,-0.00671449,0.00027162,0.00238492,0.00110693,0.00
 103337,-0.00035732,0.00098700,-0.00013347,-0.25187376,0.13159146,-0.04
 317508,-0.02015358,0.00761047,0.01717306,-0.00029905,0.00479050,-0.001
 60960,0.00072290,-0.00083114,0.00013851,-0.00000184,0.00000334,0.00000
 154,0.00000544,-0.00000346,-0.00000539,-0.00000052,-0.00000301,0.00000
 081,0.00001020,-0.00000151,0.00000209,0.00000397,-0.00000282,-0.000006
 34,0.00000541,-0.00000409,0.00000461,0.00001911,0.00001294,-0.00003518
 ,0.00021434,-0.00011394,0.00030043,-0.00008593,0.00013753,0.00006580,0
 .00034615,-0.00174712,0.00057049,0.00025295,0.00011697,-0.00004030,0.0
 0042211,-0.00095126,0.00016684,-0.00095382,-0.00227586,-0.00233920,0.2
 7994444,-0.00000464,0.00000735,-0.00000707,0.00000292,-0.00000852,0.00
 000893,0.00000409,0.00001284,0.00002314,-0.00000938,0.00001595,-0.0000
 0152,0.00000297,-0.00000221,-0.00000200,0.00009652,-0.00018040,-0.0000
 1617,-0.00004441,0.00010492,0.00006159,0.00001929,-0.00000617,0.000008
 30,0.00001346,0.00000569,-0.00000326,-0.00001100,-0.00000412,0.0000041
 9,0.00000500,0.00000035,-0.00000044,0.00002332,0.00001638,0.00004049,0
 .00003091,-0.00002671,0.00003183,-0.00027399,0.00026378,0.00015930,-0.
 00021889,0.00020083,0.00128178,-0.01418598,0.00756942,-0.00554881,-0.0
 0113534,-0.00003923,-0.00042406,0.00010158,-0.00002403,0.00036969,0.00
 003049,0.00003147,0.00000609,-0.00017222,-0.00029896,-0.00021006,0.000
 07506,0.00012928,0.00001821,0.00000015,-0.00001303,-0.00002236,0.02879
 290,-0.02254193,0.00850680,-0.00022610,0.00333738,-0.00074111,-0.00118
 479,-0.00070268,-0.00056396,0.13621642,-0.12806377,0.02553573,0.003706
 64,0.00140516,-0.00381575,-0.00326712,0.00080487,0.00169411,-0.0000762
 4,0.00011505,-0.00015228,0.00000147,-0.00000215,0.00000026,-0.00000270
 ,-0.00000029,0.00000325,-0.00000199,-0.00000122,-0.00000024,-0.0000022
 5,0.00000389,0.00000007,-0.00000142,0.00000358,0.00000256,-0.00000783,
 -0.00000063,-0.00000942,-0.00000147,0.00004648,0.00000833,0.00008011,-
 0.00006366,-0.00013526,0.00006870,-0.00003514,-0.00000319,0.00031441,0
 .00084369,-0.00020535,0.00001748,-0.00005281,0.00004081,-0.00041789,-0
 .00014959,-0.00044383,-0.00113448,-0.00129667,-0.00218061,-0.14482693,
 0.14288837,-0.00000341,-0.00001581,-0.00001544,-0.00000035,0.00001753,
 0.00000269,-0.00002459,-0.00002471,0.00002701,0.00002003,-0.00001086,-
 0.00001768,-0.00000673,0.00000195,0.00000384,0.00010889,0.00004267,0.0
 0006757,0.00003640,-0.00005939,-0.00005062,-0.00000513,-0.00000484,-0.
 00000161,0.00000502,0.00002370,0.00000868,0.00000677,-0.00002546,0.000
 00770,-0.00000350,0.00000359,-0.00000242,-0.00000919,0.00005712,0.0000
 5710,0.00014804,-0.00015406,0.00008584,-0.00030095,0.00054799,-0.00009
 939,0.00021721,-0.00031513,0.00168196,-0.02283112,0.01281541,-0.005228
 27,0.00007287,0.00117132,0.00044161,0.00039366,-0.00038010,0.00015544,
 -0.00006340,0.00009269,-0.00004899,-0.00027890,0.00031509,-0.00037055,
 0.00014535,0.00018735,0.00025860,0.00000053,0.00004056,0.00000374,-0.0
 0921745,0.00664240,-0.00124480,0.00101187,-0.00046898,0.00026519,0.000
 21326,0.00011597,0.00029522,-0.04356575,0.02521934,-0.04497620,0.03998
 693,-0.01471612,-0.01452501,0.00268376,-0.00603617,0.00126511,-0.00043
 977,0.00040837,-0.00039628,-0.00000085,0.00000462,0.00000335,0.0000031
 4,-0.00000405,-0.00000353,0.00000037,0.00000150,0.00000231,0.00001159,
 0.00000212,0.00000469,0.00000351,-0.00000378,-0.00000597,0.00000896,-0
 .00000483,0.00001149,0.00003899,0.00001816,-0.00007380,0.00037085,-0.0
 0015788,-0.00000960,0.00004449,0.00005228,-0.00000275,-0.00100441,0.00
 079793,0.00013593,-0.00005905,-0.00000391,-0.00015525,0.00004676,-0.00
 052918,0.00022488,-0.00162926,-0.00245001,-0.00314828,0.03343188,-0.02
 528892,0.06498201,-0.00001500,-0.00002809,-0.00002571,0.00001331,0.000
 03719,-0.00000141,-0.00002454,-0.00005328,0.00000562,0.00002194,-0.000
 02596,-0.00002848,-0.00000803,0.00000145,0.00000702,-0.00001784,0.0002
 6426,0.00003759,0.00017164,-0.00023042,-0.00010575,-0.00000874,-0.0000
 2515,-0.00001959,0.00000456,0.00002364,-0.00000238,-0.00000253,-0.0000
 2586,0.00000990,-0.00000163,0.00000351,-0.00000054,0.00000616,0.000018
 28,0.00001574,0.00006036,-0.00010782,0.00004936,-0.00027590,0.00030628
 ,-0.00023832,0.00032566,0.00038509,0.00029166,0.00102249,0.00011643,0.
 00030948,0.00048017,-0.00018224,0.00029065,0.00005533,0.00017640,0.000
 01689,-0.00000245,-0.00000182,-0.00002654,-0.00002282,0.00000205,-0.00
 004565,0.00001652,0.00003429,0.00002219,-0.00000352,0.00000814,0.00000
 151,-0.25931676,0.14258818,-0.02995501,-0.02346454,0.00373946,-0.00967
 688,-0.00061626,-0.00273047,-0.00079564,0.00557880,-0.00521818,0.00196
 026,0.00088713,0.00091254,-0.00115846,0.00021823,-0.00050142,-0.000031
 67,0.00000607,0.00012350,-0.00005740,-0.00000049,0.00000693,0.00000693
 ,0.00000043,-0.00000229,-0.00000035,0.00000025,0.00000024,0.00000213,0
 .00000514,0.00000250,0.00000143,0.00000168,-0.00000679,-0.00000424,0.0
 0001517,0.00000201,0.00001863,0.00002859,-0.00006900,-0.00005014,0.000
 12079,-0.00003167,0.00001865,-0.00000989,-0.00001295,0.00000769,-0.000
 16857,-0.00002106,0.00007529,0.00000088,0.00000014,-0.00000514,-0.0001
 7093,-0.00014664,0.00000317,0.00028054,0.00018631,0.00024674,0.0005422
 2,-0.00178053,0.00081567,0.28556668,0.00000378,0.00000982,0.00000398,-
 0.00000526,-0.00001259,0.00000104,0.00001502,0.00000950,-0.00000795,-0
 .00000700,0.00000762,0.00001011,0.00000171,0.00000007,-0.00000167,-0.0
 0001388,-0.00007054,-0.00005267,-0.00006643,-0.00000033,0.00005249,-0.
 00001604,0.00004111,0.00002228,-0.00000555,-0.00001294,0.00000043,-0.0
 0000197,0.00001282,-0.00000778,0.00000223,-0.00000139,0.00000028,0.000
 01119,-0.00001705,-0.00001019,-0.00006907,0.00007302,-0.00006350,0.000
 21842,-0.00029688,0.00009329,-0.00035189,0.00014108,-0.00044349,0.0021
 4027,0.00097025,0.00133371,0.00004303,0.00011234,0.00011714,-0.0002800
 9,-0.00006765,-0.00012582,0.00001207,-0.00002135,0.00005971,0.00007669
 ,0.00005734,-0.00003531,-0.00001517,0.00002572,-0.00000045,0.00000759,
 0.00000277,-0.00000380,0.14823714,-0.13498567,0.02155908,-0.02343345,0
 .00985325,-0.00671022,-0.00414140,-0.00160937,-0.00232856,0.02711391,-
 0.02451594,0.00362245,-0.00072580,0.00289691,-0.00084074,0.00015987,-0
 .00013179,-0.00004680,-0.00017753,0.00005920,0.00008478,-0.00000053,-0
 .00000191,-0.00000214,-0.00000037,0.00000209,0.00000101,-0.00000011,-0
 .00000137,-0.00000243,-0.00000628,-0.00000228,-0.00000241,-0.00000110,
 0.00000178,0.00000201,-0.00000561,0.00000275,-0.00000732,-0.00001595,0
 .00000609,0.00002127,-0.00010463,-0.00000859,-0.00009999,0.00001117,-0
 .00003318,-0.00004237,-0.00014331,0.00033035,-0.00009439,-0.00007021,-
 0.00003454,0.00001853,-0.00015410,0.00024898,-0.00010462,-0.00095446,-
 0.00027375,-0.00066427,-0.00240280,-0.00538485,0.00211091,-0.14730776,
 0.15366876,0.00002135,0.00003037,0.00002158,-0.00002258,-0.00004017,0.
 00000732,0.00001576,0.00006191,0.00000770,-0.00000775,0.00003339,0.000
 02229,0.00000531,-0.00000062,-0.00000752,0.00001921,-0.00029632,-0.000
 04492,-0.00015008,0.00020550,0.00017475,-0.00000066,0.00003727,0.00004
 958,-0.00001473,-0.00001890,-0.00000560,0.00000871,0.00002392,-0.00001
 128,-0.00000130,-0.00000177,0.00000085,0.00000372,-0.00003392,-0.00001
 390,-0.00006359,0.00008451,-0.00013426,0.00029137,-0.00034064,0.000381
 40,-0.00060107,-0.00024416,-0.00096448,0.00061247,-0.00110099,0.000348
 80,0.00006128,-0.00008998,0.00011605,0.00006517,0.00004681,-0.00008800
 ,0.00000057,-0.00000531,0.00001443,0.00000559,0.00000784,0.00008715,-0
 .00004576,-0.00010877,-0.00003268,0.00000014,-0.00000149,0.00000753,-0
 .02522446,0.01858178,-0.04692362,-0.02426018,0.00852787,-0.00546284,-0
 .00314041,-0.00232718,-0.00208019,-0.01148091,0.01259542,-0.00125091,-
 0.00097389,-0.00198224,0.00143335,0.00001207,0.00055911,-0.00021853,0.
 00004018,-0.00012197,0.00010833,-0.00000172,-0.00000637,-0.00000743,0.
 00000253,0.00000231,-0.00000055,-0.00000081,-0.00000459,-0.00000300,-0
 .00000472,-0.00000339,-0.00000211,-0.00000002,0.00000541,0.00000262,-0
 .00001471,-0.00000183,-0.00002209,-0.00002857,0.00007270,0.00006355,-0
 .00012774,-0.00003327,-0.00004656,-0.00002261,0.00002196,-0.00001301,0
 .00015002,-0.00019992,-0.00002830,0.00002846,0.00001126,0.00000725,-0.
 00001458,-0.00009579,0.00001404,0.00006829,-0.00013442,0.00028632,0.00
 047568,0.00234912,0.00015445,0.03977580,-0.01883178,0.04821380,0.00005
 219,0.00004423,0.00011154,-0.00002123,-0.00006670,-0.00003863,-0.00003
 396,0.00009644,-0.00007407,-0.00003503,0.00001470,0.00014249,0.0000070
 3,0.00001057,-0.00000876,0.00014808,-0.00046187,-0.00024734,-0.0002442
 1,-0.00005452,0.00057283,0.00010611,0.00014485,0.00027368,0.00000056,-
 0.00009077,0.00004374,0.00002709,0.00007780,-0.00003092,-0.00000446,-0
 .00001070,0.00000258,-0.00010006,-0.00000147,-0.00011241,0.00012658,0.
 00035958,0.00025842,-0.00026897,-0.00065474,-0.00101802,0.00126008,0.0
 0093789,-0.00006520,-0.00129185,-0.00104699,0.00172815,-0.00003022,0.0
 0020020,-0.00007311,-0.00004524,-0.00010502,-0.00020861,-0.00008399,-0
 .00009391,0.00010329,0.00004439,0.00009421,0.00017237,-0.00003745,-0.0
 0009349,-0.00009222,0.00000164,0.00000176,0.00000597,-0.11073319,0.020
 71150,0.12898779,0.00463386,-0.01474980,-0.03132962,0.00160188,0.00024
 532,-0.00113390,-0.00254586,0.00406004,0.00452845,0.00063275,-0.002482
 31,0.00043401,0.00046273,0.00088241,-0.00003908,-0.00017660,-0.0001911
 9,0.00032434,0.00000034,-0.00001341,-0.00001834,-0.00000075,0.00000563
 ,-0.00000380,0.00000283,0.00002047,0.00000386,0.00001403,-0.00001185,0
 .00001776,0.00000043,0.00001232,0.00000752,-0.00001642,-0.00000121,-0.
 00001582,-0.00001809,0.00010545,0.00009347,-0.00007939,-0.00000500,0.0
 0004640,-0.00003038,0.00000076,-0.00005420,-0.00002324,-0.00019041,0.0
 0002692,0.00001600,0.00000218,-0.00000876,0.00000392,0.00002167,-0.000
 00356,-0.00001808,0.00000396,-0.00006721,0.00052412,-0.00061631,-0.000
 38299,-0.01130031,0.00242366,0.02453917,0.11747233,-0.00001512,-0.0000
 4168,0.00002933,0.00002723,0.00005186,-0.00007060,-0.00003662,-0.00019
 242,-0.00011424,-0.00002457,-0.00007387,0.00006968,-0.00001005,-0.0000
 0102,0.00001203,0.00003161,0.00075647,-0.00004126,-0.00017049,-0.00060
 640,-0.00029033,0.00007155,-0.00001873,0.00006128,0.00001219,-0.000032
 77,0.00004125,0.00001160,0.00001752,-0.00000325,-0.00000462,-0.0000061
 9,0.00000316,-0.00009694,0.00003837,-0.00015117,0.00014385,0.00012327,
 0.00039934,-0.00067094,-0.00025785,-0.00176519,-0.00045948,-0.00311822
 ,-0.00161822,-0.00145914,0.00028604,0.00092780,0.00014621,0.00003879,0
 .00032982,0.00012621,0.00012980,-0.00018471,-0.00009340,-0.00010984,0.
 00000514,0.00016526,0.00004190,0.00035851,-0.00010323,-0.00016881,-0.0
 0018171,-0.00000287,-0.00002299,0.00000781,0.02047589,-0.04732696,-0.0
 2777965,-0.00329173,-0.00918210,-0.02676721,0.00053982,0.00018294,0.00
 041519,-0.01362953,0.00517493,0.02689957,-0.00196356,-0.00860217,0.002
 48233,-0.00063037,0.00203218,0.00033113,-0.00038865,-0.00068054,0.0010
 3902,0.00000171,0.00000396,0.00000164,-0.00000383,0.00000323,-0.000003
 57,0.00000639,0.00002303,0.00000899,0.00001656,-0.00000731,0.00002061,
 -0.00000048,-0.00000755,-0.00000098,0.00002252,0.00000371,0.00004297,0
 .00005935,-0.00010168,-0.00014150,0.00014706,-0.00005781,0.00007307,-0
 .00008779,-0.00003982,-0.00007259,0.00010174,-0.00016473,0.00001990,0.
 00000601,-0.00001840,-0.00001321,-0.00003493,-0.00001417,0.00000306,0.
 00011650,-0.00002737,-0.00022735,0.00091443,0.00109206,-0.00003635,0.0
 0957057,-0.00104969,-0.01723265,-0.00953594,0.06193104,0.00002334,0.00
 004236,0.00000226,-0.00004166,-0.00007454,0.00003983,0.00002394,0.0000
 8612,0.00001104,0.00000961,0.00003237,0.00000848,0.00000338,-0.0000007
 0,0.,-0.00004286,-0.00061240,-0.00036617,-0.00012203,0.00027684,-0.000
 76155,0.00014850,0.00014150,-0.00010219,-0.00000914,0.00001266,-0.0000
 2160,-0.00000293,0.00000013,-0.00000321,0.00000249,0.00000323,-0.00000
 159,0.00000473,-0.00003137,0.00003835,-0.00009989,-0.00005476,-0.00038
 157,-0.00025389,-0.00063155,0.00079375,-0.00253151,-0.00546812,-0.0019
 3490,0.00068540,0.00024393,-0.00080163,0.00013302,0.00004455,-0.000168
 10,-0.00006586,-0.00003915,0.00010673,0.00004907,0.00006223,0.00002338
 ,-0.00004814,0.00002756,-0.00009493,0.00002503,0.00003439,0.00006857,0
 .00000096,0.00000887,-0.00000556,0.12777560,-0.02620863,-0.28919423,-0
 .00576795,-0.01438449,-0.02040008,0.00044438,-0.00017044,-0.00078053,0
 .00935821,0.00030334,-0.01228910,-0.00027170,0.00262670,0.00050637,0.0
 0022137,-0.00080892,-0.00007487,0.00008911,0.00018221,-0.00016878,-0.0
 0000060,-0.00000290,-0.00000438,0.00000436,-0.00000232,0.00000008,-0.0
 0000392,-0.00001458,-0.00000673,-0.00001066,0.00000442,-0.00001613,0.0
 0000241,0.00000646,0.00000034,-0.00000875,-0.00000586,-0.00000651,-0.0
 0001698,0.00002000,-0.00008850,0.00001958,0.00006440,-0.00007406,0.000
 01948,-0.00002087,0.00002333,-0.00004368,0.00003954,-0.00000494,0.0000
 0128,-0.00000052,-0.00000845,-0.00000593,0.00000349,0.00000868,-0.0000
 1427,0.00011450,0.00012636,-0.00052397,-0.00037892,0.00023001,-0.00176
 069,0.00141615,0.00583862,-0.12739821,0.04311311,0.31993414\\0.0028374
 9,-0.00543364,-0.00794451,-0.00100175,-0.01052570,-0.00800757,-0.00776
 511,0.01030898,0.00843791,0.00458624,-0.00169081,0.02832895,-0.0055643
 9,-0.00665720,-0.03161503,-0.01638326,-0.00197540,-0.01881354,-0.00612
 418,-0.00731471,0.03157908,0.00887882,0.00805614,-0.02704155,0.0045118
 0,0.02805026,-0.00800280,0.00866719,0.01056545,-0.00260759,-0.00872139
 ,-0.03264536,-0.01007339,0.01152901,0.02091993,-0.00825686,-0.01872665
 ,-0.00307124,0.01946356,0.02096449,0.01704427,-0.01586418,0.00351635,-
 0.01057426,0.03314950,-0.02103772,0.01799651,-0.03017412,0.06176766,-0
 .00253149,0.02460257,-0.03712025,0.01080678,0.03010384,0.03187010,0.00
 571411,-0.00677268,-0.05420769,0.01973093,-0.02242298,0.04943974,0.000
 06052,0.01385754,-0.03414428,0.00314675,-0.00530939,-0.01495593,-0.004
 79458,-0.01259159,-0.01555915,0.01048288,-0.01854076,0.03239153,-0.005
 06590,0.01368090,-0.01861970,-0.03375871,-0.00745375,-0.00498575,0.006
 54432,0.01594536,0.04616519,-0.03607912,-0.03417052,-0.00714635,0.0028
 1866,0.02267436,-0.00118807,0.00213681,0.00193704,-0.01981567,0.004539
 36,0.00580894,0.00835299,-0.00592555,0.01480614,0.01988450,-0.00884381
 ,-0.00349110,-0.01772283,0.00711221,0.00240874,0.01710879,-0.01021155,
 -0.00006997,-0.01955241,0.00849540,0.00328451,0.01874166,-0.01068500,-
 0.00273143,-0.00322219,-0.00184979,-0.00102389,-0.01646631,0.00900647,
 -0.00076371,0.01135760,-0.00827964,-0.00033113,-0.01481277,0.00930146,
 -0.00340519,0.01325275,-0.00667192,0.00490490,-0.01925795,0.01381335,-
 0.00111593,0.01143429,-0.01616978,-0.00143805,-0.00315640,0.00410361,0
 .01505936\\\@


 A MAN THINKING OR WORKING IS ALWAYS ALONE, 
 LET HIM BE WHERE HE WILL.

                                    -- THOREAU
 Job cpu time:  1 days  7 hours 32 minutes  4.8 seconds.
 File lengths (MBytes):  RWF=   1769 Int=      0 D2E=      0 Chk=     28 Scr=      1
 Normal termination of Gaussian 09 at Mon Mar 28 12:51:33 2016.
Gaussian '09 finished on node024 at Mon Mar 28 12:51:33 EDT 2016.
