Gaussian '09 started on node007 at Wed Jan 20 15:58:13 EST 2016.
 Entering Gaussian System, Link 0=/usr/local/gaussian/g09/g09
 Initial command:
 /usr/local/gaussian/g09/l1.exe /home/srmcgrat/thesis/gaussian/cellobiose/320/10000/gaussian28555/Gau-28591.inp -scrdir=/home/srmcgrat/thesis/gaussian/cellobiose/320/10000/gaussian28555/
 Entering Link 1 = /usr/local/gaussian/g09/l1.exe PID=     28593.
  
 Copyright (c) 1988,1990,1992,1993,1995,1998,2003,2009,2010,
            Gaussian, Inc.  All Rights Reserved.
  
 This is part of the Gaussian(R) 09 program.  It is based on
 the Gaussian(R) 03 system (copyright 2003, Gaussian, Inc.),
 the Gaussian(R) 98 system (copyright 1998, Gaussian, Inc.),
 the Gaussian(R) 94 system (copyright 1995, Gaussian, Inc.),
 the Gaussian 92(TM) system (copyright 1992, Gaussian, Inc.),
 the Gaussian 90(TM) system (copyright 1990, Gaussian, Inc.),
 the Gaussian 88(TM) system (copyright 1988, Gaussian, Inc.),
 the Gaussian 86(TM) system (copyright 1986, Carnegie Mellon
 University), and the Gaussian 82(TM) system (copyright 1983,
 Carnegie Mellon University). Gaussian is a federally registered
 trademark of Gaussian, Inc.
  
 This software contains proprietary and confidential information,
 including trade secrets, belonging to Gaussian, Inc.
  
 This software is provided under written license and may be
 used, copied, transmitted, or stored only in accord with that
 written license.
  
 The following legend is applicable only to US Government
 contracts under FAR:
  
                    RESTRICTED RIGHTS LEGEND
  
 Use, reproduction and disclosure by the US Government is
 subject to restrictions as set forth in subparagraphs (a)
 and (c) of the Commercial Computer Software - Restricted
 Rights clause in FAR 52.227-19.
  
 Gaussian, Inc.
 340 Quinnipiac St., Bldg. 40, Wallingford CT 06492
  
  
 ---------------------------------------------------------------
 Warning -- This program may not be used in any manner that
 competes with the business of Gaussian, Inc. or will provide
 assistance to any competitor of Gaussian, Inc.  The licensee
 of this program is prohibited from giving any competitor of
 Gaussian, Inc. access to this program.  By using this program,
 the user acknowledges that Gaussian, Inc. is engaged in the
 business of creating and licensing software in the field of
 computational chemistry and represents and warrants to the
 licensee that it is not a competitor of Gaussian, Inc. and that
 it will not use this program in any manner prohibited above.
 ---------------------------------------------------------------
  

 Cite this work as:
 Gaussian 09, Revision B.01,
 M. J. Frisch, G. W. Trucks, H. B. Schlegel, G. E. Scuseria, 
 M. A. Robb, J. R. Cheeseman, G. Scalmani, V. Barone, B. Mennucci, 
 G. A. Petersson, H. Nakatsuji, M. Caricato, X. Li, H. P. Hratchian, 
 A. F. Izmaylov, J. Bloino, G. Zheng, J. L. Sonnenberg, M. Hada, 
 M. Ehara, K. Toyota, R. Fukuda, J. Hasegawa, M. Ishida, T. Nakajima, 
 Y. Honda, O. Kitao, H. Nakai, T. Vreven, J. A. Montgomery, Jr., 
 J. E. Peralta, F. Ogliaro, M. Bearpark, J. J. Heyd, E. Brothers, 
 K. N. Kudin, V. N. Staroverov, T. Keith, R. Kobayashi, J. Normand, 
 K. Raghavachari, A. Rendell, J. C. Burant, S. S. Iyengar, J. Tomasi, 
 M. Cossi, N. Rega, J. M. Millam, M. Klene, J. E. Knox, J. B. Cross, 
 V. Bakken, C. Adamo, J. Jaramillo, R. Gomperts, R. E. Stratmann, 
 O. Yazyev, A. J. Austin, R. Cammi, C. Pomelli, J. W. Ochterski, 
 R. L. Martin, K. Morokuma, V. G. Zakrzewski, G. A. Voth, 
 P. Salvador, J. J. Dannenberg, S. Dapprich, A. D. Daniels, 
 O. Farkas, J. B. Foresman, J. V. Ortiz, J. Cioslowski, 
 and D. J. Fox, Gaussian, Inc., Wallingford CT, 2010.
 
 ******************************************
 Gaussian 09:  EM64L-G09RevB.01 12-Aug-2010
                20-Jan-2016 
 ******************************************
 ------------------------------------------------
 # freq=raman b3lyp/6-31+g(d,p) geom=connectivity
 ------------------------------------------------
 1/10=4,30=1,38=1,57=2/1,3;
 2/12=2,17=6,18=5,40=1/2;
 3/5=1,6=6,7=111,11=2,16=1,25=1,30=1,71=2,74=-5/1,2,3;
 4//1;
 5/5=2,38=5,98=1/2;
 8/6=4,10=90,11=11/1;
 10/13=10,15=4/2;
 11/6=3,8=1,9=11,15=111,16=1/1,2,10;
 10/6=1/2;
 6/7=2,8=2,9=2,10=2,18=1,28=1/1;
 7/8=1,10=1,25=1/1,2,3,16;
 1/10=4,30=1/3;
 99//99;
 -------------
 320 10000.com
 -------------
 Symbolic Z-matrix:
 Charge =  0 Multiplicity = 1
 O                     8.008     7.574     12.205 
 C                     8.512     7.993     13.482 
 C                     7.822     9.22      14.056 
 O                     7.746     10.331    13.151 
 H                     7.365     9.833     12.372 
 C                     8.391     9.634     15.403 
 O                     7.735     10.8      15.921 
 H                     8.147     10.94     16.821 
 C                     8.621     5.55      14.325 
 O                     8.153     4.816     13.184 
 H                     8.202     3.82      13.255 
 C                     8.044     6.948     14.481 
 O                     8.615     7.272     15.757 
 C                     8.222     8.496     16.396 
 O                     9.072     8.747     17.525 
 C                     8.454     8.403     18.773 
 C                     8.897     7.051     19.308 
 O                     8.72      6.006     18.34 
 H                     8.992     6.429     17.476 
 C                     8.197     6.694     20.609 
 O                     8.773     5.444     21.017 
 H                     8.288     5.124     21.831 
 C                     8.448     10.848    19.734 
 O                     8.404     11.474    18.443 
 H                     8.257     12.454    18.579 
 C                     8.851     9.388     19.86 
 O                     8.279     9.113     21.147 
 C                     8.572     7.783     21.6 
 O                     7.712     7.59      22.732 
 H                     8.24463   7.45577   23.51933 
 H                     8.74311   7.38151   11.61834 
 H                     8.38282   4.9893    15.20465 
 H                     9.68558   5.63281   14.25633 
 H                     6.97595   6.91869   14.53847 
 H                     9.57727   8.09345   13.48366 
 H                     6.81049   8.9252    14.24263 
 H                     9.43402   9.84406   15.28947 
 H                     7.20159   8.4336    16.71187 
 H                     9.12528   11.41569   20.33725 
 H                     7.47358   10.94493   20.16528 
 H                     9.91587   9.34944   19.95729 
 H                     7.39027   8.40937   18.65755 
 H                     9.94421   7.11864   19.51701 
 H                     7.13728   6.62041   20.48067 
 H                     9.59903   7.69756   21.88778 
 

 GradGradGradGradGradGradGradGradGradGradGradGradGradGradGradGradGradGrad
 Berny optimization.
 Initialization pass.
 Trust Radius=3.00D-01 FncErr=1.00D-07 GrdErr=1.00D-07
 Number of steps in this run=      2 maximum allowed number of steps=      2.
 GradGradGradGradGradGradGradGradGradGradGradGradGradGradGradGradGradGrad

                          Input orientation:                          
 ---------------------------------------------------------------------
 Center     Atomic      Atomic             Coordinates (Angstroms)
 Number     Number       Type             X           Y           Z
 ---------------------------------------------------------------------
      1          8           0        8.008000    7.574000   12.205000
      2          6           0        8.512000    7.993000   13.482000
      3          6           0        7.822000    9.220000   14.056000
      4          8           0        7.746000   10.331000   13.151000
      5          1           0        7.365000    9.833000   12.372000
      6          6           0        8.391000    9.634000   15.403000
      7          8           0        7.735000   10.800000   15.921000
      8          1           0        8.147000   10.940000   16.821000
      9          6           0        8.621000    5.550000   14.325000
     10          8           0        8.153000    4.816000   13.184000
     11          1           0        8.202000    3.820000   13.255000
     12          6           0        8.044000    6.948000   14.481000
     13          8           0        8.615000    7.272000   15.757000
     14          6           0        8.222000    8.496000   16.396000
     15          8           0        9.072000    8.747000   17.525000
     16          6           0        8.454000    8.403000   18.773000
     17          6           0        8.897000    7.051000   19.308000
     18          8           0        8.720000    6.006000   18.340000
     19          1           0        8.992000    6.429000   17.476000
     20          6           0        8.197000    6.694000   20.609000
     21          8           0        8.773000    5.444000   21.017000
     22          1           0        8.288000    5.124000   21.831000
     23          6           0        8.448000   10.848000   19.734000
     24          8           0        8.404000   11.474000   18.443000
     25          1           0        8.257000   12.454000   18.579000
     26          6           0        8.851000    9.388000   19.860000
     27          8           0        8.279000    9.113000   21.147000
     28          6           0        8.572000    7.783000   21.600000
     29          8           0        7.712000    7.590000   22.732000
     30          1           0        8.244635    7.455765   23.519325
     31          1           0        8.743106    7.381510   11.618343
     32          1           0        8.382822    4.989295   15.204649
     33          1           0        9.685579    5.632806   14.256334
     34          1           0        6.975947    6.918686   14.538470
     35          1           0        9.577273    8.093451   13.483658
     36          1           0        6.810485    8.925200   14.242631
     37          1           0        9.434018    9.844058   15.289471
     38          1           0        7.201593    8.433603   16.711874
     39          1           0        9.125284   11.415690   20.337254
     40          1           0        7.473576   10.944931   20.165279
     41          1           0        9.915870    9.349442   19.957294
     42          1           0        7.390266    8.409373   18.657550
     43          1           0        9.944205    7.118640   19.517012
     44          1           0        7.137275    6.620408   20.480671
     45          1           0        9.599028    7.697564   21.887776
 ---------------------------------------------------------------------
                    Distance matrix (angstroms):
                    1          2          3          4          5
     1  O    0.000000
     2  C    1.435377   0.000000
     3  C    2.483971   1.520232   0.000000
     4  O    2.926535   2.482451   1.434964   0.000000
     5  H    2.354659   2.435838   1.849452   1.000003   0.000000
     6  C    3.823283   2.529380   1.519726   2.444041   3.206125
     7  O    4.928515   3.798908   2.445852   2.809445   3.696943
     8  H    5.714607   4.468440   3.272499   3.741735   4.650868
     9  C    2.994452   2.586654   3.765589   5.000186   4.871944
    10  O    2.930193   3.211077   4.501684   5.530096   5.143012
    11  H    3.902903   4.190651   5.472294   6.527777   6.134853
    12  C    2.360794   1.519556   2.322045   3.647245   3.637602
    13  O    3.616125   2.388739   2.704987   4.111433   4.424867
    14  C    4.296552   2.971280   2.481890   3.758168   4.326037
    15  O    5.550714   4.150658   3.717552   4.837273   5.535942
    16  C    6.635117   5.307179   4.828768   5.985427   6.648580
    17  C    7.177497   5.914209   5.783052   7.070491   7.628541
    18  O    6.372111   5.252770   5.430364   6.824956   7.217962
    19  H    5.482948   4.316078   4.566725   5.956823   6.347059
    20  C    8.452061   7.251259   7.033001   8.309810   8.854022
    21  O    9.097993   7.958753   7.976095   9.317266   9.797031
    22  H    9.936839   8.831033   8.800284  10.136519  10.606568
    23  C    8.221832   6.873327   5.939861   6.640481   7.510137
    24  O    7.367460   6.061398   4.966388   5.453868   6.374123
    25  H    8.031455   6.778271   5.577231   5.850764   6.796481
    26  C    7.912033   6.537571   5.896904   6.864470   7.646984
    27  O    9.077518   7.749898   7.106517   8.105778   8.851803
    28  C    9.414234   8.120937   7.716178   8.863418   9.529708
    29  O   10.531173   9.293272   8.828475   9.965430  10.605709
    30  H   11.317417  10.055248   9.635646  10.771155  11.431879
    31  H    0.960000   1.974980   3.189146   3.470266   2.911525
    32  H    3.977321   3.465032   4.419590   5.758196   5.702748
    33  H    3.284886   2.747253   4.047348   5.201611   5.155330
    34  H    2.634322   2.151683   2.498926   3.763235   3.652147
    35  H    2.089836   1.070000   2.162792   2.910472   3.025883
    36  H    2.722448   2.083917   1.070000   2.010751   2.151940
    37  H    4.086644   2.746541   2.123559   2.767594   3.576674
    38  H    4.658446   3.513315   2.838484   4.071402   4.562841
    39  H    9.063137   7.686704   6.780394   7.397379   8.309559
    40  H    8.661110   7.379596   6.357678   7.046363   7.872952
    41  H    8.178644   6.763151   6.263092   7.210924   8.017322
    42  H    6.535659   5.312059   4.692310   5.843055   6.444803
    43  H    7.577715   6.263951   6.224317   7.461734   8.066675
    44  H    8.375813   7.263283   6.964419   8.237907   8.724858
    45  H    9.813398   8.480919   8.173882   9.311281  10.005047
                    6          7          8          9         10
     6  C    0.000000
     7  O    1.434648   0.000000
     8  H    1.943166   0.999672   0.000000
     9  C    4.230135   5.558301   5.958758   0.000000
    10  O    5.309777   6.593493   7.122582   1.435152   0.000000
    11  H    6.200985   7.486391   7.963277   2.076863   0.999729
    12  C    2.860959   4.123953   4.628420   1.520417   2.497902
    13  O    2.398861   3.639791   3.847771   2.239630   3.586880
    14  C    1.519755   2.402334   2.481811   3.623142   4.885090
    15  O    2.398628   2.928343   2.482033   4.545790   5.928035
    16  C    3.588346   3.794269   3.215730   5.286984   6.647864
    17  C    4.709241   5.184305   4.676750   5.211474   6.561413
    18  O    4.679380   5.459324   5.194232   4.042024   5.321835
    19  H    3.864008   4.806632   4.635965   3.292276   4.661218
    20  C    5.981946   6.249002   5.690339   6.401341   7.658945
    21  O    7.015627   7.465480   6.942932   6.694565   7.882555
    22  H    7.853018   8.212849   7.677619   7.525450   8.653537
    23  C    4.498289   3.879387   2.929955   7.573375   8.909240
    24  O    3.553501   2.694869   1.726873   7.217949   8.488171
    25  H    4.249392   3.173825   2.322684   8.117526   9.351785
    26  C    4.487423   4.330695   3.484227   6.739389   8.121537
    27  O    5.768667   5.518422   4.697832   7.704000   9.049279
    28  C    6.470067   6.484898   5.743354   7.610146   8.933516
    29  O    7.638928   7.529565   6.808204   8.698594   9.952581
    30  H    8.404812   8.317342   7.550959   9.397298  10.667507
    31  H    4.418293   5.587057   6.331337   3.270372   3.062899
    32  H    4.648945   5.890426   6.170826   1.070000   2.041046
    33  H    4.358937   5.768515   6.091884   1.070000   2.041046
    34  H    3.181622   4.189528   4.769934   2.150598   2.764296
    35  H    2.732107   4.081668   4.613716   2.844549   3.586089
    36  H    2.084917   2.680769   3.534639   3.831022   4.450682
    37  H    1.070000   2.049223   2.281027   4.475505   5.599588
    38  H    2.137474   2.551439   2.680994   4.003379   5.141801
    39  H    5.297211   4.670681   3.680674   8.414738   9.781118
    40  H    5.023894   4.254791   3.411411   8.033102   9.314702
    41  H    4.811216   4.811650   3.936383   6.916298   8.338904
    42  H    3.618463   3.650020   3.217085   5.334952   6.591953
    43  H    5.066022   5.600384   5.010112   5.582875   6.972633
    44  H    6.036249   6.214247   5.750792   6.421799   7.584787
    45  H    6.874695   6.978691   6.188214   7.922383   9.281709
                   11         12         13         14         15
    11  H    0.000000
    12  C    3.363395   0.000000
    13  O    4.283325   1.434989   0.000000
    14  C    5.633050   2.468849   1.435600   0.000000
    15  O    6.577623   3.682271   2.347402   1.435319   0.000000
    16  C    7.177445   4.550427   3.225111   2.390105   1.434491
    17  C    6.896462   4.902871   3.569029   3.320150   2.467008
    18  O    5.559150   4.029419   2.878484   3.198006   2.881182
    19  H    5.024721   3.184037   1.951343   2.455970   2.319898
    20  C    7.895645   6.135170   4.904153   4.582270   3.806769
    21  O    7.950601   6.746314   5.570830   5.565244   4.815940
    22  H    8.674998   7.576873   6.450915   6.396403   5.681762
    23  C    9.561942   6.554939   5.350906   4.089648   3.111793
    24  O    9.248776   6.025921   4.991585   3.618262   2.953892
    25  H   10.143666   6.866950   5.911427   4.520230   3.939161
    26  C    8.663132   5.961417   4.622528   3.631887   2.431450
    27  O    9.502918   7.012703   5.705636   4.791236   3.725814
    28  C    9.245609   7.187223   5.865460   5.264265   4.217217
    29  O   10.211098   8.282596   7.040395   6.420735   5.504643
    30  H   10.889306   9.054800   7.773328   7.198914   6.187387
    31  H    3.956741   2.978504   4.142087   4.933523   6.071353
    32  H    2.280587   2.115418   2.360029   3.707042   4.469826
    33  H    2.547536   2.115418   2.466798   3.862397   4.556189
    34  H    3.571044   1.070000   2.072714   2.736967   4.081119
    35  H    4.495114   2.158165   2.601699   3.237367   4.124909
    36  H    5.382825   2.342584   2.877961   2.610284   3.990006
    37  H    6.476590   3.312541   2.739500   2.123830   2.516383
    38  H    5.851164   2.809531   2.063692   1.070000   2.063447
    39  H   10.426182   7.444806   6.197522   4.987383   3.877308
    40  H    9.952246   6.972221   5.850316   4.556848   3.789055
    41  H    8.856231   6.265829   4.863178   4.034894   2.644070
    42  H    7.135040   4.472868   3.347653   2.411202   2.055454
    43  H    7.288971   5.385287   3.990989   3.821495   2.716691
    44  H    7.822164   6.076637   4.992125   4.623744   4.123293
    45  H    9.566191   7.605280   6.223811   5.717806   4.518062
                   16         17         18         19         20
    16  C    0.000000
    17  C    1.519993   0.000000
    18  O    2.450276   1.435402   0.000000
    19  H    2.422463   1.937042   0.999704   0.000000
    20  C    2.521433   1.519885   2.428010   3.243137   0.000000
    21  O    3.727329   2.349150   2.735870   3.681965   1.435528
    22  H    4.486732   3.232606   3.626517   4.600507   1.991599
    23  C    2.627086   3.847114   5.046007   4.992200   4.252569
    24  O    3.089084   4.533674   5.478092   5.170383   5.251933
    25  H    4.060424   5.489394   6.469018   6.169073   6.107545
    26  C    1.519672   2.401747   3.710187   3.802502   2.871646
    27  O    2.484069   2.831199   4.210366   4.603093   2.479461
    28  C    2.896593   2.427903   3.715809   4.360859   1.519417
    29  O    4.109162   3.663130   4.776482   5.532798   2.354818
    30  H    4.844450   4.280733   5.399371   6.175321   3.008745
    31  H    7.232990   7.698295   6.860994   5.939812   9.033428
    32  H    4.938783   4.620876   3.313277   2.757333   5.669882
    33  H    5.439764   5.305889   4.212831   3.388396   6.610474
    34  H    4.724307   5.143576   4.280929   3.596296   6.196192
    35  H    5.416152   5.955874   5.355038   4.364830   7.391489
    36  H    4.847481   5.790003   5.381116   4.630842   6.887041
    37  H    3.895132   4.923224   4.954416   4.079082   6.304797
    38  H    2.411991   3.394977   3.293875   2.794258   4.382311
    39  H    3.460320   4.490211   5.780832   5.750792   4.819742
    40  H    3.059589   4.233647   5.410939   5.470966   4.334818
    41  H    2.106031   2.596635   3.901839   3.941997   3.229645
    42  H    1.070000   2.130378   2.765001   2.807755   2.720566
    43  H    2.103294   1.070000   2.030272   2.355425   2.103683
    44  H    2.797774   2.158054   2.732213   3.536197   1.070000
    45  H    3.392721   2.750660   4.027505   4.630497   2.146646
                   21         22         23         24         25
    21  O    0.000000
    22  H    1.000110   0.000000
    23  C    5.563715   6.098130   0.000000
    24  O    6.566775   7.198229   1.435442   0.000000
    25  H    7.439772   8.019063   1.987396   1.000252   0.000000
    26  C    4.110945   4.731121   1.519831   2.561073   3.375523
    27  O    3.704389   4.047228   2.243960   3.591874   4.213952
    28  C    2.418928   2.684082   3.590481   4.859872   5.571706
    29  O    2.944870   2.687886   4.488236   5.827507   6.418951
    30  H    3.253921   2.879141   5.086974   6.476163   7.027754
    31  H    9.596332  10.469090   8.829922   7.964886   8.626540
    32  H    5.843152   6.628399   7.405653   7.248363   8.192917
    33  H    6.824592   7.719305   7.663855   7.300011   8.200913
    34  H    6.882983   7.623869   6.678322   6.167299   6.971849
    35  H    8.026063   8.953099   6.923119   6.115534   6.835204
    36  H    7.865259   8.614843   6.044315   5.165149   5.774853
    37  H    7.252727   8.147632   4.661970   3.696267   4.360982
    38  H    5.471851   6.191866   4.063999   3.699540   4.556714
    39  H    6.020568   6.520559   1.070000   2.027769   2.218887
    40  H    5.716133   6.109105   1.070000   2.027769   2.325365
    41  H    4.204950   4.900520   2.109544   3.015391   3.780188
    42  H    4.033906   4.655146   2.867830   3.235062   4.137198
    43  H    2.534976   3.475075   4.024157   4.742878   5.673852
    44  H    2.084989   2.320946   4.488658   5.414245   6.237061
    45  H    2.553258   2.888815   3.986083   5.249385   5.947497
                   26         27         28         29         30
    26  C    0.000000
    27  O    1.434984   0.000000
    28  C    2.383583   1.435255   0.000000
    29  O    3.574704   2.270076   1.434668   0.000000
    30  H    4.182329   2.894052   1.974351   0.960000   0.000000
    31  H    8.483074   9.695811   9.991193  11.163334  11.911648
    32  H    6.421845   7.233758   6.981482   7.992164   8.673893
    33  H    6.796990   7.846750   7.732582   8.919783   9.550000
    34  H    6.158897   7.084182   7.291065   8.253870   9.085912
    35  H    6.546836   7.839120   8.184251   9.447991  10.143825
    36  H    5.994390   7.061311   7.651041   8.640884   9.501215
    37  H    4.630079   6.014911   6.694312   7.964757   8.651536
    38  H    3.679961   4.614405   5.118113   6.100336   6.955969
    39  H    2.101078   2.583460   3.885497   4.729491   5.155786
    40  H    2.101078   2.229004   3.641809   4.230895   4.900861
    41  H    1.070000   2.037314   2.637842   3.956219   4.366590
    42  H    2.130104   2.735380   3.232159   4.168456   5.027542
    43  H    2.542191   3.067123   2.581310   3.942216   4.361274
    44  H    3.313857   2.821443   2.159387   2.517717   3.340282
    45  H    2.743901   2.072361   1.070000   2.070062   2.134198
                   31         32         33         34         35
    31  H    0.000000
    32  H    4.325978   0.000000
    33  H    3.302305   1.735103   0.000000
    34  H    3.444445   2.479041   3.012507   0.000000
    35  H    2.163815   3.744904   2.581382   3.042959   0.000000
    36  H    3.606230   4.346156   4.371065   2.034944   2.987133
    37  H    4.474225   4.967991   4.343421   3.894088   2.519148
    38  H    5.424686   3.940848   4.477089   2.658867   4.022553
    39  H    9.614576   8.257931   8.410307   7.646475   7.629766
    40  H    9.346646   7.804113   8.247864   6.936805   7.563104
    41  H    8.647903   6.629386   6.809358   6.626868   6.603039
    42  H    7.241347   4.960305   5.687573   4.400071   5.626008
    43  H    7.993792   5.056531   5.472597   5.799691   6.122602
    44  H    9.038741   5.661125   6.797910   5.951870   7.555239
    45  H   10.309886   7.312870   7.906303   7.842162   8.413465
                   36         37         38         39         40
    36  H    0.000000
    37  H    2.970370   0.000000
    38  H    2.547900   2.999389   0.000000
    39  H    6.978915   5.295795   5.073146   0.000000
    40  H    6.292595   5.369241   4.278639   1.726073   0.000000
    41  H    6.517727   4.718622   4.328835   2.244722   2.924661
    42  H    4.482603   4.192756   1.954953   3.856116   2.951143
    43  H    6.395542   5.055719   4.137614   4.450625   4.600518
    44  H    6.658228   6.528055   4.182780   5.193021   4.349031
    45  H    8.229903   6.940626   5.751470   4.056231   4.246167
                   41         42         43         44         45
    41  H    0.000000
    42  H    2.991946   0.000000
    43  H    2.274012   2.987854   0.000000
    44  H    3.929648   2.566743   3.009274   0.000000
    45  H    2.560439   3.977394   2.464716   3.033221   0.000000
 Stoichiometry    C12H22O11
 Framework group  C1[X(C12H22O11)]
 Deg. of freedom   129
 Full point group                 C1      NOp   1
 Largest Abelian subgroup         C1      NOp   1
 Largest concise Abelian subgroup C1      NOp   1
                         Standard orientation:                         
 ---------------------------------------------------------------------
 Center     Atomic      Atomic             Coordinates (Angstroms)
 Number     Number       Type             X           Y           Z
 ---------------------------------------------------------------------
      1          8           0        5.094513   -0.358036   -0.181571
      2          6           0        3.785329   -0.013649    0.295653
      3          6           0        3.192841    1.231743   -0.343925
      4          8           0        4.058903    2.375634   -0.320011
      5          1           0        4.869095    1.928082   -0.698551
      6          6           0        1.811533    1.564890    0.195119
      7          8           0        1.275938    2.749326   -0.411894
      8          1           0        0.356823    2.833737   -0.027907
      9          6           0        3.028551   -2.486246    0.229856
     10          8           0        4.212078   -3.151687   -0.235026
     11          1           0        4.175693   -4.150686   -0.246659
     12          6           0        2.843086   -1.062644   -0.270772
     13          8           0        1.535892   -0.816973    0.267819
     14          6           0        0.867627    0.405582   -0.078196
     15          8           0       -0.300412    0.566908    0.740219
     16          6           0       -1.511347    0.217637    0.055083
     17          6           0       -2.012677   -1.175787    0.397739
     18          8           0       -1.001325   -2.174684    0.198365
     19          1           0       -0.163970   -1.739225    0.527941
     20          6           0       -3.273036   -1.534978   -0.372018
     21          8           0       -3.656173   -2.830183    0.114183
     22          1           0       -4.439483   -3.148536   -0.419949
     23          6           0       -2.560014    2.624341    0.153343
     24          8           0       -1.291963    3.295692    0.196124
     25          1           0       -1.458096    4.277453    0.100992
     26          6           0       -2.647478    1.139549    0.465797
     27          8           0       -3.901577    0.855053   -0.170973
     28          6           0       -4.316278   -0.504717    0.026526
     29          8           0       -5.407936   -0.685014   -0.886737
     30          1           0       -6.208983   -0.877492   -0.393912
     31          1           0        5.660239   -0.573590    0.563473
     32          1           0        2.179342   -3.061629   -0.074575
     33          1           0        3.054770   -2.464434    1.299312
     34          1           0        2.826226   -1.030500   -1.340156
     35          1           0        3.740650    0.023318    1.364081
     36          1           0        3.054589    0.991248   -1.377341
     37          1           0        1.878709    1.716471    1.252195
     38          1           0        0.592157    0.393045   -1.112052
     39          1           0       -3.208185    3.129863    0.838341
     40          1           0       -2.958243    2.764079   -0.829910
     41          1           0       -2.782579    1.034582    1.522031
     42          1           0       -1.356982    0.291050   -1.001176
     43          1           0       -2.262566   -1.177584    1.438149
     44          1           0       -3.103042   -1.541139   -1.428410
     45          1           0       -4.638496   -0.660731    1.034859
 ---------------------------------------------------------------------
 Rotational constants (GHZ):      0.4086339      0.1465363      0.1108275
 Standard basis: 6-31+G(d,p) (6D, 7F)
 There are   547 symmetry adapted basis functions of A   symmetry.
 Integral buffers will be    131072 words long.
 Raffenetti 2 integral format.
 Two-electron integral symmetry is turned on.
   547 basis functions,   890 primitive gaussians,   547 cartesian basis functions
    91 alpha electrons       91 beta electrons
       nuclear repulsion energy      2290.9168901503 Hartrees.
 NAtoms=   45 NActive=   45 NUniq=   45 SFac= 1.00D+00 NAtFMM=   50 NAOKFM=F Big=F
 One-electron integrals computed using PRISM.
 NBasis=   547 RedAO= T  NBF=   547
 NBsUse=   547 1.00D-06 NBFU=   547
 Harris functional with IExCor=  402 diagonalized for initial guess.
 ExpMin= 4.38D-02 ExpMax= 5.48D+03 ExpMxC= 8.25D+02 IAcc=2 IRadAn=         0 AccDes= 0.00D+00
 HarFok:  IExCor=  402 AccDes= 0.00D+00 IRadAn=         0 IDoV= 1
 ScaDFX=  1.000000  1.000000  1.000000  1.000000
 FoFCou: FMM=F IPFlag=           0 FMFlag=      100000 FMFlg1=           0
         NFxFlg=           0 DoJE=T BraDBF=F KetDBF=T FulRan=T
         Omega=  0.000000  0.000000  1.000000  0.000000  0.000000 ICntrl=     500 IOpCl=  0
         NMat0=    1 NMatS0=    1 NMatT0=    0 NMatD0=    1 NMtDS0=    0 NMtDT0=    0
         I1Cent=           4 NGrid=           0.
 Petite list used in FoFCou.
 Initial guess orbital symmetries:
       Occupied  (A) (A) (A) (A) (A) (A) (A) (A) (A) (A) (A) (A)
                 (A) (A) (A) (A) (A) (A) (A) (A) (A) (A) (A) (A)
                 (A) (A) (A) (A) (A) (A) (A) (A) (A) (A) (A) (A)
                 (A) (A) (A) (A) (A) (A) (A) (A) (A) (A) (A) (A)
                 (A) (A) (A) (A) (A) (A) (A) (A) (A) (A) (A) (A)
                 (A) (A) (A) (A) (A) (A) (A) (A) (A) (A) (A) (A)
                 (A) (A) (A) (A) (A) (A) (A) (A) (A) (A) (A) (A)
                 (A) (A) (A) (A) (A) (A) (A)
       Virtual   (A) (A) (A) (A) (A) (A) (A) (A) (A) (A) (A) (A)
                 (A) (A) (A) (A) (A) (A) (A) (A) (A) (A) (A) (A)
                 (A) (A) (A) (A) (A) (A) (A) (A) (A) (A) (A) (A)
                 (A) (A) (A) (A) (A) (A) (A) (A) (A) (A) (A) (A)
                 (A) (A) (A) (A) (A) (A) (A) (A) (A) (A) (A) (A)
                 (A) (A) (A) (A) (A) (A) (A) (A) (A) (A) (A) (A)
                 (A) (A) (A) (A) (A) (A) (A) (A) (A) (A) (A) (A)
                 (A) (A) (A) (A) (A) (A) (A) (A) (A) (A) (A) (A)
                 (A) (A) (A) (A) (A) (A) (A) (A) (A) (A) (A) (A)
                 (A) (A) (A) (A) (A) (A) (A) (A) (A) (A) (A) (A)
                 (A) (A) (A) (A) (A) (A) (A) (A) (A) (A) (A) (A)
                 (A) (A) (A) (A) (A) (A) (A) (A) (A) (A) (A) (A)
                 (A) (A) (A) (A) (A) (A) (A) (A) (A) (A) (A) (A)
                 (A) (A) (A) (A) (A) (A) (A) (A) (A) (A) (A) (A)
                 (A) (A) (A) (A) (A) (A) (A) (A) (A) (A) (A) (A)
                 (A) (A) (A) (A) (A) (A) (A) (A) (A) (A) (A) (A)
                 (A) (A) (A) (A) (A) (A) (A) (A) (A) (A) (A) (A)
                 (A) (A) (A) (A) (A) (A) (A) (A) (A) (A) (A) (A)
                 (A) (A) (A) (A) (A) (A) (A) (A) (A) (A) (A) (A)
                 (A) (A) (A) (A) (A) (A) (A) (A) (A) (A) (A) (A)
                 (A) (A) (A) (A) (A) (A) (A) (A) (A) (A) (A) (A)
                 (A) (A) (A) (A) (A) (A) (A) (A) (A) (A) (A) (A)
                 (A) (A) (A) (A) (A) (A) (A) (A) (A) (A) (A) (A)
                 (A) (A) (A) (A) (A) (A) (A) (A) (A) (A) (A) (A)
                 (A) (A) (A) (A) (A) (A) (A) (A) (A) (A) (A) (A)
                 (A) (A) (A) (A) (A) (A) (A) (A) (A) (A) (A) (A)
                 (A) (A) (A) (A) (A) (A) (A) (A) (A) (A) (A) (A)
                 (A) (A) (A) (A) (A) (A) (A) (A) (A) (A) (A) (A)
                 (A) (A) (A) (A) (A) (A) (A) (A) (A) (A) (A) (A)
                 (A) (A) (A) (A) (A) (A) (A) (A) (A) (A) (A) (A)
                 (A) (A) (A) (A) (A) (A) (A) (A) (A) (A) (A) (A)
                 (A) (A) (A) (A) (A) (A) (A) (A) (A) (A) (A) (A)
                 (A) (A) (A) (A) (A) (A) (A) (A) (A) (A) (A) (A)
                 (A) (A) (A) (A) (A) (A) (A) (A) (A) (A) (A) (A)
                 (A) (A) (A) (A) (A) (A) (A) (A) (A) (A) (A) (A)
                 (A) (A) (A) (A) (A) (A) (A) (A) (A) (A) (A) (A)
                 (A) (A) (A) (A) (A) (A) (A) (A) (A) (A) (A) (A)
                 (A) (A) (A) (A) (A) (A) (A) (A) (A) (A) (A) (A)
 The electronic state of the initial guess is 1-A.
 Requested convergence on RMS density matrix=1.00D-08 within 128 cycles.
 Requested convergence on MAX density matrix=1.00D-06.
 Requested convergence on             energy=1.00D-06.
 No special actions if energy rises.
 SCF Done:  E(RB3LYP) =  -1297.94277631     A.U. after   14 cycles
             Convg  =    0.2357D-08             -V/T =  2.0086
 Range of M.O.s used for correlation:     1   547
 NBasis=   547 NAE=    91 NBE=    91 NFC=     0 NFV=     0
 NROrb=    547 NOA=    91 NOB=    91 NVA=   456 NVB=   456

 **** Warning!!: The largest alpha MO coefficient is  0.65820405D+02

          Differentiating once with respect to electric field.
                with respect to dipole field.
          Electric field/nuclear overlap derivatives assumed to be zero.
          There are     3 degrees of freedom in the 1st order CPHF.  IDoFFX=0.
      3 vectors produced by pass  0 Test12= 1.38D-12 3.33D-08 XBig12= 1.18D+02 1.09D+00.
 AX will form     3 AO Fock derivatives at one time.
      3 vectors produced by pass  1 Test12= 1.38D-12 3.33D-08 XBig12= 2.19D+01 3.75D-01.
      3 vectors produced by pass  2 Test12= 1.38D-12 3.33D-08 XBig12= 8.71D+00 1.79D-01.
      3 vectors produced by pass  3 Test12= 1.38D-12 3.33D-08 XBig12= 8.62D-01 8.76D-02.
      3 vectors produced by pass  4 Test12= 1.38D-12 3.33D-08 XBig12= 2.48D-01 3.51D-02.
      3 vectors produced by pass  5 Test12= 1.38D-12 3.33D-08 XBig12= 5.53D-02 2.13D-02.
      3 vectors produced by pass  6 Test12= 1.38D-12 3.33D-08 XBig12= 1.72D-02 1.62D-02.
      3 vectors produced by pass  7 Test12= 1.38D-12 3.33D-08 XBig12= 2.14D-03 7.24D-03.
      3 vectors produced by pass  8 Test12= 1.38D-12 3.33D-08 XBig12= 4.86D-04 2.15D-03.
      3 vectors produced by pass  9 Test12= 1.38D-12 3.33D-08 XBig12= 1.21D-04 1.33D-03.
      3 vectors produced by pass 10 Test12= 1.38D-12 3.33D-08 XBig12= 3.10D-05 4.45D-04.
      3 vectors produced by pass 11 Test12= 1.38D-12 3.33D-08 XBig12= 7.40D-06 2.52D-04.
      3 vectors produced by pass 12 Test12= 1.38D-12 3.33D-08 XBig12= 8.65D-07 7.27D-05.
      3 vectors produced by pass 13 Test12= 1.38D-12 3.33D-08 XBig12= 3.03D-07 4.84D-05.
      3 vectors produced by pass 14 Test12= 1.38D-12 3.33D-08 XBig12= 2.54D-08 1.41D-05.
      3 vectors produced by pass 15 Test12= 1.38D-12 3.33D-08 XBig12= 5.18D-09 5.04D-06.
      3 vectors produced by pass 16 Test12= 1.38D-12 3.33D-08 XBig12= 4.90D-10 1.49D-06.
      3 vectors produced by pass 17 Test12= 1.38D-12 3.33D-08 XBig12= 4.48D-11 5.69D-07.
      3 vectors produced by pass 18 Test12= 1.38D-12 3.33D-08 XBig12= 1.67D-11 2.48D-07.
      3 vectors produced by pass 19 Test12= 1.38D-12 3.33D-08 XBig12= 1.61D-11 2.62D-07.
      2 vectors produced by pass 20 Test12= 1.38D-12 3.33D-08 XBig12= 3.43D-12 1.34D-07.
      2 vectors produced by pass 21 Test12= 1.38D-12 3.33D-08 XBig12= 1.22D-12 7.14D-08.
      1 vectors produced by pass 22 Test12= 1.38D-12 3.33D-08 XBig12= 5.12D-13 6.00D-08.
 Inverted reduced A of dimension    65 with in-core refinement.
 End of Minotr Frequency-dependent properties file   721 does not exist.
 End of Minotr Frequency-dependent properties file   722 does not exist.
 Symmetrizing basis deriv contribution to polar:
 IMax=3 JMax=2 DiffMx= 0.00D+00
 G2DrvN: will do    23 centers at a time, making    2 passes doing MaxLOS=2.
 Calling FoFCou, ICntrl=  3107 FMM=F I1Cent=   0 AccDes= 0.00D+00.
 Calling FoFCou, ICntrl=  3107 FMM=F I1Cent=   0 AccDes= 0.00D+00.
 FoFDir/FoFCou used for L=0 through L=2.
 End of G2Drv Frequency-dependent properties file   721 does not exist.
 End of G2Drv Frequency-dependent properties file   722 does not exist.
          IDoAtm=111111111111111111111111111111111111111111111
          Differentiating once with respect to electric field.
                with respect to dipole field.
          Differentiating once with respect to nuclear coordinates.
          There are   138 degrees of freedom in the 1st order CPHF.  IDoFFX=5.
 Will reuse    3 saved solutions.
    135 vectors produced by pass  0 Test12= 4.15D-14 1.00D-09 XBig12= 2.43D-01 8.79D-02.
 AX will form    68 AO Fock derivatives at one time.
    135 vectors produced by pass  1 Test12= 4.15D-14 1.00D-09 XBig12= 3.75D-02 1.60D-02.
    132 vectors produced by pass  2 Test12= 4.15D-14 1.00D-09 XBig12= 2.13D-04 1.92D-03.
    132 vectors produced by pass  3 Test12= 4.15D-14 1.00D-09 XBig12= 6.91D-07 1.18D-04.
    132 vectors produced by pass  4 Test12= 4.15D-14 1.00D-09 XBig12= 1.34D-09 2.69D-06.
    132 vectors produced by pass  5 Test12= 4.15D-14 1.00D-09 XBig12= 3.03D-12 1.18D-07.
     78 vectors produced by pass  6 Test12= 4.15D-14 1.00D-09 XBig12= 1.26D-13 2.30D-08.
 Inverted reduced A of dimension   876 with in-core refinement.
 Isotropic polarizability for W=    0.000000      186.45 Bohr**3.
 End of Minotr Frequency-dependent properties file   721 does not exist.
 End of Minotr Frequency-dependent properties file   722 does not exist.

 **********************************************************************

            Population analysis using the SCF density.

 **********************************************************************

 Orbital symmetries:
       Occupied  (A) (A) (A) (A) (A) (A) (A) (A) (A) (A) (A) (A)
                 (A) (A) (A) (A) (A) (A) (A) (A) (A) (A) (A) (A)
                 (A) (A) (A) (A) (A) (A) (A) (A) (A) (A) (A) (A)
                 (A) (A) (A) (A) (A) (A) (A) (A) (A) (A) (A) (A)
                 (A) (A) (A) (A) (A) (A) (A) (A) (A) (A) (A) (A)
                 (A) (A) (A) (A) (A) (A) (A) (A) (A) (A) (A) (A)
                 (A) (A) (A) (A) (A) (A) (A) (A) (A) (A) (A) (A)
                 (A) (A) (A) (A) (A) (A) (A)
       Virtual   (A) (A) (A) (A) (A) (A) (A) (A) (A) (A) (A) (A)
                 (A) (A) (A) (A) (A) (A) (A) (A) (A) (A) (A) (A)
                 (A) (A) (A) (A) (A) (A) (A) (A) (A) (A) (A) (A)
                 (A) (A) (A) (A) (A) (A) (A) (A) (A) (A) (A) (A)
                 (A) (A) (A) (A) (A) (A) (A) (A) (A) (A) (A) (A)
                 (A) (A) (A) (A) (A) (A) (A) (A) (A) (A) (A) (A)
                 (A) (A) (A) (A) (A) (A) (A) (A) (A) (A) (A) (A)
                 (A) (A) (A) (A) (A) (A) (A) (A) (A) (A) (A) (A)
                 (A) (A) (A) (A) (A) (A) (A) (A) (A) (A) (A) (A)
                 (A) (A) (A) (A) (A) (A) (A) (A) (A) (A) (A) (A)
                 (A) (A) (A) (A) (A) (A) (A) (A) (A) (A) (A) (A)
                 (A) (A) (A) (A) (A) (A) (A) (A) (A) (A) (A) (A)
                 (A) (A) (A) (A) (A) (A) (A) (A) (A) (A) (A) (A)
                 (A) (A) (A) (A) (A) (A) (A) (A) (A) (A) (A) (A)
                 (A) (A) (A) (A) (A) (A) (A) (A) (A) (A) (A) (A)
                 (A) (A) (A) (A) (A) (A) (A) (A) (A) (A) (A) (A)
                 (A) (A) (A) (A) (A) (A) (A) (A) (A) (A) (A) (A)
                 (A) (A) (A) (A) (A) (A) (A) (A) (A) (A) (A) (A)
                 (A) (A) (A) (A) (A) (A) (A) (A) (A) (A) (A) (A)
                 (A) (A) (A) (A) (A) (A) (A) (A) (A) (A) (A) (A)
                 (A) (A) (A) (A) (A) (A) (A) (A) (A) (A) (A) (A)
                 (A) (A) (A) (A) (A) (A) (A) (A) (A) (A) (A) (A)
                 (A) (A) (A) (A) (A) (A) (A) (A) (A) (A) (A) (A)
                 (A) (A) (A) (A) (A) (A) (A) (A) (A) (A) (A) (A)
                 (A) (A) (A) (A) (A) (A) (A) (A) (A) (A) (A) (A)
                 (A) (A) (A) (A) (A) (A) (A) (A) (A) (A) (A) (A)
                 (A) (A) (A) (A) (A) (A) (A) (A) (A) (A) (A) (A)
                 (A) (A) (A) (A) (A) (A) (A) (A) (A) (A) (A) (A)
                 (A) (A) (A) (A) (A) (A) (A) (A) (A) (A) (A) (A)
                 (A) (A) (A) (A) (A) (A) (A) (A) (A) (A) (A) (A)
                 (A) (A) (A) (A) (A) (A) (A) (A) (A) (A) (A) (A)
                 (A) (A) (A) (A) (A) (A) (A) (A) (A) (A) (A) (A)
                 (A) (A) (A) (A) (A) (A) (A) (A) (A) (A) (A) (A)
                 (A) (A) (A) (A) (A) (A) (A) (A) (A) (A) (A) (A)
                 (A) (A) (A) (A) (A) (A) (A) (A) (A) (A) (A) (A)
                 (A) (A) (A) (A) (A) (A) (A) (A) (A) (A) (A) (A)
                 (A) (A) (A) (A) (A) (A) (A) (A) (A) (A) (A) (A)
                 (A) (A) (A) (A) (A) (A) (A) (A) (A) (A) (A) (A)
 The electronic state is 1-A.
 Alpha  occ. eigenvalues --  -19.20077 -19.19311 -19.19232 -19.18787 -19.18539
 Alpha  occ. eigenvalues --  -19.17756 -19.17507 -19.16112 -19.15527 -19.14970
 Alpha  occ. eigenvalues --  -19.13819 -10.31092 -10.30779 -10.26753 -10.26364
 Alpha  occ. eigenvalues --  -10.25647 -10.25512 -10.25443 -10.25342 -10.24588
 Alpha  occ. eigenvalues --  -10.24162 -10.24114 -10.23962  -1.10068  -1.09401
 Alpha  occ. eigenvalues --   -1.05629  -1.05084  -1.04247  -1.03981  -1.03148
 Alpha  occ. eigenvalues --   -1.02103  -1.01531  -1.00862  -0.99908  -0.82529
 Alpha  occ. eigenvalues --   -0.80525  -0.79877  -0.78469  -0.71974  -0.69830
 Alpha  occ. eigenvalues --   -0.67162  -0.64839  -0.63159  -0.62106  -0.61861
 Alpha  occ. eigenvalues --   -0.60528  -0.56748  -0.55777  -0.55160  -0.54840
 Alpha  occ. eigenvalues --   -0.53731  -0.53456  -0.52587  -0.52201  -0.50924
 Alpha  occ. eigenvalues --   -0.50785  -0.49462  -0.48907  -0.48322  -0.46833
 Alpha  occ. eigenvalues --   -0.45524  -0.45366  -0.44066  -0.43595  -0.43231
 Alpha  occ. eigenvalues --   -0.42355  -0.41827  -0.40995  -0.40379  -0.39414
 Alpha  occ. eigenvalues --   -0.38709  -0.38297  -0.37709  -0.36871  -0.36309
 Alpha  occ. eigenvalues --   -0.35789  -0.35241  -0.34400  -0.34198  -0.33422
 Alpha  occ. eigenvalues --   -0.32896  -0.31423  -0.30820  -0.30551  -0.30181
 Alpha  occ. eigenvalues --   -0.29079  -0.28801  -0.28207  -0.27022  -0.26695
 Alpha  occ. eigenvalues --   -0.26190
 Alpha virt. eigenvalues --   -0.01947  -0.01909  -0.01482  -0.00146   0.00384
 Alpha virt. eigenvalues --    0.00902   0.01835   0.02132   0.02777   0.03671
 Alpha virt. eigenvalues --    0.04067   0.04228   0.04775   0.05604   0.05630
 Alpha virt. eigenvalues --    0.06116   0.06730   0.07426   0.07812   0.08088
 Alpha virt. eigenvalues --    0.08603   0.08709   0.09311   0.09717   0.10076
 Alpha virt. eigenvalues --    0.10762   0.10995   0.11365   0.11960   0.12170
 Alpha virt. eigenvalues --    0.12436   0.12717   0.13460   0.13594   0.13695
 Alpha virt. eigenvalues --    0.14063   0.14307   0.14562   0.15031   0.15189
 Alpha virt. eigenvalues --    0.15814   0.16247   0.16738   0.16916   0.17126
 Alpha virt. eigenvalues --    0.17648   0.17733   0.18199   0.18501   0.18569
 Alpha virt. eigenvalues --    0.18989   0.19172   0.19427   0.19861   0.20490
 Alpha virt. eigenvalues --    0.20847   0.21003   0.21207   0.21488   0.21667
 Alpha virt. eigenvalues --    0.22131   0.22479   0.22774   0.23286   0.23322
 Alpha virt. eigenvalues --    0.23891   0.24001   0.24136   0.24496   0.24665
 Alpha virt. eigenvalues --    0.25086   0.25428   0.25538   0.25803   0.26104
 Alpha virt. eigenvalues --    0.26526   0.26698   0.27010   0.27099   0.27463
 Alpha virt. eigenvalues --    0.27665   0.27804   0.28282   0.28851   0.29032
 Alpha virt. eigenvalues --    0.29172   0.29543   0.30013   0.30441   0.30960
 Alpha virt. eigenvalues --    0.31323   0.31448   0.31724   0.32272   0.32350
 Alpha virt. eigenvalues --    0.32866   0.33260   0.33444   0.33859   0.34084
 Alpha virt. eigenvalues --    0.34379   0.34642   0.35492   0.35746   0.36038
 Alpha virt. eigenvalues --    0.36190   0.36570   0.36875   0.37150   0.37895
 Alpha virt. eigenvalues --    0.38080   0.38395   0.38905   0.39188   0.39573
 Alpha virt. eigenvalues --    0.40252   0.40767   0.41118   0.41570   0.42242
 Alpha virt. eigenvalues --    0.42735   0.43275   0.43621   0.43882   0.44559
 Alpha virt. eigenvalues --    0.44664   0.46298   0.46422   0.46636   0.47536
 Alpha virt. eigenvalues --    0.48074   0.49219   0.49428   0.49937   0.51276
 Alpha virt. eigenvalues --    0.51969   0.52156   0.54626   0.63007   0.64141
 Alpha virt. eigenvalues --    0.65799   0.66805   0.67752   0.69332   0.70209
 Alpha virt. eigenvalues --    0.70684   0.71945   0.73054   0.73361   0.74276
 Alpha virt. eigenvalues --    0.75201   0.76321   0.77042   0.77692   0.78539
 Alpha virt. eigenvalues --    0.79704   0.80225   0.81850   0.82010   0.84064
 Alpha virt. eigenvalues --    0.86351   0.87269   0.87736   0.88017   0.88265
 Alpha virt. eigenvalues --    0.91224   0.92391   0.93630   0.94177   0.96123
 Alpha virt. eigenvalues --    0.96376   0.97597   0.98363   0.99990   1.00876
 Alpha virt. eigenvalues --    1.01897   1.02387   1.02896   1.03438   1.03791
 Alpha virt. eigenvalues --    1.04703   1.06003   1.06481   1.06798   1.07081
 Alpha virt. eigenvalues --    1.08137   1.08902   1.09882   1.09929   1.10647
 Alpha virt. eigenvalues --    1.11029   1.12433   1.14011   1.14383   1.15744
 Alpha virt. eigenvalues --    1.16943   1.17405   1.19882   1.20302   1.22211
 Alpha virt. eigenvalues --    1.22687   1.23910   1.24202   1.24722   1.25704
 Alpha virt. eigenvalues --    1.26390   1.26672   1.27586   1.27809   1.28656
 Alpha virt. eigenvalues --    1.29642   1.30383   1.30965   1.31737   1.31945
 Alpha virt. eigenvalues --    1.32843   1.33226   1.33914   1.34651   1.35361
 Alpha virt. eigenvalues --    1.35817   1.36090   1.37240   1.37986   1.38885
 Alpha virt. eigenvalues --    1.39054   1.40346   1.41127   1.42364   1.43485
 Alpha virt. eigenvalues --    1.44381   1.45326   1.46125   1.47741   1.48092
 Alpha virt. eigenvalues --    1.49363   1.49821   1.50822   1.52493   1.53075
 Alpha virt. eigenvalues --    1.53583   1.54859   1.55926   1.56991   1.57432
 Alpha virt. eigenvalues --    1.57883   1.59037   1.60285   1.60511   1.61660
 Alpha virt. eigenvalues --    1.62013   1.62245   1.63338   1.65213   1.65667
 Alpha virt. eigenvalues --    1.66958   1.68064   1.68225   1.69715   1.70286
 Alpha virt. eigenvalues --    1.71324   1.71734   1.72972   1.73034   1.73376
 Alpha virt. eigenvalues --    1.74666   1.75719   1.76023   1.76951   1.78164
 Alpha virt. eigenvalues --    1.78514   1.79613   1.79946   1.80900   1.81914
 Alpha virt. eigenvalues --    1.83751   1.84147   1.85066   1.85606   1.86397
 Alpha virt. eigenvalues --    1.87728   1.89080   1.89923   1.90706   1.91024
 Alpha virt. eigenvalues --    1.92137   1.92454   1.93379   1.93625   1.95172
 Alpha virt. eigenvalues --    1.95758   1.96617   1.96819   1.97197   1.98315
 Alpha virt. eigenvalues --    1.98549   1.99831   2.01423   2.01940   2.02759
 Alpha virt. eigenvalues --    2.03824   2.04767   2.05386   2.05928   2.07202
 Alpha virt. eigenvalues --    2.07942   2.09710   2.10192   2.11134   2.12388
 Alpha virt. eigenvalues --    2.12960   2.14297   2.14423   2.15206   2.15822
 Alpha virt. eigenvalues --    2.16996   2.17990   2.18186   2.19426   2.21700
 Alpha virt. eigenvalues --    2.23250   2.24073   2.24523   2.25684   2.29212
 Alpha virt. eigenvalues --    2.30083   2.31492   2.32520   2.34487   2.35089
 Alpha virt. eigenvalues --    2.35784   2.37067   2.38472   2.38899   2.39578
 Alpha virt. eigenvalues --    2.40941   2.42338   2.43096   2.44243   2.45638
 Alpha virt. eigenvalues --    2.46206   2.48143   2.48886   2.49940   2.50011
 Alpha virt. eigenvalues --    2.52297   2.52898   2.53256   2.55279   2.55828
 Alpha virt. eigenvalues --    2.56651   2.57809   2.58186   2.59696   2.60552
 Alpha virt. eigenvalues --    2.61398   2.62123   2.63267   2.64083   2.65462
 Alpha virt. eigenvalues --    2.66115   2.67157   2.68998   2.70301   2.70805
 Alpha virt. eigenvalues --    2.71004   2.71512   2.73473   2.74205   2.75036
 Alpha virt. eigenvalues --    2.76030   2.76181   2.77382   2.78381   2.81005
 Alpha virt. eigenvalues --    2.81741   2.83012   2.83733   2.84679   2.86272
 Alpha virt. eigenvalues --    2.86969   2.87340   2.88308   2.88724   2.89813
 Alpha virt. eigenvalues --    2.90592   2.91955   2.93688   2.94226   2.94667
 Alpha virt. eigenvalues --    2.95388   2.96055   2.96951   2.97878   2.98369
 Alpha virt. eigenvalues --    2.99900   3.02675   3.04084   3.05325   3.06379
 Alpha virt. eigenvalues --    3.06918   3.08017   3.10454   3.11212   3.13188
 Alpha virt. eigenvalues --    3.16034   3.18706   3.24378   3.26586   3.28309
 Alpha virt. eigenvalues --    3.30709   3.36400   3.38519   3.38886   3.42078
 Alpha virt. eigenvalues --    3.43660   3.44520   3.47196   3.48135   3.48650
 Alpha virt. eigenvalues --    3.50016   3.50164   3.52326   3.53581   3.54534
 Alpha virt. eigenvalues --    3.54893   3.58704   3.59350   3.61691   3.63966
 Alpha virt. eigenvalues --    3.64493   3.69135   3.72062   4.31771   4.33994
 Alpha virt. eigenvalues --    4.35384   4.37970   4.42157   4.43893   4.46277
 Alpha virt. eigenvalues --    4.48686   4.52014   4.52830   4.54777   4.55925
 Alpha virt. eigenvalues --    4.56170   4.58896   4.60663   4.66372   4.71712
 Alpha virt. eigenvalues --    4.79248   4.83542   4.86042   4.87524   4.91334
 Alpha virt. eigenvalues --    4.92379
          Condensed to atoms (all electrons):
              1          2          3          4          5          6
     1  O    8.265182   0.302457  -0.111872  -0.003730   0.026654   0.029367
     2  C    0.302457   8.200972  -0.624072  -0.062231  -0.157281  -1.897139
     3  C   -0.111872  -0.624072   9.169932   0.260032   0.077905  -0.392192
     4  O   -0.003730  -0.062231   0.260032   8.205369   0.201295  -0.143508
     5  H    0.026654  -0.157281   0.077905   0.201295   0.433662   0.050301
     6  C    0.029367  -1.897139  -0.392192  -0.143508   0.050301  11.418249
     7  O   -0.000792   0.045617  -0.205827   0.009178  -0.001021   0.285318
     8  H    0.000014  -0.012447   0.035436  -0.001045   0.000014   0.059895
     9  C    0.046302   0.234454  -0.542164   0.011268  -0.005730   0.382825
    10  O   -0.011950   0.010835   0.007584   0.000069  -0.000008  -0.005683
    11  H    0.001360  -0.010756  -0.000544  -0.000001   0.000000   0.000720
    12  C   -0.294619  -1.511555  -0.705129   0.014451   0.020634   0.854611
    13  O    0.008461  -0.029399  -0.002828   0.002036  -0.000494  -0.130948
    14  C    0.047401   0.917986  -0.215890   0.012277   0.011000  -3.765794
    15  O    0.000307  -0.051499  -0.008962  -0.000058   0.000089   0.175039
    16  C    0.007107  -0.080877  -0.283077  -0.002448   0.002403  -0.327723
    17  C    0.000571   0.017524  -0.026837   0.000726   0.000032  -0.218816
    18  O    0.000002   0.009402  -0.003860  -0.000005   0.000000   0.000570
    19  H   -0.000028  -0.010872   0.005472  -0.000003   0.000000   0.022532
    20  C    0.000102  -0.004527   0.000834  -0.000108   0.000006   0.075603
    21  O    0.000000  -0.000037  -0.000127   0.000000   0.000000   0.000313
    22  H    0.000000   0.000004  -0.000001   0.000000   0.000000  -0.000099
    23  C    0.000043   0.011592  -0.016026   0.000377  -0.000014  -0.183036
    24  O   -0.000003   0.003475  -0.008340  -0.000193  -0.000006  -0.003777
    25  H    0.000000  -0.000087   0.000644   0.000001   0.000000  -0.000258
    26  C    0.000076   0.015705  -0.099872  -0.000132   0.000076  -0.204289
    27  O    0.000000  -0.000197   0.000256   0.000001   0.000000   0.004734
    28  C    0.000005  -0.001188  -0.000817   0.000018   0.000000  -0.006975
    29  O    0.000000   0.000010   0.000035   0.000000   0.000000  -0.000578
    30  H    0.000000   0.000000   0.000001   0.000000   0.000000   0.000008
    31  H    0.238291   0.068651  -0.012723   0.000158  -0.001433  -0.002664
    32  H   -0.000105  -0.006197  -0.004921   0.000030   0.000000   0.000573
    33  H    0.003895   0.000179  -0.006803  -0.000004   0.000000   0.017872
    34  H    0.009807   0.023850  -0.043492   0.000072   0.000063  -0.009873
    35  H   -0.035789   0.397057  -0.052639   0.003148  -0.000081  -0.013783
    36  H    0.001118   0.040035   0.163719  -0.046865  -0.009279  -0.144398
    37  H   -0.000308   0.107925  -0.216311   0.005298  -0.000195   0.253492
    38  H    0.000090   0.036939  -0.037502  -0.000352   0.000004  -0.106919
    39  H    0.000000  -0.000008  -0.000044   0.000000   0.000000   0.000262
    40  H    0.000000   0.000051   0.000145   0.000000   0.000000  -0.001213
    41  H    0.000000  -0.000064   0.000474   0.000000   0.000000   0.006316
    42  H   -0.000001   0.000457   0.000543   0.000010   0.000000   0.009495
    43  H    0.000000   0.000389  -0.000118   0.000000   0.000000   0.003855
    44  H    0.000000  -0.000022   0.000006   0.000000   0.000000   0.000770
    45  H    0.000000  -0.000006  -0.000001   0.000000   0.000000   0.000240
              7          8          9         10         11         12
     1  O   -0.000792   0.000014   0.046302  -0.011950   0.001360  -0.294619
     2  C    0.045617  -0.012447   0.234454   0.010835  -0.010756  -1.511555
     3  C   -0.205827   0.035436  -0.542164   0.007584  -0.000544  -0.705129
     4  O    0.009178  -0.001045   0.011268   0.000069  -0.000001   0.014451
     5  H   -0.001021   0.000014  -0.005730  -0.000008   0.000000   0.020634
     6  C    0.285318   0.059895   0.382825  -0.005683   0.000720   0.854611
     7  O    8.243233   0.197001   0.000578   0.000019   0.000000   0.018677
     8  H    0.197001   0.351597   0.000141   0.000000   0.000000  -0.000091
     9  C    0.000578   0.000141   8.160086   0.053177  -0.001131  -2.965261
    10  O    0.000019   0.000000   0.053177   8.402300   0.202172   0.024358
    11  H    0.000000   0.000000  -0.001131   0.202172   0.422665   0.028648
    12  C    0.018677  -0.000091  -2.965261   0.024358   0.028648  12.052392
    13  O    0.007244   0.000732   0.077041  -0.003199   0.000178  -0.264227
    14  C   -0.021154  -0.084227  -0.393322   0.012518  -0.002712  -0.957684
    15  O   -0.009138   0.019030  -0.004568  -0.000033   0.000005   0.034622
    16  C   -0.005799   0.014189  -0.181406  -0.004072  -0.000328  -0.058083
    17  C    0.008200   0.002677  -0.006714   0.000628   0.000049  -0.145874
    18  O   -0.000065  -0.000032   0.005896  -0.000070   0.000009  -0.012824
    19  H   -0.000016  -0.000009   0.000846  -0.000008  -0.000002   0.006129
    20  C    0.002713   0.001727   0.008067   0.000163   0.000010  -0.030517
    21  O   -0.000010  -0.000001   0.000007   0.000000   0.000000   0.000150
    22  H    0.000000   0.000000  -0.000004   0.000000   0.000000   0.000048
    23  C    0.006664   0.013358  -0.002137  -0.000010   0.000000  -0.011978
    24  O   -0.024934  -0.003842   0.000478   0.000000   0.000000   0.005211
    25  H    0.002392  -0.000695  -0.000011   0.000000   0.000000  -0.000192
    26  C   -0.004466  -0.027018   0.001122  -0.000121   0.000001   0.029035
    27  O    0.000375   0.000026  -0.000056   0.000000   0.000000  -0.001091
    28  C    0.000505  -0.000315  -0.002846  -0.000015   0.000000   0.000463
    29  O   -0.000003  -0.000001  -0.000007   0.000000   0.000000   0.000079
    30  H    0.000000   0.000000   0.000000   0.000000   0.000000  -0.000001
    31  H   -0.000015   0.000000  -0.022303   0.000257  -0.000050  -0.013475
    32  H   -0.000018   0.000000   0.385356  -0.041903  -0.010543   0.006629
    33  H    0.000002   0.000000   0.667650  -0.067432  -0.000236  -0.331077
    34  H   -0.000079   0.000004   0.056060   0.007340  -0.000152   0.137384
    35  H    0.000126  -0.000003   0.022758   0.000336   0.000002  -0.108290
    36  H    0.011421  -0.000212   0.050409   0.000010   0.000001   0.026521
    37  H   -0.038326  -0.007729   0.012720   0.000007   0.000000  -0.014133
    38  H    0.001879  -0.001178   0.005913   0.000064   0.000000  -0.032190
    39  H   -0.000494   0.000068   0.000000   0.000000   0.000000   0.000057
    40  H    0.000360   0.000286  -0.000001   0.000000   0.000000  -0.000086
    41  H    0.000003   0.000071   0.000055   0.000000   0.000000   0.000089
    42  H   -0.000591   0.000032   0.000253   0.000002   0.000000   0.001324
    43  H    0.000002   0.000001  -0.000002   0.000000   0.000000   0.000880
    44  H    0.000003   0.000000   0.000011   0.000000   0.000000   0.000187
    45  H    0.000000   0.000000   0.000003   0.000000   0.000000   0.000005
             13         14         15         16         17         18
     1  O    0.008461   0.047401   0.000307   0.007107   0.000571   0.000002
     2  C   -0.029399   0.917986  -0.051499  -0.080877   0.017524   0.009402
     3  C   -0.002828  -0.215890  -0.008962  -0.283077  -0.026837  -0.003860
     4  O    0.002036   0.012277  -0.000058  -0.002448   0.000726  -0.000005
     5  H   -0.000494   0.011000   0.000089   0.002403   0.000032   0.000000
     6  C   -0.130948  -3.765794   0.175039  -0.327723  -0.218816   0.000570
     7  O    0.007244  -0.021154  -0.009138  -0.005799   0.008200  -0.000065
     8  H    0.000732  -0.084227   0.019030   0.014189   0.002677  -0.000032
     9  C    0.077041  -0.393322  -0.004568  -0.181406  -0.006714   0.005896
    10  O   -0.003199   0.012518  -0.000033  -0.004072   0.000628  -0.000070
    11  H    0.000178  -0.002712   0.000005  -0.000328   0.000049   0.000009
    12  C   -0.264227  -0.957684   0.034622  -0.058083  -0.145874  -0.012824
    13  O    8.572751   0.261247  -0.032269   0.133057  -0.102803   0.021829
    14  C    0.261247  12.786263   0.027590  -1.115891  -0.736901  -0.060785
    15  O   -0.032269   0.027590   8.251035   0.006763   0.061919  -0.006466
    16  C    0.133057  -1.115891   0.006763  16.406044  -3.042348  -0.071715
    17  C   -0.102803  -0.736901   0.061919  -3.042348   8.693222   0.351995
    18  O    0.021829  -0.060785  -0.006466  -0.071715   0.351995   8.199298
    19  H    0.003613   0.020094   0.032099  -0.166202   0.083204   0.177267
    20  C   -0.030063  -0.221587   0.068961  -2.376404   0.400942  -0.137567
    21  O   -0.000140   0.007023  -0.000964   0.007793  -0.075612   0.006192
    22  H    0.000002  -0.001617   0.000023  -0.014214  -0.000141  -0.000702
    23  C    0.013663  -0.223926  -0.074600  -0.032112  -0.184244   0.007593
    24  O    0.001069   0.036187  -0.008516   0.021089   0.007413   0.000378
    25  H    0.000014  -0.001526   0.001535  -0.001670  -0.002685  -0.000001
    26  C   -0.046531  -1.349197  -0.014275  -4.408737   0.844747   0.038368
    27  O   -0.000056  -0.045149   0.004095  -0.151451  -0.003662   0.001399
    28  C    0.004799  -0.062195   0.006378   0.960758   0.062939   0.001774
    29  O    0.000030  -0.000667   0.000056   0.005157  -0.024576  -0.000061
    30  H    0.000000   0.000287   0.000002  -0.000460   0.013233  -0.000052
    31  H   -0.001386   0.003398  -0.000015   0.000317  -0.000043   0.000000
    32  H   -0.006371  -0.007915  -0.000380   0.011230  -0.001658  -0.001013
    33  H    0.010081   0.003523  -0.000138  -0.004726  -0.000395   0.000194
    34  H   -0.023303   0.088940  -0.001048   0.001591   0.003305   0.000236
    35  H    0.013337   0.037244  -0.000074  -0.006761   0.001032   0.000057
    36  H    0.013215   0.079724  -0.000241  -0.010871   0.002362   0.000153
    37  H    0.013796   0.098685  -0.010130   0.009510   0.006208   0.000198
    38  H   -0.062965   0.402022  -0.071196   0.007938   0.040993  -0.000461
    39  H   -0.000010   0.007749  -0.000483   0.025701  -0.006532   0.000027
    40  H    0.000025  -0.009088   0.000358   0.017287   0.009551   0.000015
    41  H   -0.000163   0.041748   0.001958   0.069320  -0.000909  -0.000228
    42  H    0.000220   0.006560  -0.067462   0.343903  -0.046671  -0.000816
    43  H    0.002358   0.048845  -0.012717   0.126641   0.224073  -0.046924
    44  H    0.000273   0.009541  -0.001254   0.113659  -0.141586   0.005711
    45  H   -0.000004   0.007577  -0.000051   0.124628  -0.017076  -0.000706
             19         20         21         22         23         24
     1  O   -0.000028   0.000102   0.000000   0.000000   0.000043  -0.000003
     2  C   -0.010872  -0.004527  -0.000037   0.000004   0.011592   0.003475
     3  C    0.005472   0.000834  -0.000127  -0.000001  -0.016026  -0.008340
     4  O   -0.000003  -0.000108   0.000000   0.000000   0.000377  -0.000193
     5  H    0.000000   0.000006   0.000000   0.000000  -0.000014  -0.000006
     6  C    0.022532   0.075603   0.000313  -0.000099  -0.183036  -0.003777
     7  O   -0.000016   0.002713  -0.000010   0.000000   0.006664  -0.024934
     8  H   -0.000009   0.001727  -0.000001   0.000000   0.013358  -0.003842
     9  C    0.000846   0.008067   0.000007  -0.000004  -0.002137   0.000478
    10  O   -0.000008   0.000163   0.000000   0.000000  -0.000010   0.000000
    11  H   -0.000002   0.000010   0.000000   0.000000   0.000000   0.000000
    12  C    0.006129  -0.030517   0.000150   0.000048  -0.011978   0.005211
    13  O    0.003613  -0.030063  -0.000140   0.000002   0.013663   0.001069
    14  C    0.020094  -0.221587   0.007023  -0.001617  -0.223926   0.036187
    15  O    0.032099   0.068961  -0.000964   0.000023  -0.074600  -0.008516
    16  C   -0.166202  -2.376404   0.007793  -0.014214  -0.032112   0.021089
    17  C    0.083204   0.400942  -0.075612  -0.000141  -0.184244   0.007413
    18  O    0.177267  -0.137567   0.006192  -0.000702   0.007593   0.000378
    19  H    0.399384   0.036933  -0.001341   0.000022  -0.006569  -0.000043
    20  C    0.036933   8.722975   0.186956   0.031521   0.042910  -0.008453
    21  O   -0.001341   0.186956   8.247586   0.194657   0.000044   0.000047
    22  H    0.000022   0.031521   0.194657   0.435934   0.000103   0.000000
    23  C   -0.006569   0.042910   0.000044   0.000103   6.636978   0.093557
    24  O   -0.000043  -0.008453   0.000047   0.000000   0.093557   8.483740
    25  H    0.000000   0.000223   0.000000   0.000000  -0.038481   0.212245
    26  C    0.010019   0.669238   0.014150   0.005083  -0.890616  -0.080539
    27  O    0.000030  -0.177449   0.006963  -0.000417  -0.105929   0.002565
    28  C   -0.000593  -1.320134  -0.061908  -0.002620  -0.099395   0.006358
    29  O    0.000030  -0.139657   0.000144   0.013840   0.004165  -0.000014
    30  H    0.000000  -0.010963  -0.003240  -0.001388  -0.000344  -0.000002
    31  H    0.000000   0.000000   0.000000   0.000000   0.000003   0.000000
    32  H    0.000338  -0.001309  -0.000007   0.000000   0.000028   0.000000
    33  H    0.000026   0.000202   0.000000   0.000000  -0.000002   0.000000
    34  H    0.000103   0.000470   0.000000   0.000000   0.000045   0.000006
    35  H    0.000003   0.000013   0.000000   0.000000  -0.000052   0.000010
    36  H    0.000001   0.000024   0.000000   0.000000   0.000049   0.000207
    37  H   -0.000033   0.000469   0.000000   0.000000   0.003702   0.001896
    38  H   -0.000101   0.013559   0.000003   0.000000   0.004295   0.000965
    39  H    0.000000  -0.000693  -0.000001   0.000000   0.410499  -0.054898
    40  H    0.000000   0.001338  -0.000023   0.000000   0.610493  -0.058017
    41  H    0.000031  -0.029508  -0.000407   0.000004  -0.017183   0.007196
    42  H   -0.000291   0.037530  -0.000512   0.000006   0.042745   0.002387
    43  H   -0.004719  -0.104765   0.003102  -0.000074   0.035314   0.000137
    44  H    0.000053   0.341763  -0.032957  -0.007971   0.014613   0.000021
    45  H    0.000006  -0.131171   0.000898  -0.000731  -0.003557   0.000037
             25         26         27         28         29         30
     1  O    0.000000   0.000076   0.000000   0.000005   0.000000   0.000000
     2  C   -0.000087   0.015705  -0.000197  -0.001188   0.000010   0.000000
     3  C    0.000644  -0.099872   0.000256  -0.000817   0.000035   0.000001
     4  O    0.000001  -0.000132   0.000001   0.000018   0.000000   0.000000
     5  H    0.000000   0.000076   0.000000   0.000000   0.000000   0.000000
     6  C   -0.000258  -0.204289   0.004734  -0.006975  -0.000578   0.000008
     7  O    0.002392  -0.004466   0.000375   0.000505  -0.000003   0.000000
     8  H   -0.000695  -0.027018   0.000026  -0.000315  -0.000001   0.000000
     9  C   -0.000011   0.001122  -0.000056  -0.002846  -0.000007   0.000000
    10  O    0.000000  -0.000121   0.000000  -0.000015   0.000000   0.000000
    11  H    0.000000   0.000001   0.000000   0.000000   0.000000   0.000000
    12  C   -0.000192   0.029035  -0.001091   0.000463   0.000079  -0.000001
    13  O    0.000014  -0.046531  -0.000056   0.004799   0.000030   0.000000
    14  C   -0.001526  -1.349197  -0.045149  -0.062195  -0.000667   0.000287
    15  O    0.001535  -0.014275   0.004095   0.006378   0.000056   0.000002
    16  C   -0.001670  -4.408737  -0.151451   0.960758   0.005157  -0.000460
    17  C   -0.002685   0.844747  -0.003662   0.062939  -0.024576   0.013233
    18  O   -0.000001   0.038368   0.001399   0.001774  -0.000061  -0.000052
    19  H    0.000000   0.010019   0.000030  -0.000593   0.000030   0.000000
    20  C    0.000223   0.669238  -0.177449  -1.320134  -0.139657  -0.010963
    21  O    0.000000   0.014150   0.006963  -0.061908   0.000144  -0.003240
    22  H    0.000000   0.005083  -0.000417  -0.002620   0.013840  -0.001388
    23  C   -0.038481  -0.890616  -0.105929  -0.099395   0.004165  -0.000344
    24  O    0.212245  -0.080539   0.002565   0.006358  -0.000014  -0.000002
    25  H    0.395897   0.050014  -0.000213  -0.000741  -0.000001   0.000000
    26  C    0.050014  12.350030   0.366806  -0.790284  -0.042329   0.000070
    27  O   -0.000213   0.366806   8.419236   0.143994  -0.074964  -0.002151
    28  C   -0.000741  -0.790284   0.143994   6.064652   0.394015   0.009338
    29  O   -0.000001  -0.042329  -0.074964   0.394015   8.252313   0.235290
    30  H    0.000000   0.000070  -0.002151   0.009338   0.235290   0.407342
    31  H    0.000000  -0.000005   0.000000   0.000000   0.000000   0.000000
    32  H    0.000000   0.000137   0.000000   0.000096   0.000000   0.000000
    33  H    0.000000  -0.000447   0.000000  -0.000014   0.000000   0.000000
    34  H    0.000000  -0.000545   0.000000  -0.000038   0.000000   0.000000
    35  H    0.000000  -0.000400   0.000000  -0.000005   0.000000   0.000000
    36  H    0.000000  -0.000591  -0.000001  -0.000020   0.000000   0.000000
    37  H    0.000011  -0.008076   0.000005   0.000012   0.000000   0.000000
    38  H    0.000012   0.012836   0.000241  -0.001580  -0.000004   0.000000
    39  H   -0.007139  -0.051935   0.000552  -0.000002   0.000109  -0.000002
    40  H   -0.004427  -0.262977  -0.004086   0.005811  -0.000655   0.000001
    41  H   -0.000218   0.162663  -0.050372   0.041794  -0.001979   0.000021
    42  H   -0.000008  -0.110850   0.006412  -0.000975  -0.000754   0.000002
    43  H    0.000000  -0.052649   0.002734  -0.011293  -0.000105   0.000008
    44  H    0.000000  -0.020491   0.004519  -0.029831  -0.003993   0.000209
    45  H    0.000000  -0.099419  -0.061558   0.475110  -0.054241  -0.007902
             31         32         33         34         35         36
     1  O    0.238291  -0.000105   0.003895   0.009807  -0.035789   0.001118
     2  C    0.068651  -0.006197   0.000179   0.023850   0.397057   0.040035
     3  C   -0.012723  -0.004921  -0.006803  -0.043492  -0.052639   0.163719
     4  O    0.000158   0.000030  -0.000004   0.000072   0.003148  -0.046865
     5  H   -0.001433   0.000000   0.000000   0.000063  -0.000081  -0.009279
     6  C   -0.002664   0.000573   0.017872  -0.009873  -0.013783  -0.144398
     7  O   -0.000015  -0.000018   0.000002  -0.000079   0.000126   0.011421
     8  H    0.000000   0.000000   0.000000   0.000004  -0.000003  -0.000212
     9  C   -0.022303   0.385356   0.667650   0.056060   0.022758   0.050409
    10  O    0.000257  -0.041903  -0.067432   0.007340   0.000336   0.000010
    11  H   -0.000050  -0.010543  -0.000236  -0.000152   0.000002   0.000001
    12  C   -0.013475   0.006629  -0.331077   0.137384  -0.108290   0.026521
    13  O   -0.001386  -0.006371   0.010081  -0.023303   0.013337   0.013215
    14  C    0.003398  -0.007915   0.003523   0.088940   0.037244   0.079724
    15  O   -0.000015  -0.000380  -0.000138  -0.001048  -0.000074  -0.000241
    16  C    0.000317   0.011230  -0.004726   0.001591  -0.006761  -0.010871
    17  C   -0.000043  -0.001658  -0.000395   0.003305   0.001032   0.002362
    18  O    0.000000  -0.001013   0.000194   0.000236   0.000057   0.000153
    19  H    0.000000   0.000338   0.000026   0.000103   0.000003   0.000001
    20  C    0.000000  -0.001309   0.000202   0.000470   0.000013   0.000024
    21  O    0.000000  -0.000007   0.000000   0.000000   0.000000   0.000000
    22  H    0.000000   0.000000   0.000000   0.000000   0.000000   0.000000
    23  C    0.000003   0.000028  -0.000002   0.000045  -0.000052   0.000049
    24  O    0.000000   0.000000   0.000000   0.000006   0.000010   0.000207
    25  H    0.000000   0.000000   0.000000   0.000000   0.000000   0.000000
    26  C   -0.000005   0.000137  -0.000447  -0.000545  -0.000400  -0.000591
    27  O    0.000000   0.000000   0.000000   0.000000   0.000000  -0.000001
    28  C    0.000000   0.000096  -0.000014  -0.000038  -0.000005  -0.000020
    29  O    0.000000   0.000000   0.000000   0.000000   0.000000   0.000000
    30  H    0.000000   0.000000   0.000000   0.000000   0.000000   0.000000
    31  H    0.388085  -0.000005  -0.000053  -0.000102  -0.011133  -0.000104
    32  H   -0.000005   0.588904  -0.048839  -0.006409   0.000055   0.000001
    33  H   -0.000053  -0.048839   0.613218   0.005960   0.003214  -0.000016
    34  H   -0.000102  -0.006409   0.005960   0.598337   0.004735   0.005102
    35  H   -0.011133   0.000055   0.003214   0.004735   0.597371   0.006990
    36  H   -0.000104   0.000001  -0.000016   0.005102   0.006990   0.682001
    37  H    0.000006   0.000002  -0.000016   0.000002   0.004030   0.008346
    38  H    0.000001  -0.000004  -0.000018   0.004742  -0.000029   0.004262
    39  H    0.000000   0.000000   0.000000   0.000000   0.000000   0.000000
    40  H    0.000000   0.000000   0.000000   0.000000   0.000000   0.000000
    41  H    0.000000   0.000000   0.000000   0.000000   0.000000   0.000000
    42  H    0.000000  -0.000001   0.000000   0.000004   0.000000  -0.000006
    43  H    0.000000   0.000000   0.000000   0.000000   0.000000   0.000000
    44  H    0.000000   0.000000   0.000000   0.000000   0.000000   0.000000
    45  H    0.000000   0.000000   0.000000   0.000000   0.000000   0.000000
             37         38         39         40         41         42
     1  O   -0.000308   0.000090   0.000000   0.000000   0.000000  -0.000001
     2  C    0.107925   0.036939  -0.000008   0.000051  -0.000064   0.000457
     3  C   -0.216311  -0.037502  -0.000044   0.000145   0.000474   0.000543
     4  O    0.005298  -0.000352   0.000000   0.000000   0.000000   0.000010
     5  H   -0.000195   0.000004   0.000000   0.000000   0.000000   0.000000
     6  C    0.253492  -0.106919   0.000262  -0.001213   0.006316   0.009495
     7  O   -0.038326   0.001879  -0.000494   0.000360   0.000003  -0.000591
     8  H   -0.007729  -0.001178   0.000068   0.000286   0.000071   0.000032
     9  C    0.012720   0.005913   0.000000  -0.000001   0.000055   0.000253
    10  O    0.000007   0.000064   0.000000   0.000000   0.000000   0.000002
    11  H    0.000000   0.000000   0.000000   0.000000   0.000000   0.000000
    12  C   -0.014133  -0.032190   0.000057  -0.000086   0.000089   0.001324
    13  O    0.013796  -0.062965  -0.000010   0.000025  -0.000163   0.000220
    14  C    0.098685   0.402022   0.007749  -0.009088   0.041748   0.006560
    15  O   -0.010130  -0.071196  -0.000483   0.000358   0.001958  -0.067462
    16  C    0.009510   0.007938   0.025701   0.017287   0.069320   0.343903
    17  C    0.006208   0.040993  -0.006532   0.009551  -0.000909  -0.046671
    18  O    0.000198  -0.000461   0.000027   0.000015  -0.000228  -0.000816
    19  H   -0.000033  -0.000101   0.000000   0.000000   0.000031  -0.000291
    20  C    0.000469   0.013559  -0.000693   0.001338  -0.029508   0.037530
    21  O    0.000000   0.000003  -0.000001  -0.000023  -0.000407  -0.000512
    22  H    0.000000   0.000000   0.000000   0.000000   0.000004   0.000006
    23  C    0.003702   0.004295   0.410499   0.610493  -0.017183   0.042745
    24  O    0.001896   0.000965  -0.054898  -0.058017   0.007196   0.002387
    25  H    0.000011   0.000012  -0.007139  -0.004427  -0.000218  -0.000008
    26  C   -0.008076   0.012836  -0.051935  -0.262977   0.162663  -0.110850
    27  O    0.000005   0.000241   0.000552  -0.004086  -0.050372   0.006412
    28  C    0.000012  -0.001580  -0.000002   0.005811   0.041794  -0.000975
    29  O    0.000000  -0.000004   0.000109  -0.000655  -0.001979  -0.000754
    30  H    0.000000   0.000000  -0.000002   0.000001   0.000021   0.000002
    31  H    0.000006   0.000001   0.000000   0.000000   0.000000   0.000000
    32  H    0.000002  -0.000004   0.000000   0.000000   0.000000  -0.000001
    33  H   -0.000016  -0.000018   0.000000   0.000000   0.000000   0.000000
    34  H    0.000002   0.004742   0.000000   0.000000   0.000000   0.000004
    35  H    0.004030  -0.000029   0.000000   0.000000   0.000000   0.000000
    36  H    0.008346   0.004262   0.000000   0.000000   0.000000  -0.000006
    37  H    0.623116   0.005363   0.000000   0.000001  -0.000002   0.000004
    38  H    0.005363   0.636741   0.000001   0.000004  -0.000009   0.014713
    39  H    0.000000   0.000001   0.598907  -0.047903  -0.011865  -0.000082
    40  H    0.000001   0.000004  -0.047903   0.577086   0.006353   0.002019
    41  H   -0.000002  -0.000009  -0.011865   0.006353   0.620980   0.006493
    42  H    0.000004   0.014713  -0.000082   0.002019   0.006493   0.618516
    43  H   -0.000004  -0.000055   0.000000  -0.000007   0.004415   0.006654
    44  H    0.000000  -0.000054   0.000001  -0.000016   0.000010   0.002829
    45  H    0.000000   0.000000   0.000058  -0.000022   0.005404   0.000013
             43         44         45
     1  O    0.000000   0.000000   0.000000
     2  C    0.000389  -0.000022  -0.000006
     3  C   -0.000118   0.000006  -0.000001
     4  O    0.000000   0.000000   0.000000
     5  H    0.000000   0.000000   0.000000
     6  C    0.003855   0.000770   0.000240
     7  O    0.000002   0.000003   0.000000
     8  H    0.000001   0.000000   0.000000
     9  C   -0.000002   0.000011   0.000003
    10  O    0.000000   0.000000   0.000000
    11  H    0.000000   0.000000   0.000000
    12  C    0.000880   0.000187   0.000005
    13  O    0.002358   0.000273  -0.000004
    14  C    0.048845   0.009541   0.007577
    15  O   -0.012717  -0.001254  -0.000051
    16  C    0.126641   0.113659   0.124628
    17  C    0.224073  -0.141586  -0.017076
    18  O   -0.046924   0.005711  -0.000706
    19  H   -0.004719   0.000053   0.000006
    20  C   -0.104765   0.341763  -0.131171
    21  O    0.003102  -0.032957   0.000898
    22  H   -0.000074  -0.007971  -0.000731
    23  C    0.035314   0.014613  -0.003557
    24  O    0.000137   0.000021   0.000037
    25  H    0.000000   0.000000   0.000000
    26  C   -0.052649  -0.020491  -0.099419
    27  O    0.002734   0.004519  -0.061558
    28  C   -0.011293  -0.029831   0.475110
    29  O   -0.000105  -0.003993  -0.054241
    30  H    0.000008   0.000209  -0.007902
    31  H    0.000000   0.000000   0.000000
    32  H    0.000000   0.000000   0.000000
    33  H    0.000000   0.000000   0.000000
    34  H    0.000000   0.000000   0.000000
    35  H    0.000000   0.000000   0.000000
    36  H    0.000000   0.000000   0.000000
    37  H   -0.000004   0.000000   0.000000
    38  H   -0.000055  -0.000054   0.000000
    39  H    0.000000   0.000001   0.000058
    40  H   -0.000007  -0.000016  -0.000022
    41  H    0.004415   0.000010   0.005404
    42  H    0.006654   0.002829   0.000013
    43  H    0.631738   0.006124   0.003015
    44  H    0.006124   0.579235   0.004552
    45  H    0.003015   0.004552   0.617541
 Mulliken atomic charges:
              1
     1  O   -0.529413
     2  C    0.014895
     3  C   -0.100022
     4  O   -0.465131
     5  H    0.351404
     6  C   -0.093296
     7  O   -0.528762
     8  H    0.442546
     9  C   -0.055813
    10  O   -0.587334
    11  H    0.370635
    12  C    0.195793
    13  O   -0.423913
    14  C    0.301800
    15  O   -0.315326
    16  C   -0.068708
    17  C   -0.051462
    18  O   -0.484208
    19  H    0.392594
    20  C    0.079625
    21  O   -0.498743
    22  H    0.348732
    23  C   -0.062620
    24  O   -0.635096
    25  H    0.395366
    26  C   -0.003384
    27  O   -0.286144
    28  C    0.214964
    29  O   -0.560685
    30  H    0.360693
    31  H    0.366339
    32  H    0.144217
    33  H    0.134197
    34  H    0.136883
    35  H    0.137520
    36  H    0.116934
    37  H    0.140460
    38  H    0.121035
    39  H    0.138098
    40  H    0.157340
    41  H    0.137509
    42  H    0.125893
    43  H    0.133145
    44  H    0.154086
    45  H    0.137356
 Sum of Mulliken atomic charges =   0.00000
 Mulliken charges with hydrogens summed into heavy atoms:
              1
     1  O   -0.163074
     2  C    0.152415
     3  C    0.016912
     4  O   -0.113727
     6  C    0.047163
     7  O   -0.086216
     9  C    0.222602
    10  O   -0.216698
    12  C    0.332676
    13  O   -0.423913
    14  C    0.422835
    15  O   -0.315326
    16  C    0.057185
    17  C    0.081682
    18  O   -0.091613
    20  C    0.233711
    21  O   -0.150010
    23  C    0.232817
    24  O   -0.239730
    26  C    0.134124
    27  O   -0.286144
    28  C    0.352320
    29  O   -0.199992
 Sum of Mulliken charges with hydrogens summed into heavy atoms =   0.00000
 APT atomic charges:
              1
     1  O   -0.641624
     2  C    0.376746
     3  C    0.414794
     4  O   -0.617897
     5  H    0.261124
     6  C    0.371233
     7  O   -0.711835
     8  H    0.453524
     9  C    0.513433
    10  O   -0.659308
    11  H    0.254747
    12  C    0.476414
    13  O   -0.910862
    14  C    0.940360
    15  O   -0.850366
    16  C    0.409537
    17  C    0.373487
    18  O   -0.672380
    19  H    0.358512
    20  C    0.373441
    21  O   -0.584610
    22  H    0.246230
    23  C    0.480868
    24  O   -0.678343
    25  H    0.258223
    26  C    0.443977
    27  O   -0.764954
    28  C    0.894205
    29  O   -0.672155
    30  H    0.261199
    31  H    0.271680
    32  H   -0.038022
    33  H   -0.052877
    34  H   -0.041727
    35  H   -0.033618
    36  H   -0.064923
    37  H   -0.045799
    38  H   -0.057803
    39  H   -0.059892
    40  H   -0.031355
    41  H   -0.059102
    42  H   -0.028968
    43  H   -0.055913
    44  H   -0.026345
    45  H   -0.073057
 Sum of APT charges=   0.00000
 APT Atomic charges with hydrogens summed into heavy atoms:
              1
[...]
 1804,-0.00309330,0.01083546,-0.35189346,0.00495883,-0.03868301,-0.0104
 5826,-0.00008926,-0.00440772,0.00171594,-0.00041619,0.00091250,-0.0004
 2400,-0.00012905,0.00007381,-0.00043076,-0.00012746,0.00075445,0.00048
 603,-0.00008411,0.00011788,-0.00000703,0.00006751,-0.00010738,0.000308
 29,0.00021776,-0.00017288,0.00031873,-0.00001716,0.00005025,0.00003513
 ,-0.00004152,0.00002830,-0.00815050,-0.00009358,-0.00166218,0.00170218
 ,0.00056313,-0.00052925,-0.00017573,-0.00013358,-0.00013136,0.00007635
 ,0.00000699,-0.00007851,0.00000660,-0.00000537,-0.00000796,-0.00000146
 ,-0.00000358,-0.00000271,-0.00000683,0.00001001,-0.00000214,0.00001492
 ,0.00000100,-0.00001492,0.00002623,0.00001140,0.00003676,0.00000970,-0
 .00000018,-0.00001223,0.00001576,-0.00000234,0.00002918,0.00003503,0.0
 0025917,-0.00035919,0.00215052,0.00034931,0.00041369,0.00010893,0.0000
 2916,0.00001060,0.00008384,-0.00058106,-0.00015764,0.00047494,-0.00054
 241,-0.00039422,0.38016158,0.00000789,-0.00002146,0.00003567,-0.000012
 54,0.00003384,-0.00002846,0.00003616,0.00004577,-0.00003467,0.00000794
 ,-0.00004557,0.00000657,-0.00000703,0.00000741,-0.00000285,-0.00021601
 ,0.00019091,0.00001923,0.00020923,-0.00013203,-0.00029646,-0.00027392,
 -0.00013507,0.00020503,0.00001591,-0.00002908,-0.00001366,-0.00000850,
 0.00002890,0.00003405,0.00000541,-0.00000361,-0.00000387,-0.00002873,0
 .00001155,-0.00009782,0.00020778,0.00002095,0.00028269,-0.00064000,0.0
 0117951,-0.00123024,-0.01039887,0.00047043,0.00359183,0.00616887,-0.04
 525131,-0.00062647,0.03394209,-0.00103462,0.00768866,-0.00254746,0.002
 96820,-0.00012436,0.00036550,-0.00006867,-0.00024687,0.00124506,0.0010
 3889,-0.00091224,-0.00046769,-0.00014185,-0.00013831,-0.00013798,-0.00
 001427,0.00004198,-0.00033436,0.00127852,0.00073606,0.00024838,-0.0001
 5114,0.00011133,0.00006069,-0.00002352,0.00006405,-0.02723783,0.000230
 32,-0.00495545,0.00175117,0.00099685,0.00156532,0.00021562,-0.00049660
 ,0.00000095,-0.00006029,0.00010844,0.00004919,-0.00000883,0.00001796,-
 0.00000692,0.00000117,-0.00000021,-0.00000532,0.00000932,-0.00001448,0
 .00000005,-0.00000636,-0.00000123,0.00000562,-0.00000561,0.00001136,-0
 .00000307,0.00000105,-0.00000516,0.00000039,0.00000032,0.00000959,0.00
 001093,0.00007406,-0.00002009,-0.00003371,0.00011120,0.00052767,0.0001
 0579,0.00024950,0.00030174,0.00001474,0.00039157,-0.00017376,-0.000125
 40,-0.00146748,-0.00254340,-0.00360876,-0.00222723,0.04626494,-0.00000
 540,-0.00001395,-0.00003146,-0.00000060,0.00000731,0.00003597,0.000004
 12,0.00004061,0.00003400,-0.00002810,-0.00000921,-0.00001328,0.0000022
 1,0.00000221,-0.00000294,0.00032618,0.00005920,-0.00036478,-0.00024855
 ,-0.00001723,0.00013893,0.00020114,-0.00010514,-0.00005173,-0.00002977
 ,0.00002731,-0.00002550,-0.00000270,-0.00003189,-0.00000902,0.00000346
 ,-0.00000129,-0.00000641,0.00000212,-0.00008104,-0.00005535,-0.0011594
 0,-0.00030409,-0.00021855,0.00962015,0.00151589,0.00089606,0.03396709,
 0.00428410,-0.01548018,-0.04678156,-0.00144913,-0.04657808,-0.01134256
 ,-0.00068018,-0.00091505,0.00115496,0.00010804,0.00084209,0.00007199,0
 .00030139,-0.00008620,-0.00135890,0.00017547,0.00028488,0.00032892,-0.
 00001979,0.00000438,-0.00000052,-0.00001620,-0.00003422,0.00035459,0.0
 0080566,0.00064362,0.00007369,-0.00026981,0.00021727,-0.00002917,-0.00
 000896,0.00007639,-0.02431393,0.00014275,-0.00263931,0.00124925,0.0004
 7400,0.00199049,-0.00043058,0.00015360,-0.00025467,0.00011641,0.000024
 79,-0.00016485,0.00001689,0.00000359,0.00000672,0.00000042,0.00000492,
 0.00000331,-0.00000142,-0.00001105,-0.00000368,-0.00000068,0.00000613,
 0.00000534,-0.00001686,-0.00002076,-0.00006220,-0.00000927,0.00001173,
 0.00001407,-0.00006451,-0.00002266,-0.00005732,-0.00029701,-0.00006896
 ,0.00001519,-0.00095337,0.00010241,-0.00163259,0.00012928,0.00021510,0
 .00000349,0.00037077,-0.00027458,-0.00005990,-0.00116155,-0.00251825,-
 0.00322217,0.04031562,-0.00471007,0.06723160,0.00000185,0.00001914,-0.
 00007077,-0.00002644,-0.00002159,0.00004184,0.00000931,-0.00004185,0.0
 0003949,-0.00000422,0.00005427,-0.00004180,0.00000101,-0.00000949,0.00
 000849,0.00009284,-0.00007155,0.00000362,0.00003947,0.00013464,0.00005
 324,-0.00006620,-0.00008870,-0.00011821,-0.00002269,0.00000299,0.00011
 699,0.00000483,-0.00003818,-0.00009553,-0.00001108,0.00001245,0.000021
 25,0.00002870,0.00006260,0.00013009,-0.00003098,0.00022245,-0.00026296
 ,0.00005661,-0.00032269,-0.00010824,0.00163758,0.00012472,-0.00034955,
 -0.01331096,0.00097004,-0.00115950,-0.34483233,-0.01002284,-0.05019558
 ,0.00198720,-0.00772527,-0.00906472,-0.00015620,-0.00077935,0.00042013
 ,-0.01919771,0.00058138,-0.00092736,0.00193291,0.00062253,-0.00072193,
 0.00036756,0.00011718,-0.00015403,0.00073289,0.00028061,-0.00003572,0.
 00008817,-0.00014615,0.00018462,-0.00001640,0.00000211,0.00001691,-0.0
 0096483,-0.00182760,-0.00089414,0.00049678,0.00064111,0.00042110,-0.00
 183761,-0.00110616,-0.00139190,0.00091455,0.00005562,0.00009307,-0.000
 03159,0.00004715,0.00019958,-0.00000831,-0.00000410,0.00001153,0.00001
 337,0.00004515,-0.00000193,0.00000738,0.00000241,-0.00000936,0.0000006
 0,-0.00000758,0.00000060,0.00000379,-0.00000046,-0.00000751,0.00001394
 ,0.00000112,0.00000267,0.00000274,0.00002576,-0.00003855,0.00012379,0.
 00000301,0.00021020,-0.00003736,0.00013379,0.00003162,0.00008542,-0.00
 030490,-0.00002592,0.00150548,0.00025369,0.00070313,0.00027156,0.00156
 830,-0.00063146,0.36934113,-0.00000406,0.00003249,-0.00006373,-0.00003
 036,-0.00004602,0.00002968,0.00001888,-0.00001851,-0.00001213,-0.00001
 574,0.00004707,-0.00001561,0.00000888,-0.00001148,0.00000245,-0.000118
 51,-0.00008075,-0.00006508,-0.00006361,0.00006723,0.00010196,0.0000614
 5,0.00002671,-0.00008531,-0.00002413,-0.00002218,0.00017527,0.00000523
 ,-0.00003438,-0.00012037,-0.00001558,0.00001561,0.00002666,0.00005212,
 0.00010312,0.00010301,-0.00005281,0.00050781,-0.00032354,0.00028037,-0
 .00024872,-0.00017325,-0.00153911,0.00161433,-0.00138137,0.03294001,-0
 .00406222,0.00554924,-0.01241579,-0.03847514,0.00364517,-0.02798587,-0
 .01277479,-0.02099193,-0.00067636,-0.00047794,0.00105242,-0.00998568,0
 .00097197,-0.00008616,-0.00023332,0.00069645,-0.00059233,0.00017547,0.
 00006948,-0.00026448,-0.00014779,0.00012547,0.00017942,-0.00004764,-0.
 00000244,-0.00004198,-0.00001418,0.00000450,-0.00002232,0.00298941,0.0
 0059235,0.00133198,-0.00046219,-0.00005942,-0.00003054,0.00064450,0.00
 001024,-0.00088699,0.00017668,-0.00011093,0.00013530,0.00001000,0.0000
 6812,0.00005727,-0.00000519,-0.00000345,0.00000832,0.00000406,0.000072
 20,0.00000863,0.00001188,0.00001555,-0.00002222,-0.00000374,-0.0000204
 0,-0.00000321,-0.00000071,-0.00000009,-0.00000147,0.00000248,-0.000002
 54,-0.00000097,-0.00001579,-0.00001476,0.00002878,-0.00024868,-0.00004
 809,-0.00006453,-0.00004290,-0.00006310,0.00002352,-0.00012360,0.00010
 518,0.00002283,-0.00067012,-0.00081189,-0.00041902,0.00135151,-0.00517
 805,0.00188737,0.01659225,0.05739475,0.00000553,0.00002245,-0.00006366
 ,-0.00004348,-0.00002972,0.00003112,0.00001096,-0.00006127,0.00002850,
 0.00000026,0.00004628,-0.00001939,0.00000269,-0.00001008,0.00000775,0.
 00003468,-0.00000560,0.00007790,0.00003965,0.00008845,0.00000379,-0.00
 005680,-0.00003118,-0.00002268,-0.00005202,-0.00002977,0.00015365,0.00
 002078,-0.00002773,-0.00010268,-0.00001600,0.00001172,0.00002571,0.000
 03674,0.00009635,0.00010447,0.00011201,0.00035327,-0.00038367,-0.00040
 272,-0.00062045,-0.00045489,0.00065916,-0.00115397,0.00169318,-0.01571
 317,0.00313497,-0.00097390,-0.05250023,0.00450049,-0.05112144,-0.02574
 623,-0.01754244,-0.01518027,-0.00140467,-0.00061016,0.00056540,0.03227
 433,0.00190716,0.00242783,-0.00124837,-0.00134133,0.00171372,-0.000089
 71,-0.00046779,0.00036860,0.00033564,0.00014253,-0.00008067,0.00004280
 ,-0.00005709,0.00006935,0.00000267,-0.00000680,0.00001099,0.00020220,-
 0.00187902,-0.00013776,-0.00028362,-0.00001309,-0.00004507,0.00182009,
 0.00020223,0.00029268,-0.00039544,-0.00002701,0.00002494,-0.00009318,-
 0.00008702,-0.00001382,-0.00000827,-0.00000379,0.00000637,0.00000320,0
 .00006348,0.00000492,0.00002301,0.00001140,-0.00003282,0.00000768,-0.0
 0001462,0.00000351,0.00000595,-0.00000109,-0.00000835,0.00001264,0.000
 00066,0.00000482,0.00001757,0.00003249,-0.00003193,0.00020344,0.000016
 14,0.00002196,0.00000155,0.00008609,0.00000182,0.00003088,-0.00012858,
 -0.00004598,0.00060482,-0.00010637,0.00035198,-0.00068721,0.00221718,-
 0.00048430,0.06050283,0.00983874,0.06658943,0.00000339,-0.00000576,-0.
 00002185,-0.00000175,0.00000395,0.00001564,-0.00000562,-0.00001338,0.0
 0002021,0.00000495,0.00000943,-0.00001997,-0.00000286,0.00000010,0.000
 00466,0.00002544,-0.00000557,0.00001781,0.00002006,0.00001539,-0.00001
 401,-0.00001761,-0.00001516,0.00000111,-0.00001336,0.00000866,0.000010
 85,0.00001320,-0.00001306,-0.00001246,-0.00000783,0.00000244,0.0000021
 1,-0.00000748,0.00000804,0.00003711,0.00004129,-0.00003204,-0.00005282
 ,-0.00012893,0.00000236,0.00009770,0.00051404,-0.00001526,0.00002530,-
 0.00062515,0.00094271,-0.00047707,-0.01361202,-0.00326083,-0.00189538,
 0.00174292,0.00048092,-0.00025821,0.00012322,0.00002863,-0.00006902,-0
 .35861418,-0.03133800,-0.03625441,-0.00957170,0.00857012,-0.00471127,0
 .00054011,0.00051287,0.00039977,-0.00000760,-0.00000540,-0.00000635,0.
 00002893,0.00001281,0.00000479,-0.00001179,-0.00000694,0.00000341,-0.0
 0011844,-0.00010582,-0.00014748,0.00105687,-0.00103736,0.00033272,-0.0
 0703047,0.00035390,0.00109882,0.00148504,0.00027082,0.00067908,0.00032
 293,0.00030962,0.00029974,-0.00000331,0.00000151,0.00000342,-0.0000088
 9,0.00000429,-0.00000159,0.00000790,0.00000240,-0.00000692,0.00000653,
 -0.00000320,0.00000482,0.00000288,0.00000105,-0.00000345,0.00000650,0.
 00000204,0.00000050,0.00000494,0.00000905,-0.00001079,0.00004287,-0.00
 001592,0.00003051,0.00001707,0.00000303,0.00000346,0.00001642,-0.00005
 179,-0.00000809,0.00009273,0.00016914,0.00004731,0.00072897,-0.0006440
 4,0.00037400,-0.00025748,-0.00062205,0.00183331,0.38286688,0.00000159,
 -0.00000207,0.00001562,0.00000116,0.00000274,-0.00000985,-0.00000541,0
 .00000529,-0.00000516,0.00000559,-0.00000909,0.00000808,-0.00000253,0.
 00000216,-0.00000127,0.00000609,0.00001026,0.00000251,0.00001625,-0.00
 000622,-0.00000006,-0.00001333,-0.00000389,-0.00001101,0.00000282,-0.0
 0000031,-0.00002381,-0.00000408,0.00000941,0.00002101,0.00000588,-0.00
 000310,-0.00000520,-0.00000268,-0.00000846,-0.00002292,0.00002243,-0.0
 0003143,0.00004764,-0.00006409,0.00004482,-0.00001419,0.00022198,-0.00
 005338,0.00004555,-0.00108301,0.00045120,-0.00013502,-0.00805414,-0.00
 028190,-0.00196546,0.00090951,0.00053774,0.00035283,-0.00004913,-0.000
 01676,-0.00010714,-0.03330241,-0.04503972,-0.00450818,0.03837122,-0.01
 131789,0.00858987,0.00058652,0.00147458,-0.00106152,-0.00006079,0.0000
 3788,-0.00002147,0.00002122,-0.00004365,0.00003131,-0.00000534,0.00000
 605,0.00000581,-0.00015112,-0.00013917,-0.00006373,0.00146296,0.001477
 78,0.00053658,-0.02524303,-0.00055627,-0.00264959,0.00125031,0.0010754
 6,0.00202928,0.00004135,0.00007866,0.00038016,0.00000092,0.00000007,-0
 .00000301,0.00000320,-0.00000856,0.00000060,-0.00000192,-0.00000367,0.
 00000342,0.00000053,0.00000440,0.00000088,0.00000085,-0.00000085,0.000
 00044,-0.00000091,0.00000088,0.00000072,0.00000284,0.00000214,-0.00000
 410,0.00002095,0.00000097,0.00002121,0.00001020,-0.00001749,-0.0000052
 1,0.00001580,-0.00005839,-0.00000387,0.00015449,0.00008177,0.00000348,
 0.00014765,-0.00014115,0.00031733,-0.00048519,-0.00020168,0.00170482,0
 .02578979,0.05538873,-0.00000152,-0.00000727,0.00000628,-0.00000017,0.
 00000720,-0.00000629,0.00000716,0.00002105,-0.00000210,-0.00000188,-0.
 00001070,-0.00000065,0.00000015,0.00000308,-0.00000311,-0.00002532,-0.
 00001612,-0.00001970,-0.00001170,-0.00001225,-0.00000600,0.00000868,-0
 .00000591,0.00000688,0.00001014,0.00001097,-0.00002097,-0.00000922,-0.
 00000215,0.00001534,0.00000546,-0.00000192,-0.00000777,0.00001598,-0.0
 0000628,-0.00000706,-0.00000441,-0.00008969,0.00002222,0.00010673,0.00
 017469,0.00011772,-0.00056681,-0.00005684,-0.00030472,0.00106708,-0.00
 138972,0.00117275,0.03112985,0.00440683,0.00412109,-0.00222932,-0.0000
 9194,0.00239840,-0.00017802,0.00022868,0.00021972,-0.03362615,-0.00489
 618,-0.04849826,-0.01170562,0.00581968,-0.00023156,-0.00110172,-0.0002
 7487,0.00052202,0.00000028,-0.00000800,0.00008667,-0.00000248,-0.00002
 661,0.00001159,-0.00000564,-0.00000258,0.00000752,0.00044164,0.0001480
 1,-0.00047006,0.00146949,0.00003866,0.00083738,-0.02468997,-0.00392163
 ,-0.00387269,0.00029225,0.00089392,0.00244513,-0.00001657,0.00020505,0
 .00049225,0.00000121,0.00000192,-0.00000219,0.00000196,-0.00000992,0.0
 0000230,-0.00000594,-0.00000237,0.00000618,-0.00000730,0.00000402,-0.0
 0000887,-0.00000219,-0.00000052,0.00000318,-0.00000677,0.00000084,-0.0
 0000181,-0.00000134,-0.00000833,0.00001053,-0.00004263,0.00001184,-0.0
 0004423,-0.00000279,0.00002031,0.00000215,-0.00002178,0.00002271,0.000
 00890,-0.00018980,-0.00000431,-0.00012953,-0.00048046,0.00043590,-0.00
 012584,0.00251851,0.00145893,-0.00486402,0.03874990,-0.00055193,0.0489
 9226,0.00000452,-0.00000895,-0.00001372,-0.00000523,0.00000809,0.00000
 682,-0.00000011,-0.00000134,0.00001048,0.00000489,-0.00000162,-0.00001
 512,-0.00000315,0.00000183,0.00000342,-0.00002609,0.00001939,0.0000120
 1,0.00001422,-0.00002753,-0.00005519,-0.00000192,0.00001570,0.00007004
 ,-0.00001025,0.00000804,-0.00000357,0.00000867,-0.00000900,-0.00000117
 ,-0.00000444,0.00000123,-0.00000092,0.00000108,0.00000122,0.00001401,0
 .00001858,-0.00005186,-0.00003353,0.00000126,0.00006487,0.00006562,0.0
 0002129,-0.00006958,-0.00017713,0.00013785,0.00040043,0.00017393,-0.00
 093552,-0.00040647,0.00052182,0.00052250,0.00014892,0.00018099,-0.0000
 1681,0.00000117,-0.00010701,-0.00795626,0.00242945,-0.00296049,0.00210
 430,0.00030869,0.00173329,-0.00033822,-0.00011057,-0.00012215,0.000375
 68,-0.00025669,-0.00018161,0.00001911,0.00020465,-0.00013285,-0.000010
 29,-0.00000719,-0.00002640,0.00007548,-0.00004724,0.00021301,-0.000059
 82,0.00916022,-0.00369917,-0.33587967,0.01252776,-0.08514550,-0.020047
 39,-0.00197730,0.00523663,0.00027387,0.00011046,0.00019694,-0.00000349
 ,0.00000184,0.00000203,-0.00000424,-0.00000158,0.00000016,0.00000466,0
 .00000086,-0.00000303,0.00000276,-0.00000065,0.00000047,0.00000231,0.0
 0000041,-0.00000152,0.00000268,0.00000160,0.00000074,0.00000704,-0.000
 00155,-0.00000258,0.00000786,-0.00000212,-0.00000426,-0.00001110,0.000
 01835,0.00000162,0.00001735,-0.00025857,0.00005887,0.00020940,0.000466
 69,-0.00110464,0.00001414,-0.00016349,0.00018462,0.00105095,0.00024034
 ,-0.00010593,0.00033041,-0.00054501,-0.00088895,0.36008114,-0.00000093
 ,0.00001780,0.00001805,0.00000630,-0.00001623,-0.00000703,-0.00001291,
 -0.00000165,-0.00001349,0.00000004,0.00000739,0.00001733,0.00000063,-0
 .00000263,-0.00000292,0.00003671,-0.00005139,-0.00002266,0.00000163,0.
 00007467,0.00011892,-0.00002224,-0.00005834,-0.00016877,-0.00000008,-0
 .00001890,0.00001246,0.00000598,0.00001524,-0.00000348,-0.00000413,-0.
 00000007,0.00000479,-0.00001912,0.00000596,-0.00001757,-0.00000302,0.0
 0013094,0.00004237,-0.00009727,-0.00012131,-0.00013025,0.00008442,0.00
 036306,0.00034647,-0.00045138,-0.00082336,0.00013119,-0.00109020,-0.00
 020211,0.00108742,0.00048766,-0.00004777,-0.00049846,0.00014015,-0.000
 13146,0.00005701,-0.02152329,0.00161788,-0.00842237,0.00029650,0.00285
 650,0.00088193,-0.00033939,-0.00017347,-0.00004190,0.00010332,-0.00010
 999,-0.00017399,-0.00021116,-0.00033343,0.00045675,0.00001395,0.000037
 69,0.00002232,0.00386367,0.00134867,-0.00411348,0.03377401,-0.01914701
 ,0.01848140,0.01432882,-0.04187448,0.00210524,-0.00517967,0.00397596,0
 .00159490,-0.00033924,0.00035146,-0.00052698,0.00000185,-0.00000313,-0
 .00000222,0.00000165,0.00000805,-0.00000054,0.00000095,0.00000163,-0.0
 0000118,0.00000238,-0.00000272,0.00000337,0.00000040,-0.00000022,0.,0.
 00000298,-0.00000055,0.00000216,-0.00000623,0.00000685,-0.00000330,0.0
 0000762,-0.00000351,0.00000773,-0.00010378,-0.00007111,0.00002300,-0.0
 0031970,0.00012764,0.00018702,-0.00135423,0.00029106,0.00016525,0.0000
 0655,-0.00011743,-0.00003672,0.00042718,0.00022830,-0.00022091,-0.0003
 2350,-0.00274789,-0.00251626,-0.02219388,0.05459343,0.00000039,-0.0000
 0664,-0.00003479,-0.00000703,0.00000709,0.00002011,0.00000946,-0.00000
 663,0.00002393,-0.00000310,0.00001115,-0.00002973,0.00000121,-0.000000
 42,0.00000444,-0.00001878,-0.00000793,0.00000073,0.00000304,-0.0000007
 1,-0.00004778,0.00000060,0.00000191,0.00005856,-0.00000571,0.00001774,
 0.00001931,0.00000054,-0.00002251,-0.00002467,-0.00000226,0.00000361,0
 .00000333,0.00001509,0.00001565,0.00004958,0.00000337,-0.00004154,-0.0
 0009784,0.00004861,0.00006060,0.00012241,0.00004717,0.00002212,-0.0003
 4315,0.00012785,-0.00017280,-0.00001300,-0.00209429,-0.00003951,0.0009
 9341,0.00067862,-0.00009614,-0.00013866,0.00003136,-0.00000300,0.00003
 073,-0.02463959,0.00068918,-0.00428405,0.00214394,0.00151720,0.0017109
 1,0.00009974,-0.00026668,-0.00012523,0.00008353,0.00012245,0.00017236,
 0.00006522,0.00012504,-0.00021042,-0.00001081,-0.00002508,-0.00000213,
 -0.00194847,-0.00046504,0.00274791,-0.01051981,0.01020204,-0.00251283,
 -0.09243750,-0.00038291,-0.07406828,0.03879158,0.00084580,-0.00442756,
 0.00183250,-0.00010251,0.00375067,-0.00000287,0.00000115,0.00000527,-0
 .00000115,0.00000481,-0.00000116,0.00000227,0.00000002,-0.00000286,-0.
 00000039,-0.00000140,-0.00000227,0.00000095,-0.00000052,-0.00000137,0.
 00000213,0.00000101,-0.00000073,0.00000381,0.00000050,-0.00000302,0.00
 000619,-0.00000721,0.00000483,0.00002862,0.00001565,-0.00003329,0.0001
 6840,-0.00008152,-0.00008588,0.00078134,-0.00012938,-0.00009825,0.0001
 6707,-0.00001824,0.00013579,0.00057517,0.00000158,-0.00051707,-0.00012
 689,-0.00294542,-0.00288106,0.08609890,-0.00884255,0.08013281\\0.00455
 453,-0.02146410,-0.00333418,0.02549205,0.01668911,-0.00797057,0.005676
 66,-0.03200107,0.01276646,0.00304339,0.02867765,0.01943532,-0.01047502
 ,-0.02481980,-0.01028112,0.01130644,-0.01614509,-0.00658511,-0.0114072
 5,0.01232309,-0.00568533,0.01196108,-0.00257418,0.01543539,0.00698104,
 0.02552501,0.01835320,0.00820229,0.01542245,0.01203937,-0.00280757,-0.
 03450414,-0.00908620,-0.03260243,0.02201083,-0.00836382,-0.00621432,-0
 .00613998,-0.02633785,-0.02671810,-0.00373520,0.01690477,0.01671254,0.
 01296865,0.00749136,-0.00272714,0.00034122,-0.01607054,0.01008740,0.02
 505306,0.02614736,-0.00275758,-0.02131324,0.01369923,0.00739386,0.0186
 7693,-0.01525919,-0.03510139,0.00322014,0.01258451,0.01949131,0.003035
 07,-0.02725286,-0.01223457,-0.01032209,0.02396973,0.00702302,-0.017840
 02,0.00912984,-0.00467675,-0.02064944,0.00059500,-0.00407981,0.0312988
 2,0.00459668,0.00361022,-0.02607961,0.00395374,-0.00204000,0.02753323,
 0.00757628,0.04459206,-0.00665405,-0.02303605,-0.00925899,0.00071858,0
 .00709142,-0.00236482,-0.00332087,-0.00525138,-0.00226754,0.00169516,0
 .00217814,0.00325968,0.00474043,-0.01737946,-0.01993741,-0.00317984,-0
 .00144537,0.01806124,0.00122556,0.00188662,-0.01709250,-0.00034749,0.0
 0114353,0.02209028,0.00420327,-0.00277951,-0.02122944,-0.00199164,0.00
 149048,0.01731837,0.00175992,-0.00579750,-0.01121378,-0.00732120,-0.01
 307497,0.01665233,0.00151501,-0.00854233,-0.02159708,0.00258450,0.0010
 2042,0.01851284,-0.00083216,0.00266749,-0.02177013,-0.00099326,-0.0053
 8507,0.01765161,-0.00028713,0.00006539,-0.01910066,0.00129788,-0.00330
 334\\\@


 IT IS A CAPITAL MISTAKE TO THEORIZE BEFORE ONE HAS
 DATA.  INSENSIBLY ONE BEGINS TO TWIST FACTS TO SUIT
 THEORIES RATHER THAN THEORIES TO SUIT FACTS.

                                         -- SHERLOCK HOLMES
 Job cpu time:  0 days 13 hours  7 minutes  8.7 seconds.
 File lengths (MBytes):  RWF=   1324 Int=      0 D2E=      0 Chk=     19 Scr=      1
 Normal termination of Gaussian 09 at Thu Jan 21 05:06:18 2016.
Gaussian '09 finished on node007 at Thu Jan 21 05:06:18 EST 2016.
