Gaussian '09 started on node025 at Thu Mar 31 03:00:36 EDT 2016.
 Entering Gaussian System, Link 0=/usr/local/gaussian/g09/g09
 Initial command:
 /usr/local/gaussian/g09/l1.exe /home/srmcgrat/thesis/gaussian/cellobiose/500K/5480ps/1/2dp/gaussian9807/Gau-9843.inp -scrdir=/home/srmcgrat/thesis/gaussian/cellobiose/500K/5480ps/1/2dp/gaussian9807/
 Entering Link 1 = /usr/local/gaussian/g09/l1.exe PID=      9845.
  
 Copyright (c) 1988,1990,1992,1993,1995,1998,2003,2009,2010,
            Gaussian, Inc.  All Rights Reserved.
  
 This is part of the Gaussian(R) 09 program.  It is based on
 the Gaussian(R) 03 system (copyright 2003, Gaussian, Inc.),
 the Gaussian(R) 98 system (copyright 1998, Gaussian, Inc.),
 the Gaussian(R) 94 system (copyright 1995, Gaussian, Inc.),
 the Gaussian 92(TM) system (copyright 1992, Gaussian, Inc.),
 the Gaussian 90(TM) system (copyright 1990, Gaussian, Inc.),
 the Gaussian 88(TM) system (copyright 1988, Gaussian, Inc.),
 the Gaussian 86(TM) system (copyright 1986, Carnegie Mellon
 University), and the Gaussian 82(TM) system (copyright 1983,
 Carnegie Mellon University). Gaussian is a federally registered
 trademark of Gaussian, Inc.
  
 This software contains proprietary and confidential information,
 including trade secrets, belonging to Gaussian, Inc.
  
 This software is provided under written license and may be
 used, copied, transmitted, or stored only in accord with that
 written license.
  
 The following legend is applicable only to US Government
 contracts under FAR:
  
                    RESTRICTED RIGHTS LEGEND
  
 Use, reproduction and disclosure by the US Government is
 subject to restrictions as set forth in subparagraphs (a)
 and (c) of the Commercial Computer Software - Restricted
 Rights clause in FAR 52.227-19.
  
 Gaussian, Inc.
 340 Quinnipiac St., Bldg. 40, Wallingford CT 06492
  
  
 ---------------------------------------------------------------
 Warning -- This program may not be used in any manner that
 competes with the business of Gaussian, Inc. or will provide
 assistance to any competitor of Gaussian, Inc.  The licensee
 of this program is prohibited from giving any competitor of
 Gaussian, Inc. access to this program.  By using this program,
 the user acknowledges that Gaussian, Inc. is engaged in the
 business of creating and licensing software in the field of
 computational chemistry and represents and warrants to the
 licensee that it is not a competitor of Gaussian, Inc. and that
 it will not use this program in any manner prohibited above.
 ---------------------------------------------------------------
  

 Cite this work as:
 Gaussian 09, Revision B.01,
 M. J. Frisch, G. W. Trucks, H. B. Schlegel, G. E. Scuseria, 
 M. A. Robb, J. R. Cheeseman, G. Scalmani, V. Barone, B. Mennucci, 
 G. A. Petersson, H. Nakatsuji, M. Caricato, X. Li, H. P. Hratchian, 
 A. F. Izmaylov, J. Bloino, G. Zheng, J. L. Sonnenberg, M. Hada, 
 M. Ehara, K. Toyota, R. Fukuda, J. Hasegawa, M. Ishida, T. Nakajima, 
 Y. Honda, O. Kitao, H. Nakai, T. Vreven, J. A. Montgomery, Jr., 
 J. E. Peralta, F. Ogliaro, M. Bearpark, J. J. Heyd, E. Brothers, 
 K. N. Kudin, V. N. Staroverov, T. Keith, R. Kobayashi, J. Normand, 
 K. Raghavachari, A. Rendell, J. C. Burant, S. S. Iyengar, J. Tomasi, 
 M. Cossi, N. Rega, J. M. Millam, M. Klene, J. E. Knox, J. B. Cross, 
 V. Bakken, C. Adamo, J. Jaramillo, R. Gomperts, R. E. Stratmann, 
 O. Yazyev, A. J. Austin, R. Cammi, C. Pomelli, J. W. Ochterski, 
 R. L. Martin, K. Morokuma, V. G. Zakrzewski, G. A. Voth, 
 P. Salvador, J. J. Dannenberg, S. Dapprich, A. D. Daniels, 
 O. Farkas, J. B. Foresman, J. V. Ortiz, J. Cioslowski, 
 and D. J. Fox, Gaussian, Inc., Wallingford CT, 2010.
 
 ******************************************
 Gaussian 09:  EM64L-G09RevB.01 12-Aug-2010
                31-Mar-2016 
 ******************************************
 -------------------------------------------------
 # freq=raman b3lyp/6-31+g(2d,p) geom=connectivity
 -------------------------------------------------
 1/10=4,30=1,38=1,57=2/1,3;
 2/12=2,17=6,18=5,40=1/2;
 3/5=1,6=6,7=112,11=2,16=1,25=1,30=1,71=2,74=-5/1,2,3;
 4//1;
 5/5=2,38=5,98=1/2;
 8/6=4,10=90,11=11/1;
 10/13=10,15=4/2;
 11/6=3,8=1,9=11,15=111,16=1/1,2,10;
 10/6=1/2;
 6/7=2,8=2,9=2,10=2,18=1,28=1/1;
 7/8=1,10=1,25=1/1,2,3,16;
 1/10=4,30=1/3;
 99//99;
 -----------------
 500 5480/5480.com
 -----------------
 Symbolic Z-matrix:
 Charge =  0 Multiplicity = 1
 O                     8.583     7.792     12.148 
 C                     9.275     7.715     13.402 
 C                     9.377     9.126     13.958 
 O                     10.004    10.18     13.212 
 H                     9.798     10.054    12.241 
 C                     9.83      9.234     15.405 
 O                     9.587     10.53     15.97 
 H                     10.056    11.296    15.53 
 C                     8.757     5.29      13.953 
 O                     8.648     4.297     14.983 
 H                     8.884     3.432     14.54 
 C                     8.682     6.739     14.406 
 O                     9.41      6.875     15.635 
 C                     9.206     8.147     16.265 
 O                     10.064    7.938     17.396 
 C                     9.511     7.553     18.663 
 C                     9.318     6.103     19.074 
 O                     8.699     5.317     18.045 
 H                     8.932     5.716     17.158 
 C                     8.569     5.947     20.387 
 O                     8.13      4.604     20.637 
 H                     7.725     4.351     19.758 
 C                     10.165    9.64      19.588 
 O                     11.124    10.573    20.106 
 H                     10.779    11.508    20.194 
 C                     10.233    8.146     19.862 
 O                     9.571     8.035     21.131 
 C                     9.315     6.671     21.495 
 O                     8.604     6.651     22.741 
 H                     9.23156   6.63934   23.46738 
 H                     9.22141   7.83594   11.43239 
 H                     9.69189   5.14717   13.45251 
 H                     7.97099   5.12247   13.24659 
 H                     7.65781   6.99668   14.57785 
 H                     10.27077   7.38369   13.19323 
 H                     8.35311   9.43453   13.99497 
 H                     10.8885   9.07797   15.41657 
 H                     8.18678   8.3331    16.53232 
 H                     9.20611   9.96826   19.93105 
 H                     10.17419   9.7543    18.52416 
 H                     11.24709   7.80907   19.91667 
 H                     8.53042   7.98106   18.67404 
 H                     10.29533   5.69521   19.2271 
 H                     7.66541   6.50534   20.25784 
 H                     10.25532   6.18119   21.63916 
 

 GradGradGradGradGradGradGradGradGradGradGradGradGradGradGradGradGradGrad
 Berny optimization.
 Initialization pass.
 Trust Radius=3.00D-01 FncErr=1.00D-07 GrdErr=1.00D-07
 Number of steps in this run=      2 maximum allowed number of steps=      2.
 GradGradGradGradGradGradGradGradGradGradGradGradGradGradGradGradGradGrad

                          Input orientation:                          
 ---------------------------------------------------------------------
 Center     Atomic      Atomic             Coordinates (Angstroms)
 Number     Number       Type             X           Y           Z
 ---------------------------------------------------------------------
      1          8           0        8.583000    7.792000   12.148000
      2          6           0        9.275000    7.715000   13.402000
      3          6           0        9.377000    9.126000   13.958000
      4          8           0       10.004000   10.180000   13.212000
      5          1           0        9.798000   10.054000   12.241000
      6          6           0        9.830000    9.234000   15.405000
      7          8           0        9.587000   10.530000   15.970000
      8          1           0       10.056000   11.296000   15.530000
      9          6           0        8.757000    5.290000   13.953000
     10          8           0        8.648000    4.297000   14.983000
     11          1           0        8.884000    3.432000   14.540000
     12          6           0        8.682000    6.739000   14.406000
     13          8           0        9.410000    6.875000   15.635000
     14          6           0        9.206000    8.147000   16.265000
     15          8           0       10.064000    7.938000   17.396000
     16          6           0        9.511000    7.553000   18.663000
     17          6           0        9.318000    6.103000   19.074000
     18          8           0        8.699000    5.317000   18.045000
     19          1           0        8.932000    5.716000   17.158000
     20          6           0        8.569000    5.947000   20.387000
     21          8           0        8.130000    4.604000   20.637000
     22          1           0        7.725000    4.351000   19.758000
     23          6           0       10.165000    9.640000   19.588000
     24          8           0       11.124000   10.573000   20.106000
     25          1           0       10.779000   11.508000   20.194000
     26          6           0       10.233000    8.146000   19.862000
     27          8           0        9.571000    8.035000   21.131000
     28          6           0        9.315000    6.671000   21.495000
     29          8           0        8.604000    6.651000   22.741000
     30          1           0        9.231560    6.639341   23.467383
     31          1           0        9.221408    7.835941   11.432385
     32          1           0        9.691886    5.147170   13.452512
     33          1           0        7.970986    5.122475   13.246589
     34          1           0        7.657809    6.996684   14.577849
     35          1           0       10.270765    7.383688   13.193233
     36          1           0        8.353114    9.434529   13.994966
     37          1           0       10.888500    9.077974   15.416567
     38          1           0        8.186782    8.333097   16.532323
     39          1           0        9.206112    9.968259   19.931046
     40          1           0       10.174194    9.754299   18.524162
     41          1           0       11.247094    7.809068   19.916672
     42          1           0        8.530418    7.981062   18.674035
     43          1           0       10.295328    5.695214   19.227100
     44          1           0        7.665407    6.505335   20.257842
     45          1           0       10.255320    6.181188   21.639160
 ---------------------------------------------------------------------
                    Distance matrix (angstroms):
                    1          2          3          4          5
     1  O    0.000000
     2  C    1.434332   0.000000
     3  C    2.384553   1.520020   0.000000
     4  O    2.975547   2.577550   1.435465   0.000000
     5  H    2.569342   2.663151   1.996626   1.000576   0.000000
     6  C    3.773913   2.574373   1.520093   2.394669   3.268688
     7  O    4.807530   3.823113   2.462409   2.811219   3.765174
     8  H    5.087796   4.238149   2.764258   2.573186   3.525145
     9  C    3.090033   2.540187   3.885784   5.100607   5.168203
    10  O    4.500719   3.817776   4.990121   6.291650   6.479515
    11  H    4.982155   4.448822   5.744859   6.968033   7.069065
    12  C    2.493426   1.520605   2.526163   3.874765   4.113624
    13  O    3.699187   2.389584   2.807208   4.140868   4.666457
    14  C    4.178976   2.896231   2.511958   3.753758   4.492181
    15  O    5.454923   4.077289   3.701778   4.747212   5.578731
    16  C    6.585099   5.268782   4.962793   6.071044   6.897786
    17  C    7.166758   5.896777   5.942682   7.173254   7.907635
    18  O    6.396381   5.257340   5.627765   6.979232   7.571881
    19  H    5.434306   4.268628   4.697459   6.053709   6.614007
    20  C    8.443065   7.239785   7.217406   8.453292   9.205173
    21  O    9.079189   7.958302   8.161650   9.472818  10.147785
    22  H    8.395758   7.356476   7.692186   9.056556   9.660581
    23  C    7.827607   6.539443   5.708068   6.400851   7.367801
    24  O    8.804567   7.518682   6.553146   6.995433   7.992863
    25  H    9.130673   7.923391   6.821087   7.149303   8.144120
    26  C    7.896430   6.544855   6.045689   6.957880   7.868248
    27  O    9.040436   7.741283   7.258088   8.215782   9.119210
    28  C    9.442398   8.160158   7.926994   9.021967   9.864811
    29  O   10.654294   9.423336   9.157742  10.257470  11.102074
    30  H   11.396390  10.122790   9.830209  10.876848  11.747870
    31  H    0.960000   1.974052   2.840280   3.045339   2.430247
    32  H    3.150635   2.601940   4.023152   5.048231   5.055294
    33  H    2.950902   2.906165   4.302464   5.450955   5.354356
    34  H    2.718947   2.124595   2.806032   4.183737   4.403233
    35  H    2.026767   1.070000   2.102222   2.809071   2.874165
    36  H    2.482344   2.039182   1.070000   1.973370   2.355385
    37  H    4.201498   2.918828   2.101037   2.618571   3.496576
    38  H    4.435320   3.371229   2.944903   4.211636   4.896222
    39  H    8.105564   6.907269   6.034557   6.769567   7.713267
    40  H    6.858422   5.586039   4.677618   5.331909   6.301545
    41  H    8.212792   6.807272   6.382581   7.219365   8.127456
    42  H    6.528985   5.330999   4.926315   6.069646   6.876611
    43  H    7.579065   6.249191   6.354292   7.508635   8.249360
    44  H    8.262386   7.145393   7.034589   8.283481   9.022789
    45  H    9.771054   8.435900   8.273064   9.331167  10.175128
                    6          7          8          9         10
     6  C    0.000000
     7  O    1.434535   0.000000
     8  H    2.078111   1.000158   0.000000
     9  C    4.337599   5.675807   6.344002   0.000000
    10  O    5.094033   6.380139   7.160145   1.434862   0.000000
    11  H    5.941914   7.274662   8.012252   1.952655   1.000085
    12  C    2.922487   4.199619   4.890552   1.520012   2.509472
    13  O    2.407111   3.674586   4.469181   2.401616   2.766194
    14  C    1.520048   2.431229   3.343490   3.702620   4.096021
    15  O    2.387143   2.996576   3.841638   4.535901   4.591787
    16  C    3.679957   4.015041   4.911493   5.279563   4.988858
    17  C    4.850450   5.413456   6.330231   5.215394   4.521816
    18  O    4.857124   5.680628   6.626848   4.092500   3.227824
    19  H    4.031840   5.001496   5.920318   3.237920   2.612440
    20  C    6.100395   6.445937   7.376545   6.470189   5.650837
    21  O    7.190322   7.682527   8.635612   6.748302   5.685973
    22  H    6.871923   7.483049   8.458284   5.970324   4.863689
    23  C    4.215987   3.770425   4.384242   7.256596   7.214913
    24  O    5.056358   4.412563   4.754275   8.448206   8.471357
    25  H    5.385740   4.496613   4.724465   9.038921   9.148454
    26  C    4.605540   4.609603   5.359109   6.726930   6.413397
    27  O    5.855916   5.732469   6.499273   7.727956   7.254135
    28  C    6.627390   6.744738   7.584255   7.687671   6.963254
    29  O    7.873491   7.865073   8.699589   8.894081   8.107393
    30  H    8.490725   8.454249   9.239385   9.621300   8.821103
    31  H    4.255188   5.289760   5.427614   3.612616   5.045767
    32  H    4.531386   5.943366   6.500511   1.070000   2.038352
    33  H    5.001931   6.266562   6.904612   1.070000   2.038352
    34  H    3.226170   4.259599   5.014183   2.124012   2.903949
    35  H    2.917163   4.251735   4.562104   2.693002   3.919729
    36  H    2.051731   2.573576   2.953172   4.164374   5.239979
    37  H    1.070000   2.026961   2.371827   4.586291   5.297691
    38  H    2.186927   2.665183   3.643820   4.029702   4.347782
    39  H    4.627468   4.018770   4.674870   7.604264   7.547041
    40  H    3.180936   2.733176   3.369840   6.544763   6.682156
    41  H    4.939005   5.073027   5.728900   6.936257   6.590223
    42  H    3.734349   3.863322   4.816760   5.438872   5.216309
    43  H    5.229530   5.872443   6.715253   5.508791   4.762465
    44  H    5.973370   6.186763   7.142681   6.513036   5.802257
    45  H    6.954517   7.176224   7.970123   7.881385   7.101979
                   11         12         13         14         15
    11  H    0.000000
    12  C    3.315872   0.000000
    13  O    3.651020   1.434894   0.000000
    14  C    5.030958   2.390172   1.434050   0.000000
    15  O    5.463806   3.505371   2.158427   1.434924   0.000000
    16  C    5.863011   4.412696   3.104621   2.489230   1.435034
    17  C    5.280128   4.753863   3.525786   3.475768   2.596040
    18  O    3.984027   3.907006   2.956516   3.381471   3.025569
    19  H    3.474606   2.946614   1.972636   2.604282   2.505065
    20  C    6.372743   6.034268   4.914262   4.715576   3.891682
    21  O    6.254239   6.609712   5.640554   5.729311   5.035871
    22  H    5.423593   5.938207   5.119466   5.366938   4.890453
    23  C    8.103242   6.121128   4.882772   3.767102   2.777025
    24  O    9.326941   7.290605   6.050028   4.931276   3.925675
    25  H   10.038950   7.787279   6.642539   5.404414   4.591833
    26  C    7.236386   5.844073   4.490022   3.740740   2.480520
    27  O    8.068510   6.906197   5.619389   4.880955   3.768645
    28  C    7.684329   7.117530   5.864319   5.435380   4.355237
    29  O    8.814577   8.335829   7.155071   6.673754   5.688321
    30  H    9.492418   9.078580   7.837959   7.358534   6.264277
    31  H    5.400538   3.215062   4.315200   4.842640   6.023710
    32  H    2.185662   2.112565   2.797876   4.140670   4.845441
    33  H    2.316077   2.112565   3.293420   4.447901   5.433738
    34  H    3.769874   1.070000   2.050012   2.562538   3.823324
    35  H    4.399174   2.100143   2.638542   3.339479   4.244204
    36  H    6.050559   2.746451   3.218371   2.745578   4.090692
    37  H    6.055032   3.370562   2.662099   2.101751   2.428476
    38  H    5.336311   2.703264   2.104162   1.070000   2.103803
    39  H    8.478786   6.420976   5.297719   4.093516   3.359223
    40  H    7.583509   5.317699   4.149893   2.936771   2.140989
    41  H    7.324721   6.171893   4.751854   4.197020   2.787494
    42  H    6.157047   4.447676   3.351533   2.507468   1.996773
    43  H    5.392855   5.189925   3.883154   3.996489   2.904570
    44  H    6.604852   5.944082   4.954889   4.583806   3.999489
    45  H    7.735414   7.423281   6.102940   5.817825   4.596455
                   16         17         18         19         20
    16  C    0.000000
    17  C    1.519431   0.000000
    18  O    2.457837   1.435200   0.000000
    19  H    2.444348   1.992441   1.000129   0.000000
    20  C    2.537474   1.519640   2.428737   3.257541   0.000000
    21  O    3.807944   2.470084   2.747834   3.739410   1.434876
    22  H    3.826438   2.464753   2.194584   3.174913   1.911856
    23  C    2.374639   3.673142   4.818541   4.777339   4.101691
    24  O    3.715430   4.930270   6.144419   6.089829   5.292151
    25  H    4.426490   5.709899   6.875542   6.795290   5.987159
    26  C    1.520044   2.373187   3.695658   3.861233   2.807155
    27  O    2.515343   2.833352   4.203725   4.644439   2.432547
    28  C    2.972636   2.486740   3.757030   4.457385   1.519327
    29  O    4.273914   3.775843   4.882724   5.670247   2.457266
    30  H    4.898465   4.426844   5.606643   6.383621   3.226001
    31  H    7.241941   7.836242   7.095396   6.112330   9.174904
    32  H    5.741944   5.714414   4.701660   3.825132   7.070200
    33  H    6.133238   6.060907   4.857221   4.071235   7.212693
    34  H    4.520206   4.875477   3.990809   3.149745   5.973135
    35  H    5.524877   6.093549   5.502844   4.504759   7.530628
    36  H    5.164436   6.150340   5.785885   4.916030   7.284749
    37  H    3.842184   4.969281   5.084043   4.261848   6.315717
    38  H    2.627145   3.565545   3.412829   2.792135   4.549515
    39  H    2.744881   3.960716   5.044654   5.083958   4.096868
    40  H    2.303219   3.790432   4.700576   4.440417   4.532365
    41  H    2.156685   2.709644   4.025710   4.165437   3.295557
    42  H    1.070000   2.075421   2.742504   2.755020   2.659538
    43  H    2.093979   1.070000   2.022046   2.477957   2.094988
    44  H    2.654682   2.072298   2.716086   3.440396   1.070000
    45  H    3.360567   2.732166   4.010853   4.695569   2.113392
                   21         22         23         24         25
    21  O    0.000000
    22  H    1.000337   0.000000
    23  C    5.531991   5.827180   0.000000
    24  O    6.698877   7.098422   1.434745   0.000000
    25  H    7.408014   7.793565   2.057585   1.000497   0.000000
    26  C    4.191539   4.550045   1.520439   2.596872   3.422190
    27  O    3.753968   4.343351   2.304281   3.147043   3.794596
    28  C    2.532366   3.305702   3.629616   4.519669   5.218474
    29  O    2.973500   3.867936   4.616519   5.354970   5.899854
    30  H    3.656107   4.611480   4.992483   5.509438   6.067409
    31  H    9.816392   9.148766   8.405894   9.292090   9.626838
    32  H    7.372339   6.652947   7.619289   8.703992   9.332182
    33  H    7.410282   6.561567   8.089205   9.311350   9.845121
    34  H    6.531555   5.817055   6.194735   7.440764   7.850793
    35  H    8.229168   7.666439   6.781974   7.660683   8.141191
    36  H    8.215863   7.710341   5.882787   6.805782   6.972247
    37  H    7.408015   7.155421   4.270853   4.927611   5.361053
    38  H    5.545968   5.145418   3.867623   5.139609   5.496133
    39  H    5.516490   5.811818   1.070000   2.018567   2.216737
    40  H    5.930294   6.059418   1.070000   2.018567   2.495920
    41  H    4.528533   4.938477   2.152038   2.773142   3.738733
    42  H    3.926590   3.873116   2.501853   3.936412   4.450361
    43  H    2.804855   2.948789   3.963404   5.025133   5.912471
    44  H    1.993661   2.212364   4.064822   5.341425   5.892808
    45  H    2.829988   3.645665   4.022287   4.732145   5.544155
                   26         27         28         29         30
    26  C    0.000000
    27  O    1.435593   0.000000
    28  C    2.384332   1.434757   0.000000
    29  O    3.630056   2.332948   1.434725   0.000000
    30  H    4.033819   2.742585   1.974401   0.960000   0.000000
    31  H    8.495756   9.706955  10.130255  11.387276  12.094343
    32  H    7.096994   8.204471   8.194249   9.472117  10.135883
    33  H    7.617223   8.556097   8.499447   9.637476  10.409350
    34  H    5.989556   6.905229   7.120346   8.225072   9.034833
    35  H    6.712302   7.995125   8.386939   9.719814  10.353365
    36  H    6.294154   7.373257   8.050642   9.181726   9.915213
    37  H    4.589132   5.956370   6.724342   8.047140   8.573683
    38  H    3.912641   4.811731   5.353840   6.446021   7.214945
    39  H    2.092819   2.304457   3.650990   4.388916   4.856751
    40  H    2.092819   3.180477   4.367015   5.466049   5.918358
    41  H    1.070000   2.082050   2.742135   4.037808   4.247139
    42  H    2.082607   2.668782   3.207752   4.279565   5.026729
    43  H    2.532456   3.102271   2.656421   4.015173   4.472470
    44  H    3.072622   2.594911   2.068613   2.658618   3.573786
    45  H    2.649393   2.040377   1.070000   2.040008   2.144852
                   31         32         33         34         35
    31  H    0.000000
    32  H    3.395843   0.000000
    33  H    3.495396   1.733353   0.000000
    34  H    3.611528   2.970615   2.320128   0.000000
    35  H    2.099112   2.324723   3.225666   2.982360   0.000000
    36  H    3.142648   4.524159   4.393166   2.601209   2.919951
    37  H    4.493945   4.554186   5.372771   3.933520   2.862763
    38  H    5.227522   4.679819   4.598991   2.426063   4.048937
    39  H    8.762091   8.090134   8.348001   6.315395   7.294629
    40  H    7.408184   6.868761   7.359395   5.432312   5.835060
    41  H    8.722801   7.161685   7.901942   6.484286   6.807261
    42  H    7.275990   6.053450   6.159680   4.302231   5.781424
    43  H    8.154360   5.831840   6.441825   5.501442   6.265708
    44  H    9.059820   7.229366   7.152856   5.701210   7.580771
    45  H   10.391604   8.270904   8.762095   7.567973   8.531115
                   36         37         38         39         40
    36  H    0.000000
    37  H    2.928526   0.000000
    38  H    2.771101   3.016461   0.000000
    39  H    6.020757   4.899343   3.906930   0.000000
    40  H    4.892055   3.259570   3.152308   1.721129   0.000000
    41  H    6.788509   4.689314   4.592814   2.971182   2.621855
    42  H    4.902825   4.168317   2.197486   2.446547   2.422567
    43  H    6.717879   5.129823   4.320442   4.465517   4.121282
    44  H    6.948146   6.359618   4.182348   3.804262   4.455942
    45  H    8.522694   6.892964   5.915179   4.284903   4.740982
                   41         42         43         44         45
    41  H    0.000000
    42  H    2.992334   0.000000
    43  H    2.418625   2.940389   0.000000
    44  H    3.826826   2.331192   2.938573   0.000000
    45  H    2.569158   3.873861   2.460855   2.953093   0.000000
 Stoichiometry    C12H22O11
 Framework group  C1[X(C12H22O11)]
 Deg. of freedom   129
 Full point group                 C1      NOp   1
 Largest Abelian subgroup         C1      NOp   1
 Largest concise Abelian subgroup C1      NOp   1
                         Standard orientation:                         
 ---------------------------------------------------------------------
 Center     Atomic      Atomic             Coordinates (Angstroms)
 Number     Number       Type             X           Y           Z
 ---------------------------------------------------------------------
      1          8           0        5.148378   -0.552559   -0.552407
      2          6           0        3.887573   -0.272219    0.071362
      3          6           0        3.503057    1.153326   -0.289790
      4          8           0        4.363508    2.260440    0.017592
      5          1           0        5.314451    1.970266   -0.094922
      6          6           0        2.075021    1.555659    0.041155
      7          8           0        1.671150    2.766709   -0.613166
      8          1           0        2.194936    3.586734   -0.381812
      9          6           0        3.055988   -2.661815    0.296854
     10          8           0        1.915894   -3.519432    0.450181
     11          1           0        2.250168   -4.312150    0.960112
     12          6           0        2.779966   -1.266614   -0.239485
     13          8           0        1.569065   -0.776740    0.354371
     14          6           0        1.097422    0.430916   -0.258508
     15          8           0       -0.058621    0.624434    0.569212
     16          6           0       -1.357159    0.229618    0.103120
     17          6           0       -1.936464   -1.154031    0.345178
     18          8           0       -1.002774   -2.201842    0.044992
     19          1           0       -0.076758   -1.850934    0.185055
     20          6           0       -3.251450   -1.388233   -0.379576
     21          8           0       -3.655780   -2.764856   -0.396786
     22          1           0       -2.809427   -3.226444   -0.663805
     23          6           0       -2.032607    2.505363    0.042567
     24          8           0       -2.444689    3.740833    0.644477
     25          1           0       -2.417115    4.526632    0.025806
     26          6           0       -2.483656    1.145880    0.552566
     27          8           0       -3.750421    0.976263   -0.101241
     28          6           0       -4.272193   -0.350888    0.056722
     29          8           0       -5.504789   -0.452294   -0.670506
     30          1           0       -6.233357   -0.188554   -0.103735
     31          1           0        5.857962   -0.392391    0.074041
     32          1           0        3.526850   -2.562379    1.252522
     33          1           0        3.744855   -3.141652   -0.366560
     34          1           0        2.649946   -1.321594   -1.300132
     35          1           0        4.045727   -0.299658    1.129254
     36          1           0        3.513017    1.131541   -1.359521
     37          1           0        2.034754    1.737549    1.094813
     38          1           0        0.864021    0.320431   -1.296880
     39          1           0       -2.324792    2.556191   -0.985511
     40          1           0       -0.962870    2.498521    0.065263
     41          1           0       -2.587892    1.147941    1.617474
     42          1           0       -1.307600    0.331263   -0.960887
     43          1           0       -2.146525   -1.219388    1.392318
     44          1           0       -3.047892   -1.155213   -1.403863
     45          1           0       -4.482817   -0.506160    1.094233
 ---------------------------------------------------------------------
 Rotational constants (GHZ):      0.3800572      0.1506575      0.1111764
 Standard basis: 6-31+G(2d,p) (6D, 7F)
 There are   685 symmetry adapted basis functions of A   symmetry.
 Integral buffers will be    131072 words long.
 Raffenetti 2 integral format.
 Two-electron integral symmetry is turned on.
   685 basis functions,  1028 primitive gaussians,   685 cartesian basis functions
    91 alpha electrons       91 beta electrons
       nuclear repulsion energy      2274.4471390413 Hartrees.
 NAtoms=   45 NActive=   45 NUniq=   45 SFac= 1.00D+00 NAtFMM=   50 NAOKFM=F Big=F
 One-electron integrals computed using PRISM.
 NBasis=   685 RedAO= T  NBF=   685
 NBsUse=   685 1.00D-06 NBFU=   685
 Harris functional with IExCor=  402 diagonalized for initial guess.
 ExpMin= 4.38D-02 ExpMax= 5.48D+03 ExpMxC= 8.25D+02 IAcc=2 IRadAn=         0 AccDes= 0.00D+00
 HarFok:  IExCor=  402 AccDes= 0.00D+00 IRadAn=         0 IDoV= 1
 ScaDFX=  1.000000  1.000000  1.000000  1.000000
 FoFCou: FMM=F IPFlag=           0 FMFlag=      100000 FMFlg1=           0
         NFxFlg=           0 DoJE=T BraDBF=F KetDBF=T FulRan=T
         Omega=  0.000000  0.000000  1.000000  0.000000  0.000000 ICntrl=     500 IOpCl=  0
         NMat0=    1 NMatS0=    1 NMatT0=    0 NMatD0=    1 NMtDS0=    0 NMtDT0=    0
         I1Cent=           4 NGrid=           0.
 Petite list used in FoFCou.
 Initial guess orbital symmetries:
       Occupied  (A) (A) (A) (A) (A) (A) (A) (A) (A) (A) (A) (A)
                 (A) (A) (A) (A) (A) (A) (A) (A) (A) (A) (A) (A)
                 (A) (A) (A) (A) (A) (A) (A) (A) (A) (A) (A) (A)
                 (A) (A) (A) (A) (A) (A) (A) (A) (A) (A) (A) (A)
                 (A) (A) (A) (A) (A) (A) (A) (A) (A) (A) (A) (A)
                 (A) (A) (A) (A) (A) (A) (A) (A) (A) (A) (A) (A)
                 (A) (A) (A) (A) (A) (A) (A) (A) (A) (A) (A) (A)
                 (A) (A) (A) (A) (A) (A) (A)
       Virtual   (A) (A) (A) (A) (A) (A) (A) (A) (A) (A) (A) (A)
                 (A) (A) (A) (A) (A) (A) (A) (A) (A) (A) (A) (A)
                 (A) (A) (A) (A) (A) (A) (A) (A) (A) (A) (A) (A)
                 (A) (A) (A) (A) (A) (A) (A) (A) (A) (A) (A) (A)
                 (A) (A) (A) (A) (A) (A) (A) (A) (A) (A) (A) (A)
                 (A) (A) (A) (A) (A) (A) (A) (A) (A) (A) (A) (A)
                 (A) (A) (A) (A) (A) (A) (A) (A) (A) (A) (A) (A)
                 (A) (A) (A) (A) (A) (A) (A) (A) (A) (A) (A) (A)
                 (A) (A) (A) (A) (A) (A) (A) (A) (A) (A) (A) (A)
                 (A) (A) (A) (A) (A) (A) (A) (A) (A) (A) (A) (A)
                 (A) (A) (A) (A) (A) (A) (A) (A) (A) (A) (A) (A)
                 (A) (A) (A) (A) (A) (A) (A) (A) (A) (A) (A) (A)
                 (A) (A) (A) (A) (A) (A) (A) (A) (A) (A) (A) (A)
                 (A) (A) (A) (A) (A) (A) (A) (A) (A) (A) (A) (A)
                 (A) (A) (A) (A) (A) (A) (A) (A) (A) (A) (A) (A)
                 (A) (A) (A) (A) (A) (A) (A) (A) (A) (A) (A) (A)
                 (A) (A) (A) (A) (A) (A) (A) (A) (A) (A) (A) (A)
                 (A) (A) (A) (A) (A) (A) (A) (A) (A) (A) (A) (A)
                 (A) (A) (A) (A) (A) (A) (A) (A) (A) (A) (A) (A)
                 (A) (A) (A) (A) (A) (A) (A) (A) (A) (A) (A) (A)
                 (A) (A) (A) (A) (A) (A) (A) (A) (A) (A) (A) (A)
                 (A) (A) (A) (A) (A) (A) (A) (A) (A) (A) (A) (A)
                 (A) (A) (A) (A) (A) (A) (A) (A) (A) (A) (A) (A)
                 (A) (A) (A) (A) (A) (A) (A) (A) (A) (A) (A) (A)
                 (A) (A) (A) (A) (A) (A) (A) (A) (A) (A) (A) (A)
                 (A) (A) (A) (A) (A) (A) (A) (A) (A) (A) (A) (A)
                 (A) (A) (A) (A) (A) (A) (A) (A) (A) (A) (A) (A)
                 (A) (A) (A) (A) (A) (A) (A) (A) (A) (A) (A) (A)
                 (A) (A) (A) (A) (A) (A) (A) (A) (A) (A) (A) (A)
                 (A) (A) (A) (A) (A) (A) (A) (A) (A) (A) (A) (A)
                 (A) (A) (A) (A) (A) (A) (A) (A) (A) (A) (A) (A)
                 (A) (A) (A) (A) (A) (A) (A) (A) (A) (A) (A) (A)
                 (A) (A) (A) (A) (A) (A) (A) (A) (A) (A) (A) (A)
                 (A) (A) (A) (A) (A) (A) (A) (A) (A) (A) (A) (A)
                 (A) (A) (A) (A) (A) (A) (A) (A) (A) (A) (A) (A)
                 (A) (A) (A) (A) (A) (A) (A) (A) (A) (A) (A) (A)
                 (A) (A) (A) (A) (A) (A) (A) (A) (A) (A) (A) (A)
                 (A) (A) (A) (A) (A) (A) (A) (A) (A) (A) (A) (A)
                 (A) (A) (A) (A) (A) (A) (A) (A) (A) (A) (A) (A)
                 (A) (A) (A) (A) (A) (A) (A) (A) (A) (A) (A) (A)
                 (A) (A) (A) (A) (A) (A) (A) (A) (A) (A) (A) (A)
                 (A) (A) (A) (A) (A) (A) (A) (A) (A) (A) (A) (A)
                 (A) (A) (A) (A) (A) (A) (A) (A) (A) (A) (A) (A)
                 (A) (A) (A) (A) (A) (A) (A) (A) (A) (A) (A) (A)
                 (A) (A) (A) (A) (A) (A) (A) (A) (A) (A) (A) (A)
                 (A) (A) (A) (A) (A) (A) (A) (A) (A) (A) (A) (A)
                 (A) (A) (A) (A) (A) (A) (A) (A) (A) (A) (A) (A)
                 (A) (A) (A) (A) (A) (A) (A) (A) (A) (A) (A) (A)
                 (A) (A) (A) (A) (A) (A) (A) (A) (A) (A) (A) (A)
                 (A) (A) (A) (A) (A) (A)
 The electronic state of the initial guess is 1-A.
 Requested convergence on RMS density matrix=1.00D-08 within 128 cycles.
 Requested convergence on MAX density matrix=1.00D-06.
 Requested convergence on             energy=1.00D-06.
 No special actions if energy rises.
 SCF Done:  E(RB3LYP) =  -1297.96249206     A.U. after   14 cycles
             Convg  =    0.1130D-08             -V/T =  2.0065
 Range of M.O.s used for correlation:     1   685
 NBasis=   685 NAE=    91 NBE=    91 NFC=     0 NFV=     0
 NROrb=    685 NOA=    91 NOB=    91 NVA=   594 NVB=   594

 **** Warning!!: The largest alpha MO coefficient is  0.88685444D+02

          Differentiating once with respect to electric field.
                with respect to dipole field.
          Electric field/nuclear overlap derivatives assumed to be zero.
          There are     3 degrees of freedom in the 1st order CPHF.  IDoFFX=0.
      3 vectors produced by pass  0 Test12= 1.80D-12 3.33D-08 XBig12= 1.22D+02 1.30D+00.
 AX will form     3 AO Fock derivatives at one time.
      3 vectors produced by pass  1 Test12= 1.80D-12 3.33D-08 XBig12= 2.34D+01 3.94D-01.
      3 vectors produced by pass  2 Test12= 1.80D-12 3.33D-08 XBig12= 9.69D+00 2.64D-01.
      3 vectors produced by pass  3 Test12= 1.80D-12 3.33D-08 XBig12= 1.03D+00 7.39D-02.
      3 vectors produced by pass  4 Test12= 1.80D-12 3.33D-08 XBig12= 3.32D-01 3.71D-02.
      3 vectors produced by pass  5 Test12= 1.80D-12 3.33D-08 XBig12= 5.31D-02 1.60D-02.
      3 vectors produced by pass  6 Test12= 1.80D-12 3.33D-08 XBig12= 1.86D-02 1.47D-02.
      3 vectors produced by pass  7 Test12= 1.80D-12 3.33D-08 XBig12= 3.50D-03 6.31D-03.
      3 vectors produced by pass  8 Test12= 1.80D-12 3.33D-08 XBig12= 7.95D-04 2.29D-03.
      3 vectors produced by pass  9 Test12= 1.80D-12 3.33D-08 XBig12= 1.92D-04 1.10D-03.
      3 vectors produced by pass 10 Test12= 1.80D-12 3.33D-08 XBig12= 5.99D-05 8.48D-04.
      3 vectors produced by pass 11 Test12= 1.80D-12 3.33D-08 XBig12= 1.03D-05 4.20D-04.
      3 vectors produced by pass 12 Test12= 1.80D-12 3.33D-08 XBig12= 1.95D-06 1.98D-04.
      3 vectors produced by pass 13 Test12= 1.80D-12 3.33D-08 XBig12= 2.87D-07 7.93D-05.
      3 vectors produced by pass 14 Test12= 1.80D-12 3.33D-08 XBig12= 5.42D-08 3.68D-05.
      3 vectors produced by pass 15 Test12= 1.80D-12 3.33D-08 XBig12= 1.46D-08 1.81D-05.
      3 vectors produced by pass 16 Test12= 1.80D-12 3.33D-08 XBig12= 1.83D-09 6.60D-06.
      3 vectors produced by pass 17 Test12= 1.80D-12 3.33D-08 XBig12= 2.55D-10 1.61D-06.
      3 vectors produced by pass 18 Test12= 1.80D-12 3.33D-08 XBig12= 4.10D-11 4.96D-07.
      3 vectors produced by pass 19 Test12= 1.80D-12 3.33D-08 XBig12= 1.81D-11 3.18D-07.
      3 vectors produced by pass 20 Test12= 1.80D-12 3.33D-08 XBig12= 8.26D-12 2.33D-07.
      1 vectors produced by pass 21 Test12= 1.80D-12 3.33D-08 XBig12= 3.18D-12 1.09D-07.
 Inverted reduced A of dimension    64 with in-core refinement.
 End of Minotr Frequency-dependent properties file   721 does not exist.
 End of Minotr Frequency-dependent properties file   722 does not exist.
 Symmetrizing basis deriv contribution to polar:
 IMax=3 JMax=2 DiffMx= 0.00D+00
 G2DrvN: will do    16 centers at a time, making    3 passes doing MaxLOS=2.
 Calling FoFCou, ICntrl=  3107 FMM=F I1Cent=   0 AccDes= 0.00D+00.
 Calling FoFCou, ICntrl=  3107 FMM=F I1Cent=   0 AccDes= 0.00D+00.
 Calling FoFCou, ICntrl=  3107 FMM=F I1Cent=   0 AccDes= 0.00D+00.
 FoFDir/FoFCou used for L=0 through L=2.
 End of G2Drv Frequency-dependent properties file   721 does not exist.
 End of G2Drv Frequency-dependent properties file   722 does not exist.
          IDoAtm=111111111111111111111111111111111111111111111
          Differentiating once with respect to electric field.
                with respect to dipole field.
          Differentiating once with respect to nuclear coordinates.
          There are   138 degrees of freedom in the 1st order CPHF.  IDoFFX=5.
 Will reuse    3 saved solutions.
    135 vectors produced by pass  0 Test12= 5.41D-14 1.00D-09 XBig12= 1.87D-01 5.64D-02.
 AX will form    45 AO Fock derivatives at one time.
    135 vectors produced by pass  1 Test12= 5.41D-14 1.00D-09 XBig12= 1.96D-02 1.15D-02.
