Gaussian '09 started on node025 at Thu Mar 31 03:00:36 EDT 2016.
 Entering Gaussian System, Link 0=/usr/local/gaussian/g09/g09
 Initial command:
 /usr/local/gaussian/g09/l1.exe /home/srmcgrat/thesis/gaussian/cellobiose/500K/5480ps/1/2dp/gaussian9807/Gau-9843.inp -scrdir=/home/srmcgrat/thesis/gaussian/cellobiose/500K/5480ps/1/2dp/gaussian9807/
 Entering Link 1 = /usr/local/gaussian/g09/l1.exe PID=      9845.
  
 Copyright (c) 1988,1990,1992,1993,1995,1998,2003,2009,2010,
            Gaussian, Inc.  All Rights Reserved.
  
 This is part of the Gaussian(R) 09 program.  It is based on
 the Gaussian(R) 03 system (copyright 2003, Gaussian, Inc.),
 the Gaussian(R) 98 system (copyright 1998, Gaussian, Inc.),
 the Gaussian(R) 94 system (copyright 1995, Gaussian, Inc.),
 the Gaussian 92(TM) system (copyright 1992, Gaussian, Inc.),
 the Gaussian 90(TM) system (copyright 1990, Gaussian, Inc.),
 the Gaussian 88(TM) system (copyright 1988, Gaussian, Inc.),
 the Gaussian 86(TM) system (copyright 1986, Carnegie Mellon
 University), and the Gaussian 82(TM) system (copyright 1983,
 Carnegie Mellon University). Gaussian is a federally registered
 trademark of Gaussian, Inc.
  
 This software contains proprietary and confidential information,
 including trade secrets, belonging to Gaussian, Inc.
  
 This software is provided under written license and may be
 used, copied, transmitted, or stored only in accord with that
 written license.
  
 The following legend is applicable only to US Government
 contracts under FAR:
  
                    RESTRICTED RIGHTS LEGEND
  
 Use, reproduction and disclosure by the US Government is
 subject to restrictions as set forth in subparagraphs (a)
 and (c) of the Commercial Computer Software - Restricted
 Rights clause in FAR 52.227-19.
  
 Gaussian, Inc.
 340 Quinnipiac St., Bldg. 40, Wallingford CT 06492
  
  
 ---------------------------------------------------------------
 Warning -- This program may not be used in any manner that
 competes with the business of Gaussian, Inc. or will provide
 assistance to any competitor of Gaussian, Inc.  The licensee
 of this program is prohibited from giving any competitor of
 Gaussian, Inc. access to this program.  By using this program,
 the user acknowledges that Gaussian, Inc. is engaged in the
 business of creating and licensing software in the field of
 computational chemistry and represents and warrants to the
 licensee that it is not a competitor of Gaussian, Inc. and that
 it will not use this program in any manner prohibited above.
 ---------------------------------------------------------------
  

 Cite this work as:
 Gaussian 09, Revision B.01,
 M. J. Frisch, G. W. Trucks, H. B. Schlegel, G. E. Scuseria, 
 M. A. Robb, J. R. Cheeseman, G. Scalmani, V. Barone, B. Mennucci, 
 G. A. Petersson, H. Nakatsuji, M. Caricato, X. Li, H. P. Hratchian, 
 A. F. Izmaylov, J. Bloino, G. Zheng, J. L. Sonnenberg, M. Hada, 
 M. Ehara, K. Toyota, R. Fukuda, J. Hasegawa, M. Ishida, T. Nakajima, 
 Y. Honda, O. Kitao, H. Nakai, T. Vreven, J. A. Montgomery, Jr., 
 J. E. Peralta, F. Ogliaro, M. Bearpark, J. J. Heyd, E. Brothers, 
 K. N. Kudin, V. N. Staroverov, T. Keith, R. Kobayashi, J. Normand, 
 K. Raghavachari, A. Rendell, J. C. Burant, S. S. Iyengar, J. Tomasi, 
 M. Cossi, N. Rega, J. M. Millam, M. Klene, J. E. Knox, J. B. Cross, 
 V. Bakken, C. Adamo, J. Jaramillo, R. Gomperts, R. E. Stratmann, 
 O. Yazyev, A. J. Austin, R. Cammi, C. Pomelli, J. W. Ochterski, 
 R. L. Martin, K. Morokuma, V. G. Zakrzewski, G. A. Voth, 
 P. Salvador, J. J. Dannenberg, S. Dapprich, A. D. Daniels, 
 O. Farkas, J. B. Foresman, J. V. Ortiz, J. Cioslowski, 
 and D. J. Fox, Gaussian, Inc., Wallingford CT, 2010.
 
 ******************************************
 Gaussian 09:  EM64L-G09RevB.01 12-Aug-2010
                31-Mar-2016 
 ******************************************
 -------------------------------------------------
 # freq=raman b3lyp/6-31+g(2d,p) geom=connectivity
 -------------------------------------------------
 1/10=4,30=1,38=1,57=2/1,3;
 2/12=2,17=6,18=5,40=1/2;
 3/5=1,6=6,7=112,11=2,16=1,25=1,30=1,71=2,74=-5/1,2,3;
 4//1;
 5/5=2,38=5,98=1/2;
 8/6=4,10=90,11=11/1;
 10/13=10,15=4/2;
 11/6=3,8=1,9=11,15=111,16=1/1,2,10;
 10/6=1/2;
 6/7=2,8=2,9=2,10=2,18=1,28=1/1;
 7/8=1,10=1,25=1/1,2,3,16;
 1/10=4,30=1/3;
 99//99;
 -----------------
 500 5480/5480.com
 -----------------
 Symbolic Z-matrix:
 Charge =  0 Multiplicity = 1
 O                     8.583     7.792     12.148 
 C                     9.275     7.715     13.402 
 C                     9.377     9.126     13.958 
 O                     10.004    10.18     13.212 
 H                     9.798     10.054    12.241 
 C                     9.83      9.234     15.405 
 O                     9.587     10.53     15.97 
 H                     10.056    11.296    15.53 
 C                     8.757     5.29      13.953 
 O                     8.648     4.297     14.983 
 H                     8.884     3.432     14.54 
 C                     8.682     6.739     14.406 
 O                     9.41      6.875     15.635 
 C                     9.206     8.147     16.265 
 O                     10.064    7.938     17.396 
 C                     9.511     7.553     18.663 
 C                     9.318     6.103     19.074 
 O                     8.699     5.317     18.045 
 H                     8.932     5.716     17.158 
 C                     8.569     5.947     20.387 
 O                     8.13      4.604     20.637 
 H                     7.725     4.351     19.758 
 C                     10.165    9.64      19.588 
 O                     11.124    10.573    20.106 
 H                     10.779    11.508    20.194 
 C                     10.233    8.146     19.862 
 O                     9.571     8.035     21.131 
 C                     9.315     6.671     21.495 
 O                     8.604     6.651     22.741 
 H                     9.23156   6.63934   23.46738 
 H                     9.22141   7.83594   11.43239 
 H                     9.69189   5.14717   13.45251 
 H                     7.97099   5.12247   13.24659 
 H                     7.65781   6.99668   14.57785 
 H                     10.27077   7.38369   13.19323 
 H                     8.35311   9.43453   13.99497 
 H                     10.8885   9.07797   15.41657 
 H                     8.18678   8.3331    16.53232 
 H                     9.20611   9.96826   19.93105 
 H                     10.17419   9.7543    18.52416 
 H                     11.24709   7.80907   19.91667 
 H                     8.53042   7.98106   18.67404 
 H                     10.29533   5.69521   19.2271 
 H                     7.66541   6.50534   20.25784 
 H                     10.25532   6.18119   21.63916 
 

 GradGradGradGradGradGradGradGradGradGradGradGradGradGradGradGradGradGrad
 Berny optimization.
 Initialization pass.
 Trust Radius=3.00D-01 FncErr=1.00D-07 GrdErr=1.00D-07
 Number of steps in this run=      2 maximum allowed number of steps=      2.
 GradGradGradGradGradGradGradGradGradGradGradGradGradGradGradGradGradGrad

                          Input orientation:                          
 ---------------------------------------------------------------------
 Center     Atomic      Atomic             Coordinates (Angstroms)
 Number     Number       Type             X           Y           Z
 ---------------------------------------------------------------------
      1          8           0        8.583000    7.792000   12.148000
      2          6           0        9.275000    7.715000   13.402000
      3          6           0        9.377000    9.126000   13.958000
      4          8           0       10.004000   10.180000   13.212000
      5          1           0        9.798000   10.054000   12.241000
      6          6           0        9.830000    9.234000   15.405000
      7          8           0        9.587000   10.530000   15.970000
      8          1           0       10.056000   11.296000   15.530000
      9          6           0        8.757000    5.290000   13.953000
     10          8           0        8.648000    4.297000   14.983000
     11          1           0        8.884000    3.432000   14.540000
     12          6           0        8.682000    6.739000   14.406000
     13          8           0        9.410000    6.875000   15.635000
     14          6           0        9.206000    8.147000   16.265000
     15          8           0       10.064000    7.938000   17.396000
     16          6           0        9.511000    7.553000   18.663000
     17          6           0        9.318000    6.103000   19.074000
     18          8           0        8.699000    5.317000   18.045000
     19          1           0        8.932000    5.716000   17.158000
     20          6           0        8.569000    5.947000   20.387000
     21          8           0        8.130000    4.604000   20.637000
     22          1           0        7.725000    4.351000   19.758000
     23          6           0       10.165000    9.640000   19.588000
     24          8           0       11.124000   10.573000   20.106000
     25          1           0       10.779000   11.508000   20.194000
     26          6           0       10.233000    8.146000   19.862000
     27          8           0        9.571000    8.035000   21.131000
     28          6           0        9.315000    6.671000   21.495000
     29          8           0        8.604000    6.651000   22.741000
     30          1           0        9.231560    6.639341   23.467383
     31          1           0        9.221408    7.835941   11.432385
     32          1           0        9.691886    5.147170   13.452512
     33          1           0        7.970986    5.122475   13.246589
     34          1           0        7.657809    6.996684   14.577849
     35          1           0       10.270765    7.383688   13.193233
     36          1           0        8.353114    9.434529   13.994966
     37          1           0       10.888500    9.077974   15.416567
     38          1           0        8.186782    8.333097   16.532323
     39          1           0        9.206112    9.968259   19.931046
     40          1           0       10.174194    9.754299   18.524162
     41          1           0       11.247094    7.809068   19.916672
     42          1           0        8.530418    7.981062   18.674035
     43          1           0       10.295328    5.695214   19.227100
     44          1           0        7.665407    6.505335   20.257842
     45          1           0       10.255320    6.181188   21.639160
 ---------------------------------------------------------------------
                    Distance matrix (angstroms):
                    1          2          3          4          5
     1  O    0.000000
     2  C    1.434332   0.000000
     3  C    2.384553   1.520020   0.000000
     4  O    2.975547   2.577550   1.435465   0.000000
     5  H    2.569342   2.663151   1.996626   1.000576   0.000000
     6  C    3.773913   2.574373   1.520093   2.394669   3.268688
     7  O    4.807530   3.823113   2.462409   2.811219   3.765174
     8  H    5.087796   4.238149   2.764258   2.573186   3.525145
     9  C    3.090033   2.540187   3.885784   5.100607   5.168203
    10  O    4.500719   3.817776   4.990121   6.291650   6.479515
    11  H    4.982155   4.448822   5.744859   6.968033   7.069065
    12  C    2.493426   1.520605   2.526163   3.874765   4.113624
    13  O    3.699187   2.389584   2.807208   4.140868   4.666457
    14  C    4.178976   2.896231   2.511958   3.753758   4.492181
    15  O    5.454923   4.077289   3.701778   4.747212   5.578731
    16  C    6.585099   5.268782   4.962793   6.071044   6.897786
    17  C    7.166758   5.896777   5.942682   7.173254   7.907635
    18  O    6.396381   5.257340   5.627765   6.979232   7.571881
    19  H    5.434306   4.268628   4.697459   6.053709   6.614007
    20  C    8.443065   7.239785   7.217406   8.453292   9.205173
    21  O    9.079189   7.958302   8.161650   9.472818  10.147785
    22  H    8.395758   7.356476   7.692186   9.056556   9.660581
    23  C    7.827607   6.539443   5.708068   6.400851   7.367801
    24  O    8.804567   7.518682   6.553146   6.995433   7.992863
    25  H    9.130673   7.923391   6.821087   7.149303   8.144120
    26  C    7.896430   6.544855   6.045689   6.957880   7.868248
    27  O    9.040436   7.741283   7.258088   8.215782   9.119210
    28  C    9.442398   8.160158   7.926994   9.021967   9.864811
    29  O   10.654294   9.423336   9.157742  10.257470  11.102074
    30  H   11.396390  10.122790   9.830209  10.876848  11.747870
    31  H    0.960000   1.974052   2.840280   3.045339   2.430247
    32  H    3.150635   2.601940   4.023152   5.048231   5.055294
    33  H    2.950902   2.906165   4.302464   5.450955   5.354356
    34  H    2.718947   2.124595   2.806032   4.183737   4.403233
    35  H    2.026767   1.070000   2.102222   2.809071   2.874165
    36  H    2.482344   2.039182   1.070000   1.973370   2.355385
    37  H    4.201498   2.918828   2.101037   2.618571   3.496576
    38  H    4.435320   3.371229   2.944903   4.211636   4.896222
    39  H    8.105564   6.907269   6.034557   6.769567   7.713267
    40  H    6.858422   5.586039   4.677618   5.331909   6.301545
    41  H    8.212792   6.807272   6.382581   7.219365   8.127456
    42  H    6.528985   5.330999   4.926315   6.069646   6.876611
    43  H    7.579065   6.249191   6.354292   7.508635   8.249360
    44  H    8.262386   7.145393   7.034589   8.283481   9.022789
    45  H    9.771054   8.435900   8.273064   9.331167  10.175128
                    6          7          8          9         10
     6  C    0.000000
     7  O    1.434535   0.000000
     8  H    2.078111   1.000158   0.000000
     9  C    4.337599   5.675807   6.344002   0.000000
    10  O    5.094033   6.380139   7.160145   1.434862   0.000000
    11  H    5.941914   7.274662   8.012252   1.952655   1.000085
    12  C    2.922487   4.199619   4.890552   1.520012   2.509472
    13  O    2.407111   3.674586   4.469181   2.401616   2.766194
    14  C    1.520048   2.431229   3.343490   3.702620   4.096021
    15  O    2.387143   2.996576   3.841638   4.535901   4.591787
    16  C    3.679957   4.015041   4.911493   5.279563   4.988858
    17  C    4.850450   5.413456   6.330231   5.215394   4.521816
    18  O    4.857124   5.680628   6.626848   4.092500   3.227824
    19  H    4.031840   5.001496   5.920318   3.237920   2.612440
    20  C    6.100395   6.445937   7.376545   6.470189   5.650837
    21  O    7.190322   7.682527   8.635612   6.748302   5.685973
    22  H    6.871923   7.483049   8.458284   5.970324   4.863689
    23  C    4.215987   3.770425   4.384242   7.256596   7.214913
    24  O    5.056358   4.412563   4.754275   8.448206   8.471357
    25  H    5.385740   4.496613   4.724465   9.038921   9.148454
    26  C    4.605540   4.609603   5.359109   6.726930   6.413397
    27  O    5.855916   5.732469   6.499273   7.727956   7.254135
    28  C    6.627390   6.744738   7.584255   7.687671   6.963254
    29  O    7.873491   7.865073   8.699589   8.894081   8.107393
    30  H    8.490725   8.454249   9.239385   9.621300   8.821103
    31  H    4.255188   5.289760   5.427614   3.612616   5.045767
    32  H    4.531386   5.943366   6.500511   1.070000   2.038352
    33  H    5.001931   6.266562   6.904612   1.070000   2.038352
    34  H    3.226170   4.259599   5.014183   2.124012   2.903949
    35  H    2.917163   4.251735   4.562104   2.693002   3.919729
    36  H    2.051731   2.573576   2.953172   4.164374   5.239979
    37  H    1.070000   2.026961   2.371827   4.586291   5.297691
    38  H    2.186927   2.665183   3.643820   4.029702   4.347782
    39  H    4.627468   4.018770   4.674870   7.604264   7.547041
    40  H    3.180936   2.733176   3.369840   6.544763   6.682156
    41  H    4.939005   5.073027   5.728900   6.936257   6.590223
    42  H    3.734349   3.863322   4.816760   5.438872   5.216309
    43  H    5.229530   5.872443   6.715253   5.508791   4.762465
    44  H    5.973370   6.186763   7.142681   6.513036   5.802257
    45  H    6.954517   7.176224   7.970123   7.881385   7.101979
                   11         12         13         14         15
    11  H    0.000000
    12  C    3.315872   0.000000
    13  O    3.651020   1.434894   0.000000
    14  C    5.030958   2.390172   1.434050   0.000000
    15  O    5.463806   3.505371   2.158427   1.434924   0.000000
    16  C    5.863011   4.412696   3.104621   2.489230   1.435034
    17  C    5.280128   4.753863   3.525786   3.475768   2.596040
    18  O    3.984027   3.907006   2.956516   3.381471   3.025569
    19  H    3.474606   2.946614   1.972636   2.604282   2.505065
    20  C    6.372743   6.034268   4.914262   4.715576   3.891682
    21  O    6.254239   6.609712   5.640554   5.729311   5.035871
    22  H    5.423593   5.938207   5.119466   5.366938   4.890453
    23  C    8.103242   6.121128   4.882772   3.767102   2.777025
    24  O    9.326941   7.290605   6.050028   4.931276   3.925675
    25  H   10.038950   7.787279   6.642539   5.404414   4.591833
    26  C    7.236386   5.844073   4.490022   3.740740   2.480520
    27  O    8.068510   6.906197   5.619389   4.880955   3.768645
    28  C    7.684329   7.117530   5.864319   5.435380   4.355237
    29  O    8.814577   8.335829   7.155071   6.673754   5.688321
    30  H    9.492418   9.078580   7.837959   7.358534   6.264277
    31  H    5.400538   3.215062   4.315200   4.842640   6.023710
    32  H    2.185662   2.112565   2.797876   4.140670   4.845441
    33  H    2.316077   2.112565   3.293420   4.447901   5.433738
    34  H    3.769874   1.070000   2.050012   2.562538   3.823324
    35  H    4.399174   2.100143   2.638542   3.339479   4.244204
    36  H    6.050559   2.746451   3.218371   2.745578   4.090692
    37  H    6.055032   3.370562   2.662099   2.101751   2.428476
    38  H    5.336311   2.703264   2.104162   1.070000   2.103803
    39  H    8.478786   6.420976   5.297719   4.093516   3.359223
    40  H    7.583509   5.317699   4.149893   2.936771   2.140989
    41  H    7.324721   6.171893   4.751854   4.197020   2.787494
    42  H    6.157047   4.447676   3.351533   2.507468   1.996773
    43  H    5.392855   5.189925   3.883154   3.996489   2.904570
    44  H    6.604852   5.944082   4.954889   4.583806   3.999489
    45  H    7.735414   7.423281   6.102940   5.817825   4.596455
                   16         17         18         19         20
    16  C    0.000000
    17  C    1.519431   0.000000
    18  O    2.457837   1.435200   0.000000
    19  H    2.444348   1.992441   1.000129   0.000000
    20  C    2.537474   1.519640   2.428737   3.257541   0.000000
    21  O    3.807944   2.470084   2.747834   3.739410   1.434876
    22  H    3.826438   2.464753   2.194584   3.174913   1.911856
    23  C    2.374639   3.673142   4.818541   4.777339   4.101691
    24  O    3.715430   4.930270   6.144419   6.089829   5.292151
    25  H    4.426490   5.709899   6.875542   6.795290   5.987159
    26  C    1.520044   2.373187   3.695658   3.861233   2.807155
    27  O    2.515343   2.833352   4.203725   4.644439   2.432547
    28  C    2.972636   2.486740   3.757030   4.457385   1.519327
    29  O    4.273914   3.775843   4.882724   5.670247   2.457266
    30  H    4.898465   4.426844   5.606643   6.383621   3.226001
    31  H    7.241941   7.836242   7.095396   6.112330   9.174904
    32  H    5.741944   5.714414   4.701660   3.825132   7.070200
    33  H    6.133238   6.060907   4.857221   4.071235   7.212693
    34  H    4.520206   4.875477   3.990809   3.149745   5.973135
    35  H    5.524877   6.093549   5.502844   4.504759   7.530628
    36  H    5.164436   6.150340   5.785885   4.916030   7.284749
    37  H    3.842184   4.969281   5.084043   4.261848   6.315717
    38  H    2.627145   3.565545   3.412829   2.792135   4.549515
    39  H    2.744881   3.960716   5.044654   5.083958   4.096868
    40  H    2.303219   3.790432   4.700576   4.440417   4.532365
    41  H    2.156685   2.709644   4.025710   4.165437   3.295557
    42  H    1.070000   2.075421   2.742504   2.755020   2.659538
    43  H    2.093979   1.070000   2.022046   2.477957   2.094988
    44  H    2.654682   2.072298   2.716086   3.440396   1.070000
    45  H    3.360567   2.732166   4.010853   4.695569   2.113392
                   21         22         23         24         25
    21  O    0.000000
    22  H    1.000337   0.000000
    23  C    5.531991   5.827180   0.000000
    24  O    6.698877   7.098422   1.434745   0.000000
    25  H    7.408014   7.793565   2.057585   1.000497   0.000000
    26  C    4.191539   4.550045   1.520439   2.596872   3.422190
    27  O    3.753968   4.343351   2.304281   3.147043   3.794596
    28  C    2.532366   3.305702   3.629616   4.519669   5.218474
    29  O    2.973500   3.867936   4.616519   5.354970   5.899854
    30  H    3.656107   4.611480   4.992483   5.509438   6.067409
    31  H    9.816392   9.148766   8.405894   9.292090   9.626838
    32  H    7.372339   6.652947   7.619289   8.703992   9.332182
    33  H    7.410282   6.561567   8.089205   9.311350   9.845121
    34  H    6.531555   5.817055   6.194735   7.440764   7.850793
    35  H    8.229168   7.666439   6.781974   7.660683   8.141191
    36  H    8.215863   7.710341   5.882787   6.805782   6.972247
    37  H    7.408015   7.155421   4.270853   4.927611   5.361053
    38  H    5.545968   5.145418   3.867623   5.139609   5.496133
    39  H    5.516490   5.811818   1.070000   2.018567   2.216737
    40  H    5.930294   6.059418   1.070000   2.018567   2.495920
    41  H    4.528533   4.938477   2.152038   2.773142   3.738733
    42  H    3.926590   3.873116   2.501853   3.936412   4.450361
    43  H    2.804855   2.948789   3.963404   5.025133   5.912471
    44  H    1.993661   2.212364   4.064822   5.341425   5.892808
    45  H    2.829988   3.645665   4.022287   4.732145   5.544155
                   26         27         28         29         30
    26  C    0.000000
    27  O    1.435593   0.000000
    28  C    2.384332   1.434757   0.000000
    29  O    3.630056   2.332948   1.434725   0.000000
    30  H    4.033819   2.742585   1.974401   0.960000   0.000000
    31  H    8.495756   9.706955  10.130255  11.387276  12.094343
    32  H    7.096994   8.204471   8.194249   9.472117  10.135883
    33  H    7.617223   8.556097   8.499447   9.637476  10.409350
    34  H    5.989556   6.905229   7.120346   8.225072   9.034833
    35  H    6.712302   7.995125   8.386939   9.719814  10.353365
    36  H    6.294154   7.373257   8.050642   9.181726   9.915213
    37  H    4.589132   5.956370   6.724342   8.047140   8.573683
    38  H    3.912641   4.811731   5.353840   6.446021   7.214945
    39  H    2.092819   2.304457   3.650990   4.388916   4.856751
    40  H    2.092819   3.180477   4.367015   5.466049   5.918358
    41  H    1.070000   2.082050   2.742135   4.037808   4.247139
    42  H    2.082607   2.668782   3.207752   4.279565   5.026729
    43  H    2.532456   3.102271   2.656421   4.015173   4.472470
    44  H    3.072622   2.594911   2.068613   2.658618   3.573786
    45  H    2.649393   2.040377   1.070000   2.040008   2.144852
                   31         32         33         34         35
    31  H    0.000000
    32  H    3.395843   0.000000
    33  H    3.495396   1.733353   0.000000
    34  H    3.611528   2.970615   2.320128   0.000000
    35  H    2.099112   2.324723   3.225666   2.982360   0.000000
    36  H    3.142648   4.524159   4.393166   2.601209   2.919951
    37  H    4.493945   4.554186   5.372771   3.933520   2.862763
    38  H    5.227522   4.679819   4.598991   2.426063   4.048937
    39  H    8.762091   8.090134   8.348001   6.315395   7.294629
    40  H    7.408184   6.868761   7.359395   5.432312   5.835060
    41  H    8.722801   7.161685   7.901942   6.484286   6.807261
    42  H    7.275990   6.053450   6.159680   4.302231   5.781424
    43  H    8.154360   5.831840   6.441825   5.501442   6.265708
    44  H    9.059820   7.229366   7.152856   5.701210   7.580771
    45  H   10.391604   8.270904   8.762095   7.567973   8.531115
                   36         37         38         39         40
    36  H    0.000000
    37  H    2.928526   0.000000
    38  H    2.771101   3.016461   0.000000
    39  H    6.020757   4.899343   3.906930   0.000000
    40  H    4.892055   3.259570   3.152308   1.721129   0.000000
    41  H    6.788509   4.689314   4.592814   2.971182   2.621855
    42  H    4.902825   4.168317   2.197486   2.446547   2.422567
    43  H    6.717879   5.129823   4.320442   4.465517   4.121282
    44  H    6.948146   6.359618   4.182348   3.804262   4.455942
    45  H    8.522694   6.892964   5.915179   4.284903   4.740982
                   41         42         43         44         45
    41  H    0.000000
    42  H    2.992334   0.000000
    43  H    2.418625   2.940389   0.000000
    44  H    3.826826   2.331192   2.938573   0.000000
    45  H    2.569158   3.873861   2.460855   2.953093   0.000000
 Stoichiometry    C12H22O11
 Framework group  C1[X(C12H22O11)]
 Deg. of freedom   129
 Full point group                 C1      NOp   1
 Largest Abelian subgroup         C1      NOp   1
 Largest concise Abelian subgroup C1      NOp   1
                         Standard orientation:                         
 ---------------------------------------------------------------------
 Center     Atomic      Atomic             Coordinates (Angstroms)
 Number     Number       Type             X           Y           Z
 ---------------------------------------------------------------------
      1          8           0        5.148378   -0.552559   -0.552407
      2          6           0        3.887573   -0.272219    0.071362
      3          6           0        3.503057    1.153326   -0.289790
      4          8           0        4.363508    2.260440    0.017592
      5          1           0        5.314451    1.970266   -0.094922
      6          6           0        2.075021    1.555659    0.041155
      7          8           0        1.671150    2.766709   -0.613166
      8          1           0        2.194936    3.586734   -0.381812
      9          6           0        3.055988   -2.661815    0.296854
     10          8           0        1.915894   -3.519432    0.450181
     11          1           0        2.250168   -4.312150    0.960112
     12          6           0        2.779966   -1.266614   -0.239485
     13          8           0        1.569065   -0.776740    0.354371
     14          6           0        1.097422    0.430916   -0.258508
     15          8           0       -0.058621    0.624434    0.569212
     16          6           0       -1.357159    0.229618    0.103120
     17          6           0       -1.936464   -1.154031    0.345178
     18          8           0       -1.002774   -2.201842    0.044992
     19          1           0       -0.076758   -1.850934    0.185055
     20          6           0       -3.251450   -1.388233   -0.379576
     21          8           0       -3.655780   -2.764856   -0.396786
     22          1           0       -2.809427   -3.226444   -0.663805
     23          6           0       -2.032607    2.505363    0.042567
     24          8           0       -2.444689    3.740833    0.644477
     25          1           0       -2.417115    4.526632    0.025806
     26          6           0       -2.483656    1.145880    0.552566
     27          8           0       -3.750421    0.976263   -0.101241
     28          6           0       -4.272193   -0.350888    0.056722
     29          8           0       -5.504789   -0.452294   -0.670506
     30          1           0       -6.233357   -0.188554   -0.103735
     31          1           0        5.857962   -0.392391    0.074041
     32          1           0        3.526850   -2.562379    1.252522
     33          1           0        3.744855   -3.141652   -0.366560
     34          1           0        2.649946   -1.321594   -1.300132
     35          1           0        4.045727   -0.299658    1.129254
     36          1           0        3.513017    1.131541   -1.359521
     37          1           0        2.034754    1.737549    1.094813
     38          1           0        0.864021    0.320431   -1.296880
     39          1           0       -2.324792    2.556191   -0.985511
     40          1           0       -0.962870    2.498521    0.065263
     41          1           0       -2.587892    1.147941    1.617474
     42          1           0       -1.307600    0.331263   -0.960887
     43          1           0       -2.146525   -1.219388    1.392318
     44          1           0       -3.047892   -1.155213   -1.403863
     45          1           0       -4.482817   -0.506160    1.094233
 ---------------------------------------------------------------------
 Rotational constants (GHZ):      0.3800572      0.1506575      0.1111764
 Standard basis: 6-31+G(2d,p) (6D, 7F)
 There are   685 symmetry adapted basis functions of A   symmetry.
 Integral buffers will be    131072 words long.
 Raffenetti 2 integral format.
 Two-electron integral symmetry is turned on.
   685 basis functions,  1028 primitive gaussians,   685 cartesian basis functions
    91 alpha electrons       91 beta electrons
       nuclear repulsion energy      2274.4471390413 Hartrees.
 NAtoms=   45 NActive=   45 NUniq=   45 SFac= 1.00D+00 NAtFMM=   50 NAOKFM=F Big=F
 One-electron integrals computed using PRISM.
 NBasis=   685 RedAO= T  NBF=   685
 NBsUse=   685 1.00D-06 NBFU=   685
 Harris functional with IExCor=  402 diagonalized for initial guess.
 ExpMin= 4.38D-02 ExpMax= 5.48D+03 ExpMxC= 8.25D+02 IAcc=2 IRadAn=         0 AccDes= 0.00D+00
 HarFok:  IExCor=  402 AccDes= 0.00D+00 IRadAn=         0 IDoV= 1
 ScaDFX=  1.000000  1.000000  1.000000  1.000000
 FoFCou: FMM=F IPFlag=           0 FMFlag=      100000 FMFlg1=           0
         NFxFlg=           0 DoJE=T BraDBF=F KetDBF=T FulRan=T
         Omega=  0.000000  0.000000  1.000000  0.000000  0.000000 ICntrl=     500 IOpCl=  0
         NMat0=    1 NMatS0=    1 NMatT0=    0 NMatD0=    1 NMtDS0=    0 NMtDT0=    0
         I1Cent=           4 NGrid=           0.
 Petite list used in FoFCou.
 Initial guess orbital symmetries:
       Occupied  (A) (A) (A) (A) (A) (A) (A) (A) (A) (A) (A) (A)
                 (A) (A) (A) (A) (A) (A) (A) (A) (A) (A) (A) (A)
                 (A) (A) (A) (A) (A) (A) (A) (A) (A) (A) (A) (A)
                 (A) (A) (A) (A) (A) (A) (A) (A) (A) (A) (A) (A)
                 (A) (A) (A) (A) (A) (A) (A) (A) (A) (A) (A) (A)
                 (A) (A) (A) (A) (A) (A) (A) (A) (A) (A) (A) (A)
                 (A) (A) (A) (A) (A) (A) (A) (A) (A) (A) (A) (A)
                 (A) (A) (A) (A) (A) (A) (A)
       Virtual   (A) (A) (A) (A) (A) (A) (A) (A) (A) (A) (A) (A)
                 (A) (A) (A) (A) (A) (A) (A) (A) (A) (A) (A) (A)
                 (A) (A) (A) (A) (A) (A) (A) (A) (A) (A) (A) (A)
                 (A) (A) (A) (A) (A) (A) (A) (A) (A) (A) (A) (A)
                 (A) (A) (A) (A) (A) (A) (A) (A) (A) (A) (A) (A)
                 (A) (A) (A) (A) (A) (A) (A) (A) (A) (A) (A) (A)
                 (A) (A) (A) (A) (A) (A) (A) (A) (A) (A) (A) (A)
                 (A) (A) (A) (A) (A) (A) (A) (A) (A) (A) (A) (A)
                 (A) (A) (A) (A) (A) (A) (A) (A) (A) (A) (A) (A)
                 (A) (A) (A) (A) (A) (A) (A) (A) (A) (A) (A) (A)
                 (A) (A) (A) (A) (A) (A) (A) (A) (A) (A) (A) (A)
                 (A) (A) (A) (A) (A) (A) (A) (A) (A) (A) (A) (A)
                 (A) (A) (A) (A) (A) (A) (A) (A) (A) (A) (A) (A)
                 (A) (A) (A) (A) (A) (A) (A) (A) (A) (A) (A) (A)
                 (A) (A) (A) (A) (A) (A) (A) (A) (A) (A) (A) (A)
                 (A) (A) (A) (A) (A) (A) (A) (A) (A) (A) (A) (A)
                 (A) (A) (A) (A) (A) (A) (A) (A) (A) (A) (A) (A)
                 (A) (A) (A) (A) (A) (A) (A) (A) (A) (A) (A) (A)
                 (A) (A) (A) (A) (A) (A) (A) (A) (A) (A) (A) (A)
                 (A) (A) (A) (A) (A) (A) (A) (A) (A) (A) (A) (A)
                 (A) (A) (A) (A) (A) (A) (A) (A) (A) (A) (A) (A)
                 (A) (A) (A) (A) (A) (A) (A) (A) (A) (A) (A) (A)
                 (A) (A) (A) (A) (A) (A) (A) (A) (A) (A) (A) (A)
                 (A) (A) (A) (A) (A) (A) (A) (A) (A) (A) (A) (A)
                 (A) (A) (A) (A) (A) (A) (A) (A) (A) (A) (A) (A)
                 (A) (A) (A) (A) (A) (A) (A) (A) (A) (A) (A) (A)
                 (A) (A) (A) (A) (A) (A) (A) (A) (A) (A) (A) (A)
                 (A) (A) (A) (A) (A) (A) (A) (A) (A) (A) (A) (A)
                 (A) (A) (A) (A) (A) (A) (A) (A) (A) (A) (A) (A)
                 (A) (A) (A) (A) (A) (A) (A) (A) (A) (A) (A) (A)
                 (A) (A) (A) (A) (A) (A) (A) (A) (A) (A) (A) (A)
                 (A) (A) (A) (A) (A) (A) (A) (A) (A) (A) (A) (A)
                 (A) (A) (A) (A) (A) (A) (A) (A) (A) (A) (A) (A)
                 (A) (A) (A) (A) (A) (A) (A) (A) (A) (A) (A) (A)
                 (A) (A) (A) (A) (A) (A) (A) (A) (A) (A) (A) (A)
                 (A) (A) (A) (A) (A) (A) (A) (A) (A) (A) (A) (A)
                 (A) (A) (A) (A) (A) (A) (A) (A) (A) (A) (A) (A)
                 (A) (A) (A) (A) (A) (A) (A) (A) (A) (A) (A) (A)
                 (A) (A) (A) (A) (A) (A) (A) (A) (A) (A) (A) (A)
                 (A) (A) (A) (A) (A) (A) (A) (A) (A) (A) (A) (A)
                 (A) (A) (A) (A) (A) (A) (A) (A) (A) (A) (A) (A)
                 (A) (A) (A) (A) (A) (A) (A) (A) (A) (A) (A) (A)
                 (A) (A) (A) (A) (A) (A) (A) (A) (A) (A) (A) (A)
                 (A) (A) (A) (A) (A) (A) (A) (A) (A) (A) (A) (A)
                 (A) (A) (A) (A) (A) (A) (A) (A) (A) (A) (A) (A)
                 (A) (A) (A) (A) (A) (A) (A) (A) (A) (A) (A) (A)
                 (A) (A) (A) (A) (A) (A) (A) (A) (A) (A) (A) (A)
                 (A) (A) (A) (A) (A) (A) (A) (A) (A) (A) (A) (A)
                 (A) (A) (A) (A) (A) (A) (A) (A) (A) (A) (A) (A)
                 (A) (A) (A) (A) (A) (A)
 The electronic state of the initial guess is 1-A.
 Requested convergence on RMS density matrix=1.00D-08 within 128 cycles.
 Requested convergence on MAX density matrix=1.00D-06.
 Requested convergence on             energy=1.00D-06.
 No special actions if energy rises.
 SCF Done:  E(RB3LYP) =  -1297.96249206     A.U. after   14 cycles
             Convg  =    0.1130D-08             -V/T =  2.0065
 Range of M.O.s used for correlation:     1   685
 NBasis=   685 NAE=    91 NBE=    91 NFC=     0 NFV=     0
 NROrb=    685 NOA=    91 NOB=    91 NVA=   594 NVB=   594

 **** Warning!!: The largest alpha MO coefficient is  0.88685444D+02

          Differentiating once with respect to electric field.
                with respect to dipole field.
          Electric field/nuclear overlap derivatives assumed to be zero.
          There are     3 degrees of freedom in the 1st order CPHF.  IDoFFX=0.
      3 vectors produced by pass  0 Test12= 1.80D-12 3.33D-08 XBig12= 1.22D+02 1.30D+00.
 AX will form     3 AO Fock derivatives at one time.
      3 vectors produced by pass  1 Test12= 1.80D-12 3.33D-08 XBig12= 2.34D+01 3.94D-01.
      3 vectors produced by pass  2 Test12= 1.80D-12 3.33D-08 XBig12= 9.69D+00 2.64D-01.
      3 vectors produced by pass  3 Test12= 1.80D-12 3.33D-08 XBig12= 1.03D+00 7.39D-02.
      3 vectors produced by pass  4 Test12= 1.80D-12 3.33D-08 XBig12= 3.32D-01 3.71D-02.
      3 vectors produced by pass  5 Test12= 1.80D-12 3.33D-08 XBig12= 5.31D-02 1.60D-02.
      3 vectors produced by pass  6 Test12= 1.80D-12 3.33D-08 XBig12= 1.86D-02 1.47D-02.
      3 vectors produced by pass  7 Test12= 1.80D-12 3.33D-08 XBig12= 3.50D-03 6.31D-03.
      3 vectors produced by pass  8 Test12= 1.80D-12 3.33D-08 XBig12= 7.95D-04 2.29D-03.
      3 vectors produced by pass  9 Test12= 1.80D-12 3.33D-08 XBig12= 1.92D-04 1.10D-03.
      3 vectors produced by pass 10 Test12= 1.80D-12 3.33D-08 XBig12= 5.99D-05 8.48D-04.
      3 vectors produced by pass 11 Test12= 1.80D-12 3.33D-08 XBig12= 1.03D-05 4.20D-04.
      3 vectors produced by pass 12 Test12= 1.80D-12 3.33D-08 XBig12= 1.95D-06 1.98D-04.
      3 vectors produced by pass 13 Test12= 1.80D-12 3.33D-08 XBig12= 2.87D-07 7.93D-05.
      3 vectors produced by pass 14 Test12= 1.80D-12 3.33D-08 XBig12= 5.42D-08 3.68D-05.
      3 vectors produced by pass 15 Test12= 1.80D-12 3.33D-08 XBig12= 1.46D-08 1.81D-05.
      3 vectors produced by pass 16 Test12= 1.80D-12 3.33D-08 XBig12= 1.83D-09 6.60D-06.
      3 vectors produced by pass 17 Test12= 1.80D-12 3.33D-08 XBig12= 2.55D-10 1.61D-06.
      3 vectors produced by pass 18 Test12= 1.80D-12 3.33D-08 XBig12= 4.10D-11 4.96D-07.
      3 vectors produced by pass 19 Test12= 1.80D-12 3.33D-08 XBig12= 1.81D-11 3.18D-07.
      3 vectors produced by pass 20 Test12= 1.80D-12 3.33D-08 XBig12= 8.26D-12 2.33D-07.
      1 vectors produced by pass 21 Test12= 1.80D-12 3.33D-08 XBig12= 3.18D-12 1.09D-07.
 Inverted reduced A of dimension    64 with in-core refinement.
 End of Minotr Frequency-dependent properties file   721 does not exist.
 End of Minotr Frequency-dependent properties file   722 does not exist.
 Symmetrizing basis deriv contribution to polar:
 IMax=3 JMax=2 DiffMx= 0.00D+00
 G2DrvN: will do    16 centers at a time, making    3 passes doing MaxLOS=2.
 Calling FoFCou, ICntrl=  3107 FMM=F I1Cent=   0 AccDes= 0.00D+00.
 Calling FoFCou, ICntrl=  3107 FMM=F I1Cent=   0 AccDes= 0.00D+00.
 Calling FoFCou, ICntrl=  3107 FMM=F I1Cent=   0 AccDes= 0.00D+00.
 FoFDir/FoFCou used for L=0 through L=2.
 End of G2Drv Frequency-dependent properties file   721 does not exist.
 End of G2Drv Frequency-dependent properties file   722 does not exist.
          IDoAtm=111111111111111111111111111111111111111111111
          Differentiating once with respect to electric field.
                with respect to dipole field.
          Differentiating once with respect to nuclear coordinates.
          There are   138 degrees of freedom in the 1st order CPHF.  IDoFFX=5.
 Will reuse    3 saved solutions.
    135 vectors produced by pass  0 Test12= 5.41D-14 1.00D-09 XBig12= 1.87D-01 5.64D-02.
 AX will form    45 AO Fock derivatives at one time.
    135 vectors produced by pass  1 Test12= 5.41D-14 1.00D-09 XBig12= 1.96D-02 1.15D-02.
    132 vectors produced by pass  2 Test12= 5.41D-14 1.00D-09 XBig12= 1.18D-04 1.57D-03.
    132 vectors produced by pass  3 Test12= 5.41D-14 1.00D-09 XBig12= 4.65D-07 6.68D-05.
    132 vectors produced by pass  4 Test12= 5.41D-14 1.00D-09 XBig12= 9.05D-10 2.55D-06.
    132 vectors produced by pass  5 Test12= 5.41D-14 1.00D-09 XBig12= 2.29D-12 1.12D-07.
     81 vectors produced by pass  6 Test12= 5.41D-14 1.00D-09 XBig12= 8.43D-14 1.83D-08.
 Inverted reduced A of dimension   879 with in-core refinement.
 Isotropic polarizability for W=    0.000000      192.49 Bohr**3.
 End of Minotr Frequency-dependent properties file   721 does not exist.
 End of Minotr Frequency-dependent properties file   722 does not exist.

 **********************************************************************

            Population analysis using the SCF density.

 **********************************************************************

 Orbital symmetries:
       Occupied  (A) (A) (A) (A) (A) (A) (A) (A) (A) (A) (A) (A)
                 (A) (A) (A) (A) (A) (A) (A) (A) (A) (A) (A) (A)
                 (A) (A) (A) (A) (A) (A) (A) (A) (A) (A) (A) (A)
                 (A) (A) (A) (A) (A) (A) (A) (A) (A) (A) (A) (A)
                 (A) (A) (A) (A) (A) (A) (A) (A) (A) (A) (A) (A)
                 (A) (A) (A) (A) (A) (A) (A) (A) (A) (A) (A) (A)
                 (A) (A) (A) (A) (A) (A) (A) (A) (A) (A) (A) (A)
                 (A) (A) (A) (A) (A) (A) (A)
       Virtual   (A) (A) (A) (A) (A) (A) (A) (A) (A) (A) (A) (A)
                 (A) (A) (A) (A) (A) (A) (A) (A) (A) (A) (A) (A)
                 (A) (A) (A) (A) (A) (A) (A) (A) (A) (A) (A) (A)
                 (A) (A) (A) (A) (A) (A) (A) (A) (A) (A) (A) (A)
                 (A) (A) (A) (A) (A) (A) (A) (A) (A) (A) (A) (A)
                 (A) (A) (A) (A) (A) (A) (A) (A) (A) (A) (A) (A)
                 (A) (A) (A) (A) (A) (A) (A) (A) (A) (A) (A) (A)
                 (A) (A) (A) (A) (A) (A) (A) (A) (A) (A) (A) (A)
                 (A) (A) (A) (A) (A) (A) (A) (A) (A) (A) (A) (A)
                 (A) (A) (A) (A) (A) (A) (A) (A) (A) (A) (A) (A)
                 (A) (A) (A) (A) (A) (A) (A) (A) (A) (A) (A) (A)
                 (A) (A) (A) (A) (A) (A) (A) (A) (A) (A) (A) (A)
                 (A) (A) (A) (A) (A) (A) (A) (A) (A) (A) (A) (A)
                 (A) (A) (A) (A) (A) (A) (A) (A) (A) (A) (A) (A)
                 (A) (A) (A) (A) (A) (A) (A) (A) (A) (A) (A) (A)
                 (A) (A) (A) (A) (A) (A) (A) (A) (A) (A) (A) (A)
                 (A) (A) (A) (A) (A) (A) (A) (A) (A) (A) (A) (A)
                 (A) (A) (A) (A) (A) (A) (A) (A) (A) (A) (A) (A)
                 (A) (A) (A) (A) (A) (A) (A) (A) (A) (A) (A) (A)
                 (A) (A) (A) (A) (A) (A) (A) (A) (A) (A) (A) (A)
                 (A) (A) (A) (A) (A) (A) (A) (A) (A) (A) (A) (A)
                 (A) (A) (A) (A) (A) (A) (A) (A) (A) (A) (A) (A)
                 (A) (A) (A) (A) (A) (A) (A) (A) (A) (A) (A) (A)
                 (A) (A) (A) (A) (A) (A) (A) (A) (A) (A) (A) (A)
                 (A) (A) (A) (A) (A) (A) (A) (A) (A) (A) (A) (A)
                 (A) (A) (A) (A) (A) (A) (A) (A) (A) (A) (A) (A)
                 (A) (A) (A) (A) (A) (A) (A) (A) (A) (A) (A) (A)
                 (A) (A) (A) (A) (A) (A) (A) (A) (A) (A) (A) (A)
                 (A) (A) (A) (A) (A) (A) (A) (A) (A) (A) (A) (A)
                 (A) (A) (A) (A) (A) (A) (A) (A) (A) (A) (A) (A)
                 (A) (A) (A) (A) (A) (A) (A) (A) (A) (A) (A) (A)
                 (A) (A) (A) (A) (A) (A) (A) (A) (A) (A) (A) (A)
                 (A) (A) (A) (A) (A) (A) (A) (A) (A) (A) (A) (A)
                 (A) (A) (A) (A) (A) (A) (A) (A) (A) (A) (A) (A)
                 (A) (A) (A) (A) (A) (A) (A) (A) (A) (A) (A) (A)
                 (A) (A) (A) (A) (A) (A) (A) (A) (A) (A) (A) (A)
                 (A) (A) (A) (A) (A) (A) (A) (A) (A) (A) (A) (A)
                 (A) (A) (A) (A) (A) (A) (A) (A) (A) (A) (A) (A)
                 (A) (A) (A) (A) (A) (A) (A) (A) (A) (A) (A) (A)
                 (A) (A) (A) (A) (A) (A) (A) (A) (A) (A) (A) (A)
                 (A) (A) (A) (A) (A) (A) (A) (A) (A) (A) (A) (A)
                 (A) (A) (A) (A) (A) (A) (A) (A) (A) (A) (A) (A)
                 (A) (A) (A) (A) (A) (A) (A) (A) (A) (A) (A) (A)
                 (A) (A) (A) (A) (A) (A) (A) (A) (A) (A) (A) (A)
                 (A) (A) (A) (A) (A) (A) (A) (A) (A) (A) (A) (A)
                 (A) (A) (A) (A) (A) (A) (A) (A) (A) (A) (A) (A)
                 (A) (A) (A) (A) (A) (A) (A) (A) (A) (A) (A) (A)
                 (A) (A) (A) (A) (A) (A) (A) (A) (A) (A) (A) (A)
                 (A) (A) (A) (A) (A) (A) (A) (A) (A) (A) (A) (A)
                 (A) (A) (A) (A) (A) (A)
 The electronic state is 1-A.
 Alpha  occ. eigenvalues --  -19.19494 -19.19349 -19.18705 -19.18130 -19.17193
 Alpha  occ. eigenvalues --  -19.16903 -19.16473 -19.15738 -19.14715 -19.14368
 Alpha  occ. eigenvalues --  -19.13738 -10.32124 -10.28938 -10.27589 -10.27359
 Alpha  occ. eigenvalues --  -10.26309 -10.25974 -10.25446 -10.25280 -10.24481
 Alpha  occ. eigenvalues --  -10.23748 -10.23690 -10.21192  -1.11091  -1.07539
 Alpha  occ. eigenvalues --   -1.07120  -1.05234  -1.04549  -1.03374  -1.02829
 Alpha  occ. eigenvalues --   -1.02506  -1.01344  -1.00036  -0.99783  -0.83074
 Alpha  occ. eigenvalues --   -0.82116  -0.79368  -0.77935  -0.72615  -0.69095
 Alpha  occ. eigenvalues --   -0.67978  -0.64891  -0.63885  -0.62418  -0.61027
 Alpha  occ. eigenvalues --   -0.60006  -0.57447  -0.56597  -0.55521  -0.54675
 Alpha  occ. eigenvalues --   -0.53710  -0.53370  -0.52988  -0.52518  -0.51283
 Alpha  occ. eigenvalues --   -0.50863  -0.49764  -0.48678  -0.47635  -0.46465
 Alpha  occ. eigenvalues --   -0.46314  -0.45403  -0.44345  -0.44060  -0.42977
 Alpha  occ. eigenvalues --   -0.42227  -0.42039  -0.41472  -0.40221  -0.39564
 Alpha  occ. eigenvalues --   -0.38898  -0.37630  -0.37069  -0.37018  -0.36382
 Alpha  occ. eigenvalues --   -0.35643  -0.35231  -0.34456  -0.33698  -0.33428
 Alpha  occ. eigenvalues --   -0.31856  -0.31041  -0.30488  -0.30436  -0.30331
 Alpha  occ. eigenvalues --   -0.29481  -0.29301  -0.28872  -0.26997  -0.26155
 Alpha  occ. eigenvalues --   -0.25556
 Alpha virt. eigenvalues --   -0.03996  -0.02163  -0.00665  -0.00025   0.00619
 Alpha virt. eigenvalues --    0.00711   0.01624   0.02054   0.02274   0.03000
 Alpha virt. eigenvalues --    0.03434   0.04406   0.04705   0.05129   0.05917
 Alpha virt. eigenvalues --    0.06162   0.06345   0.06847   0.07074   0.08017
 Alpha virt. eigenvalues --    0.08538   0.08881   0.09270   0.09702   0.10464
 Alpha virt. eigenvalues --    0.10614   0.10994   0.11115   0.11586   0.11851
 Alpha virt. eigenvalues --    0.11929   0.12349   0.12973   0.13335   0.13936
 Alpha virt. eigenvalues --    0.14123   0.14332   0.14582   0.14705   0.15173
 Alpha virt. eigenvalues --    0.15456   0.15514   0.16432   0.16735   0.17009
 Alpha virt. eigenvalues --    0.17178   0.17509   0.17773   0.18238   0.18287
 Alpha virt. eigenvalues --    0.18466   0.18892   0.19293   0.19791   0.20018
 Alpha virt. eigenvalues --    0.20202   0.20483   0.20797   0.21177   0.21335
 Alpha virt. eigenvalues --    0.21686   0.22275   0.22283   0.22701   0.22970
 Alpha virt. eigenvalues --    0.23283   0.23572   0.23802   0.24082   0.24236
 Alpha virt. eigenvalues --    0.24583   0.24678   0.24939   0.25329   0.25751
 Alpha virt. eigenvalues --    0.25976   0.26334   0.26721   0.26853   0.27111
 Alpha virt. eigenvalues --    0.27418   0.27667   0.27963   0.28225   0.28651
 Alpha virt. eigenvalues --    0.29241   0.29297   0.29811   0.30247   0.30492
 Alpha virt. eigenvalues --    0.30574   0.30795   0.31088   0.31959   0.32282
 Alpha virt. eigenvalues --    0.33011   0.33329   0.33376   0.33769   0.33972
 Alpha virt. eigenvalues --    0.34206   0.34542   0.34925   0.35219   0.35620
 Alpha virt. eigenvalues --    0.35895   0.36058   0.36559   0.37184   0.37658
 Alpha virt. eigenvalues --    0.38177   0.38357   0.38505   0.38642   0.38726
 Alpha virt. eigenvalues --    0.39161   0.39597   0.39898   0.40454   0.41547
 Alpha virt. eigenvalues --    0.41751   0.41977   0.42713   0.43256   0.43486
 Alpha virt. eigenvalues --    0.43979   0.44433   0.44645   0.45253   0.45744
 Alpha virt. eigenvalues --    0.46181   0.47994   0.48253   0.49617   0.50247
 Alpha virt. eigenvalues --    0.50686   0.51262   0.53580   0.56318   0.58089
 Alpha virt. eigenvalues --    0.58663   0.59545   0.61118   0.61540   0.62053
 Alpha virt. eigenvalues --    0.62654   0.63403   0.63725   0.65948   0.66592
 Alpha virt. eigenvalues --    0.67576   0.68139   0.68723   0.70508   0.71175
 Alpha virt. eigenvalues --    0.71503   0.71708   0.72698   0.73491   0.73730
 Alpha virt. eigenvalues --    0.74963   0.75682   0.75872   0.77112   0.77410
 Alpha virt. eigenvalues --    0.78380   0.78901   0.79279   0.80407   0.82107
 Alpha virt. eigenvalues --    0.82532   0.83292   0.84018   0.85221   0.85547
 Alpha virt. eigenvalues --    0.86605   0.86771   0.87240   0.88967   0.89748
 Alpha virt. eigenvalues --    0.89945   0.90284   0.90878   0.91145   0.91910
 Alpha virt. eigenvalues --    0.92238   0.92423   0.92788   0.93543   0.93978
 Alpha virt. eigenvalues --    0.94304   0.95137   0.95628   0.95843   0.96483
 Alpha virt. eigenvalues --    0.97062   0.97411   0.97631   0.97755   0.98849
 Alpha virt. eigenvalues --    0.99222   0.99580   1.00252   1.01105   1.01495
 Alpha virt. eigenvalues --    1.01987   1.02371   1.03401   1.04757   1.05153
 Alpha virt. eigenvalues --    1.05381   1.06306   1.06993   1.07229   1.07775
 Alpha virt. eigenvalues --    1.08696   1.08752   1.09566   1.10592   1.11530
 Alpha virt. eigenvalues --    1.12097   1.12543   1.13319   1.13750   1.14445
 Alpha virt. eigenvalues --    1.14984   1.15240   1.15585   1.16099   1.16753
 Alpha virt. eigenvalues --    1.17587   1.18072   1.18822   1.19076   1.19643
 Alpha virt. eigenvalues --    1.20218   1.20545   1.21453   1.21627   1.21750
 Alpha virt. eigenvalues --    1.23262   1.23816   1.24521   1.24901   1.25016
 Alpha virt. eigenvalues --    1.25130   1.25971   1.26295   1.26739   1.27337
 Alpha virt. eigenvalues --    1.27991   1.29318   1.29965   1.30096   1.30341
 Alpha virt. eigenvalues --    1.31011   1.31525   1.32404   1.32848   1.33192
 Alpha virt. eigenvalues --    1.33630   1.34870   1.35381   1.36328   1.36641
 Alpha virt. eigenvalues --    1.37036   1.37481   1.38506   1.38877   1.39324
 Alpha virt. eigenvalues --    1.40042   1.40864   1.42233   1.42829   1.43633
 Alpha virt. eigenvalues --    1.43781   1.44010   1.45704   1.46161   1.48020
 Alpha virt. eigenvalues --    1.48601   1.49420   1.49936   1.51483   1.51980
 Alpha virt. eigenvalues --    1.52624   1.53199   1.54071   1.55495   1.55865
 Alpha virt. eigenvalues --    1.58116   1.59150   1.59882   1.60492   1.61512
 Alpha virt. eigenvalues --    1.62004   1.62660   1.62817   1.63659   1.64335
 Alpha virt. eigenvalues --    1.65373   1.66567   1.67986   1.68197   1.69930
 Alpha virt. eigenvalues --    1.70205   1.70501   1.71624   1.72701   1.73741
 Alpha virt. eigenvalues --    1.74814   1.76685   1.77387   1.78089   1.79075
 Alpha virt. eigenvalues --    1.79226   1.80641   1.83349   1.84271   1.84484
 Alpha virt. eigenvalues --    1.84838   1.85805   1.87166   1.87635   1.88609
 Alpha virt. eigenvalues --    1.89601   1.90310   1.91374   1.93355   1.93788
 Alpha virt. eigenvalues --    1.94221   1.95918   1.96275   1.96785   1.98383
 Alpha virt. eigenvalues --    1.99119   2.01009   2.01618   2.03016   2.04334
 Alpha virt. eigenvalues --    2.05933   2.07854   2.09089   2.09796   2.10866
 Alpha virt. eigenvalues --    2.12569   2.13341   2.13735   2.15298   2.17184
 Alpha virt. eigenvalues --    2.18623   2.21002   2.22768   2.24836   2.25803
 Alpha virt. eigenvalues --    2.26463   2.27780   2.29823   2.30005   2.31818
 Alpha virt. eigenvalues --    2.32393   2.32826   2.33991   2.34937   2.35896
 Alpha virt. eigenvalues --    2.37616   2.39146   2.43403   2.44845   2.50987
 Alpha virt. eigenvalues --    2.52088   2.52304   2.53611   2.54591   2.57135
 Alpha virt. eigenvalues --    2.59425   2.59993   2.62393   2.64366   2.66022
 Alpha virt. eigenvalues --    2.68473   2.69697   2.70836   2.71374   2.72086
 Alpha virt. eigenvalues --    2.73326   2.74146   2.75321   2.76615   2.78759
 Alpha virt. eigenvalues --    2.79240   2.80567   2.81828   2.84290   2.85866
 Alpha virt. eigenvalues --    2.86550   2.88069   2.88362   2.92287   2.92587
 Alpha virt. eigenvalues --    2.94065   2.94758   2.95517   2.95728   2.96610
 Alpha virt. eigenvalues --    2.97539   2.97923   2.99084   3.00346   3.00595
 Alpha virt. eigenvalues --    3.01424   3.02749   3.02972   3.04023   3.04419
 Alpha virt. eigenvalues --    3.04673   3.06429   3.06789   3.07625   3.07835
 Alpha virt. eigenvalues --    3.09301   3.09710   3.10785   3.11220   3.12647
 Alpha virt. eigenvalues --    3.14012   3.15450   3.19322   3.20005   3.21407
 Alpha virt. eigenvalues --    3.21575   3.29483   3.31910   3.67737   3.81342
 Alpha virt. eigenvalues --    3.95995   4.00247   4.06490   4.07981   4.10706
 Alpha virt. eigenvalues --    4.13307   4.14542   4.15713   4.16870   4.17381
 Alpha virt. eigenvalues --    4.18126   4.19772   4.20831   4.21927   4.23747
 Alpha virt. eigenvalues --    4.24259   4.25747   4.26021   4.26660   4.26892
 Alpha virt. eigenvalues --    4.27269   4.27450   4.27984   4.28212   4.28877
 Alpha virt. eigenvalues --    4.29602   4.30365   4.30735   4.31608   4.31725
 Alpha virt. eigenvalues --    4.32492   4.32721   4.33099   4.34164   4.34273
 Alpha virt. eigenvalues --    4.34514   4.35143   4.35738   4.36321   4.37112
 Alpha virt. eigenvalues --    4.37836   4.39417   4.39809   4.42122   4.43772
 Alpha virt. eigenvalues --    4.45035   4.45659   4.46585   4.47833   4.49448
 Alpha virt. eigenvalues --    4.50218   4.51545   4.52602   4.53797   4.54910
 Alpha virt. eigenvalues --    4.55763   4.56755   4.57520   4.58654   4.58919
 Alpha virt. eigenvalues --    4.60539   4.62043   4.62288   4.63061   4.63695
 Alpha virt. eigenvalues --    4.64009   4.64903   4.65884   4.66008   4.66891
 Alpha virt. eigenvalues --    4.67080   4.68410   4.69076   4.70306   4.70687
 Alpha virt. eigenvalues --    4.71193   4.71983   4.72436   4.72984   4.73941
 Alpha virt. eigenvalues --    4.74632   4.74743   4.75224   4.76078   4.77655
 Alpha virt. eigenvalues --    4.78125   4.78411   4.78813   4.79645   4.80642
 Alpha virt. eigenvalues --    4.81554   4.81921   4.83958   4.84478   4.86507
 Alpha virt. eigenvalues --    4.87718   4.87935   4.88947   4.90206   4.90821
 Alpha virt. eigenvalues --    4.91479   4.93213   4.94387   4.95068   4.95406
 Alpha virt. eigenvalues --    4.97124   4.97766   5.00360   5.01691   5.04968
 Alpha virt. eigenvalues --    5.06483   5.08040   5.10174   5.11957   5.16564
 Alpha virt. eigenvalues --    5.20259   5.21901   5.26994   5.29526   5.39819
 Alpha virt. eigenvalues --    5.47480   5.84660   5.94481   6.21266   6.48139
 Alpha virt. eigenvalues --    6.68438   6.72576   6.74527   6.76446   6.83744
 Alpha virt. eigenvalues --    6.85228   6.88087   6.90614   6.95751   7.00545
 Alpha virt. eigenvalues --    7.06759  11.80443  11.94461  11.98939  12.05700
 Alpha virt. eigenvalues --   12.26153  12.45030  12.68741  12.77809  12.87030
 Alpha virt. eigenvalues --   12.98555  13.07607  13.13268  13.15648  13.18627
 Alpha virt. eigenvalues --   13.20456  13.28289  13.35863  13.40592  13.44844
 Alpha virt. eigenvalues --   13.53237  13.63891  13.66249  13.94782
          Condensed to atoms (all electrons):
              1          2          3          4          5          6
     1  O    8.203640   0.231668  -0.030372  -0.008320   0.018221   0.013416
     2  C    0.231668   7.384593  -1.152920   0.017141   0.000060  -0.857133
     3  C   -0.030372  -1.152920   7.122861   0.052160  -0.016737  -0.078027
     4  O   -0.008320   0.017141   0.052160   8.273711   0.232984   0.042135
     5  H    0.018221   0.000060  -0.016737   0.232984   0.435242  -0.007570
     6  C    0.013416  -0.857133  -0.078027   0.042135  -0.007570   8.284761
     7  O   -0.000513   0.023978  -0.018543  -0.002313   0.000219   0.088950
     8  H   -0.000024   0.002691  -0.036372   0.005992  -0.000075   0.022741
     9  C   -0.032771   0.313637  -0.240686   0.005520  -0.002411   0.067642
    10  O    0.000184   0.019009  -0.000787  -0.000018   0.000002  -0.008516
    11  H    0.000052  -0.004114   0.001069  -0.000001   0.000000   0.000202
    12  C   -0.079303  -0.891406   0.365686   0.027042   0.001422  -0.133181
    13  O    0.002381  -0.032321  -0.064752  -0.003614  -0.000035   0.039913
    14  C   -0.017203   0.327471   0.034565  -0.021341   0.009323  -1.739932
    15  O   -0.000056   0.002506  -0.000217   0.000794  -0.000013  -0.019498
    16  C   -0.000008   0.156740  -0.162900  -0.003224   0.000652   0.128776
    17  C    0.000097  -0.031220  -0.032991   0.000222   0.000045   0.078302
    18  O    0.000013  -0.004014   0.002566  -0.000016   0.000000   0.005827
    19  H   -0.000033  -0.001377   0.004159   0.000006   0.000000  -0.003998
    20  C    0.000033   0.002972  -0.012103  -0.000047   0.000000   0.059589
    21  O    0.000000   0.000162  -0.000033   0.000000   0.000000  -0.000145
    22  H    0.000000  -0.000056   0.000021   0.000000   0.000000   0.000189
    23  C   -0.000024  -0.001632  -0.004890   0.000160  -0.000025  -0.029680
    24  O    0.000000   0.000312  -0.000573  -0.000013   0.000000  -0.004078
    25  H    0.000000   0.000022  -0.000146   0.000000   0.000000  -0.001808
    26  C   -0.000085   0.028317  -0.044289   0.000467   0.000006  -0.135322
    27  O    0.000000  -0.000029   0.000261   0.000001   0.000000   0.003147
    28  C   -0.000001  -0.001473   0.003689   0.000004   0.000000  -0.011608
    29  O    0.000000   0.000001   0.000003   0.000000   0.000000  -0.000187
    30  H    0.000000   0.000000   0.000000   0.000000   0.000000   0.000004
    31  H    0.259705   0.063472  -0.067266   0.002081  -0.000937  -0.004108
    32  H   -0.000463   0.070543  -0.013371   0.000086  -0.000001   0.007290
    33  H    0.000719   0.003726  -0.009075  -0.000016   0.000000   0.000402
    34  H    0.002807   0.094480  -0.076993   0.000187   0.000002   0.000781
    35  H   -0.025645   0.335585  -0.066006   0.001701   0.000070  -0.009519
    36  H   -0.005397  -0.045035   0.395117  -0.042670  -0.001642  -0.240709
    37  H   -0.000225  -0.006622  -0.018345   0.000808  -0.000145   0.291103
    38  H    0.000064  -0.012683  -0.031043  -0.000149   0.000003   0.026890
    39  H    0.000000   0.000018   0.000249  -0.000001   0.000000   0.000210
    40  H    0.000000  -0.001470  -0.000357  -0.000004   0.000000  -0.009563
    41  H    0.000000  -0.000243   0.000317   0.000000   0.000000  -0.001365
    42  H    0.000000  -0.000360  -0.000456   0.000004   0.000000   0.017624
    43  H    0.000000   0.000041  -0.000095   0.000000   0.000000   0.008163
    44  H    0.000000   0.000268  -0.000151   0.000000   0.000000   0.001306
    45  H    0.000000  -0.000001   0.000013   0.000000   0.000000  -0.000007
              7          8          9         10         11         12
     1  O   -0.000513  -0.000024  -0.032771   0.000184   0.000052  -0.079303
     2  C    0.023978   0.002691   0.313637   0.019009  -0.004114  -0.891406
     3  C   -0.018543  -0.036372  -0.240686  -0.000787   0.001069   0.365686
     4  O   -0.002313   0.005992   0.005520  -0.000018  -0.000001   0.027042
     5  H    0.000219  -0.000075  -0.002411   0.000002   0.000000   0.001422
     6  C    0.088950   0.022741   0.067642  -0.008516   0.000202  -0.133181
     7  O    8.222624   0.246957  -0.000713  -0.000011   0.000000  -0.007263
     8  H    0.246957   0.401899   0.000281   0.000000   0.000000   0.002231
     9  C   -0.000713   0.000281   5.896425   0.193005  -0.050401  -0.688676
    10  O   -0.000011   0.000000   0.193005   8.199622   0.243813  -0.062566
    11  H    0.000000   0.000000  -0.050401   0.243813   0.433197   0.043062
    12  C   -0.007263   0.002231  -0.688676  -0.062566   0.043062   7.882751
    13  O    0.000729  -0.000418  -0.000986  -0.000341   0.000389   0.088141
    14  C    0.039016   0.003896  -0.123069  -0.017722   0.003185  -0.459533
    15  O    0.002440   0.000079  -0.014605  -0.002953   0.000031  -0.011775
    16  C   -0.001766  -0.001825  -0.022825   0.018621  -0.000833   0.058271
    17  C   -0.000866   0.000260  -0.027613  -0.011238   0.000482  -0.134538
    18  O    0.000035  -0.000002   0.002038  -0.006949   0.000681  -0.001012
    19  H   -0.000057   0.000000  -0.006900   0.002570  -0.000067   0.006491
    20  C    0.000320  -0.000040   0.005490   0.001979  -0.000263  -0.024997
    21  O    0.000000   0.000000  -0.000390  -0.000046  -0.000001   0.000848
    22  H    0.000000   0.000000   0.000165  -0.000004   0.000000  -0.000304
    23  C   -0.023088  -0.000224   0.004782   0.000075   0.000002  -0.003436
    24  O    0.000642   0.000006  -0.000012   0.000000   0.000000  -0.000149
    25  H    0.000153  -0.000002   0.000001   0.000000   0.000000   0.000027
    26  C    0.022123  -0.001049   0.001444  -0.000367  -0.000107   0.027170
    27  O    0.000035   0.000001  -0.000056   0.000005   0.000000   0.000381
    28  C    0.000221   0.000016  -0.000774   0.000608   0.000002   0.005904
    29  O   -0.000001   0.000000  -0.000006   0.000000   0.000000   0.000009
    30  H    0.000000   0.000000   0.000000   0.000000   0.000000  -0.000001
    31  H   -0.000020   0.000000   0.008063  -0.000015  -0.000001  -0.007587
    32  H    0.000004   0.000000   0.554161  -0.034754  -0.008184  -0.289786
    33  H   -0.000004   0.000000   0.451755  -0.042887  -0.002222  -0.074907
    34  H    0.000033  -0.000001   0.065904   0.003252  -0.000114   0.071559
    35  H    0.000495  -0.000002  -0.024457   0.000963  -0.000002  -0.028470
    36  H    0.007199  -0.000327   0.003881   0.000024   0.000000   0.048618
    37  H   -0.033882  -0.004738   0.008037  -0.000018   0.000000   0.048550
    38  H    0.001422  -0.000303   0.009537  -0.000012   0.000000   0.046897
    39  H    0.000336   0.000001   0.000025   0.000000   0.000000  -0.000104
    40  H   -0.002226  -0.000056   0.000030   0.000000   0.000000   0.000730
    41  H   -0.000039   0.000000   0.000093   0.000001   0.000000   0.000002
    42  H   -0.000042   0.000002  -0.000684   0.000008   0.000000  -0.007079
    43  H    0.000009   0.000000   0.000357  -0.000012   0.000000  -0.001812
    44  H    0.000005   0.000000  -0.000095   0.000007   0.000000   0.000846
    45  H    0.000000   0.000000   0.000002   0.000001   0.000000   0.000084
             13         14         15         16         17         18
     1  O    0.002381  -0.017203  -0.000056  -0.000008   0.000097   0.000013
     2  C   -0.032321   0.327471   0.002506   0.156740  -0.031220  -0.004014
     3  C   -0.064752   0.034565  -0.000217  -0.162900  -0.032991   0.002566
     4  O   -0.003614  -0.021341   0.000794  -0.003224   0.000222  -0.000016
     5  H   -0.000035   0.009323  -0.000013   0.000652   0.000045   0.000000
     6  C    0.039913  -1.739932  -0.019498   0.128776   0.078302   0.005827
     7  O    0.000729   0.039016   0.002440  -0.001766  -0.000866   0.000035
     8  H   -0.000418   0.003896   0.000079  -0.001825   0.000260  -0.000002
     9  C   -0.000986  -0.123069  -0.014605  -0.022825  -0.027613   0.002038
    10  O   -0.000341  -0.017722  -0.002953   0.018621  -0.011238  -0.006949
    11  H    0.000389   0.003185   0.000031  -0.000833   0.000482   0.000681
    12  C    0.088141  -0.459533  -0.011775   0.058271  -0.134538  -0.001012
    13  O    8.130369   0.149038  -0.049210  -0.010407  -0.023106  -0.018828
    14  C    0.149038   8.612223   0.172771  -0.690057  -0.185032   0.060643
    15  O   -0.049210   0.172771   8.157104   0.047960   0.075365  -0.008349
    16  C   -0.010407  -0.690057   0.047960  12.952684  -2.632464   0.004627
    17  C   -0.023106  -0.185032   0.075365  -2.632464   8.234621   0.079197
    18  O   -0.018828   0.060643  -0.008349   0.004627   0.079197   8.313857
    19  H    0.024291  -0.001282   0.010839  -0.052384   0.056811   0.231666
    20  C   -0.007681  -0.178535  -0.014507  -1.680853   0.687717  -0.033673
    21  O    0.000197  -0.008374   0.000004  -0.013077  -0.051468  -0.019127
    22  H   -0.000034   0.005054   0.000081  -0.000181  -0.061434   0.017704
    23  C   -0.005609   0.238866  -0.131513   0.524433  -0.393027   0.012460
    24  O    0.000082   0.017035   0.000085   0.001136   0.004358   0.000025
    25  H    0.000001   0.000101   0.000349  -0.015278  -0.000923   0.000000
    26  C    0.011401  -0.980942   0.121266  -4.262909   0.337249  -0.013652
    27  O    0.000387   0.004982   0.001601   0.063549  -0.043753   0.000124
    28  C    0.003494   0.085234   0.010874   0.882735  -0.259367  -0.000261
    29  O    0.000002  -0.000226  -0.000086  -0.038636   0.020146   0.000282
    30  H    0.000000   0.000106   0.000001   0.006467   0.000657  -0.000015
    31  H   -0.000422   0.003610   0.000003   0.000225  -0.000010   0.000000
    32  H    0.004786   0.009712   0.000064  -0.001424   0.000923   0.000101
    33  H    0.000567   0.001284  -0.000135   0.000075  -0.000011  -0.000309
    34  H   -0.020896   0.109095  -0.001440  -0.006329   0.004929   0.000036
    35  H    0.001363   0.067021  -0.000789  -0.004808   0.000845   0.000028
    36  H    0.000522   0.105623   0.000464  -0.003435   0.000025   0.000028
    37  H    0.007685  -0.018760  -0.010211  -0.008285  -0.005566   0.000093
    38  H   -0.022603   0.229147  -0.036007   0.035980   0.000586  -0.000811
    39  H   -0.000081   0.015431  -0.001449   0.114583  -0.012512   0.000051
    40  H   -0.000629   0.021482  -0.007688   0.002881  -0.005390  -0.000031
    41  H   -0.000377   0.023827  -0.008089   0.160552  -0.033388   0.000287
    42  H   -0.005333  -0.068962  -0.042686   0.227345   0.024089   0.001065
    43  H   -0.001990  -0.000232  -0.006072  -0.095902   0.246730  -0.023026
    44  H    0.000062  -0.015048  -0.000112   0.188251  -0.243176   0.008120
    45  H    0.000030   0.001197   0.000054   0.093623  -0.038504   0.001371
             19         20         21         22         23         24
     1  O   -0.000033   0.000033   0.000000   0.000000  -0.000024   0.000000
     2  C   -0.001377   0.002972   0.000162  -0.000056  -0.001632   0.000312
     3  C    0.004159  -0.012103  -0.000033   0.000021  -0.004890  -0.000573
     4  O    0.000006  -0.000047   0.000000   0.000000   0.000160  -0.000013
     5  H    0.000000   0.000000   0.000000   0.000000  -0.000025   0.000000
     6  C   -0.003998   0.059589  -0.000145   0.000189  -0.029680  -0.004078
     7  O   -0.000057   0.000320   0.000000   0.000000  -0.023088   0.000642
     8  H    0.000000  -0.000040   0.000000   0.000000  -0.000224   0.000006
     9  C   -0.006900   0.005490  -0.000390   0.000165   0.004782  -0.000012
    10  O    0.002570   0.001979  -0.000046  -0.000004   0.000075   0.000000
    11  H   -0.000067  -0.000263  -0.000001   0.000000   0.000002   0.000000
    12  C    0.006491  -0.024997   0.000848  -0.000304  -0.003436  -0.000149
    13  O    0.024291  -0.007681   0.000197  -0.000034  -0.005609   0.000082
    14  C   -0.001282  -0.178535  -0.008374   0.005054   0.238866   0.017035
    15  O    0.010839  -0.014507   0.000004   0.000081  -0.131513   0.000085
    16  C   -0.052384  -1.680853  -0.013077  -0.000181   0.524433   0.001136
    17  C    0.056811   0.687717  -0.051468  -0.061434  -0.393027   0.004358
    18  O    0.231666  -0.033673  -0.019127   0.017704   0.012460   0.000025
    19  H    0.352564  -0.014683   0.000993  -0.000443  -0.002749   0.000003
    20  C   -0.014683   6.410829   0.254786   0.033955   0.051510   0.004687
    21  O    0.000993   0.254786   8.199385   0.243829  -0.004776  -0.000033
    22  H   -0.000443   0.033955   0.243829   0.402096   0.000395   0.000000
    23  C   -0.002749   0.051510  -0.004776   0.000395   6.481475   0.259828
    24  O    0.000003   0.004687  -0.000033   0.000000   0.259828   8.214603
    25  H    0.000000   0.000473   0.000000   0.000000  -0.040084   0.245530
    26  C   -0.004369   0.852128   0.029425  -0.005643  -1.522181  -0.137633
    27  O   -0.000070  -0.015603   0.000528  -0.000125  -0.048970   0.011241
    28  C    0.002492  -0.475211  -0.076097   0.012774  -0.080872   0.002219
    29  O    0.000007  -0.060178   0.000822  -0.000429  -0.002451  -0.000143
    30  H    0.000000   0.009239  -0.000580   0.000020   0.000182   0.000003
    31  H    0.000000   0.000000   0.000000   0.000000   0.000000   0.000000
    32  H   -0.000047   0.000041   0.000000   0.000000   0.000010   0.000000
    33  H    0.000043   0.000036   0.000000   0.000000   0.000002   0.000000
    34  H   -0.000307   0.000406   0.000000   0.000000   0.000288   0.000000
    35  H   -0.000018   0.000010   0.000000   0.000000   0.000172   0.000000
    36  H   -0.000004  -0.000059   0.000000   0.000000   0.000506   0.000000
    37  H   -0.000017   0.000202   0.000000   0.000000   0.004884  -0.000062
    38  H   -0.000865   0.006543   0.000017  -0.000001  -0.000207  -0.000024
    39  H    0.000000  -0.012486   0.000009   0.000000   0.449395  -0.025055
    40  H   -0.000006   0.003993  -0.000013   0.000000   0.595696  -0.056455
    41  H    0.000014  -0.033472  -0.000072  -0.000002   0.070169  -0.000351
    42  H    0.000162   0.057890  -0.000442   0.000015   0.006906   0.000518
    43  H   -0.000154   0.032290  -0.001941   0.000490   0.010447   0.000022
    44  H   -0.000129   0.277769  -0.036099  -0.004259   0.017382  -0.000041
    45  H   -0.000004  -0.175169   0.005830  -0.000244   0.003858  -0.000099
             25         26         27         28         29         30
     1  O    0.000000  -0.000085   0.000000  -0.000001   0.000000   0.000000
     2  C    0.000022   0.028317  -0.000029  -0.001473   0.000001   0.000000
     3  C   -0.000146  -0.044289   0.000261   0.003689   0.000003   0.000000
     4  O    0.000000   0.000467   0.000001   0.000004   0.000000   0.000000
     5  H    0.000000   0.000006   0.000000   0.000000   0.000000   0.000000
     6  C   -0.001808  -0.135322   0.003147  -0.011608  -0.000187   0.000004
     7  O    0.000153   0.022123   0.000035   0.000221  -0.000001   0.000000
     8  H   -0.000002  -0.001049   0.000001   0.000016   0.000000   0.000000
     9  C    0.000001   0.001444  -0.000056  -0.000774  -0.000006   0.000000
    10  O    0.000000  -0.000367   0.000005   0.000608   0.000000   0.000000
    11  H    0.000000  -0.000107   0.000000   0.000002   0.000000   0.000000
    12  C    0.000027   0.027170   0.000381   0.005904   0.000009  -0.000001
    13  O    0.000001   0.011401   0.000387   0.003494   0.000002   0.000000
    14  C    0.000101  -0.980942   0.004982   0.085234  -0.000226   0.000106
    15  O    0.000349   0.121266   0.001601   0.010874  -0.000086   0.000001
    16  C   -0.015278  -4.262909   0.063549   0.882735  -0.038636   0.006467
    17  C   -0.000923   0.337249  -0.043753  -0.259367   0.020146   0.000657
    18  O    0.000000  -0.013652   0.000124  -0.000261   0.000282  -0.000015
    19  H    0.000000  -0.004369  -0.000070   0.002492   0.000007   0.000000
    20  C    0.000473   0.852128  -0.015603  -0.475211  -0.060178   0.009239
    21  O    0.000000   0.029425   0.000528  -0.076097   0.000822  -0.000580
    22  H    0.000000  -0.005643  -0.000125   0.012774  -0.000429   0.000020
    23  C   -0.040084  -1.522181  -0.048970  -0.080872  -0.002451   0.000182
    24  O    0.245530  -0.137633   0.011241   0.002219  -0.000143   0.000003
    25  H    0.442248   0.051623  -0.001379  -0.000170  -0.000016   0.000000
    26  C    0.051623  12.489430   0.143777  -0.755985   0.010926  -0.008182
    27  O   -0.001379   0.143777   8.141790   0.117423  -0.025150   0.000801
    28  C   -0.000170  -0.755985   0.117423   5.529635   0.288384  -0.015532
    29  O   -0.000016   0.010926  -0.025150   0.288384   8.076654   0.260576
    30  H    0.000000  -0.008182   0.000801  -0.015532   0.260576   0.431354
    31  H    0.000000   0.000006   0.000000   0.000000   0.000000   0.000000
    32  H    0.000000   0.000038   0.000000  -0.000004   0.000000   0.000000
    33  H    0.000000  -0.000029   0.000000   0.000002   0.000000   0.000000
    34  H    0.000000  -0.000621   0.000000  -0.000029   0.000000   0.000000
    35  H    0.000000  -0.000488   0.000000  -0.000003   0.000000   0.000000
    36  H    0.000000  -0.000108   0.000000  -0.000004   0.000000   0.000000
    37  H    0.000000  -0.001873  -0.000001  -0.000045   0.000000   0.000000
    38  H    0.000000   0.017250   0.000187  -0.000278  -0.000002   0.000000
    39  H   -0.009376  -0.197194  -0.015069   0.009375  -0.000214   0.000001
    40  H    0.000751  -0.226550   0.002434  -0.004449   0.000007   0.000000
    41  H   -0.000091   0.066399  -0.036567   0.046467  -0.001285   0.000014
    42  H   -0.000007   0.023788   0.003600  -0.005812  -0.000482   0.000002
    43  H    0.000000   0.084858   0.000961  -0.030813   0.000327   0.000011
    44  H    0.000000   0.009697  -0.000607   0.018593  -0.000833  -0.000067
    45  H    0.000000  -0.034650  -0.061469   0.486965  -0.025000  -0.009806
             31         32         33         34         35         36
     1  O    0.259705  -0.000463   0.000719   0.002807  -0.025645  -0.005397
     2  C    0.063472   0.070543   0.003726   0.094480   0.335585  -0.045035
     3  C   -0.067266  -0.013371  -0.009075  -0.076993  -0.066006   0.395117
     4  O    0.002081   0.000086  -0.000016   0.000187   0.001701  -0.042670
     5  H   -0.000937  -0.000001   0.000000   0.000002   0.000070  -0.001642
     6  C   -0.004108   0.007290   0.000402   0.000781  -0.009519  -0.240709
     7  O   -0.000020   0.000004  -0.000004   0.000033   0.000495   0.007199
     8  H    0.000000   0.000000   0.000000  -0.000001  -0.000002  -0.000327
     9  C    0.008063   0.554161   0.451755   0.065904  -0.024457   0.003881
    10  O   -0.000015  -0.034754  -0.042887   0.003252   0.000963   0.000024
    11  H   -0.000001  -0.008184  -0.002222  -0.000114  -0.000002   0.000000
    12  C   -0.007587  -0.289786  -0.074907   0.071559  -0.028470   0.048618
    13  O   -0.000422   0.004786   0.000567  -0.020896   0.001363   0.000522
    14  C    0.003610   0.009712   0.001284   0.109095   0.067021   0.105623
    15  O    0.000003   0.000064  -0.000135  -0.001440  -0.000789   0.000464
    16  C    0.000225  -0.001424   0.000075  -0.006329  -0.004808  -0.003435
    17  C   -0.000010   0.000923  -0.000011   0.004929   0.000845   0.000025
    18  O    0.000000   0.000101  -0.000309   0.000036   0.000028   0.000028
    19  H    0.000000  -0.000047   0.000043  -0.000307  -0.000018  -0.000004
    20  C    0.000000   0.000041   0.000036   0.000406   0.000010  -0.000059
    21  O    0.000000   0.000000   0.000000   0.000000   0.000000   0.000000
    22  H    0.000000   0.000000   0.000000   0.000000   0.000000   0.000000
    23  C    0.000000   0.000010   0.000002   0.000288   0.000172   0.000506
    24  O    0.000000   0.000000   0.000000   0.000000   0.000000   0.000000
    25  H    0.000000   0.000000   0.000000   0.000000   0.000000   0.000000
    26  C    0.000006   0.000038  -0.000029  -0.000621  -0.000488  -0.000108
    27  O    0.000000   0.000000   0.000000   0.000000   0.000000   0.000000
    28  C    0.000000  -0.000004   0.000002  -0.000029  -0.000003  -0.000004
    29  O    0.000000   0.000000   0.000000   0.000000   0.000000   0.000000
    30  H    0.000000   0.000000   0.000000   0.000000   0.000000   0.000000
    31  H    0.421823  -0.000006  -0.000041  -0.000202  -0.012555   0.000203
    32  H   -0.000006   0.610073  -0.050584   0.006726   0.005909   0.000002
    33  H   -0.000041  -0.050584   0.570071  -0.006148   0.000121   0.000000
    34  H   -0.000202   0.006726  -0.006148   0.625329   0.006740   0.002574
    35  H   -0.012555   0.005909   0.000121   0.006740   0.624753   0.007560
    36  H    0.000203   0.000002   0.000000   0.002574   0.007560   0.636248
    37  H    0.000015  -0.000011   0.000000  -0.000062   0.001308   0.007233
    38  H    0.000001  -0.000004   0.000000   0.002674  -0.000058   0.001541
    39  H    0.000000   0.000000   0.000000   0.000000   0.000000   0.000000
    40  H    0.000000   0.000000   0.000000   0.000000   0.000000   0.000000
    41  H    0.000000   0.000000   0.000000   0.000000   0.000000   0.000000
    42  H    0.000000   0.000000   0.000000  -0.000015   0.000000  -0.000002
    43  H    0.000000   0.000000   0.000000  -0.000001   0.000000   0.000000
    44  H    0.000000   0.000000   0.000000   0.000000   0.000000   0.000000
    45  H    0.000000   0.000000   0.000000   0.000000   0.000000   0.000000
             37         38         39         40         41         42
     1  O   -0.000225   0.000064   0.000000   0.000000   0.000000   0.000000
     2  C   -0.006622  -0.012683   0.000018  -0.001470  -0.000243  -0.000360
     3  C   -0.018345  -0.031043   0.000249  -0.000357   0.000317  -0.000456
     4  O    0.000808  -0.000149  -0.000001  -0.000004   0.000000   0.000004
     5  H   -0.000145   0.000003   0.000000   0.000000   0.000000   0.000000
     6  C    0.291103   0.026890   0.000210  -0.009563  -0.001365   0.017624
     7  O   -0.033882   0.001422   0.000336  -0.002226  -0.000039  -0.000042
     8  H   -0.004738  -0.000303   0.000001  -0.000056   0.000000   0.000002
     9  C    0.008037   0.009537   0.000025   0.000030   0.000093  -0.000684
    10  O   -0.000018  -0.000012   0.000000   0.000000   0.000001   0.000008
    11  H    0.000000   0.000000   0.000000   0.000000   0.000000   0.000000
    12  C    0.048550   0.046897  -0.000104   0.000730   0.000002  -0.007079
    13  O    0.007685  -0.022603  -0.000081  -0.000629  -0.000377  -0.005333
    14  C   -0.018760   0.229147   0.015431   0.021482   0.023827  -0.068962
    15  O   -0.010211  -0.036007  -0.001449  -0.007688  -0.008089  -0.042686
    16  C   -0.008285   0.035980   0.114583   0.002881   0.160552   0.227345
    17  C   -0.005566   0.000586  -0.012512  -0.005390  -0.033388   0.024089
    18  O    0.000093  -0.000811   0.000051  -0.000031   0.000287   0.001065
    19  H   -0.000017  -0.000865   0.000000  -0.000006   0.000014   0.000162
    20  C    0.000202   0.006543  -0.012486   0.003993  -0.033472   0.057890
    21  O    0.000000   0.000017   0.000009  -0.000013  -0.000072  -0.000442
    22  H    0.000000  -0.000001   0.000000   0.000000  -0.000002   0.000015
    23  C    0.004884  -0.000207   0.449395   0.595696   0.070169   0.006906
    24  O   -0.000062  -0.000024  -0.025055  -0.056455  -0.000351   0.000518
    25  H    0.000000   0.000000  -0.009376   0.000751  -0.000091  -0.000007
    26  C   -0.001873   0.017250  -0.197194  -0.226550   0.066399   0.023788
    27  O   -0.000001   0.000187  -0.015069   0.002434  -0.036567   0.003600
    28  C   -0.000045  -0.000278   0.009375  -0.004449   0.046467  -0.005812
    29  O    0.000000  -0.000002  -0.000214   0.000007  -0.001285  -0.000482
    30  H    0.000000   0.000000   0.000001   0.000000   0.000014   0.000002
    31  H    0.000015   0.000001   0.000000   0.000000   0.000000   0.000000
    32  H   -0.000011  -0.000004   0.000000   0.000000   0.000000   0.000000
    33  H    0.000000   0.000000   0.000000   0.000000   0.000000   0.000000
    34  H   -0.000062   0.002674   0.000000   0.000000   0.000000  -0.000015
    35  H    0.001308  -0.000058   0.000000   0.000000   0.000000   0.000000
    36  H    0.007233   0.001541   0.000000   0.000000   0.000000  -0.000002
    37  H    0.593947   0.004784  -0.000001   0.000111   0.000001   0.000005
    38  H    0.004784   0.568483  -0.000015   0.000073   0.000002   0.006863
    39  H   -0.000001  -0.000015   0.583614  -0.045307   0.004805   0.001895
    40  H    0.000111   0.000073  -0.045307   0.555900   0.002425  -0.001669
    41  H    0.000001   0.000002   0.004805   0.002425   0.595070   0.006174
    42  H    0.000005   0.006863   0.001895  -0.001669   0.006174   0.638449
    43  H   -0.000002  -0.000009  -0.000026  -0.000054   0.001199   0.007600
    44  H    0.000000   0.000001  -0.000095  -0.000001  -0.000087   0.003846
    45  H    0.000000   0.000000  -0.000016   0.000013   0.002956   0.000015
             43         44         45
     1  O    0.000000   0.000000   0.000000
     2  C    0.000041   0.000268  -0.000001
     3  C   -0.000095  -0.000151   0.000013
     4  O    0.000000   0.000000   0.000000
     5  H    0.000000   0.000000   0.000000
     6  C    0.008163   0.001306  -0.000007
     7  O    0.000009   0.000005   0.000000
     8  H    0.000000   0.000000   0.000000
     9  C    0.000357  -0.000095   0.000002
    10  O   -0.000012   0.000007   0.000001
    11  H    0.000000   0.000000   0.000000
    12  C   -0.001812   0.000846   0.000084
    13  O   -0.001990   0.000062   0.000030
    14  C   -0.000232  -0.015048   0.001197
    15  O   -0.006072  -0.000112   0.000054
    16  C   -0.095902   0.188251   0.093623
    17  C    0.246730  -0.243176  -0.038504
    18  O   -0.023026   0.008120   0.001371
    19  H   -0.000154  -0.000129  -0.000004
    20  C    0.032290   0.277769  -0.175169
    21  O   -0.001941  -0.036099   0.005830
    22  H    0.000490  -0.004259  -0.000244
    23  C    0.010447   0.017382   0.003858
    24  O    0.000022  -0.000041  -0.000099
    25  H    0.000000   0.000000   0.000000
    26  C    0.084858   0.009697  -0.034650
[...]
 00960,-0.00001020,-0.00000434,-0.00009960,0.00006284,-0.00000304,0.000
 23660,0.00005052,0.00018527,0.00069409,0.00012241,-0.00437764,-0.01928
 609,0.00190371,0.01622080,-0.29338982,0.11334887,-0.00387029,0.0003866
 2,-0.00056665,-0.00238892,0.00131183,0.00033274,0.00129316,-0.00029611
 ,0.00023595,0.00005806,0.00032108,-0.00056491,0.00078652,0.00023117,-0
 .00024261,-0.00001504,-0.00015454,0.00006297,0.00006750,-0.00054655,0.
 00156772,-0.00022007,0.00095591,0.00030018,0.00024934,-0.00002335,-0.0
 0015090,0.00004129,-0.02069071,0.00699886,-0.00321801,0.00258306,-0.00
 000541,0.00085532,-0.00002050,-0.00033486,-0.00003696,0.00005600,-0.00
 001266,-0.00006522,-0.00000320,0.00003483,-0.00000271,0.00000181,-0.00
 000118,-0.00000571,0.00000031,0.00000157,-0.00000804,0.00000432,0.0000
 3083,0.00001115,0.00003751,0.00000348,0.00005268,0.00000763,-0.0000036
 0,-0.00001013,0.00001663,-0.00000448,0.00003120,0.00010844,0.00019327,
 -0.00027493,0.00130570,-0.00001086,0.00155530,0.00065986,-0.00070756,-
 0.00032146,-0.00031892,-0.00008572,0.00045975,-0.00064677,-0.00121733,
 -0.00240634,0.32463620,-0.00000357,-0.00001411,0.00002980,0.00000044,0
 .00002201,-0.00002724,0.00003693,0.00004278,-0.00004386,-0.00001709,-0
 .00003639,0.00000396,0.00000556,0.00000579,-0.00000564,-0.00035377,0.0
 0020775,0.00004021,0.00002261,-0.00011058,-0.00009757,0.00001153,0.000
 00142,-0.00000333,0.00001288,-0.00002931,0.00000343,-0.00003244,0.0000
 2847,-0.00000663,0.00001175,-0.00000679,0.00001287,0.00004777,-0.00001
 822,-0.00009814,0.00018421,0.00004737,0.00025822,-0.00116331,0.0012010
 2,0.00033886,-0.00955510,0.00480316,0.00549150,0.11748919,-0.09366898,
 -0.00170816,0.03490000,-0.02321114,0.00692637,-0.00164912,0.00388829,-
 0.00018100,0.00041153,-0.00041182,-0.00051575,0.00265904,0.00032334,-0
 .00177354,-0.00083500,0.00072399,-0.00027676,0.00014581,-0.00017302,0.
 00002417,-0.00202170,-0.00071792,-0.00084507,0.00043580,0.00039026,0.0
 0035674,0.00004662,-0.00001609,0.00001762,-0.01617450,0.00642341,-0.00
 167540,0.00062375,0.00037876,0.00162517,0.00016179,-0.00017989,0.00005
 708,-0.00005263,0.00006716,0.00009326,-0.00000447,0.00000703,-0.000003
 63,0.00000283,-0.00000070,-0.00000416,-0.00000990,0.00000544,0.0000066
 4,0.00000067,0.00000690,-0.00000270,-0.00000885,0.00001431,0.00001005,
 -0.00000551,-0.00000569,0.00000484,0.00000073,0.00000331,0.00001022,0.
 00003407,-0.00008525,0.00006465,-0.00009592,0.00002872,-0.00040885,-0.
 00025147,-0.00018089,-0.00049798,-0.00020378,0.00007933,0.00013132,-0.
 00148297,-0.00137877,-0.00239586,-0.12046123,0.10727081,-0.00001278,-0
 .00000549,-0.00005226,-0.00000673,0.00000061,0.00004766,-0.00004549,0.
 00000495,0.00002457,-0.00000915,0.00001183,-0.00000131,-0.00000037,-0.
 00000488,0.00000199,0.00021825,0.00008051,-0.00011202,-0.00014465,0.00
 010290,-0.00000485,-0.00001620,-0.00001308,0.00002572,-0.00003824,0.00
 006741,-0.00006019,-0.00000625,-0.00004258,0.00003768,-0.00000344,0.00
 000523,-0.00000252,-0.00006112,-0.00007398,-0.00014404,-0.00097157,-0.
 00031595,-0.00037713,0.00700741,-0.00168545,0.00292133,0.04007777,-0.0
 0376744,-0.02476560,-0.00931613,-0.00124595,-0.03808876,-0.00481999,0.
 00320293,0.00026362,0.00079881,0.00025095,0.00070177,0.00027341,0.0000
 0849,-0.00021582,-0.00128896,0.00146974,0.00015388,0.00019365,-0.00033
 424,-0.00017833,-0.00004899,-0.00001199,0.00007408,-0.00060925,0.00101
 810,0.00002737,0.00030685,0.00021948,0.00013769,0.00005976,-0.00003293
 ,0.00007578,-0.02599455,0.00917201,-0.00217468,0.00110515,-0.00010207,
 0.00222969,-0.00031302,0.00034581,-0.00043687,0.00005031,-0.00003330,-
 0.00012244,0.00000733,0.00002407,-0.00000340,-0.00000051,0.00000469,0.
 00000328,-0.00000028,0.00000186,0.00000860,0.00000237,-0.00003083,-0.0
 0000129,-0.00004791,-0.00001755,-0.00009205,-0.00000267,0.00000544,0.0
 0001234,-0.00003777,0.00001338,-0.00005980,-0.00028889,-0.00002150,0.0
 0006098,-0.00131430,0.00028224,-0.00014748,0.00008189,-0.00050680,-0.0
 0014677,0.00043875,-0.00016498,0.00018303,-0.00179247,-0.00199975,-0.0
 0369815,-0.00430187,-0.00739814,0.06376181,0.00000798,0.00003207,-0.00
 007447,-0.00002819,-0.00002915,0.00006021,-0.00001168,-0.00003199,0.00
 003356,0.00003529,0.00006089,-0.00004610,-0.00000760,-0.00001047,0.000
 00619,-0.00003933,-0.00009952,-0.00003641,0.00004423,0.00010213,0.0000
 3303,-0.00002087,-0.00000543,-0.00001094,-0.00004325,-0.00007910,0.000
 10974,0.00007465,-0.00003371,-0.00012498,-0.00002467,0.00002165,-0.000
 05948,0.00003510,0.00003046,0.00016002,0.00017078,0.00036390,-0.000317
 24,0.00002460,-0.00019806,0.00000113,0.00071168,0.00084710,-0.00103043
 ,0.00148218,-0.00146949,0.00077147,-0.29050587,0.11407665,-0.02753016,
 -0.01512728,-0.00578464,-0.01778272,-0.00167883,-0.00062445,0.00095526
 ,-0.02069530,0.01269086,0.00228073,0.00223548,-0.00135027,-0.00062363,
 -0.00023813,0.00031622,-0.00046228,0.00076865,0.00016070,0.00006338,-0
 .00010144,0.00010668,-0.00006336,0.00001989,0.00004310,0.00001997,-0.0
 0010404,-0.00100701,0.00003762,0.00052937,0.00029593,0.00020685,-0.001
 70338,-0.00066359,-0.00222799,0.00077521,-0.00044027,-0.00000740,0.000
 00009,0.00011422,0.00020813,-0.00000787,0.00000252,0.00000911,0.000026
 74,0.00001492,-0.00003967,-0.00000664,0.00000760,-0.00002095,0.0000170
 4,-0.00002477,0.00001664,0.00000981,0.00000131,-0.00001467,0.00000835,
 -0.00000180,0.00000229,0.00000303,0.00001636,-0.00001615,-0.00000978,-
 0.00005184,0.00007301,-0.00003096,-0.00033255,0.00004810,0.00001299,-0
 .00014099,-0.00002757,0.00084577,-0.00020893,0.00038118,0.00074103,-0.
 00114310,0.00031758,0.32176838,0.00000488,0.00002498,0.00000310,-0.000
 00292,-0.00003390,-0.00000686,-0.00000104,-0.00001026,-0.00003112,-0.0
 0000797,0.00000839,0.00003196,0.00000372,-0.00000739,0.00000215,-0.000
 06717,0.00002320,-0.00001276,-0.00001413,0.00001654,0.00003287,-0.0000
 0113,0.00001038,0.00000689,0.00000331,-0.00004752,0.00006208,0.0000329
 3,-0.00002498,-0.00003663,0.00000047,0.00000920,-0.00003623,0.00002426
 ,0.00003684,0.00003686,0.00009800,0.00033705,-0.00000156,-0.00002817,-
 0.00017344,-0.00029969,-0.00149254,0.00174389,0.00017168,0.03217617,-0
 .02132519,0.00291831,0.11218552,-0.09032093,0.01928372,-0.02476214,0.0
 0548666,-0.01276370,-0.00102368,0.00002005,0.00031193,-0.00242713,0.00
 225601,0.00067141,0.00077511,0.00140349,-0.00077490,-0.00022148,0.0000
 5618,-0.00035532,0.00013617,0.00013466,0.00036553,-0.00033657,-0.00009
 350,-0.00014105,0.00002625,0.00003796,-0.00000343,0.00279357,0.0004753
 5,0.00176860,-0.00056476,0.00009420,-0.00027270,0.00098455,0.00007387,
 -0.00036367,-0.00026324,0.00003554,0.00005627,0.00004330,-0.00004383,-
 0.00004977,-0.00000005,-0.00000390,-0.00000188,0.00000436,0.00001035,-
 0.00000901,-0.00000483,0.00000777,-0.00000234,-0.00000290,-0.00001585,
 0.00000585,-0.00000312,0.00000472,0.00000238,-0.00000599,0.00000259,-0
 .00000154,-0.00001620,-0.00001591,0.00002386,-0.00015312,0.00001514,-0
 .00016760,-0.00027276,0.00013046,0.00006151,0.00005040,0.00002410,-0.0
 0010304,-0.00107982,-0.00026415,-0.00064790,-0.00032314,-0.00623991,0.
 00131137,-0.11534252,0.10587587,0.00000940,0.00002148,-0.00004076,-0.0
 0002344,-0.00002320,0.00003474,-0.00001332,-0.00004192,0.00001407,0.00
 002131,0.00003601,-0.00001346,-0.00000574,-0.00000845,0.00000443,0.000
 01178,-0.00002465,0.00003772,0.00002809,0.00004650,0.00000915,-0.00000
 841,0.00000055,-0.00000592,-0.00004069,-0.00005091,0.00008652,0.000120
 81,-0.00003863,-0.00006320,-0.00002799,0.00000475,-0.00006230,-0.00000
 976,0.00002848,0.00010110,0.00023913,0.00035485,-0.00033017,-0.0002692
 2,-0.00031860,-0.00039347,0.00026701,-0.00132612,0.00094073,-0.0109911
 6,0.00818606,0.00075552,-0.02812985,0.02093708,-0.04325508,-0.03289990
 ,-0.00281784,-0.01648057,-0.00228208,-0.00011971,0.00040906,0.03059597
 ,-0.01430459,-0.00055580,-0.00264348,0.00033322,0.00163825,0.00020961,
 0.00008344,-0.00036309,0.00019816,0.00002309,-0.00019276,0.00003703,0.
 00007821,0.00001804,0.00000878,0.00001521,0.00000718,0.00012404,-0.001
 99529,-0.00012505,-0.00031561,0.00001366,-0.00027843,0.00239783,-0.000
 31023,0.00180860,-0.00046407,0.00023331,0.00008152,-0.00008444,0.00001
 733,-0.00006037,-0.00000545,0.00000181,0.00000297,0.00001939,0.0000117
 6,-0.00003961,-0.00000187,0.00000451,-0.00001009,0.00002379,-0.0000256
 7,0.00002012,0.00000981,0.00000314,-0.00001510,0.00000683,-0.00000221,
 0.00000346,0.00001670,0.00002439,-0.00001954,0.00011206,-0.00004578,0.
 00005756,0.00002672,-0.00012184,-0.00000826,-0.00000586,-0.00002671,0.
 00003185,0.00031228,-0.00026369,0.00024616,0.00016574,0.00210620,0.000
 06091,0.04052330,-0.01109951,0.06125629,-0.00000112,-0.00001319,-0.000
 01895,0.00000238,0.00001032,0.00001398,-0.00001639,-0.00000538,0.00002
 288,0.00001545,0.00000133,-0.00002383,-0.00000483,0.00000246,0.0000024
 1,0.00001858,-0.00000730,0.00002270,0.00001791,-0.00000942,-0.00001735
 ,-0.00000446,-0.00000370,-0.00000030,-0.00000835,0.00004903,-0.0000279
 8,0.00002586,-0.00004284,0.00003538,-0.00001239,0.00000589,-0.00001065
 ,-0.00002125,0.00000813,0.00002055,0.00003845,-0.00010574,-0.00004407,
 -0.00017170,0.00010138,0.00020606,0.00081739,-0.00026089,-0.00018313,-
 0.00058936,0.00227769,-0.00081756,-0.02323856,0.00795879,0.00118975,0.
 00260756,-0.00034806,0.00000368,0.00005135,0.00007667,-0.00010271,-0.2
 6819103,0.13152473,-0.03241692,0.01427913,-0.01009415,0.00271303,0.001
 02735,0.00039102,-0.00009725,-0.00021300,0.00003605,-0.00001346,0.0001
 2878,0.00000960,0.00001373,-0.00002862,-0.00002353,0.00000971,-0.00046
 299,-0.00028135,0.00004932,0.00279532,-0.00022627,0.00112844,-0.021426
 89,0.00984689,-0.00492623,0.00185977,-0.00051894,0.00025413,0.00023517
 ,-0.00003400,0.00037440,-0.00000147,0.00000502,0.00000390,0.00000254,-
 0.00000699,-0.00000054,0.00000186,-0.00000759,0.00000691,0.00001271,-0
 .00000219,0.00000434,0.00000638,-0.00000087,-0.00000678,0.00000776,-0.
 00000275,0.00000140,0.00000932,0.00000856,-0.00000904,0.00003347,-0.00
 003257,0.00002913,0.00004030,-0.00012719,-0.00001915,0.00000869,-0.000
 02534,0.00002582,0.00028168,0.00017310,0.00005157,0.00059006,-0.001453
 34,0.00034583,-0.00135181,-0.00065023,0.00351093,0.29179853,-0.0000003
 8,0.00000799,0.00000800,-0.00000330,-0.00000126,-0.00000478,0.00001224
 ,0.00000425,-0.00000962,-0.00000804,0.00000070,0.00000709,0.00000297,-
 0.00000102,-0.00000174,-0.00001415,0.00000404,-0.00002299,-0.00000537,
 0.00000597,0.00000763,0.00000086,0.00000133,-0.00000202,0.00000383,-0.
 00003829,0.00002026,-0.00001720,0.00005276,-0.00003203,0.00000511,-0.0
 0001322,0.00002172,0.00002560,-0.00001095,-0.00001190,-0.00001673,0.00
 004070,-0.00000226,0.00015145,-0.00000257,-0.00005222,-0.00021989,0.00
 005382,-0.00025260,-0.00129927,-0.00021576,0.00089526,0.00163025,0.002
 19477,0.00040458,-0.00043554,0.00031118,-0.00002042,0.00001774,-0.0000
 1864,0.00001534,0.13131029,-0.10550987,0.01327057,0.01817062,-0.049557
 55,0.01022754,0.00101181,-0.00026390,0.00140031,0.00003431,-0.00001676
 ,0.00003212,-0.00002096,0.00000037,0.00000502,0.00000844,0.00000340,-0
 .00000155,-0.00039865,-0.00001176,0.00014483,0.00028599,0.00220232,-0.
 00031130,-0.01248618,0.00574027,-0.00371741,0.00085791,0.00023629,0.00
 099014,-0.00019440,-0.00000733,0.00029446,0.00000048,-0.00000344,-0.00
 000215,-0.00000161,0.00000528,-0.00000246,-0.00000058,0.00000444,-0.00
 000806,-0.00000932,0.00000567,-0.00000373,-0.00000423,-0.00000078,0.00
 000367,-0.00000487,0.00000214,-0.00000004,-0.00000619,-0.00000276,0.00
 000197,-0.00000980,0.00001783,0.00000522,-0.00003269,-0.00002034,0.000
 00664,-0.00000365,-0.00000891,-0.00000475,0.00010156,-0.00013338,-0.00
 000342,-0.00030856,0.00054721,0.00035045,-0.00032452,0.00022916,0.0002
 9472,-0.13621600,0.14531839,-0.00000258,-0.00000487,0.00000300,0.00000
 317,0.00000442,-0.00000304,0.00000776,0.00000722,-0.00000158,-0.000003
 61,-0.00000643,-0.00000128,0.00000096,0.00000209,-0.00000094,-0.000012
 99,0.00000669,-0.00000292,-0.00000551,-0.00000768,-0.00000641,0.000001
 64,0.00000054,0.00000301,0.00000732,0.00001392,-0.00001845,-0.00001950
 ,-0.00000689,0.00001742,0.00000799,0.00000310,0.00000521,0.00000954,-0
 .00000279,-0.00000628,-0.00003705,-0.00007194,0.00004908,0.00003307,0.
 00006410,-0.00000638,-0.00065193,0.00007649,0.00002347,0.00127966,-0.0
 0230445,0.00118596,0.03336759,-0.01243351,-0.00207710,-0.00177079,0.00
 106489,0.00293063,-0.00002917,0.00023932,0.00007303,-0.03287861,0.0132
 7911,-0.04895625,-0.00398605,0.01071028,0.00322315,0.00045315,-0.00082
 035,0.00005245,-0.00000066,-0.00003582,0.00011862,0.00000635,0.0000218
 5,0.00000311,-0.00000321,0.00000395,0.00000685,0.00035019,-0.00005536,
 -0.00034191,0.00280303,0.00098976,0.00139584,-0.03175853,0.01261898,-0
 .00605807,0.00197409,0.00010359,0.00216739,0.00019938,0.00013449,0.000
 63260,0.00000054,0.00000058,-0.00000031,-0.00000393,-0.00000194,0.0000
 0754,0.00000036,-0.00000231,0.00000141,-0.00000637,0.00000509,-0.00000
 618,-0.00000188,-0.00000098,0.00000298,-0.00000147,0.00000124,0.000000
 10,0.00000152,-0.00000623,0.00000555,-0.00001740,0.00001787,-0.0000355
 9,-0.00002053,0.00000300,0.00001364,0.00000908,-0.00001938,-0.00000025
 ,-0.00011332,0.00009765,-0.00015530,-0.00064218,0.00053115,-0.00005558
 ,0.00335362,0.00043226,-0.00498991,0.03103227,-0.02200949,0.05471559,0
 .00000100,-0.00000487,-0.00001668,-0.00000546,0.00000411,0.00001125,-0
 .00000622,-0.00000285,0.00001426,0.00001089,0.00000522,-0.00001805,-0.
 00000373,0.00000092,0.00000164,-0.00001090,-0.00000088,-0.00000097,0.0
 0001078,-0.00000259,-0.00001357,-0.00000488,-0.00000155,0.00000072,-0.
 00000961,0.00001810,-0.00000493,0.00002040,-0.00002367,0.00000936,-0.0
 0001260,0.00000557,-0.00001145,-0.00000342,0.00000721,0.00002287,0.000
 01905,-0.00002473,-0.00005062,-0.00002426,0.00004634,0.00007635,0.0000
 6888,0.00004699,-0.00014596,0.00012866,0.00002009,0.00023827,-0.001003
 38,0.00027154,0.00133567,0.00059513,-0.00019399,0.00012599,0.00008625,
 -0.00002788,-0.00000713,-0.01842641,0.01030997,-0.00657286,0.00120700,
 -0.00130074,0.00078709,0.00011636,-0.00000093,0.00019089,0.00044347,-0
 .00027657,-0.00030038,0.00000797,0.00006912,0.00001056,0.00000060,-0.0
 0000217,0.00000613,0.00119844,-0.00002025,-0.00088603,0.01121790,-0.00
 349697,0.00167592,-0.28632526,0.11714666,-0.04400281,-0.01772427,0.006
 82194,0.01042503,0.00087994,-0.00067812,0.00021069,-0.00000199,0.00000
 337,0.00000264,0.00000411,-0.00000148,-0.00000324,0.00000034,-0.000003
 50,0.00000216,0.00000453,-0.00000289,-0.00000045,0.00000433,-0.0000008
 7,-0.00000408,0.00000448,-0.00000140,0.00000079,0.00000372,0.00000127,
 -0.00000232,0.00000892,-0.00000799,-0.00000224,-0.00010127,-0.00024051
 ,0.00018368,-0.00002441,0.00010100,-0.00002788,0.00012409,0.00058580,-
 0.00102834,-0.00007160,-0.00026673,0.00020838,0.00138860,-0.00027423,-
 0.00077414,-0.00096954,-0.00158936,-0.00293504,0.30717336,0.00000890,0
 .00001405,0.00002917,-0.00000057,-0.00001774,-0.00001672,-0.00000504,0
 .00000472,-0.00002006,-0.00000478,0.00000098,0.00003000,0.00000167,-0.
 00000168,-0.00000205,0.00001463,-0.00004532,-0.00001844,0.00001695,0.0
 0002666,0.00007118,-0.00000469,0.00000691,-0.00001283,0.00000413,-0.00
 003554,0.00002256,-0.00000013,0.00002784,-0.00002007,0.00000247,-0.000
 00353,0.00000135,-0.00002098,0.00000438,-0.00001280,0.00003457,0.00011
 781,0.00007184,-0.00013413,-0.00006349,-0.00016743,0.00023141,0.000154
 83,0.00039565,-0.00079431,-0.00052762,0.00007082,-0.00057085,0.0003027
 6,0.00093599,0.00014736,-0.00015494,-0.00032042,0.00000927,-0.00009218
 ,0.00007344,-0.01404607,0.00944690,-0.00509178,0.00173173,0.00124284,0
 .00131415,0.00034135,0.00024083,-0.00001254,-0.00006472,-0.00035699,0.
 00050194,-0.00028726,-0.00023177,-0.00000927,0.00002463,0.00006879,-0.
 00002335,0.00368385,0.00077799,-0.00408968,0.02480340,-0.03913789,0.01
 518679,0.11595785,-0.09558127,0.01612229,-0.00041790,0.00554067,-0.000
 10927,0.00014021,-0.00017355,-0.00057931,0.00000091,-0.00000465,-0.000
 00473,0.00000006,0.00000339,-0.00000265,-0.00000077,0.00000852,-0.0000
 0126,0.00000235,-0.00000376,0.00000488,-0.00000168,0.00000222,0.000001
 71,-0.00000045,-0.00000049,0.00000060,-0.00000036,0.00000405,-0.000006
 64,0.00000394,-0.00000265,0.00000984,-0.00039025,0.00029194,-0.0000136
 8,-0.00026351,-0.00014631,0.00011637,-0.00124437,0.00036087,0.00078685
 ,0.00000259,-0.00003255,-0.00014562,0.00009293,0.00003606,0.00010580,-
 0.00198684,-0.00115182,-0.00264323,-0.12701750,0.11907974,-0.00000320,
 0.00000157,-0.00002631,-0.00000213,0.00000049,0.00001945,-0.00000152,-
 0.00000634,0.00001987,0.00000765,0.00001513,-0.00002335,-0.00000153,-0
 .00000178,0.00000197,-0.00001187,-0.00002252,-0.00000946,0.00000501,0.
 00001989,-0.00000749,-0.00000235,-0.00000548,0.00000036,-0.00000667,0.
 00000378,0.00000758,0.00000830,-0.00000888,-0.00000711,-0.00000419,0.0
 0000410,-0.00000345,0.00000902,0.00000749,0.00003334,0.00000828,-0.000
 00908,-0.00006983,0.00002687,0.00001926,0.00010412,0.00007790,0.000072
 74,-0.00023676,-0.00005276,-0.00011066,-0.00014744,-0.00224211,0.00070
 877,0.00148321,0.00070094,-0.00027103,-0.00001082,0.00001815,0.0000121
 9,0.00008474,-0.02634705,0.01001879,-0.00451507,0.00101491,-0.00102965
 ,0.00068146,0.00010370,0.00006347,0.00015284,-0.00004691,0.00011547,0.
 00002065,0.00007260,0.00004234,-0.00000129,-0.00001002,-0.00001746,0.0
 0000650,-0.00142951,0.00000280,0.00195241,-0.00490807,0.01101590,0.000
 81029,-0.04952870,0.01838367,-0.05275270,0.03986241,-0.01365656,-0.013
 89808,0.00209932,-0.00003915,0.00323760,-0.00000119,0.00000160,0.00000
 423,0.00000445,-0.00000031,-0.00000363,-0.00000165,-0.00000286,-0.0000
 0180,0.00000117,-0.00000184,-0.00000088,0.00000204,-0.00000020,-0.0000
 0308,0.00000198,-0.00000058,0.,0.00000057,0.00000219,-0.00000089,0.000
 00256,-0.00000981,0.00000297,0.00013161,-0.00006568,-0.00005602,0.0000
 4662,-0.00003956,0.00000706,0.00042038,-0.00019887,0.00001056,0.000198
 05,-0.00017497,0.00012755,0.00084446,-0.00037840,-0.00032297,-0.002336
 34,-0.00193062,-0.00391390,0.04126880,-0.02252936,0.06724357\\0.010897
 37,0.00514625,-0.00543403,-0.02679773,-0.01330967,0.02037885,0.0333846
 2,-0.02089778,-0.01618424,-0.00925802,0.02405114,0.03153018,-0.0033051
 3,-0.00481880,-0.03142377,-0.01549266,-0.02047325,0.00863932,0.0032242
 2,-0.01296859,0.00309782,0.01103393,0.03497859,-0.00519046,-0.00360862
 ,0.00955219,-0.00256120,-0.00550069,0.01314638,0.01175563,0.00860152,-
 0.02725607,-0.01759727,-0.00069557,0.00666800,-0.01226770,0.01964662,-
 0.00653326,0.01876098,-0.05371698,0.02599414,-0.02181039,-0.00278690,-
 0.00053434,-0.01220440,0.03250383,0.00400527,-0.01682249,-0.01428760,0
 .02311712,0.04004107,0.00339364,-0.01434584,0.00975977,0.00390796,0.01
 491980,-0.02048395,0.03155876,-0.01023024,0.00626329,-0.00918777,-0.00
 405049,0.02304275,-0.01250281,-0.00182697,-0.02508558,-0.00189216,-0.0
 3491620,0.01025536,-0.01186596,-0.01215911,-0.01611090,-0.00275973,0.0
 3807278,0.00600757,-0.00965831,-0.06467647,-0.00763958,0.00943260,0.03
 305459,0.01142474,0.00410472,0.00553341,-0.03068947,-0.00064125,-0.001
 39443,0.02942455,-0.00382157,-0.00152577,0.00033247,-0.00147683,0.0034
 3130,0.00094422,-0.01763729,0.00156534,0.00993460,0.01241981,-0.001229
 41,0.01494788,0.02053933,-0.00474604,-0.00499412,-0.01948849,0.0105493
 3,0.00257264,0.02538570,-0.00512733,-0.00115503,-0.01917106,0.00790801
 ,-0.00369885,0.01799693,-0.00076621,-0.00536304,0.01905195,0.00041738,
 -0.00564056,-0.00188581,-0.00430497,0.01370032,-0.01749148,0.00980149,
 -0.00277984,0.02026880,-0.00921486,-0.00208970,-0.02183365,0.01160885,
 -0.00149890,0.01974120,-0.01486737,0.00033761,-0.02032942,0.00865213,-
 0.00442613\\\@


 LIFE IS A CONTINUAL STRUGGLE AGAINST THE TENDENCY TO PRODUCE ENTROPY.
 Job cpu time:  1 days  7 hours 38 minutes 59.3 seconds.
 File lengths (MBytes):  RWF=   1769 Int=      0 D2E=      0 Chk=     28 Scr=      1
 Normal termination of Gaussian 09 at Fri Apr  1 10:40:20 2016.
Gaussian '09 finished on node025 at Fri Apr  1 10:40:20 EDT 2016.
