Gaussian '09 started on node030 at Tue Mar 29 18:47:49 EDT 2016.
 Entering Gaussian System, Link 0=/usr/local/gaussian/g09/g09
 Initial command:
 /usr/local/gaussian/g09/l1.exe /home/srmcgrat/thesis/gaussian/cellobiose/483K/7880ps/1/2dp/gaussian22863/Gau-22899.inp -scrdir=/home/srmcgrat/thesis/gaussian/cellobiose/483K/7880ps/1/2dp/gaussian22863/
 Entering Link 1 = /usr/local/gaussian/g09/l1.exe PID=     22901.
  
 Copyright (c) 1988,1990,1992,1993,1995,1998,2003,2009,2010,
            Gaussian, Inc.  All Rights Reserved.
  
 This is part of the Gaussian(R) 09 program.  It is based on
 the Gaussian(R) 03 system (copyright 2003, Gaussian, Inc.),
 the Gaussian(R) 98 system (copyright 1998, Gaussian, Inc.),
 the Gaussian(R) 94 system (copyright 1995, Gaussian, Inc.),
 the Gaussian 92(TM) system (copyright 1992, Gaussian, Inc.),
 the Gaussian 90(TM) system (copyright 1990, Gaussian, Inc.),
 the Gaussian 88(TM) system (copyright 1988, Gaussian, Inc.),
 the Gaussian 86(TM) system (copyright 1986, Carnegie Mellon
 University), and the Gaussian 82(TM) system (copyright 1983,
 Carnegie Mellon University). Gaussian is a federally registered
 trademark of Gaussian, Inc.
  
 This software contains proprietary and confidential information,
 including trade secrets, belonging to Gaussian, Inc.
  
 This software is provided under written license and may be
 used, copied, transmitted, or stored only in accord with that
 written license.
  
 The following legend is applicable only to US Government
 contracts under FAR:
  
                    RESTRICTED RIGHTS LEGEND
  
 Use, reproduction and disclosure by the US Government is
 subject to restrictions as set forth in subparagraphs (a)
 and (c) of the Commercial Computer Software - Restricted
 Rights clause in FAR 52.227-19.
  
 Gaussian, Inc.
 340 Quinnipiac St., Bldg. 40, Wallingford CT 06492
  
  
 ---------------------------------------------------------------
 Warning -- This program may not be used in any manner that
 competes with the business of Gaussian, Inc. or will provide
 assistance to any competitor of Gaussian, Inc.  The licensee
 of this program is prohibited from giving any competitor of
 Gaussian, Inc. access to this program.  By using this program,
 the user acknowledges that Gaussian, Inc. is engaged in the
 business of creating and licensing software in the field of
 computational chemistry and represents and warrants to the
 licensee that it is not a competitor of Gaussian, Inc. and that
 it will not use this program in any manner prohibited above.
 ---------------------------------------------------------------
  

 Cite this work as:
 Gaussian 09, Revision B.01,
 M. J. Frisch, G. W. Trucks, H. B. Schlegel, G. E. Scuseria, 
 M. A. Robb, J. R. Cheeseman, G. Scalmani, V. Barone, B. Mennucci, 
 G. A. Petersson, H. Nakatsuji, M. Caricato, X. Li, H. P. Hratchian, 
 A. F. Izmaylov, J. Bloino, G. Zheng, J. L. Sonnenberg, M. Hada, 
 M. Ehara, K. Toyota, R. Fukuda, J. Hasegawa, M. Ishida, T. Nakajima, 
 Y. Honda, O. Kitao, H. Nakai, T. Vreven, J. A. Montgomery, Jr., 
 J. E. Peralta, F. Ogliaro, M. Bearpark, J. J. Heyd, E. Brothers, 
 K. N. Kudin, V. N. Staroverov, T. Keith, R. Kobayashi, J. Normand, 
 K. Raghavachari, A. Rendell, J. C. Burant, S. S. Iyengar, J. Tomasi, 
 M. Cossi, N. Rega, J. M. Millam, M. Klene, J. E. Knox, J. B. Cross, 
 V. Bakken, C. Adamo, J. Jaramillo, R. Gomperts, R. E. Stratmann, 
 O. Yazyev, A. J. Austin, R. Cammi, C. Pomelli, J. W. Ochterski, 
 R. L. Martin, K. Morokuma, V. G. Zakrzewski, G. A. Voth, 
 P. Salvador, J. J. Dannenberg, S. Dapprich, A. D. Daniels, 
 O. Farkas, J. B. Foresman, J. V. Ortiz, J. Cioslowski, 
 and D. J. Fox, Gaussian, Inc., Wallingford CT, 2010.
 
 ******************************************
 Gaussian 09:  EM64L-G09RevB.01 12-Aug-2010
                29-Mar-2016 
 ******************************************
 -------------------------------------------------
 # freq=raman b3lyp/6-31+g(2d,p) geom=connectivity
 -------------------------------------------------
 1/10=4,30=1,38=1,57=2/1,3;
 2/12=2,17=6,18=5,40=1/2;
 3/5=1,6=6,7=112,11=2,16=1,25=1,30=1,71=2,74=-5/1,2,3;
 4//1;
 5/5=2,38=5,98=1/2;
 8/6=4,10=90,11=11/1;
 10/13=10,15=4/2;
 11/6=3,8=1,9=11,15=111,16=1/1,2,10;
 10/6=1/2;
 6/7=2,8=2,9=2,10=2,18=1,28=1/1;
 7/8=1,10=1,25=1/1,2,3,16;
 1/10=4,30=1/3;
 99//99;
 -----------------
 483 7880/7880.com
 -----------------
 Symbolic Z-matrix:
 Charge =  0 Multiplicity = 1
 O                     7.485     7.443     12.321 
 C                     7.986     7.9       13.586 
 C                     7.548     9.283     14.039 
 O                     8.122     10.229    13.126 
 H                     8.18      9.773     12.238 
 C                     8.026     9.654     15.434 
 O                     7.626     10.882    16.059 
 H                     8.233     11.021    16.841 
 C                     8.111     5.505     14.403 
 O                     7.815     4.874     13.149 
 H                     8.038     3.903     13.233 
 C                     7.6       6.91      14.673 
 O                     8.156     7.22      15.96 
 C                     7.766     8.523     16.415 
 O                     8.634     8.683     17.547 
 C                     8.016     8.348     18.797 
 C                     8.467     7.005     19.348 
 O                     8.133     5.904     18.491 
 H                     8.03      6.336     17.595 
 C                     8.112     6.637     20.78 
 O                     8.971     5.563     21.188 
 H                     8.6       5.296     22.077 
 C                     7.999     10.81     19.492 
 O                     8.444     11.623    18.397 
 H                     8.189     12.565    18.618 
 C                     8.36      9.38      19.859 
 O                     7.646     9.022     21.051 
 C                     8.23      7.865     21.667 
 O                     7.501     7.677     22.889 
 H                     8.11813   7.56518   23.61581 
 H                     9.25996   8.05423   21.88671 
 H                     7.09899   6.29333   20.80467 
 H                     9.53581   7.054     19.33568 
 H                     6.95453   8.32863   18.66358 
 H                     9.41012   9.33112   20.05838 
 H                     8.24573   11.37915   20.36383 
 H                     6.93294   10.80057   19.40075 
 H                     8.22147   7.23377   11.74183 
 H                     7.72676   4.87266   15.17592 
 H                     9.17599   5.52895   14.5036 
 H                     6.53336   6.88227   14.75308 
 H                     9.05403   7.90841   13.52158 
 H                     6.4809    9.35027   13.99809 
 H                     9.09058   9.721     15.34989 
 H                     6.74225   8.52137   16.72618 
 

 GradGradGradGradGradGradGradGradGradGradGradGradGradGradGradGradGradGrad
 Berny optimization.
 Initialization pass.
 Trust Radius=3.00D-01 FncErr=1.00D-07 GrdErr=1.00D-07
 Number of steps in this run=      2 maximum allowed number of steps=      2.
 GradGradGradGradGradGradGradGradGradGradGradGradGradGradGradGradGradGrad

                          Input orientation:                          
 ---------------------------------------------------------------------
 Center     Atomic      Atomic             Coordinates (Angstroms)
 Number     Number       Type             X           Y           Z
 ---------------------------------------------------------------------
      1          8           0        7.485000    7.443000   12.321000
      2          6           0        7.986000    7.900000   13.586000
      3          6           0        7.548000    9.283000   14.039000
      4          8           0        8.122000   10.229000   13.126000
      5          1           0        8.180000    9.773000   12.238000
      6          6           0        8.026000    9.654000   15.434000
      7          8           0        7.626000   10.882000   16.059000
      8          1           0        8.233000   11.021000   16.841000
      9          6           0        8.111000    5.505000   14.403000
     10          8           0        7.815000    4.874000   13.149000
     11          1           0        8.038000    3.903000   13.233000
     12          6           0        7.600000    6.910000   14.673000
     13          8           0        8.156000    7.220000   15.960000
     14          6           0        7.766000    8.523000   16.415000
     15          8           0        8.634000    8.683000   17.547000
     16          6           0        8.016000    8.348000   18.797000
     17          6           0        8.467000    7.005000   19.348000
     18          8           0        8.133000    5.904000   18.491000
     19          1           0        8.030000    6.336000   17.595000
     20          6           0        8.112000    6.637000   20.780000
     21          8           0        8.971000    5.563000   21.188000
     22          1           0        8.600000    5.296000   22.077000
     23          6           0        7.999000   10.810000   19.492000
     24          8           0        8.444000   11.623000   18.397000
     25          1           0        8.189000   12.565000   18.618000
     26          6           0        8.360000    9.380000   19.859000
     27          8           0        7.646000    9.022000   21.051000
     28          6           0        8.230000    7.865000   21.667000
     29          8           0        7.501000    7.677000   22.889000
     30          1           0        8.118128    7.565183   23.615808
     31          1           0        9.259961    8.054227   21.886712
     32          1           0        7.098993    6.293333   20.804672
     33          1           0        9.535806    7.053999   19.335680
     34          1           0        6.954528    8.328630   18.663575
     35          1           0        9.410122    9.331124   20.058384
     36          1           0        8.245728   11.379151   20.363833
     37          1           0        6.932940   10.800572   19.400750
     38          1           0        8.221469    7.233767   11.741833
     39          1           0        7.726755    4.872661   15.175918
     40          1           0        9.175991    5.528950   14.503596
     41          1           0        6.533361    6.882266   14.753077
     42          1           0        9.054026    7.908407   13.521582
     43          1           0        6.480901    9.350275   13.998092
     44          1           0        9.090583    9.720995   15.349888
     45          1           0        6.742249    8.521371   16.726178
 ---------------------------------------------------------------------
                    Distance matrix (angstroms):
                    1          2          3          4          5
     1  O    0.000000
     2  C    1.435296   0.000000
     3  C    2.518153   1.519784   0.000000
     4  O    2.969106   2.377885   1.434560   0.000000
     5  H    2.432861   2.315787   1.970565   0.999922   0.000000
     6  C    3.856419   2.548180   1.520576   2.380484   3.201920
     7  O    5.081264   3.890714   2.577457   3.045474   4.017068
     8  H    5.813088   4.516268   3.367651   3.800107   4.769478
     9  C    2.912464   2.533602   3.837023   4.893570   4.786210
    10  O    2.719236   3.062170   4.505848   5.363842   4.996333
    11  H    3.697182   4.012894   5.462063   6.327462   5.955425
    12  C    2.414377   1.520087   2.456784   3.698845   3.802945
    13  O    3.707060   2.475313   2.883726   4.133617   4.513499
    14  C    4.243371   2.905128   2.504097   3.722189   4.379638
    15  O    5.492620   4.089317   3.720949   4.711422   5.438722
    16  C    6.560454   5.230308   4.871531   5.975754   6.714015
    17  C    7.108790   5.850900   5.849729   7.016159   7.635201
    18  O    6.391973   5.297608   5.619624   6.891224   7.353324
    19  H    5.416415   4.303500   4.643519   5.927552   6.366547
    20  C    8.520413   7.305113   7.263642   8.454956   9.099719
    21  O    9.185112   8.013875   8.183614   9.353513   9.922312
    22  H   10.051486   8.902522   9.033954  10.231489  10.817849
    23  C    7.938774   6.584004   5.680699   6.393641   7.329983
    24  O    7.437060   6.100509   5.026985   5.461718   6.436263
    25  H    8.147558   6.864726   5.670066   5.968538   6.964176
    26  C    7.831924   6.456067   5.877172   6.790488   7.633249
    27  O    8.873109   7.556501   7.017540   8.030507   8.861045
    28  C    9.385139   8.084759   7.788596   8.862778   9.620239
    29  O   10.570602   9.318303   8.994662  10.110119  10.876491
    30  H   11.313199  10.036265   9.746342  10.822754  11.590202
    31  H    9.748176   8.399321   8.125717   9.098059   9.859926
    32  H    8.569914   7.448314   7.410400   8.688960   9.309378
    33  H    7.318666   6.014685   6.080678   7.116151   7.720637
    34  H    6.426041   5.198983   4.759173   5.969853   6.698956
    35  H    8.193792   6.779970   6.301016   7.107981   7.928863
    36  H    8.986610   7.623055   6.699566   7.329692   8.283309
    37  H    7.854994   6.582824   5.606219   6.411946   7.342755
    38  H    0.960000   1.974909   3.151173   3.301096   2.587587
    39  H    3.849110   3.429261   4.558029   5.748805   5.731503
    40  H    3.359578   2.807123   4.118142   5.009904   4.912930
    41  H    2.671149   2.123208   2.702392   4.046206   4.170537
    42  H    2.029740   1.070000   2.103650   2.531859   2.426564
    43  H    2.731035   2.130362   1.070000   2.055701   2.482651
    44  H    4.115983   2.765398   2.071190   2.478285   3.242793
    45  H    4.595667   3.434201   2.906929   4.216751   4.876212
                    6          7          8          9         10
     6  C    0.000000
     7  O    1.434785   0.000000
     8  H    1.972609   0.999647   0.000000
     9  C    4.276025   5.647096   6.031997   0.000000
    10  O    5.302277   6.678315   7.182701   1.434675   0.000000
    11  H    6.157804   7.540720   7.982582   1.985103   0.999813
    12  C    2.879259   4.206953   4.690547   1.519225   2.552273
    13  O    2.493578   3.701479   3.902524   2.316786   3.677189
    14  C    1.519580   2.389815   2.576736   3.643555   4.897383
    15  O    2.403596   2.840037   2.474971   4.500883   5.875512
    16  C    3.607701   3.750987   3.319330   5.234397   6.633927
    17  C    4.746691   5.153245   4.740049   5.179745   6.587402
    18  O    4.839339   5.563466   5.377378   4.107485   5.449678
    19  H    3.959679   4.815457   4.749626   3.299392   4.685145
    20  C    6.139169   6.367422   5.894898   6.476693   7.837636
    21  O    7.123049   7.510488   7.016468   6.839531   8.150864
    22  H    7.965619   8.268518   7.766982   7.692404   8.972374
    23  C    4.219529   3.453955   2.669659   7.352108   8.689281
    24  O    3.582046   2.585430   1.681684   7.313881   8.572406
    25  H    4.317215   3.114151   2.354485   8.222889   9.444645
    26  C    4.446038   4.151477   3.437635   6.696683   8.100936
    27  O    5.665202   5.327294   4.697305   7.535345   8.926145
    28  C    6.487868   6.396622   5.766335   7.638682   9.037402
    29  O    7.730535   7.545631   6.949566   8.780768  10.140168
    30  H    8.444739   8.267334   7.606174   9.440351  10.811495
    31  H    6.761615   6.680446   5.942693   7.989031   9.410068
    32  H    6.402932   6.622311   6.272759   6.528938   7.818982
    33  H    4.925711   5.388653   4.863931   5.362910   6.781488
    34  H    3.651687   3.708691   3.493584   5.240498   6.563948
    35  H    4.837869   4.645792   3.820060   6.950562   8.375557
    36  H    5.227588   4.377534   3.541015   8.369906   9.724008
    37  H    4.271360   3.413833   2.879421   7.376206   8.659484
    38  H    4.419031   5.683495   6.351753   3.175319   2.777380
    39  H    4.797641   6.074714   6.389903   1.070000   2.028839
    40  H    4.382256   5.785923   6.042789   1.070000   2.028839
    41  H    3.220891   4.347087   4.937339   2.123290   2.872071
    42  H    2.785907   4.161731   4.623944   2.728105   3.298731
    43  H    2.131059   2.811543   3.734073   4.196107   4.747401
    44  H    1.070000   1.998944   2.156126   4.430665   5.473973
    45  H    2.144898   2.607434   2.912673   4.045878   5.220183
                   11         12         13         14         15
    11  H    0.000000
    12  C    3.362662   0.000000
    13  O    4.295689   1.435829   0.000000
    14  C    5.616361   2.379893   1.434202   0.000000
    15  O    6.466391   3.531651   2.210751   1.435426   0.000000
    16  C    7.121559   4.387286   3.056232   2.401468   1.434102
    17  C    6.870202   4.755664   3.409031   3.376124   2.467220
    18  O    5.626686   3.984125   2.852779   3.362087   2.977411
    19  H    4.994657   3.008731   1.862943   2.499013   2.423949
    20  C    8.027294   6.134503   4.855330   4.767592   3.861462
    21  O    8.179738   6.792590   5.544534   5.744141   4.806750
    22  H    8.970654   7.643573   6.427799   6.570185   5.656308
    23  C    9.321119   6.212243   5.038628   3.840910   2.951335
    24  O    9.296781   6.065714   5.040667   3.741391   3.066301
    25  H   10.200552   6.920186   5.969512   4.622759   4.051542
    26  C    8.602621   5.794230   4.461997   3.598391   2.430273
    27  O    9.353018   6.718746   5.424535   4.664322   3.656375
    28  C    9.320229   7.086957   5.743810   5.313357   4.219803
    29  O   10.381223   8.252318   6.974877   6.534418   5.552719
    30  H   11.010028   8.981733   7.663679   7.272760   6.192420
    31  H    9.675361   7.490152   6.086098   5.691336   4.429479
    32  H    7.995351   6.182935   5.044484   4.968454   4.321942
    33  H    7.029575   5.050611   3.650567   3.717600   2.581913
    34  H    7.088812   4.284138   3.159417   2.398407   2.047668
    35  H    8.827974   6.175820   4.777700   4.078045   2.707301
    36  H   10.333671   7.264699   6.058080   4.897042   3.918486
    37  H    9.318734   6.158989   5.114209   3.846561   3.288481
    38  H    3.653936   3.013767   4.218698   4.869093   5.997535
    39  H    2.193638   2.102319   2.511780   3.855106   4.578625
    40  H    2.356513   2.102319   2.453802   3.821764   4.416344
    41  H    3.667506   1.070000   2.050289   2.640719   3.932090
    42  H    4.142327   2.106364   2.688166   3.226236   4.120729
    43  H    5.716881   2.768181   3.345611   2.859599   4.204265
    44  H    6.279985   3.252954   2.738733   2.079465   2.472490
    45  H    5.933853   2.747325   2.068644   1.070000   2.068476
                   16         17         18         19         20
    16  C    0.000000
    17  C    1.520083   0.000000
    18  O    2.465859   1.434645   0.000000
    19  H    2.343746   1.926535   1.000024   0.000000
    20  C    2.620883   1.520550   2.403591   3.200242   0.000000
    21  O    3.792774   2.391439   2.844703   3.793766   1.434511
    22  H    4.518203   3.222702   3.667035   4.636251   1.928376
    23  C    2.558272   3.836377   5.008871   4.859655   4.368712
    24  O    3.326982   4.714961   5.728221   5.363485   5.536164
    25  H    4.224341   5.614605   6.662446   6.314448   6.310417
    26  C    1.520264   2.431706   3.742396   3.807956   2.904100
    27  O    2.381531   2.764514   4.063581   4.393858   2.445163
    28  C    2.918216   2.484659   3.733886   4.354196   1.519433
    29  O    4.178508   3.731410   4.783864   5.486762   2.429568
    30  H    4.883046   4.318530   5.387338   6.145631   2.983851
    31  H    3.343660   2.859148   4.174252   4.783712   2.133345
    32  H    3.015511   2.121275   2.563948   3.342243   1.070000
    33  H    2.067468   1.070000   2.000962   2.411005   2.070549
    34  H    1.070000   2.123206   2.701371   2.503810   2.946287
    35  H    2.121603   2.608635   3.979059   4.116281   3.076387
    36  H    3.419885   4.496007   5.787702   5.757286   4.762255
    37  H    2.748208   4.094202   5.122910   4.939300   4.541789
    38  H    7.145566   7.613567   6.879489   5.924712   9.058509
    39  H    5.027313   4.743532   3.495492   2.843462   5.887872
    40  H    5.265543   5.113672   4.138585   3.394320   6.461664
    41  H    4.549715   4.986716   4.181856   3.258046   6.235067
    42  H    5.394513   5.925191   5.437007   4.484844   7.428897
    43  H    5.137179   6.169799   5.898514   4.941994   7.484425
    44  H    3.862956   4.873437   5.035177   4.198042   6.320979
    45  H    2.437376   3.485412   3.449553   2.681231   4.675526
                   21         22         23         24         25
    21  O    0.000000
    22  H    0.999625   0.000000
    23  C    5.599304   6.119446   0.000000
    24  O    6.692609   7.321043   1.434580   0.000000
    25  H    7.499629   8.060519   1.969772   1.000615   0.000000
    26  C    4.087671   4.653620   1.519839   2.678722   3.422506
    27  O    3.706626   3.980687   2.398340   3.800753   4.332111
    28  C    2.465304   2.627691   3.668380   4.986107   5.602507
    29  O    3.085984   2.745233   4.647935   6.052952   6.527429
    30  H    3.260426   2.783761   5.248697   6.618763   7.069743
    31  H    2.603442   2.842459   3.862506   5.057670   5.672611
    32  H    2.045663   2.206018   4.788883   6.000940   6.730784
    33  H    2.444008   3.388381   4.061250   4.790504   5.718398
    34  H    4.252950   4.853441   2.816808   3.625254   4.412803
    35  H    3.958234   4.584030   2.121116   2.991034   3.744837
    36  H    5.918858   6.329706   1.070000   1.991785   2.111253
    37  H    5.897467   6.343636   1.070000   1.991785   2.302953
    38  H    9.622023  10.522068   8.538385   7.975345   8.700849
    39  H    6.178174   6.968981   7.345385   7.513780   8.440005
    40  H    6.687633   7.598847   7.359278   7.268552   8.210266
    41  H    7.006481   7.773486   6.327131   6.277203   7.069104
    42  H    8.017592   8.956896   6.721474   6.159548   6.957414
    43  H    8.499343   9.284206   5.883745   5.326296   5.881803
    44  H    7.168457   8.066926   4.419794   3.649738   4.425130
    45  H    5.798892   6.518094   3.803553   3.912506   4.692868
                   26         27         28         29         30
    26  C    0.000000
    27  O    1.434860   0.000000
    28  C    2.362412   1.434978   0.000000
    29  O    3.580362   2.282169   1.435294   0.000000
    30  H    4.179194   2.987216   1.974907   0.960000   0.000000
    31  H    2.584419   2.059094   1.070000   2.059326   2.129018
    32  H    3.465826   2.793836   2.119652   2.533884   3.249420
    33  H    2.658320   3.222843   2.792473   4.141817   4.537688
    34  H    2.123622   2.580444   3.295807   4.310158   5.144067
    35  H    1.070000   2.047675   2.475854   3.793845   4.176489
    36  H    2.065071   2.527456   3.748033   4.542798   5.013778
    37  H    2.065071   2.528853   3.928847   4.716702   5.444182
    38  H    8.397256   9.496817   9.945224  11.179216  11.879049
    39  H    6.530571   7.193061   7.165298   8.210171   8.867614
    40  H    6.646562   7.576990   7.593839   8.816729   9.396687
    41  H    5.970405   6.743906   7.186563   8.231717   9.029167
    42  H    6.542944   7.740462   8.187108   9.498103  10.143328
    43  H    6.154847   7.156028   8.004845   9.104323   9.918040
    44  H    4.580625   5.922677   6.640123   7.971380   8.597594
    45  H    3.628903   4.446513   5.201533   6.266502   7.090440
                   31         32         33         34         35
    31  H    0.000000
    32  H    2.990208   0.000000
    33  H    2.753963   2.945269   0.000000
    34  H    3.972270   2.957634   2.956249   0.000000
    35  H    2.235128   3.889273   2.392361   2.996737   0.000000
    36  H    3.795122   5.232102   4.629075   3.723406   2.375611
    37  H    4.374637   4.723746   4.562451   2.579611   2.954352
    38  H   10.230846   9.180382   7.708847   7.121403   8.658916
    39  H    7.583392   5.839114   5.033341   4.970293   6.822763
    40  H    7.803492   6.678455   5.079792   5.484390   6.735504
    41  H    7.726357   6.106437   5.481279   4.190626   6.512983
    42  H    8.368935   7.711939   5.896258   5.569970   6.699306
    43  H    8.463643   7.487086   6.564692   4.799460   6.731111
    44  H    6.748102   6.743142   4.816392   4.181141   4.735403
    45  H    5.760921   4.661066   4.094709   1.958500   4.344749
                   36         37         38         39         40
    36  H    0.000000
    37  H    1.727916   0.000000
    38  H    9.566801   8.546428   0.000000
    39  H    8.337758   7.322533   4.196726   0.000000
    40  H    8.332624   7.536803   3.383024   1.727142   0.000000
    41  H    7.391533   6.092098   3.469993   2.375184   2.979463
    42  H    7.714649   6.886817   2.077450   3.703273   2.577021
    43  H    6.910399   5.612167   3.549632   4.794628   4.703357
    44  H    5.348169   4.714913   4.467630   5.039508   4.277470
    45  H    4.864143   3.519156   5.356278   4.084807   4.451691
                   41         42         43         44         45
    41  H    0.000000
    42  H    2.987189   0.000000
    43  H    2.581438   2.987812   0.000000
    44  H    3.867034   2.574784   2.962301   0.000000
    45  H    2.573602   3.998683   2.863187   2.974549   0.000000
 Stoichiometry    C12H22O11
 Framework group  C1[X(C12H22O11)]
 Deg. of freedom   129
 Full point group                 C1      NOp   1
 Largest Abelian subgroup         C1      NOp   1
 Largest concise Abelian subgroup C1      NOp   1
                         Standard orientation:                         
 ---------------------------------------------------------------------
 Center     Atomic      Atomic             Coordinates (Angstroms)
 Number     Number       Type             X           Y           Z
 ---------------------------------------------------------------------
      1          8           0       -5.040478   -0.498699    0.368514
      2          6           0       -3.741965   -0.096252   -0.091894
      3          6           0       -3.260912    1.282508    0.329239
      4          8           0       -4.118230    2.241975   -0.305102
      5          1           0       -5.017927    1.813532   -0.387723
      6          6           0       -1.836360    1.595438   -0.100736
      7          8           0       -1.187195    2.812768    0.293348
      8          1           0       -0.377409    2.910292   -0.284605
      9          6           0       -3.000975   -2.518873   -0.123186
     10          8           0       -4.286132   -3.100955    0.137285
     11          1           0       -4.225742   -4.079731   -0.057595
     12          6           0       -2.704852   -1.110285    0.362856
     13          8           0       -1.387079   -0.856878   -0.147893
     14          6           0       -0.904783    0.440615    0.227391
     15          8           0        0.265639    0.540894   -0.597537
     16          6           0        1.478128    0.182169    0.079098
     17          6           0        2.001570   -1.189414   -0.315136
     18          8           0        1.095683   -2.252908    0.011292
     19          1           0        0.211198   -1.789602    0.066807
     20          6           0        3.405201   -1.593961    0.107044
     21          8           0        3.811080   -2.702969   -0.707318
     22          1           0        4.675176   -2.988633   -0.293815
     23          6           0        2.253636    2.620010    0.062409
     24          8           0        1.204982    3.455893   -0.447144
     25          1           0        1.446936    4.396685   -0.207149
     26          6           0        2.586835    1.169834   -0.247232
     27          8           0        3.736807    0.792546    0.523509
     28          6           0        4.336669   -0.398824   -0.005607
     29          8           0        5.521673   -0.606832    0.777059
     30          1           0        6.268379   -0.758390    0.193055
     31          1           0        4.603471   -0.244153   -1.030202
     32          1           0        3.377977   -1.911283    1.128545
     33          1           0        2.033525   -1.168380   -1.384452
     34          1           0        1.301907    0.195254    1.134406
     35          1           0        2.826197    1.086731   -1.286800
     36          1           0        3.153114    3.153953   -0.162855
     37          1           0        2.119681    2.641787    1.123767
     38          1           0       -5.596471   -0.708547   -0.385432
     39          1           0       -2.265518   -3.165455    0.308015
     40          1           0       -2.857245   -2.526414   -1.183462
     41          1           0       -2.668345   -1.112319    1.432231
     42          1           0       -3.763422   -0.114071   -1.161531
     43          1           0       -3.342075    1.379321    1.391754
     44          1           0       -1.875669    1.636884   -1.169210
     45          1           0       -0.634907    0.456058    1.262682
 ---------------------------------------------------------------------
 Rotational constants (GHZ):      0.4051428      0.1466594      0.1105881
 Standard basis: 6-31+G(2d,p) (6D, 7F)
 There are   685 symmetry adapted basis functions of A   symmetry.
 Integral buffers will be    131072 words long.
 Raffenetti 2 integral format.
 Two-electron integral symmetry is turned on.
   685 basis functions,  1028 primitive gaussians,   685 cartesian basis functions
    91 alpha electrons       91 beta electrons
       nuclear repulsion energy      2288.2877593677 Hartrees.
 NAtoms=   45 NActive=   45 NUniq=   45 SFac= 1.00D+00 NAtFMM=   50 NAOKFM=F Big=F
 One-electron integrals computed using PRISM.
 NBasis=   685 RedAO= T  NBF=   685
 NBsUse=   685 1.00D-06 NBFU=   685
 Harris functional with IExCor=  402 diagonalized for initial guess.
 ExpMin= 4.38D-02 ExpMax= 5.48D+03 ExpMxC= 8.25D+02 IAcc=2 IRadAn=         0 AccDes= 0.00D+00
 HarFok:  IExCor=  402 AccDes= 0.00D+00 IRadAn=         0 IDoV= 1
 ScaDFX=  1.000000  1.000000  1.000000  1.000000
 FoFCou: FMM=F IPFlag=           0 FMFlag=      100000 FMFlg1=           0
         NFxFlg=           0 DoJE=T BraDBF=F KetDBF=T FulRan=T
         Omega=  0.000000  0.000000  1.000000  0.000000  0.000000 ICntrl=     500 IOpCl=  0
         NMat0=    1 NMatS0=    1 NMatT0=    0 NMatD0=    1 NMtDS0=    0 NMtDT0=    0
         I1Cent=           4 NGrid=           0.
 Petite list used in FoFCou.
 Initial guess orbital symmetries:
       Occupied  (A) (A) (A) (A) (A) (A) (A) (A) (A) (A) (A) (A)
                 (A) (A) (A) (A) (A) (A) (A) (A) (A) (A) (A) (A)
                 (A) (A) (A) (A) (A) (A) (A) (A) (A) (A) (A) (A)
                 (A) (A) (A) (A) (A) (A) (A) (A) (A) (A) (A) (A)
                 (A) (A) (A) (A) (A) (A) (A) (A) (A) (A) (A) (A)
                 (A) (A) (A) (A) (A) (A) (A) (A) (A) (A) (A) (A)
                 (A) (A) (A) (A) (A) (A) (A) (A) (A) (A) (A) (A)
                 (A) (A) (A) (A) (A) (A) (A)
       Virtual   (A) (A) (A) (A) (A) (A) (A) (A) (A) (A) (A) (A)
                 (A) (A) (A) (A) (A) (A) (A) (A) (A) (A) (A) (A)
                 (A) (A) (A) (A) (A) (A) (A) (A) (A) (A) (A) (A)
                 (A) (A) (A) (A) (A) (A) (A) (A) (A) (A) (A) (A)
                 (A) (A) (A) (A) (A) (A) (A) (A) (A) (A) (A) (A)
                 (A) (A) (A) (A) (A) (A) (A) (A) (A) (A) (A) (A)
                 (A) (A) (A) (A) (A) (A) (A) (A) (A) (A) (A) (A)
                 (A) (A) (A) (A) (A) (A) (A) (A) (A) (A) (A) (A)
                 (A) (A) (A) (A) (A) (A) (A) (A) (A) (A) (A) (A)
                 (A) (A) (A) (A) (A) (A) (A) (A) (A) (A) (A) (A)
                 (A) (A) (A) (A) (A) (A) (A) (A) (A) (A) (A) (A)
                 (A) (A) (A) (A) (A) (A) (A) (A) (A) (A) (A) (A)
                 (A) (A) (A) (A) (A) (A) (A) (A) (A) (A) (A) (A)
                 (A) (A) (A) (A) (A) (A) (A) (A) (A) (A) (A) (A)
                 (A) (A) (A) (A) (A) (A) (A) (A) (A) (A) (A) (A)
                 (A) (A) (A) (A) (A) (A) (A) (A) (A) (A) (A) (A)
                 (A) (A) (A) (A) (A) (A) (A) (A) (A) (A) (A) (A)
                 (A) (A) (A) (A) (A) (A) (A) (A) (A) (A) (A) (A)
                 (A) (A) (A) (A) (A) (A) (A) (A) (A) (A) (A) (A)
                 (A) (A) (A) (A) (A) (A) (A) (A) (A) (A) (A) (A)
                 (A) (A) (A) (A) (A) (A) (A) (A) (A) (A) (A) (A)
                 (A) (A) (A) (A) (A) (A) (A) (A) (A) (A) (A) (A)
                 (A) (A) (A) (A) (A) (A) (A) (A) (A) (A) (A) (A)
                 (A) (A) (A) (A) (A) (A) (A) (A) (A) (A) (A) (A)
                 (A) (A) (A) (A) (A) (A) (A) (A) (A) (A) (A) (A)
                 (A) (A) (A) (A) (A) (A) (A) (A) (A) (A) (A) (A)
                 (A) (A) (A) (A) (A) (A) (A) (A) (A) (A) (A) (A)
                 (A) (A) (A) (A) (A) (A) (A) (A) (A) (A) (A) (A)
                 (A) (A) (A) (A) (A) (A) (A) (A) (A) (A) (A) (A)
                 (A) (A) (A) (A) (A) (A) (A) (A) (A) (A) (A) (A)
                 (A) (A) (A) (A) (A) (A) (A) (A) (A) (A) (A) (A)
                 (A) (A) (A) (A) (A) (A) (A) (A) (A) (A) (A) (A)
                 (A) (A) (A) (A) (A) (A) (A) (A) (A) (A) (A) (A)
                 (A) (A) (A) (A) (A) (A) (A) (A) (A) (A) (A) (A)
                 (A) (A) (A) (A) (A) (A) (A) (A) (A) (A) (A) (A)
                 (A) (A) (A) (A) (A) (A) (A) (A) (A) (A) (A) (A)
                 (A) (A) (A) (A) (A) (A) (A) (A) (A) (A) (A) (A)
                 (A) (A) (A) (A) (A) (A) (A) (A) (A) (A) (A) (A)
                 (A) (A) (A) (A) (A) (A) (A) (A) (A) (A) (A) (A)
                 (A) (A) (A) (A) (A) (A) (A) (A) (A) (A) (A) (A)
                 (A) (A) (A) (A) (A) (A) (A) (A) (A) (A) (A) (A)
                 (A) (A) (A) (A) (A) (A) (A) (A) (A) (A) (A) (A)
                 (A) (A) (A) (A) (A) (A) (A) (A) (A) (A) (A) (A)
                 (A) (A) (A) (A) (A) (A) (A) (A) (A) (A) (A) (A)
                 (A) (A) (A) (A) (A) (A) (A) (A) (A) (A) (A) (A)
                 (A) (A) (A) (A) (A) (A) (A) (A) (A) (A) (A) (A)
                 (A) (A) (A) (A) (A) (A) (A) (A) (A) (A) (A) (A)
                 (A) (A) (A) (A) (A) (A) (A) (A) (A) (A) (A) (A)
                 (A) (A) (A) (A) (A) (A) (A) (A) (A) (A) (A) (A)
                 (A) (A) (A) (A) (A) (A)
 The electronic state of the initial guess is 1-A.
 Requested convergence on RMS density matrix=1.00D-08 within 128 cycles.
 Requested convergence on MAX density matrix=1.00D-06.
 Requested convergence on             energy=1.00D-06.
 No special actions if energy rises.
 SCF Done:  E(RB3LYP) =  -1297.97461946     A.U. after   13 cycles
             Convg  =    0.4532D-08             -V/T =  2.0063
 Range of M.O.s used for correlation:     1   685
 NBasis=   685 NAE=    91 NBE=    91 NFC=     0 NFV=     0
 NROrb=    685 NOA=    91 NOB=    91 NVA=   594 NVB=   594

 **** Warning!!: The largest alpha MO coefficient is  0.79386535D+02

          Differentiating once with respect to electric field.
                with respect to dipole field.
          Electric field/nuclear overlap derivatives assumed to be zero.
          There are     3 degrees of freedom in the 1st order CPHF.  IDoFFX=0.
      3 vectors produced by pass  0 Test12= 1.80D-12 3.33D-08 XBig12= 1.22D+02 1.24D+00.
 AX will form     3 AO Fock derivatives at one time.
      3 vectors produced by pass  1 Test12= 1.80D-12 3.33D-08 XBig12= 2.53D+01 3.82D-01.
      3 vectors produced by pass  2 Test12= 1.80D-12 3.33D-08 XBig12= 1.09D+01 2.34D-01.
      3 vectors produced by pass  3 Test12= 1.80D-12 3.33D-08 XBig12= 1.05D+00 1.02D-01.
      3 vectors produced by pass  4 Test12= 1.80D-12 3.33D-08 XBig12= 3.09D-01 4.59D-02.
      3 vectors produced by pass  5 Test12= 1.80D-12 3.33D-08 XBig12= 5.95D-02 2.74D-02.
      3 vectors produced by pass  6 Test12= 1.80D-12 3.33D-08 XBig12= 1.88D-02 1.79D-02.
      3 vectors produced by pass  7 Test12= 1.80D-12 3.33D-08 XBig12= 2.75D-03 9.34D-03.
      3 vectors produced by pass  8 Test12= 1.80D-12 3.33D-08 XBig12= 5.26D-04 2.54D-03.
      3 vectors produced by pass  9 Test12= 1.80D-12 3.33D-08 XBig12= 1.62D-04 1.36D-03.
      3 vectors produced by pass 10 Test12= 1.80D-12 3.33D-08 XBig12= 3.96D-05 5.82D-04.
      3 vectors produced by pass 11 Test12= 1.80D-12 3.33D-08 XBig12= 1.00D-05 3.43D-04.
      3 vectors produced by pass 12 Test12= 1.80D-12 3.33D-08 XBig12= 1.03D-06 1.10D-04.
      3 vectors produced by pass 13 Test12= 1.80D-12 3.33D-08 XBig12= 2.27D-07 3.57D-05.
      3 vectors produced by pass 14 Test12= 1.80D-12 3.33D-08 XBig12= 5.19D-08 2.05D-05.
      3 vectors produced by pass 15 Test12= 1.80D-12 3.33D-08 XBig12= 1.45D-08 8.53D-06.
      3 vectors produced by pass 16 Test12= 1.80D-12 3.33D-08 XBig12= 2.43D-09 3.89D-06.
      3 vectors produced by pass 17 Test12= 1.80D-12 3.33D-08 XBig12= 2.71D-10 1.24D-06.
      3 vectors produced by pass 18 Test12= 1.80D-12 3.33D-08 XBig12= 6.72D-11 5.61D-07.
      3 vectors produced by pass 19 Test12= 1.80D-12 3.33D-08 XBig12= 1.38D-11 2.75D-07.
      2 vectors produced by pass 20 Test12= 1.80D-12 3.33D-08 XBig12= 1.31D-11 2.57D-07.
      1 vectors produced by pass 21 Test12= 1.80D-12 3.33D-08 XBig12= 5.26D-12 1.39D-07.
 Inverted reduced A of dimension    63 with in-core refinement.
 End of Minotr Frequency-dependent properties file   721 does not exist.
 End of Minotr Frequency-dependent properties file   722 does not exist.
 Symmetrizing basis deriv contribution to polar:
 IMax=3 JMax=2 DiffMx= 0.00D+00
 G2DrvN: will do    16 centers at a time, making    3 passes doing MaxLOS=2.
 Calling FoFCou, ICntrl=  3107 FMM=F I1Cent=   0 AccDes= 0.00D+00.
 Calling FoFCou, ICntrl=  3107 FMM=F I1Cent=   0 AccDes= 0.00D+00.
 Calling FoFCou, ICntrl=  3107 FMM=F I1Cent=   0 AccDes= 0.00D+00.
 FoFDir/FoFCou used for L=0 through L=2.
 End of G2Drv Frequency-dependent properties file   721 does not exist.
 End of G2Drv Frequency-dependent properties file   722 does not exist.
          IDoAtm=111111111111111111111111111111111111111111111
          Differentiating once with respect to electric field.
                with respect to dipole field.
          Differentiating once with respect to nuclear coordinates.
          There are   138 degrees of freedom in the 1st order CPHF.  IDoFFX=5.
 Will reuse    3 saved solutions.
    135 vectors produced by pass  0 Test12= 5.41D-14 1.00D-09 XBig12= 1.67D-01 6.40D-02.
 AX will form    45 AO Fock derivatives at one time.
    135 vectors produced by pass  1 Test12= 5.41D-14 1.00D-09 XBig12= 1.71D-02 1.14D-02.
    132 vectors produced by pass  2 Test12= 5.41D-14 1.00D-09 XBig12= 1.20D-04 1.21D-03.
    132 vectors produced by pass  3 Test12= 5.41D-14 1.00D-09 XBig12= 5.13D-07 5.76D-05.
    132 vectors produced by pass  4 Test12= 5.41D-14 1.00D-09 XBig12= 1.05D-09 2.10D-06.
    132 vectors produced by pass  5 Test12= 5.41D-14 1.00D-09 XBig12= 3.14D-12 8.46D-08.
     82 vectors produced by pass  6 Test12= 5.41D-14 1.00D-09 XBig12= 1.72D-13 2.19D-08.
 Inverted reduced A of dimension   880 with in-core refinement.
 Isotropic polarizability for W=    0.000000      191.17 Bohr**3.
 End of Minotr Frequency-dependent properties file   721 does not exist.
 End of Minotr Frequency-dependent properties file   722 does not exist.

 **********************************************************************

            Population analysis using the SCF density.

 **********************************************************************

 Orbital symmetries:
       Occupied  (A) (A) (A) (A) (A) (A) (A) (A) (A) (A) (A) (A)
                 (A) (A) (A) (A) (A) (A) (A) (A) (A) (A) (A) (A)
                 (A) (A) (A) (A) (A) (A) (A) (A) (A) (A) (A) (A)
                 (A) (A) (A) (A) (A) (A) (A) (A) (A) (A) (A) (A)
                 (A) (A) (A) (A) (A) (A) (A) (A) (A) (A) (A) (A)
                 (A) (A) (A) (A) (A) (A) (A) (A) (A) (A) (A) (A)
                 (A) (A) (A) (A) (A) (A) (A) (A) (A) (A) (A) (A)
                 (A) (A) (A) (A) (A) (A) (A)
       Virtual   (A) (A) (A) (A) (A) (A) (A) (A) (A) (A) (A) (A)
                 (A) (A) (A) (A) (A) (A) (A) (A) (A) (A) (A) (A)
                 (A) (A) (A) (A) (A) (A) (A) (A) (A) (A) (A) (A)
                 (A) (A) (A) (A) (A) (A) (A) (A) (A) (A) (A) (A)
                 (A) (A) (A) (A) (A) (A) (A) (A) (A) (A) (A) (A)
                 (A) (A) (A) (A) (A) (A) (A) (A) (A) (A) (A) (A)
                 (A) (A) (A) (A) (A) (A) (A) (A) (A) (A) (A) (A)
                 (A) (A) (A) (A) (A) (A) (A) (A) (A) (A) (A) (A)
                 (A) (A) (A) (A) (A) (A) (A) (A) (A) (A) (A) (A)
                 (A) (A) (A) (A) (A) (A) (A) (A) (A) (A) (A) (A)
                 (A) (A) (A) (A) (A) (A) (A) (A) (A) (A) (A) (A)
                 (A) (A) (A) (A) (A) (A) (A) (A) (A) (A) (A) (A)
                 (A) (A) (A) (A) (A) (A) (A) (A) (A) (A) (A) (A)
                 (A) (A) (A) (A) (A) (A) (A) (A) (A) (A) (A) (A)
                 (A) (A) (A) (A) (A) (A) (A) (A) (A) (A) (A) (A)
                 (A) (A) (A) (A) (A) (A) (A) (A) (A) (A) (A) (A)
                 (A) (A) (A) (A) (A) (A) (A) (A) (A) (A) (A) (A)
                 (A) (A) (A) (A) (A) (A) (A) (A) (A) (A) (A) (A)
                 (A) (A) (A) (A) (A) (A) (A) (A) (A) (A) (A) (A)
                 (A) (A) (A) (A) (A) (A) (A) (A) (A) (A) (A) (A)
                 (A) (A) (A) (A) (A) (A) (A) (A) (A) (A) (A) (A)
                 (A) (A) (A) (A) (A) (A) (A) (A) (A) (A) (A) (A)
                 (A) (A) (A) (A) (A) (A) (A) (A) (A) (A) (A) (A)
                 (A) (A) (A) (A) (A) (A) (A) (A) (A) (A) (A) (A)
                 (A) (A) (A) (A) (A) (A) (A) (A) (A) (A) (A) (A)
                 (A) (A) (A) (A) (A) (A) (A) (A) (A) (A) (A) (A)
                 (A) (A) (A) (A) (A) (A) (A) (A) (A) (A) (A) (A)
                 (A) (A) (A) (A) (A) (A) (A) (A) (A) (A) (A) (A)
                 (A) (A) (A) (A) (A) (A) (A) (A) (A) (A) (A) (A)
                 (A) (A) (A) (A) (A) (A) (A) (A) (A) (A) (A) (A)
                 (A) (A) (A) (A) (A) (A) (A) (A) (A) (A) (A) (A)
                 (A) (A) (A) (A) (A) (A) (A) (A) (A) (A) (A) (A)
                 (A) (A) (A) (A) (A) (A) (A) (A) (A) (A) (A) (A)
                 (A) (A) (A) (A) (A) (A) (A) (A) (A) (A) (A) (A)
                 (A) (A) (A) (A) (A) (A) (A) (A) (A) (A) (A) (A)
                 (A) (A) (A) (A) (A) (A) (A) (A) (A) (A) (A) (A)
                 (A) (A) (A) (A) (A) (A) (A) (A) (A) (A) (A) (A)
                 (A) (A) (A) (A) (A) (A) (A) (A) (A) (A) (A) (A)
                 (A) (A) (A) (A) (A) (A) (A) (A) (A) (A) (A) (A)
                 (A) (A) (A) (A) (A) (A) (A) (A) (A) (A) (A) (A)
                 (A) (A) (A) (A) (A) (A) (A) (A) (A) (A) (A) (A)
                 (A) (A) (A) (A) (A) (A) (A) (A) (A) (A) (A) (A)
                 (A) (A) (A) (A) (A) (A) (A) (A) (A) (A) (A) (A)
                 (A) (A) (A) (A) (A) (A) (A) (A) (A) (A) (A) (A)
                 (A) (A) (A) (A) (A) (A) (A) (A) (A) (A) (A) (A)
                 (A) (A) (A) (A) (A) (A) (A) (A) (A) (A) (A) (A)
                 (A) (A) (A) (A) (A) (A) (A) (A) (A) (A) (A) (A)
                 (A) (A) (A) (A) (A) (A) (A) (A) (A) (A) (A) (A)
                 (A) (A) (A) (A) (A) (A) (A) (A) (A) (A) (A) (A)
                 (A) (A) (A) (A) (A) (A)
 The electronic state is 1-A.
 Alpha  occ. eigenvalues --  -19.18865 -19.18766 -19.18394 -19.18176 -19.18084
 Alpha  occ. eigenvalues --  -19.17248 -19.16862 -19.16032 -19.15204 -19.13710
 Alpha  occ. eigenvalues --  -19.13650 -10.30695 -10.30240 -10.26555 -10.25586
 Alpha  occ. eigenvalues --  -10.25456 -10.25444 -10.25304 -10.24747 -10.24632
 Alpha  occ. eigenvalues --  -10.24321 -10.23796 -10.23681  -1.10436  -1.09318
 Alpha  occ. eigenvalues --   -1.05731  -1.05468  -1.04158  -1.03985  -1.03223
 Alpha  occ. eigenvalues --   -1.02557  -1.02165  -1.00791  -1.00290  -0.82082
 Alpha  occ. eigenvalues --   -0.80575  -0.79212  -0.78188  -0.72030  -0.70029
 Alpha  occ. eigenvalues --   -0.67438  -0.65227  -0.63209  -0.62634  -0.61406
 Alpha  occ. eigenvalues --   -0.60194  -0.56541  -0.56044  -0.55197  -0.54758
 Alpha  occ. eigenvalues --   -0.54243  -0.53410  -0.52930  -0.51548  -0.51186
 Alpha  occ. eigenvalues --   -0.50738  -0.50018  -0.49433  -0.49166  -0.46784
 Alpha  occ. eigenvalues --   -0.46172  -0.45193  -0.44236  -0.43852  -0.43333
 Alpha  occ. eigenvalues --   -0.42821  -0.41961  -0.41465  -0.39853  -0.39480
 Alpha  occ. eigenvalues --   -0.39053  -0.38489  -0.37309  -0.36340  -0.35929
 Alpha  occ. eigenvalues --   -0.35705  -0.35369  -0.34878  -0.34354  -0.33350
 Alpha  occ. eigenvalues --   -0.32991  -0.31703  -0.31223  -0.30699  -0.30000
 Alpha  occ. eigenvalues --   -0.29408  -0.28616  -0.28344  -0.27668  -0.26532
 Alpha  occ. eigenvalues --   -0.26155
 Alpha virt. eigenvalues --   -0.02276  -0.02074  -0.02007  -0.00299   0.00326
 Alpha virt. eigenvalues --    0.00983   0.02004   0.02505   0.03039   0.03492
 Alpha virt. eigenvalues --    0.03925   0.04435   0.04541   0.05369   0.05807
 Alpha virt. eigenvalues --    0.06125   0.06611   0.07140   0.07797   0.08091
 Alpha virt. eigenvalues --    0.08637   0.08882   0.09059   0.09363   0.10067
 Alpha virt. eigenvalues --    0.10482   0.10834   0.11327   0.11721   0.11955
 Alpha virt. eigenvalues --    0.12445   0.12886   0.13193   0.13389   0.13549
 Alpha virt. eigenvalues --    0.14060   0.14252   0.14492   0.14998   0.15037
 Alpha virt. eigenvalues --    0.15761   0.16086   0.16591   0.16918   0.17043
 Alpha virt. eigenvalues --    0.17314   0.17409   0.17960   0.18079   0.18336
 Alpha virt. eigenvalues --    0.18572   0.18895   0.19356   0.19555   0.19709
 Alpha virt. eigenvalues --    0.20708   0.20769   0.20838   0.21383   0.21600
 Alpha virt. eigenvalues --    0.22103   0.22355   0.22624   0.22947   0.23274
 Alpha virt. eigenvalues --    0.23649   0.23727   0.24082   0.24323   0.24395
 Alpha virt. eigenvalues --    0.24613   0.25265   0.25563   0.25852   0.26169
 Alpha virt. eigenvalues --    0.26360   0.26670   0.27072   0.27157   0.27282
 Alpha virt. eigenvalues --    0.27635   0.27759   0.28090   0.28376   0.28878
 Alpha virt. eigenvalues --    0.29118   0.29358   0.29654   0.30411   0.30714
 Alpha virt. eigenvalues --    0.31008   0.31417   0.31546   0.31926   0.32323
 Alpha virt. eigenvalues --    0.32769   0.32945   0.33288   0.33591   0.33807
 Alpha virt. eigenvalues --    0.34223   0.34601   0.34826   0.35464   0.35743
 Alpha virt. eigenvalues --    0.36231   0.36409   0.36746   0.37283   0.37555
 Alpha virt. eigenvalues --    0.37707   0.38006   0.38444   0.38911   0.39015
 Alpha virt. eigenvalues --    0.39430   0.39672   0.40604   0.41245   0.41508
 Alpha virt. eigenvalues --    0.41616   0.41984   0.43077   0.43237   0.43800
 Alpha virt. eigenvalues --    0.44125   0.44651   0.45548   0.45642   0.46725
 Alpha virt. eigenvalues --    0.47084   0.47605   0.47992   0.48611   0.49738
 Alpha virt. eigenvalues --    0.50518   0.51288   0.54191   0.56872   0.58126
 Alpha virt. eigenvalues --    0.60750   0.60762   0.60999   0.61938   0.62381
 Alpha virt. eigenvalues --    0.63300   0.63760   0.64275   0.65105   0.66974
 Alpha virt. eigenvalues --    0.67256   0.67383   0.67966   0.69348   0.70398
 Alpha virt. eigenvalues --    0.70875   0.71685   0.72526   0.73705   0.73822
 Alpha virt. eigenvalues --    0.74350   0.74827   0.75608   0.76921   0.77644
 Alpha virt. eigenvalues --    0.79281   0.79439   0.80407   0.80574   0.81652
 Alpha virt. eigenvalues --    0.82143   0.83464   0.84071   0.84902   0.85405
 Alpha virt. eigenvalues --    0.86161   0.87446   0.87890   0.88343   0.88658
 Alpha virt. eigenvalues --    0.89065   0.89863   0.89937   0.91488   0.91747
 Alpha virt. eigenvalues --    0.92294   0.92740   0.93423   0.93747   0.94099
 Alpha virt. eigenvalues --    0.94573   0.95186   0.95475   0.96035   0.96471
 Alpha virt. eigenvalues --    0.97140   0.97495   0.98003   0.98343   0.99369
 Alpha virt. eigenvalues --    0.99850   1.00563   1.01590   1.02195   1.02601
 Alpha virt. eigenvalues --    1.03153   1.03624   1.04791   1.05310   1.06053
 Alpha virt. eigenvalues --    1.06538   1.07371   1.07646   1.08156   1.08457
 Alpha virt. eigenvalues --    1.09249   1.10287   1.10447   1.11023   1.11711
 Alpha virt. eigenvalues --    1.11908   1.13059   1.13671   1.14017   1.14244
 Alpha virt. eigenvalues --    1.14751   1.15822   1.16267   1.16695   1.17311
 Alpha virt. eigenvalues --    1.17823   1.18147   1.18514   1.19173   1.19692
 Alpha virt. eigenvalues --    1.20310   1.21207   1.21472   1.22075   1.22251
 Alpha virt. eigenvalues --    1.23244   1.24267   1.24596   1.24896   1.25543
 Alpha virt. eigenvalues --    1.26422   1.26964   1.27167   1.27724   1.28244
 Alpha virt. eigenvalues --    1.28849   1.29115   1.29754   1.30414   1.31171
 Alpha virt. eigenvalues --    1.31741   1.32568   1.33045   1.34196   1.34583
 Alpha virt. eigenvalues --    1.35201   1.35979   1.36149   1.36891   1.37447
 Alpha virt. eigenvalues --    1.38200   1.38992   1.39316   1.39799   1.40586
 Alpha virt. eigenvalues --    1.41216   1.42402   1.42639   1.42883   1.44343
 Alpha virt. eigenvalues --    1.44843   1.45616   1.46866   1.47380   1.47883
 Alpha virt. eigenvalues --    1.48769   1.49117   1.50199   1.51522   1.52139
 Alpha virt. eigenvalues --    1.53555   1.54658   1.55640   1.56119   1.56919
 Alpha virt. eigenvalues --    1.57125   1.57739   1.59099   1.59717   1.60909
 Alpha virt. eigenvalues --    1.62496   1.62855   1.63443   1.64320   1.64700
 Alpha virt. eigenvalues --    1.65875   1.67105   1.67538   1.68591   1.70314
 Alpha virt. eigenvalues --    1.70734   1.72113   1.73783   1.74033   1.74455
 Alpha virt. eigenvalues --    1.75572   1.76574   1.76964   1.77628   1.78995
 Alpha virt. eigenvalues --    1.80087   1.81288   1.81330   1.82507   1.83051
 Alpha virt. eigenvalues --    1.83202   1.85432   1.86829   1.87522   1.88318
 Alpha virt. eigenvalues --    1.89349   1.90645   1.92454   1.93791   1.94439
 Alpha virt. eigenvalues --    1.95523   1.96823   1.97529   1.99292   2.00541
 Alpha virt. eigenvalues --    2.00992   2.01148   2.02425   2.02816   2.05632
 Alpha virt. eigenvalues --    2.05929   2.06767   2.07907   2.08074   2.08957
 Alpha virt. eigenvalues --    2.10755   2.11920   2.16556   2.16986   2.18527
 Alpha virt. eigenvalues --    2.19887   2.21845   2.23411   2.24650   2.25678
 Alpha virt. eigenvalues --    2.26234   2.27262   2.27867   2.28551   2.30287
 Alpha virt. eigenvalues --    2.31829   2.34283   2.35487   2.37004   2.37286
 Alpha virt. eigenvalues --    2.37742   2.38750   2.43596   2.49665   2.52134
 Alpha virt. eigenvalues --    2.53134   2.54184   2.54991   2.56308   2.58164
 Alpha virt. eigenvalues --    2.58811   2.64861   2.66462   2.67499   2.68063
 Alpha virt. eigenvalues --    2.68942   2.70321   2.71632   2.71897   2.73510
 Alpha virt. eigenvalues --    2.74115   2.76350   2.77941   2.78481   2.79597
 Alpha virt. eigenvalues --    2.79952   2.80947   2.82175   2.83802   2.84715
 Alpha virt. eigenvalues --    2.87292   2.89420   2.90485   2.90773   2.91800
 Alpha virt. eigenvalues --    2.92331   2.93522   2.94485   2.96319   2.97083
 Alpha virt. eigenvalues --    2.98363   2.98931   2.99803   3.00961   3.01725
 Alpha virt. eigenvalues --    3.01873   3.02849   3.03334   3.05046   3.05736
 Alpha virt. eigenvalues --    3.06263   3.06659   3.07459   3.09023   3.09110
 Alpha virt. eigenvalues --    3.10756   3.11197   3.12167   3.13043   3.14186
 Alpha virt. eigenvalues --    3.15315   3.17000   3.19153   3.21229   3.23217
 Alpha virt. eigenvalues --    3.23832   3.26393   3.31490   3.73748   3.76649
 Alpha virt. eigenvalues --    3.92283   4.02956   4.06021   4.08787   4.10573
 Alpha virt. eigenvalues --    4.12277   4.12972   4.15739   4.17001   4.17874
 Alpha virt. eigenvalues --    4.18429   4.19659   4.21397   4.21711   4.22270
 Alpha virt. eigenvalues --    4.22566   4.23576   4.24855   4.25585   4.25947
 Alpha virt. eigenvalues --    4.27269   4.27714   4.28238   4.29556   4.29941
 Alpha virt. eigenvalues --    4.30870   4.31567   4.31717   4.32023   4.33684
 Alpha virt. eigenvalues --    4.33958   4.34583   4.34916   4.35224   4.35402
 Alpha virt. eigenvalues --    4.36592   4.36869   4.37418   4.38191   4.38527
 Alpha virt. eigenvalues --    4.39460   4.40244   4.42080   4.43074   4.44088
 Alpha virt. eigenvalues --    4.44395   4.45586   4.46507   4.48528   4.49997
 Alpha virt. eigenvalues --    4.51406   4.51913   4.53262   4.53851   4.55120
 Alpha virt. eigenvalues --    4.55888   4.56134   4.57220   4.59118   4.60049
 Alpha virt. eigenvalues --    4.61236   4.61627   4.62559   4.63331   4.63573
 Alpha virt. eigenvalues --    4.64734   4.64929   4.66170   4.66670   4.67271
 Alpha virt. eigenvalues --    4.67531   4.68298   4.69848   4.70708   4.70789
 Alpha virt. eigenvalues --    4.71534   4.72395   4.73010   4.74113   4.74571
 Alpha virt. eigenvalues --    4.75262   4.75779   4.76276   4.77091   4.77346
 Alpha virt. eigenvalues --    4.78408   4.78989   4.79517   4.80558   4.80795
 Alpha virt. eigenvalues --    4.81381   4.82622   4.83386   4.84289   4.85604
 Alpha virt. eigenvalues --    4.87242   4.88338   4.88792   4.90405   4.91055
 Alpha virt. eigenvalues --    4.91727   4.94979   4.96698   4.97360   4.98419
 Alpha virt. eigenvalues --    4.99652   5.01051   5.01915   5.03787   5.04815
 Alpha virt. eigenvalues --    5.04931   5.06627   5.09230   5.11268   5.15970
 Alpha virt. eigenvalues --    5.21356   5.25693   5.26785   5.29775   5.40734
 Alpha virt. eigenvalues --    5.45184   5.81823   6.01901   6.25649   6.51000
 Alpha virt. eigenvalues --    6.73488   6.75115   6.76752   6.79119   6.82747
 Alpha virt. eigenvalues --    6.85587   6.90140   6.92660   6.99083   7.00283
 Alpha virt. eigenvalues --    7.10688  11.84953  11.91209  12.03241  12.15955
 Alpha virt. eigenvalues --   12.27173  12.38842  12.63214  12.74016  12.82839
 Alpha virt. eigenvalues --   12.98747  13.10370  13.17111  13.23840  13.24248
 Alpha virt. eigenvalues --   13.26708  13.36856  13.39765  13.46115  13.48129
 Alpha virt. eigenvalues --   13.51142  13.62370  13.65900  13.93025
          Condensed to atoms (all electrons):
              1          2          3          4          5          6
     1  O    8.176942   0.230633  -0.034901  -0.020111   0.019550   0.040567
     2  C    0.230633   7.768300  -0.609153   0.093133  -0.040587  -2.167637
     3  C   -0.034901  -0.609153   6.546776   0.146977   0.029603  -0.153288
     4  O   -0.020111   0.093133   0.146977   8.212625   0.224973  -0.116063
     5  H    0.019550  -0.040587   0.029603   0.224973   0.446675  -0.022286
     6  C    0.040567  -2.167637  -0.153288  -0.116063  -0.022286  10.071580
     7  O   -0.000314   0.006805  -0.091938   0.009850  -0.000544   0.288832
     8  H    0.000001  -0.001776   0.030457  -0.000167   0.000011   0.021595
     9  C    0.007959   0.015230  -0.197685   0.007325  -0.001948   0.239276
    10  O   -0.035059   0.003602   0.030104  -0.000223  -0.000044  -0.011670
    11  H    0.003331  -0.007487  -0.002667   0.000003   0.000000   0.000462
    12  C   -0.120551  -0.943205   0.199860  -0.016948   0.009630   0.631027
    13  O    0.002013  -0.040850  -0.045173  -0.001713  -0.000005   0.055299
    14  C   -0.009843   1.127493  -0.057379   0.032901   0.007582  -2.465996
    15  O   -0.000150   0.013697  -0.003211  -0.000131   0.000005  -0.046881
    16  C    0.001637   0.070864  -0.029833  -0.006504   0.000823  -0.383304
    17  C   -0.000172  -0.016014   0.033828   0.000418   0.000029   0.105327
    18  O    0.000042   0.005821  -0.004032  -0.000008   0.000000  -0.002426
    19  H   -0.000046  -0.007125   0.008057  -0.000006   0.000000   0.014007
    20  C    0.000022   0.010415  -0.013341   0.000006   0.000000  -0.000094
    21  O    0.000000   0.000001  -0.000012   0.000000   0.000000  -0.000191
    22  H    0.000000   0.000000   0.000001   0.000000   0.000000  -0.000018
    23  C    0.000038   0.006222  -0.020622   0.000014  -0.000026  -0.076747
    24  O   -0.000001  -0.000081  -0.008545  -0.000152  -0.000003   0.025091
    25  H    0.000000   0.000099   0.000877   0.000002   0.000000  -0.002089
    26  C   -0.000147  -0.013988   0.002151   0.000441   0.000011  -0.020914
    27  O    0.000000  -0.000079   0.000683   0.000001   0.000000   0.002184
    28  C    0.000002  -0.001673   0.001886  -0.000006   0.000000   0.002785
    29  O    0.000000   0.000007   0.000018   0.000000   0.000000  -0.000231
    30  H    0.000000   0.000000   0.000000   0.000000   0.000000   0.000001
    31  H    0.000000   0.000007   0.000011   0.000000   0.000000  -0.000180
    32  H    0.000000   0.000089   0.000003   0.000000   0.000000   0.000019
    33  H    0.000000  -0.000312   0.000597   0.000000   0.000000   0.005846
    34  H   -0.000001  -0.003828   0.005910   0.000008   0.000000   0.004466
    35  H    0.000000  -0.000151   0.000670   0.000000   0.000000  -0.003695
    36  H    0.000000   0.000013   0.000009   0.000000   0.000000   0.000822
    37  H    0.000000   0.000000   0.000502   0.000000   0.000000  -0.007319
    38  H    0.272998   0.020899  -0.015551   0.000698  -0.002274  -0.002030
    39  H   -0.000695  -0.010901   0.007279  -0.000004   0.000001  -0.003830
    40  H    0.002518   0.009565  -0.009193  -0.000019  -0.000001   0.015862
    41  H    0.004569   0.112169  -0.055033   0.000280   0.000000  -0.039443
    42  H   -0.019156   0.418188  -0.111870   0.000804  -0.001228   0.003943
    43  H   -0.004245   0.083669   0.307605  -0.025107  -0.000213  -0.211318
    44  H   -0.000137   0.043797  -0.162205   0.000594  -0.000132   0.433250
    45  H    0.000053  -0.003297  -0.041850  -0.000015   0.000004   0.021951
              7          8          9         10         11         12
     1  O   -0.000314   0.000001   0.007959  -0.035059   0.003331  -0.120551
     2  C    0.006805  -0.001776   0.015230   0.003602  -0.007487  -0.943205
     3  C   -0.091938   0.030457  -0.197685   0.030104  -0.002667   0.199860
     4  O    0.009850  -0.000167   0.007325  -0.000223   0.000003  -0.016948
     5  H   -0.000544   0.000011  -0.001948  -0.000044   0.000000   0.009630
     6  C    0.288832   0.021595   0.239276  -0.011670   0.000462   0.631027
     7  O    8.214904   0.251660  -0.001453  -0.000005   0.000000   0.008100
     8  H    0.251660   0.356289  -0.000265   0.000000   0.000000  -0.004023
     9  C   -0.001453  -0.000265   6.280361   0.046757  -0.012417  -0.752490
    10  O   -0.000005   0.000000   0.046757   8.307126   0.224666   0.042528
    11  H    0.000000   0.000000  -0.012417   0.224666   0.442862   0.027014
    12  C    0.008100  -0.004023  -0.752490   0.042528   0.027014   8.245271
    13  O    0.001150  -0.000891  -0.034314  -0.003698  -0.000204   0.012782
    14  C   -0.081905  -0.080741  -0.387128   0.018980  -0.003165  -1.035942
    15  O    0.004660   0.010959  -0.009016   0.000019   0.000001  -0.017172
    16  C    0.031495   0.036040  -0.116511  -0.000582  -0.000083  -0.047044
    17  C    0.000090   0.003844   0.021018   0.000560  -0.000022  -0.191664
    18  O   -0.000042  -0.000003   0.002830  -0.000086   0.000001  -0.012361
    19  H   -0.000136  -0.000003  -0.001727  -0.000003  -0.000002  -0.000120
    20  C    0.001424   0.000411   0.002101  -0.000028   0.000004   0.001570
    21  O   -0.000001   0.000000   0.000134   0.000000   0.000000   0.000103
    22  H    0.000000   0.000000   0.000000   0.000000   0.000000  -0.000002
    23  C    0.024654   0.005964  -0.002579   0.000003   0.000000  -0.002090
    24  O   -0.064431   0.000812   0.000234   0.000000   0.000000   0.002273
    25  H    0.002108  -0.001822  -0.000010   0.000000   0.000000  -0.000187
    26  C   -0.034243  -0.027494   0.002496  -0.000033   0.000004   0.058575
    27  O    0.000061  -0.000008   0.000030   0.000000   0.000000  -0.000013
    28  C   -0.000271   0.000068   0.000636   0.000000  -0.000001  -0.003459
    29  O   -0.000001   0.000000  -0.000012   0.000000   0.000000   0.000027
    30  H    0.000000   0.000000   0.000000   0.000000   0.000000   0.000000
    31  H    0.000001   0.000000  -0.000006   0.000000   0.000000   0.000025
    32  H    0.000001   0.000000  -0.000110   0.000000   0.000000   0.000359
    33  H   -0.000010   0.000000  -0.000368   0.000000   0.000000   0.000331
    34  H   -0.001977   0.000044  -0.000272   0.000001   0.000000   0.004512
    35  H   -0.000134   0.000030   0.000030   0.000000   0.000000   0.000560
    36  H   -0.000755   0.000257   0.000000   0.000000   0.000000   0.000026
    37  H    0.001378   0.000544  -0.000020   0.000000   0.000000  -0.000017
    38  H   -0.000009   0.000000  -0.000113   0.000841  -0.000081  -0.012398
    39  H   -0.000010   0.000000   0.401261  -0.023996  -0.009847  -0.027774
    40  H    0.000006   0.000000   0.594648  -0.052837  -0.002337  -0.247227
    41  H    0.000277  -0.000001   0.047849   0.001746  -0.000223   0.033501
    42  H    0.000807   0.000000  -0.011481  -0.001371  -0.000018  -0.099288
    43  H    0.005073  -0.000095   0.014272  -0.000083   0.000000   0.011305
    44  H   -0.033038  -0.008491   0.018707   0.000025   0.000000   0.047775
    45  H   -0.001575   0.000207   0.016083   0.000055   0.000000   0.044253
             13         14         15         16         17         18
     1  O    0.002013  -0.009843  -0.000150   0.001637  -0.000172   0.000042
     2  C   -0.040850   1.127493   0.013697   0.070864  -0.016014   0.005821
     3  C   -0.045173  -0.057379  -0.003211  -0.029833   0.033828  -0.004032
     4  O   -0.001713   0.032901  -0.000131  -0.006504   0.000418  -0.000008
     5  H   -0.000005   0.007582   0.000005   0.000823   0.000029   0.000000
     6  C    0.055299  -2.465996  -0.046881  -0.383304   0.105327  -0.002426
     7  O    0.001150  -0.081905   0.004660   0.031495   0.000090  -0.000042
     8  H   -0.000891  -0.080741   0.010959   0.036040   0.003844  -0.000003
     9  C   -0.034314  -0.387128  -0.009016  -0.116511   0.021018   0.002830
    10  O   -0.003698   0.018980   0.000019  -0.000582   0.000560  -0.000086
    11  H   -0.000204  -0.003165   0.000001  -0.000083  -0.000022   0.000001
    12  C    0.012782  -1.035942  -0.017172  -0.047044  -0.191664  -0.012361
    13  O    8.205180   0.206078  -0.019149  -0.084075   0.057299  -0.023514
    14  C    0.206078   8.961401   0.221272  -0.891475   0.055867  -0.017699
    15  O   -0.019149   0.221272   8.048563   0.218577  -0.071389   0.000387
    16  C   -0.084075  -0.891475   0.218577  10.233046  -1.700792   0.033830
    17  C    0.057299   0.055867  -0.071389  -1.700792   8.404333   0.129516
    18  O   -0.023514  -0.017699   0.000387   0.033830   0.129516   8.273733
    19  H    0.027055   0.019030   0.005919  -0.048766   0.018667   0.226632
    20  C    0.000190  -0.253512   0.021216  -0.476416  -0.756259  -0.018804
    21  O   -0.000010   0.000440   0.000299   0.048623   0.028981   0.002621
    22  H   -0.000002   0.000025  -0.000013  -0.008202   0.001190  -0.000255
    23  C    0.005192  -0.029176  -0.034799   0.210748  -0.303556   0.015810
    24  O   -0.000136   0.060688  -0.011859  -0.039261  -0.002968   0.000015
    25  H   -0.000010  -0.006030   0.001584  -0.013342  -0.002264  -0.000001
    26  C   -0.022885  -0.311175  -0.031059  -1.601039  -0.824220   0.026595
    27  O    0.000322   0.011367   0.001488   0.045434  -0.009853  -0.002929
    28  C    0.001299   0.044336   0.001523   0.363152   0.586087  -0.016552
    29  O    0.000015  -0.000081  -0.000024  -0.009652  -0.005778   0.000137
    30  H    0.000000   0.000030   0.000001  -0.003424   0.008039  -0.000032
    31  H    0.000030  -0.000678   0.000566   0.035018  -0.009007   0.000056
    32  H    0.000122  -0.011453   0.000191   0.051836  -0.132281   0.004266
    33  H   -0.002396   0.011521  -0.008753  -0.137291   0.326225  -0.039290
    34  H   -0.001161  -0.007649  -0.043815   0.095144   0.054034  -0.003780
    35  H   -0.000003   0.032882  -0.000494  -0.034344  -0.014573   0.000118
    36  H    0.000024   0.008415   0.000158   0.016252   0.004418   0.000017
    37  H    0.000170  -0.001404   0.001161   0.047037   0.006204   0.000027
    38  H   -0.000695   0.000533  -0.000006   0.000153  -0.000034   0.000000
    39  H   -0.001460  -0.001868  -0.000237   0.003619  -0.000264  -0.000184
    40  H   -0.005939   0.005126  -0.000366  -0.007143   0.004114   0.000036
    41  H   -0.027461   0.165196  -0.001479   0.001339   0.007708   0.000355
    42  H    0.007188   0.074866   0.000151  -0.004208   0.001670   0.000046
    43  H    0.004351   0.066575   0.000069  -0.007387   0.001173   0.000018
    44  H    0.009531  -0.067565  -0.011000  -0.027445   0.002045   0.000104
    45  H   -0.038125   0.258669  -0.044519   0.009047   0.014383   0.000747
             19         20         21         22         23         24
     1  O   -0.000046   0.000022   0.000000   0.000000   0.000038  -0.000001
     2  C   -0.007125   0.010415   0.000001   0.000000   0.006222  -0.000081
     3  C    0.008057  -0.013341  -0.000012   0.000001  -0.020622  -0.008545
     4  O   -0.000006   0.000006   0.000000   0.000000   0.000014  -0.000152
     5  H    0.000000   0.000000   0.000000   0.000000  -0.000026  -0.000003
     6  C    0.014007  -0.000094  -0.000191  -0.000018  -0.076747   0.025091
     7  O   -0.000136   0.001424  -0.000001   0.000000   0.024654  -0.064431
     8  H   -0.000003   0.000411   0.000000   0.000000   0.005964   0.000812
     9  C   -0.001727   0.002101   0.000134   0.000000  -0.002579   0.000234
    10  O   -0.000003  -0.000028   0.000000   0.000000   0.000003   0.000000
    11  H   -0.000002   0.000004   0.000000   0.000000   0.000000   0.000000
    12  C   -0.000120   0.001570   0.000103  -0.000002  -0.002090   0.002273
    13  O    0.027055   0.000190  -0.000010  -0.000002   0.005192  -0.000136
    14  C    0.019030  -0.253512   0.000440   0.000025  -0.029176   0.060688
    15  O    0.005919   0.021216   0.000299  -0.000013  -0.034799  -0.011859
    16  C   -0.048766  -0.476416   0.048623  -0.008202   0.210748  -0.039261
    17  C    0.018667  -0.756259   0.028981   0.001190  -0.303556  -0.002968
    18  O    0.226632  -0.018804   0.002621  -0.000255   0.015810   0.000015
    19  H    0.378007  -0.020315  -0.000391   0.000020  -0.002647  -0.000017
    20  C   -0.020315   6.858573   0.006157   0.004113   0.116184  -0.003461
    21  O   -0.000391   0.006157   8.208465   0.230530  -0.003273   0.000002
    22  H    0.000020   0.004113   0.230530   0.446335  -0.000015   0.000000
    23  C   -0.002647   0.116184  -0.003273  -0.000015   6.445566   0.034886
    24  O   -0.000017  -0.003461   0.000002   0.000000   0.034886   8.319159
    25  H    0.000000   0.001145   0.000000   0.000000  -0.011976   0.255065
    26  C   -0.004379   0.888836  -0.017599  -0.001198  -0.877224   0.075661
    27  O   -0.000116  -0.082040   0.003573  -0.000735  -0.068033   0.000997
    28  C    0.004516  -0.638837   0.039328  -0.000540  -0.191916   0.004408
    29  O    0.000012  -0.038333   0.001110   0.009523   0.010283  -0.000011
    30  H    0.000000  -0.028206  -0.000921  -0.000885  -0.000758  -0.000001
    31  H    0.000001  -0.112163   0.001334  -0.000112  -0.006772   0.000013
    32  H   -0.000062   0.378098  -0.026560  -0.007231   0.005204   0.000002
    33  H    0.001727   0.019553  -0.005289  -0.000129   0.022571  -0.000071
    34  H    0.001069   0.030724  -0.000444   0.000008  -0.013936  -0.000115
    35  H    0.000038  -0.035159  -0.000013   0.000006   0.074986  -0.000856
    36  H    0.000000  -0.004001  -0.000001   0.000000   0.425252  -0.033589
    37  H    0.000000  -0.002234  -0.000001   0.000000   0.613054  -0.066859
    38  H    0.000000   0.000001   0.000000   0.000000   0.000002   0.000000
    39  H    0.000383  -0.000655  -0.000001   0.000000  -0.000010   0.000000
    40  H   -0.000079   0.000237   0.000000   0.000000  -0.000031   0.000000
    41  H   -0.000432   0.000312   0.000000   0.000000   0.000064   0.000003
    42  H   -0.000016   0.000031   0.000000   0.000000   0.000047   0.000009
    43  H   -0.000001   0.000036   0.000000   0.000000   0.000043   0.000032
    44  H   -0.000019   0.000837   0.000000   0.000000   0.003265   0.000773
    45  H   -0.001964   0.010860   0.000005   0.000000   0.002422  -0.000091
             25         26         27         28         29         30
     1  O    0.000000  -0.000147   0.000000   0.000002   0.000000   0.000000
     2  C    0.000099  -0.013988  -0.000079  -0.001673   0.000007   0.000000
     3  C    0.000877   0.002151   0.000683   0.001886   0.000018   0.000000
     4  O    0.000002   0.000441   0.000001  -0.000006   0.000000   0.000000
     5  H    0.000000   0.000011   0.000000   0.000000   0.000000   0.000000
     6  C   -0.002089  -0.020914   0.002184   0.002785  -0.000231   0.000001
     7  O    0.002108  -0.034243   0.000061  -0.000271  -0.000001   0.000000
     8  H   -0.001822  -0.027494  -0.000008   0.000068   0.000000   0.000000
     9  C   -0.000010   0.002496   0.000030   0.000636  -0.000012   0.000000
    10  O    0.000000  -0.000033   0.000000   0.000000   0.000000   0.000000
    11  H    0.000000   0.000004   0.000000  -0.000001   0.000000   0.000000
    12  C   -0.000187   0.058575  -0.000013  -0.003459   0.000027   0.000000
    13  O   -0.000010  -0.022885   0.000322   0.001299   0.000015   0.000000
    14  C   -0.006030  -0.311175   0.011367   0.044336  -0.000081   0.000030
    15  O    0.001584  -0.031059   0.001488   0.001523  -0.000024   0.000001
    16  C   -0.013342  -1.601039   0.045434   0.363152  -0.009652  -0.003424
    17  C   -0.002264  -0.824220  -0.009853   0.586087  -0.005778   0.008039
    18  O   -0.000001   0.026595  -0.002929  -0.016552   0.000137  -0.000032
    19  H    0.000000  -0.004379  -0.000116   0.004516   0.000012   0.000000
    20  C    0.001145   0.888836  -0.082040  -0.638837  -0.038333  -0.028206
    21  O    0.000000  -0.017599   0.003573   0.039328   0.001110  -0.000921
    22  H    0.000000  -0.001198  -0.000735  -0.000540   0.009523  -0.000885
    23  C   -0.011976  -0.877224  -0.068033  -0.191916   0.010283  -0.000758
    24  O    0.255065   0.075661   0.000997   0.004408  -0.000011  -0.000001
    25  H    0.411474   0.025392  -0.000507  -0.001881  -0.000001   0.000000
    26  C    0.025392   9.480743   0.117134  -0.911461  -0.041895   0.003891
    27  O   -0.000507   0.117134   8.110994   0.200798  -0.025674   0.003621
    28  C   -0.001881  -0.911461   0.200798   5.702142   0.277406   0.009637
    29  O   -0.000001  -0.041895  -0.025674   0.277406   8.126516   0.262073
    30  H    0.000000   0.003891   0.003621   0.009637   0.262073   0.421352
    31  H    0.000000  -0.022075  -0.040000   0.447847  -0.026563  -0.009149
    32  H    0.000000   0.022343   0.001124  -0.019368  -0.003058   0.000035
    33  H    0.000000   0.096462  -0.001041  -0.056715  -0.000173   0.000015
    34  H   -0.000013   0.118846   0.002250   0.004903  -0.000402   0.000002
    35  H   -0.000159   0.191822  -0.027893   0.061766  -0.000040   0.000002
    36  H   -0.010272  -0.091827  -0.000794   0.004877   0.000016  -0.000001
    37  H   -0.002342  -0.304419   0.003889   0.006177  -0.000046   0.000000
    38  H    0.000000  -0.000004   0.000000   0.000000   0.000000   0.000000
    39  H    0.000000   0.000165   0.000000   0.000061   0.000000   0.000000
    40  H    0.000000  -0.000314   0.000000   0.000008   0.000000   0.000000
    41  H    0.000000  -0.001098   0.000000   0.000020   0.000000   0.000000
    42  H    0.000000  -0.000361   0.000000  -0.000002   0.000000   0.000000
    43  H    0.000000  -0.000150   0.000000  -0.000008   0.000000   0.000000
    44  H   -0.000006  -0.005912   0.000004  -0.000082   0.000000   0.000000
    45  H    0.000006   0.008719   0.000364  -0.000653  -0.000004   0.000000
             31         32         33         34         35         36
     1  O    0.000000   0.000000   0.000000  -0.000001   0.000000   0.000000
     2  C    0.000007   0.000089  -0.000312  -0.003828  -0.000151   0.000013
     3  C    0.000011   0.000003   0.000597   0.005910   0.000670   0.000009
     4  O    0.000000   0.000000   0.000000   0.000008   0.000000   0.000000
     5  H    0.000000   0.000000   0.000000   0.000000   0.000000   0.000000
     6  C   -0.000180   0.000019   0.005846   0.004466  -0.003695   0.000822
     7  O    0.000001   0.000001  -0.000010  -0.001977  -0.000134  -0.000755
     8  H    0.000000   0.000000   0.000000   0.000044   0.000030   0.000257
     9  C   -0.000006  -0.000110  -0.000368  -0.000272   0.000030   0.000000
    10  O    0.000000   0.000000   0.000000   0.000001   0.000000   0.000000
    11  H    0.000000   0.000000   0.000000   0.000000   0.000000   0.000000
    12  C    0.000025   0.000359   0.000331   0.004512   0.000560   0.000026
    13  O    0.000030   0.000122  -0.002396  -0.001161  -0.000003   0.000024
    14  C   -0.000678  -0.011453   0.011521  -0.007649   0.032882   0.008415
    15  O    0.000566   0.000191  -0.008753  -0.043815  -0.000494   0.000158
    16  C    0.035018   0.051836  -0.137291   0.095144  -0.034344   0.016252
    17  C   -0.009007  -0.132281   0.326225   0.054034  -0.014573   0.004418
    18  O    0.000056   0.004266  -0.039290  -0.003780   0.000118   0.000017
    19  H    0.000001  -0.000062   0.001727   0.001069   0.000038   0.000000
    20  C   -0.112163   0.378098   0.019553   0.030724  -0.035159  -0.004001
    21  O    0.001334  -0.026560  -0.005289  -0.000444  -0.000013  -0.000001
    22  H   -0.000112  -0.007231  -0.000129   0.000008   0.000006   0.000000
    23  C   -0.006772   0.005204   0.022571  -0.013936   0.074986   0.425252
    24  O    0.000013   0.000002  -0.000071  -0.000115  -0.000856  -0.033589
    25  H    0.000000   0.000000   0.000000  -0.000013  -0.000159  -0.010272
    26  C   -0.022075   0.022343   0.096462   0.118846   0.191822  -0.091827
    27  O   -0.040000   0.001124  -0.001041   0.002250  -0.027893  -0.000794
    28  C    0.447847  -0.019368  -0.056715   0.004903   0.061766   0.004877
    29  O   -0.026563  -0.003058  -0.000173  -0.000402  -0.000040   0.000016
    30  H   -0.009149   0.000035   0.000015   0.000002   0.000002  -0.000001
    31  H    0.602507   0.005538   0.001327  -0.000041   0.004582  -0.000016
    32  H    0.005538   0.585083   0.006273   0.000731  -0.000012   0.000001
    33  H    0.001327   0.006273   0.629816   0.006826   0.002907   0.000007
    34  H   -0.000041   0.000731   0.006826   0.615953   0.006094   0.000047
    35  H    0.004582  -0.000012   0.002907   0.006094   0.617587  -0.005828
    36  H   -0.000016   0.000001   0.000007   0.000047  -0.005828   0.583765
    37  H   -0.000012  -0.000005  -0.000007   0.002734   0.006732  -0.040773
    38  H    0.000000   0.000000   0.000000   0.000000   0.000000   0.000000
    39  H    0.000000   0.000000   0.000000   0.000000   0.000000   0.000000
    40  H    0.000000   0.000000   0.000000   0.000000   0.000000   0.000000
    41  H    0.000000   0.000000  -0.000001  -0.000006   0.000000   0.000000
    42  H    0.000000   0.000000   0.000000   0.000000   0.000000   0.000000
    43  H    0.000000   0.000000   0.000000  -0.000001   0.000000   0.000000
    44  H    0.000000   0.000000  -0.000004  -0.000006  -0.000002   0.000001
    45  H    0.000000  -0.000003  -0.000022   0.008337  -0.000014   0.000002
             37         38         39         40         41         42
     1  O    0.000000   0.272998  -0.000695   0.002518   0.004569  -0.019156
     2  C    0.000000   0.020899  -0.010901   0.009565   0.112169   0.418188
     3  C    0.000502  -0.015551   0.007279  -0.009193  -0.055033  -0.111870
     4  O    0.000000   0.000698  -0.000004  -0.000019   0.000280   0.000804
     5  H    0.000000  -0.002274   0.000001  -0.000001   0.000000  -0.001228
     6  C   -0.007319  -0.002030  -0.003830   0.015862  -0.039443   0.003943
     7  O    0.001378  -0.000009  -0.000010   0.000006   0.000277   0.000807
     8  H    0.000544   0.000000   0.000000   0.000000  -0.000001   0.000000
     9  C   -0.000020  -0.000113   0.401261   0.594648   0.047849  -0.011481
    10  O    0.000000   0.000841  -0.023996  -0.052837   0.001746  -0.001371
    11  H    0.000000  -0.000081  -0.009847  -0.002337  -0.000223  -0.000018
    12  C   -0.000017  -0.012398  -0.027774  -0.247227   0.033501  -0.099288
    13  O    0.000170  -0.000695  -0.001460  -0.005939  -0.027461   0.007188
    14  C   -0.001404   0.000533  -0.001868   0.005126   0.165196   0.074866
    15  O    0.001161  -0.000006  -0.000237  -0.000366  -0.001479   0.000151
    16  C    0.047037   0.000153   0.003619  -0.007143   0.001339  -0.004208
    17  C    0.006204  -0.000034  -0.000264   0.004114   0.007708   0.001670
    18  O    0.000027   0.000000  -0.000184   0.000036   0.000355   0.000046
    19  H    0.000000   0.000000   0.000383  -0.000079  -0.000432  -0.000016
    20  C   -0.002234   0.000001  -0.000655   0.000237   0.000312   0.000031
    21  O   -0.000001   0.000000  -0.000001   0.000000   0.000000   0.000000
    22  H    0.000000   0.000000   0.000000   0.000000   0.000000   0.000000
    23  C    0.613054   0.000002  -0.000010  -0.000031   0.000064   0.000047
    24  O   -0.066859   0.000000   0.000000   0.000000   0.000003   0.000009
    25  H   -0.002342   0.000000   0.000000   0.000000   0.000000   0.000000
    26  C   -0.304419  -0.000004   0.000165  -0.000314  -0.001098  -0.000361
    27  O    0.003889   0.000000   0.000000   0.000000   0.000000   0.000000
    28  C    0.006177   0.000000   0.000061   0.000008   0.000020  -0.000002
    29  O   -0.000046   0.000000   0.000000   0.000000   0.000000   0.000000
    30  H    0.000000   0.000000   0.000000   0.000000   0.000000   0.000000
    31  H   -0.000012   0.000000   0.000000   0.000000   0.000000   0.000000
    32  H   -0.000005   0.000000   0.000000   0.000000   0.000000   0.000000
    33  H   -0.000007   0.000000   0.000000   0.000000  -0.000001   0.000000
    34  H    0.002734   0.000000   0.000000   0.000000  -0.000006   0.000000
    35  H    0.006732   0.000000   0.000000   0.000000   0.000000   0.000000
    36  H   -0.040773   0.000000   0.000000   0.000000   0.000000   0.000000
    37  H    0.578438   0.000000   0.000000   0.000000   0.000000   0.000000
    38  H    0.000000   0.403356   0.000028  -0.000226  -0.000255  -0.014335
    39  H    0.000000   0.000028   0.578048  -0.048221  -0.006733   0.000010
    40  H    0.000000  -0.000226  -0.048221   0.589078   0.006365   0.002884
    41  H    0.000000  -0.000255  -0.006733   0.006365   0.626521   0.006467
    42  H    0.000000  -0.014335   0.000010   0.002884   0.006467   0.610710
    43  H    0.000000  -0.000073   0.000005  -0.000003   0.001884   0.005951
    44  H    0.000002   0.000015   0.000001  -0.000023  -0.000052   0.002332
    45  H    0.000056   0.000001  -0.000003  -0.000014   0.002852  -0.000013
             43         44         45
     1  O   -0.004245  -0.000137   0.000053
     2  C    0.083669   0.043797  -0.003297
     3  C    0.307605  -0.162205  -0.041850
     4  O   -0.025107   0.000594  -0.000015
     5  H   -0.000213  -0.000132   0.000004
     6  C   -0.211318   0.433250   0.021951
     7  O    0.005073  -0.033038  -0.001575
     8  H   -0.000095  -0.008491   0.000207
     9  C    0.014272   0.018707   0.016083
    10  O   -0.000083   0.000025   0.000055
    11  H    0.000000   0.000000   0.000000
    12  C    0.011305   0.047775   0.044253
    13  O    0.004351   0.009531  -0.038125
    14  C    0.066575  -0.067565   0.258669
    15  O    0.000069  -0.011000  -0.044519
    16  C   -0.007387  -0.027445   0.009047
    17  C    0.001173   0.002045   0.014383
    18  O    0.000018   0.000104   0.000747
    19  H   -0.000001  -0.000019  -0.001964
    20  C    0.000036   0.000837   0.010860
    21  O    0.000000   0.000000   0.000005
    22  H    0.000000   0.000000   0.000000
    23  C    0.000043   0.003265   0.002422
    24  O    0.000032   0.000773  -0.000091
    25  H    0.000000  -0.000006   0.000006
    26  C   -0.000150  -0.005912   0.008719
[...]
 -0.00000016,0.00000195,-0.00001635,-0.00000563,0.00000263,0.00001219,-
 0.00000059,0.00000037,-0.00001011,0.00000428,0.00000261,0.00000630,-0.
 00000098,-0.00000556,-0.00000145,0.00000019,0.00000098,0.00000272,0.00
 000070,0.00000117,0.00000280,0.00000171,-0.00000302,0.00000760,0.00000
 120,0.00000875,0.00001119,0.00000052,-0.00000844,0.00000613,-0.0000007
 1,0.00000578,-0.00000046,-0.00000088,0.00000100,0.00000529,0.00000039,
 -0.00000153,0.00167889,-0.00011557,-0.00063071,0.00032873,0.00009105,0
 .00003255,0.00054558,-0.00082667,0.00010438,0.00057767,-0.00093057,0.0
 0099209,0.37940992,-0.01203368,-0.00068101,-0.00703458,0.00206336,-0.0
 4310996,0.00173565,0.03474329,-0.00522095,-0.00459094,-0.00092859,0.00
 382834,-0.00123628,0.00065349,-0.00042462,0.00093519,0.00120301,0.0012
 9505,0.00127340,-0.00060221,-0.00013382,-0.00002334,-0.00000978,-0.000
 00993,0.00003923,-0.00157211,0.00138582,-0.00067457,0.00028450,-0.0001
 0102,0.00008219,0.00000050,-0.00008036,-0.00003102,-0.02693941,-0.0017
 9707,0.00482653,0.00144573,0.00110381,-0.00161222,0.00010516,-0.000489
 54,-0.00001443,0.00002242,0.00011387,-0.00002349,-0.00003555,0.0000278
 5,-0.00001419,0.00001222,0.00001469,-0.00000229,0.00001653,-0.00000303
 ,-0.00005301,-0.00003126,-0.00001687,0.00005094,-0.00000643,0.00000014
 ,0.00000007,0.00000246,-0.00000074,-0.00000325,-0.00000060,-0.00000033
 ,-0.00000012,0.00000368,-0.00000546,0.00000088,-0.00000988,-0.00001488
 ,-0.00003753,0.00000774,0.00000284,-0.00000318,0.00000082,-0.00000202,
 0.00000679,-0.00000108,0.00000036,-0.00000225,0.00000054,0.00000182,0.
 00000548,0.00000233,-0.00000101,-0.00000585,0.00000011,0.00000042,0.00
 000115,-0.00000015,0.00000032,-0.00000012,0.00000066,-0.00000005,-0.00
 000129,0.00000025,0.00000122,0.00000213,0.00000133,-0.00000515,0.00000
 608,-0.00000085,0.00000208,-0.00000067,0.00000002,0.00000110,-0.000003
 56,-0.00000160,-0.00000057,0.00000263,-0.00134768,0.00139409,-0.000078
 00,0.00036499,0.00033091,-0.00001177,0.00073932,-0.00020998,0.00006398
 ,-0.00130520,-0.00264792,0.00335755,0.00272352,0.05115239,-0.04116126,
 -0.00882852,-0.01781014,0.03156299,0.00049055,-0.04424704,0.01044469,0
 .00036232,0.00018761,-0.00138933,0.00077228,0.00046935,-0.00064040,0.0
 0009649,-0.00008601,0.00092793,0.00021291,0.00036941,-0.00030862,0.000
 02327,-0.00000234,0.00002567,0.00001046,-0.00000274,0.00014170,-0.0014
 4990,0.00072396,-0.00004781,0.00014358,0.00010760,0.00003424,-0.000037
 36,0.00010158,0.02648803,0.00221288,-0.00292509,-0.00112606,-0.0005739
 7,0.00254567,0.00039451,-0.00013922,-0.00026044,-0.00008544,-0.0000081
 6,-0.00014821,0.00000496,-0.00003008,-0.00000742,0.00001692,0.00000144
 ,0.00000974,-0.00004054,-0.00001962,0.00002374,0.00005195,0.00003412,-
 0.00003800,0.00000613,-0.00000337,0.00000311,-0.00000966,0.00000692,-0
 .00000566,0.00000224,-0.00000052,0.00000172,0.00001090,0.00000357,-0.0
 0000265,-0.00001184,-0.00000950,-0.00000962,0.00000523,0.00000184,0.00
 000127,0.00000982,0.00000885,0.00000501,-0.00000879,0.00000284,-0.0000
 1222,0.00000747,-0.00000579,0.00001102,-0.00000094,0.00000045,-0.00000
 706,0.00000077,0.00000003,0.00000156,-0.00000233,-0.00000079,-0.000001
 77,-0.00000293,-0.00000095,0.00000401,-0.00000899,-0.00000342,-0.00001
 202,-0.00001312,0.00000208,0.00001038,-0.00000512,-0.00000077,-0.00000
 583,-0.00000134,-0.00000165,-0.00000138,-0.00000406,0.00000078,0.00000
 191,-0.00335324,0.00081451,0.00277459,-0.00015665,-0.00024480,-0.00002
 300,-0.00063199,0.00031474,0.00013081,0.00083988,0.00308408,-0.0035253
 5,-0.02172370,0.00487802,0.06190569,0.00148278,0.00007587,0.00036975,-
 0.01148398,0.00174573,-0.00162094,-0.34729401,0.02972726,-0.02157989,-
 0.01125262,-0.00925766,0.01077705,-0.00099883,-0.00069119,-0.00047899,
 -0.01230654,0.00242615,-0.00272354,0.00153101,-0.00071390,-0.00011661,
 0.00013765,0.00003911,0.00017256,0.00046592,0.00028869,-0.00019715,0.0
 0004359,-0.00003611,-0.00001683,-0.00001310,-0.00000420,0.00000478,-0.
 00096226,-0.00026092,0.00037662,0.00045307,0.00019852,0.00014095,-0.00
 118908,-0.00099699,0.00035594,0.00038384,0.00020168,-0.00047468,-0.000
 14976,0.00004523,-0.00000115,0.00001347,-0.00002636,-0.00007465,0.0000
 4018,0.00002369,0.00002565,-0.00003641,-0.00000897,-0.00000810,-0.0000
 1746,0.00000869,0.00001193,0.00001042,0.00001019,-0.00000618,-0.000005
 42,-0.00000107,-0.00000268,-0.00005173,-0.00002048,0.00004324,0.000023
 41,0.00002899,-0.00002901,-0.00001847,-0.00000512,0.00000454,0.0000022
 3,0.00000907,0.00000704,0.00001623,0.00001014,-0.00003344,-0.00000504,
 -0.00001301,0.00001516,0.00000814,0.00000415,-0.00001144,-0.00000076,-
 0.00000046,0.00000133,0.00000269,0.00000141,0.00000089,0.00000456,0.00
 000228,-0.00000514,0.00001215,-0.00000238,0.00000803,0.00002132,0.0000
 0563,-0.00003760,0.00000735,-0.00000299,0.00000838,0.00000493,-0.00000
 005,-0.00000470,0.00001627,0.00000359,-0.00000704,0.00025417,-0.000341
 92,-0.00013584,-0.00002879,0.00013590,0.00000319,0.00009387,-0.0002442
 9,0.00001414,0.00091294,0.00041249,-0.00039362,0.00035005,0.00112754,0
 .00011961,0.37886421,-0.00252949,0.00233006,0.00091455,0.03493110,-0.0
 0490786,0.00239910,0.03008713,-0.04382536,-0.00232512,-0.03007896,-0.0
 0503836,0.00976976,-0.00079277,-0.00053011,-0.00056510,-0.00880446,0.0
 0318802,-0.00312908,0.00053856,0.00069154,0.00162828,0.00001721,-0.000
 03071,-0.00007423,-0.00010785,-0.00014675,0.00006326,-0.00005235,0.000
 01422,-0.00002810,0.00000375,0.00002900,0.00000470,0.00124476,0.002136
 67,-0.00112275,-0.00025867,-0.00013326,0.00030052,0.00019627,-0.000703
 04,0.00005630,0.00003442,0.00010650,-0.00040031,-0.00007311,0.00003569
 ,0.00001530,0.00001306,-0.00002795,-0.00005538,-0.00000728,0.00001186,
 0.00004425,0.00001467,0.00000143,-0.00005576,-0.00000245,0.00000912,0.
 00001250,-0.00000110,0.00000649,-0.00000837,-0.00000167,0.00000105,-0.
 00000086,-0.00000116,0.00003229,-0.00002267,0.00003225,0.00002130,0.00
 011442,-0.00001774,-0.00000131,0.00000245,-0.00000250,0.00004416,0.000
 00767,0.00000384,-0.00001799,-0.00001771,0.00000038,0.00000037,0.00000
 620,0.00000088,-0.00000105,-0.00000261,0.,0.00000026,0.00000030,-0.000
 00017,0.00000005,-0.00000030,0.00000062,0.00000043,-0.00000153,0.00000
 143,-0.00000040,0.00000085,0.00000581,0.00000487,-0.00000549,0.0000012
 2,-0.00000651,0.00000011,-0.00000077,-0.00000799,0.00000795,0.00000189
 ,0.00000120,-0.00000350,-0.00007952,0.00037895,0.00037232,-0.00009749,
 -0.00012192,-0.00002910,-0.00024368,0.00011932,-0.00000918,-0.00072441
 ,-0.00031158,0.00039512,0.00193840,-0.00540085,-0.00187063,-0.02431208
 ,0.05182621,-0.00041445,0.00131471,0.00123289,0.01034605,-0.00392769,0
 .00186440,-0.02278052,-0.00227473,-0.04330224,0.02835685,0.00883169,-0
 .00610624,0.00183961,0.00019364,0.00019104,-0.03577810,0.00302154,-0.0
 0310584,0.00302351,0.00017498,0.00230237,-0.00003250,0.00028453,0.0001
 4698,-0.00006858,-0.00011351,0.00014601,-0.00001575,0.00002372,-0.0000
 0443,-0.00000011,0.00001908,-0.00000542,-0.00046762,0.00007047,-0.0006
 1056,0.00009788,0.00046141,-0.00018990,-0.00098633,-0.00122480,0.00170
 758,0.00045553,0.00011276,-0.00054393,-0.00003247,0.00005577,0.0000591
 9,0.00002826,-0.00003180,-0.00006811,0.00001863,0.00003374,0.00000192,
 -0.00002462,-0.00003425,0.00001409,-0.00001285,0.00000242,0.00002527,-
 0.00000168,0.00002185,-0.00002290,-0.00000307,-0.00000126,-0.00000093,
 -0.00002853,0.00002594,0.00002151,0.00002826,0.00002029,0.00010678,-0.
 00000042,0.00000990,0.00000432,0.00000164,0.00004649,0.00003472,0.0000
 0959,0.00000131,-0.00006329,0.00000256,-0.00001708,0.00003876,0.000010
 19,0.00000245,-0.00002784,0.00000016,0.00000099,0.00000445,-0.00000047
 ,0.00000112,-0.00000113,0.00000154,0.00000176,-0.00000363,0.00000387,-
 0.00000338,0.00000596,0.00002833,0.00001325,-0.00005856,0.00000446,-0.
 00000701,0.00000476,0.00000083,-0.00001166,0.00000189,0.00000896,0.000
 00103,-0.00000198,-0.00000897,0.00030852,0.00001734,-0.00001608,-0.000
 09396,-0.00001068,-0.00002009,0.00004388,-0.00003247,-0.00012595,0.000
 13250,0.00021174,0.00086963,-0.00146676,-0.00032449,0.01751140,-0.0051
 7806,0.05250988,0.00062681,0.00006751,-0.00008919,-0.00095563,0.001157
 29,0.00053647,-0.01734876,-0.00437313,-0.00200927,0.00244615,0.0003024
 5,0.00184248,0.00032247,0.00004924,0.00023139,-0.34725344,-0.02927964,
 0.01934363,-0.01004641,0.01208887,0.00898985,0.00066063,0.00033457,-0.
 00136783,-0.00009597,-0.00001368,0.00000601,0.00004625,0.00002884,0.00
 001908,-0.00001304,-0.00000757,-0.00000068,-0.00013584,-0.00021368,0.0
 0007708,0.00147547,-0.00082947,-0.00054039,-0.01014685,-0.00171099,0.0
 0157090,0.00143406,0.00039891,-0.00120978,0.00035708,0.00019417,0.0001
 0579,0.00004937,0.00003388,-0.00004672,0.00003902,-0.00001633,-0.00006
 570,-0.00003119,-0.00003651,0.00003867,-0.00001896,0.00002450,0.000031
 60,0.00001313,-0.00000985,-0.00002528,-0.00000480,0.00000503,-0.000000
 66,-0.00000553,0.00022622,-0.00015184,0.00012096,0.00000463,0.00067552
 ,-0.00006432,-0.00003864,-0.00001613,-0.00002978,0.00015463,0.00002319
 ,0.00002917,-0.00011325,-0.00002131,-0.00003066,0.00005720,-0.00000580
 ,0.00000798,-0.00001852,-0.00000617,-0.00000180,0.00000254,0.00000085,
 0.00000443,-0.00000241,0.00000220,0.00000480,0.00000298,-0.00000468,0.
 00000185,-0.00001387,0.00002027,0.00003260,0.00006550,-0.00035046,0.00
 001427,-0.00002025,0.00001314,0.00000479,-0.00004622,0.00005988,0.0000
 0850,-0.00001084,-0.00003482,-0.00003606,-0.00015577,-0.00010447,0.000
 02120,-0.00000754,-0.00001035,0.00004916,-0.00004663,-0.00000298,0.000
 09498,0.00014188,-0.00004012,0.00079718,-0.00063258,-0.00022052,0.0002
 5047,-0.00091390,-0.00223617,0.37677472,0.00017970,-0.00001235,0.00009
 311,-0.00093125,0.00019829,0.00015270,-0.00715721,0.00090142,-0.000564
 04,0.00108096,0.00010732,0.00041418,0.00003402,-0.00006691,0.00002262,
 -0.03218694,-0.03976772,0.00530971,0.04153622,-0.01816940,-0.01658517,
 0.00140432,0.00138828,0.00162663,-0.00007528,0.00002015,0.00000290,0.0
 0002502,-0.00001907,0.00000896,-0.00000520,-0.00000273,-0.00000505,-0.
 00018321,-0.00028279,-0.00009236,0.00146230,0.00201277,-0.00070416,-0.
 03007103,-0.00440051,0.00532233,0.00091024,0.00101823,-0.00198923,-0.0
 0033900,0.00025311,0.00005946,0.00010806,-0.00000079,-0.00016605,0.000
 07747,0.00000193,-0.00000672,-0.00010964,0.00005725,0.00005119,-0.0000
 2095,0.00002912,0.00000466,0.00000639,0.00001905,-0.00000811,-0.000005
 06,-0.00000220,-0.00000273,-0.00002274,-0.00011373,0.00019549,-0.00030
 366,-0.00012074,-0.00043455,0.00009949,0.00004719,0.00002231,0.0001257
 4,-0.00010751,-0.00000119,-0.00000901,0.00006417,-0.00005801,0.0000191
 8,-0.00005049,0.00002642,0.00000338,0.00001497,-0.00001259,0.00000093,
 -0.00000046,0.00000193,-0.00000217,0.00000345,-0.00000061,0.00000522,0
 .00000318,-0.00000865,0.00002579,-0.00003337,0.00003226,0.00029357,0.0
 0000064,-0.00005421,0.00000028,0.00004569,0.00003158,-0.00001052,0.000
 01841,-0.00003476,-0.00001124,-0.00001656,0.00005930,0.00000690,0.0000
 1748,-0.00002639,0.00001278,-0.00001327,0.00000488,0.00004061,-0.00004
 281,-0.00000896,0.00013537,0.00012258,0.00002551,0.00011260,-0.0001912
 9,-0.00028995,0.00006203,0.00012333,-0.00120354,0.02364273,0.06020997,
 0.00056844,0.00012876,-0.00019604,-0.00119659,0.00107605,0.00113801,-0
 .03593066,-0.00502342,-0.00437331,0.00072300,-0.00053024,0.00303516,-0
 .00006749,-0.00016257,0.00033031,0.01750886,0.00555486,-0.04206670,0.0
 1687729,-0.01191302,-0.00421482,0.00203399,-0.00065068,0.00086103,-0.0
 0003805,-0.00001651,0.00007919,0.00000931,0.00001198,0.00000208,0.0000
 0244,0.00000054,0.00000453,-0.00022749,-0.00011224,-0.00043448,-0.0014
 3147,-0.00080511,0.00081537,0.02706728,0.00691292,-0.00471694,0.000004
 99,-0.00080721,0.00206398,0.00055985,-0.00016804,-0.00038955,-0.000103
 82,0.00000708,0.00021316,-0.00007341,-0.00001408,-0.00000562,0.0000965
 9,-0.00002425,0.00001738,0.00002297,-0.00004619,-0.00002573,-0.0000089
 2,-0.00002080,0.00002757,0.00000675,-0.00000141,0.00000351,0.00010694,
 -0.00002371,-0.00004557,-0.00021184,0.00000700,-0.00015066,0.00002139,
 0.00000271,0.00007449,-0.00006156,-0.00003074,-0.00001303,-0.00004320,
 0.00000686,0.00010310,0.00000436,0.00002458,-0.00003208,-0.00001155,-0
 .00000504,0.00002030,0.00000093,-0.00000118,-0.00000358,-0.00000132,-0
 .00000116,-0.00000189,-0.00000691,-0.00000572,0.00001215,-0.00004087,0
 .00005040,-0.00003533,-0.00040762,-0.00004288,-0.00000337,-0.00003096,
 -0.00001178,-0.00007313,-0.00001844,0.00000246,-0.00000027,-0.00004166
 ,-0.00000351,0.00004016,0.00005146,-0.00013668,-0.00005660,0.00000838,
 -0.00002380,0.00000653,0.00001181,-0.00001492,0.00000792,0.00008857,0.
 00005917,-0.00012800,0.00051404,-0.00034524,-0.00005912,-0.00145695,-0
 .00119465,-0.00574492,-0.02542348,0.00550900,0.05674814,0.00007262,-0.
 00004037,0.00018366,0.00001466,0.00031561,-0.00008571,-0.00054972,-0.0
 0056499,0.00001634,0.00024447,0.00001510,0.00012216,-0.00000285,-0.000
 01249,0.00006486,-0.00480542,0.00104822,0.00334818,0.00168065,-0.00029
 380,-0.00135418,-0.00018920,0.00010685,-0.00003390,0.00043341,-0.00014
 511,0.00021543,-0.00001584,0.00021041,0.00009412,0.00000062,-0.0000033
 9,0.00002824,-0.00023976,-0.00006723,-0.00010448,-0.00296542,0.0085859
 7,0.00415913,-0.32419942,-0.01030137,0.08711072,-0.02559111,-0.0026051
 2,-0.00648309,-0.00071819,-0.00124313,0.00575274,0.00048999,0.00035043
 ,-0.00026764,0.00031332,-0.00006371,-0.00039448,-0.00058443,-0.0000151
 7,0.00063586,-0.00001701,0.00011265,0.00001656,0.00002999,-0.00000457,
 -0.00002589,-0.00001672,0.00000270,-0.00000486,-0.00033922,0.00007840,
 0.00009506,0.00011725,-0.00002839,-0.00000680,-0.00001012,-0.00003154,
 -0.00002463,0.00076196,0.00003386,-0.00008270,0.00007164,-0.00012779,-
 0.00033441,-0.00001547,-0.00000031,0.00000294,0.00001142,-0.00000072,-
 0.00002193,0.00000009,0.00000400,0.00000046,0.00000301,0.00000195,0.00
 000326,0.00002177,0.00002022,-0.00004139,0.00014162,-0.00031460,0.0002
 2252,0.00226117,0.00025182,-0.00094447,0.00013304,0.00018438,0.0003535
 0,0.00007364,0.00000212,-0.00000084,0.00012586,-0.00005765,-0.00004273
 ,0.00000297,-0.00000217,-0.00001215,-0.00001144,-0.00000216,-0.0000026
 2,0.00006266,-0.00021834,-0.00009897,0.00022981,0.00047335,0.00100998,
 0.00003329,-0.00006686,-0.00014095,0.00040733,0.00003593,0.00040759,0.
 00053156,0.00003281,0.00054460,0.35200153,-0.00000104,0.00035989,-0.00
 033290,-0.00033603,-0.00083326,-0.00010615,-0.00072112,-0.00019091,-0.
 00118624,0.00030018,-0.00000787,0.00067915,0.00012432,-0.00011540,0.00
 011391,-0.02298782,0.00013419,0.00947501,0.00128815,0.00352992,-0.0008
 7943,-0.00016395,0.00010892,-0.00001449,0.00010175,0.00014118,-0.00010
 804,-0.00019482,-0.00039393,-0.00027255,-0.00001149,0.00003027,-0.0000
 4076,0.00368609,0.00132949,0.00428841,0.03481334,-0.01629218,-0.018964
 78,-0.01282513,-0.04170942,0.00600119,-0.00675468,0.00337018,-0.000706
 46,0.00039365,-0.00019020,0.00126704,0.00016202,-0.00010867,-0.0000622
 7,-0.00034787,0.00012290,0.00037210,0.00076254,-0.00015039,-0.00095425
 ,0.00003303,0.00001464,0.00009685,-0.00003150,0.00005856,-0.00006240,-
 0.00000364,-0.00000382,0.00000132,-0.00014173,0.00003815,-0.00004237,0
 .00004989,-0.00005744,0.00002468,-0.00002595,-0.00000862,-0.00001696,-
 0.00008286,0.00014071,0.00004609,0.00000204,-0.00003419,-0.00013650,0.
 00001239,-0.00002691,0.00009862,0.00001711,0.00000220,-0.00006147,0.00
 000065,0.00000109,0.00001063,-0.00000337,-0.00000051,-0.00000520,-0.00
 000496,0.00000058,0.00000026,0.00000667,-0.00002908,0.00000888,0.00019
 166,0.00039449,0.00014281,0.00000560,-0.00003169,0.00000911,0.00004151
 ,-0.00002464,0.00000885,0.00003541,-0.00003954,0.00000061,-0.00001104,
 0.00000130,0.00000650,-0.00000156,-0.00001040,0.00002446,-0.00029117,0
 .00007129,-0.00007235,-0.00129927,0.00019294,-0.00014407,-0.00000498,-
 0.00010872,0.00003993,0.00034612,0.00009861,0.00035779,-0.00047231,-0.
 00326325,0.00278244,0.00434419,0.05348954,-0.00005721,-0.00007934,-0.0
 0028231,-0.00009240,0.00015908,-0.00010112,0.00099453,-0.00036060,0.00
 150275,-0.00049974,0.00015965,-0.00031001,-0.00008425,-0.00003973,-0.0
 0002076,0.02530319,0.00148918,-0.00433293,-0.00253355,-0.00116605,0.00
 174636,-0.00011502,0.00006550,-0.00019546,-0.00005496,-0.00008367,0.00
 004912,-0.00010974,-0.00015648,-0.00012488,0.00001340,0.00001780,-0.00
 000572,0.00227865,0.00065463,0.00259063,0.01156773,-0.00857628,-0.0026
 6818,0.09798334,0.00859252,-0.07377500,-0.03194333,-0.00150304,-0.0085
 6463,-0.00806794,-0.00156875,0.00236895,0.00007239,0.00009323,-0.00060
 253,0.00009523,0.00009438,0.00041327,-0.00014243,0.00015572,-0.0004923
 6,0.00001928,0.00005961,0.00007118,0.00000072,0.00004846,-0.00002920,-
 0.00000741,-0.00000045,-0.00000482,-0.00007247,0.00013741,0.00008106,0
 .00005968,-0.00007565,0.00009851,0.00001698,-0.00000514,-0.00001954,-0
 .00043065,-0.00001904,-0.00009215,0.00015574,0.00007371,-0.00013578,0.
 00001649,-0.00006926,0.00006943,0.00001360,0.00001477,-0.00004406,0.00
 000053,0.00000114,0.00000657,0.00000038,-0.00000267,0.00000823,0.00001
 700,0.00001814,-0.00004377,0.00029356,-0.00003959,-0.00001327,0.000417
 81,0.00039783,-0.00148290,0.00017481,-0.00001572,-0.00004083,0.0000175
 0,-0.00001424,0.00000973,0.00000800,-0.00005717,0.00003533,-0.00002629
 ,0.00000133,0.00001803,0.00000327,-0.00000300,-0.00000455,-0.00018840,
 0.00009116,-0.00003720,-0.00090746,-0.00006892,-0.00010502,-0.00015227
 ,0.00000209,0.00012785,-0.00055599,-0.00001545,-0.00042435,0.00039679,
 0.00327989,-0.00283333,-0.09387908,-0.00168698,0.08758968\\0.01108859,
 -0.02497260,-0.00917021,-0.00391023,0.01486913,-0.01988934,-0.00394187
 ,-0.02631904,0.02541971,-0.00021276,0.00877136,0.02545929,0.00592513,-
 0.01628560,-0.02569994,-0.01978258,0.00434584,-0.01917019,0.00404338,0
 .01492395,0.01518239,0.01665390,-0.00031528,0.01435289,-0.00369527,0.0
 1921418,0.00430002,0.00130101,0.01811688,0.00260325,0.00691747,-0.0327
 0787,-0.00035304,-0.00249927,0.02226920,0.01389070,0.00933739,-0.01295
 925,0.02165185,-0.03764957,0.01081172,-0.01596344,0.02034706,-0.004654
 57,-0.00084653,-0.00377655,0.00100328,-0.01352383,-0.01350346,0.027546
 84,0.01762848,0.01317809,-0.02340369,0.01834671,-0.00596399,0.02208413
 ,-0.01583919,-0.00079798,-0.00688451,0.01324772,0.01700290,-0.00592997
 ,-0.03176070,-0.01427526,-0.00199286,0.02635496,0.02920770,-0.02353101
 ,-0.02165184,-0.01918930,-0.01102243,-0.00290845,-0.00822222,0.0331252
 7,0.00798404,-0.00722249,0.00388804,0.02447511,-0.00551949,-0.00287778
 ,0.00247159,0.02413182,-0.00401536,-0.01639737,-0.00561134,0.00243086,
 0.01665232,-0.00245380,-0.00369853,-0.00178191,-0.01922678,-0.00509737
 ,-0.00405702,0.01889430,0.00357653,-0.00088584,-0.02451487,-0.00301035
 ,-0.00111844,0.01890544,-0.00276759,0.00081582,-0.02120921,0.00203998,
 -0.00327035,-0.00033022,-0.00636666,-0.01912249,0.02181608,0.00068151,
 -0.00372526,-0.00094974,0.00382116,-0.00164691,0.00531033,0.00803704,-
 0.01693880,-0.02027796,-0.00314146,-0.00525290,0.02135343,-0.00058201,
 -0.00042865,-0.01989401,-0.00211968,-0.00175133,0.02214979,-0.00138259
 ,0.00322077,-0.02133531,0.00338940,0.00434878,0.01840169,0.00109174,-0
 .00525245\\\@


 CHARLIE BROWN..'I CAN'T GET THAT STUPID KITE IN THE   
 AIR... I CAN'T... I C A N N O T...'                          
 LUCY..'OH COME NOW CHARLIE BROWN...THAT'S NO WAY TO TALK...  
 THE TROUBLE WITH YOU IS YOU DON'T BELIEVE IN YOURSELF... YOU 
 DON'T BELIEVE IN YOUR OWN ABILITIES...  YOU'VE GOT TO SAY TO 
 YOURSELF...'I BELIEVE I CAN FLY THIS KITE.'... GO AHEAD SAY  
 IT....'
 CHARLIE BROWN..'I BELIEVE THAT I CAN FLY THIS STUPID  
 KITE.....I BELIEVE THAT I CAN FLY THIS KITE........          
 I  A C T U A L L Y  B E L I E V E  T H A T  I  C A N ******' 
 LUCY..'I'LL BET YOU TEN-TO-ONE YOU'RE WRONG.......'    SCHULZ
 Job cpu time:  1 days  7 hours 49 minutes 40.8 seconds.
 File lengths (MBytes):  RWF=   1769 Int=      0 D2E=      0 Chk=     28 Scr=      1
 Normal termination of Gaussian 09 at Thu Mar 31 02:38:34 2016.
Gaussian '09 finished on node030 at Thu Mar 31 02:38:34 EDT 2016.
