Job Benzene_raman started on node011 at Tue Feb 10 18:39:51 2015
jobid: volta-0-54da96c4

  +--------------------------------------------------------------------+
  |  Jaguar version 8.5, release  13                                   |
  |                                                                    |
  |  Copyright Schrodinger, Inc.                                       |
  |  All Rights Reserved.                                              |
  |                                                                    |
  |  The following have contributed to Jaguar (listed alphabetically): |
  |  Mike Beachy, Art Bochevarov, Dale Braden, Yixiang Cao,            |
  |  Chris Cortis, Rich Friesner, Bill Goddard, Hod Greeley,           |
  |  Tom Hughes, Jean-Marc Langlois, Daniel Mainz, Rob Murphy,         |
  |  Dean Philipp, Tom Pollard, Murco Ringnalda.                       |
  |                                                                    |
  |  Use of this program should be acknowledged in publications as:    |
  |                                                                    |
  |  Jaguar, version 8.5, Schrodinger, Inc., New York, NY, 2014.       |
  |                                                                    |
  |  A. D. Bochevarov, E. Harder, T. F. Hughes, J. R. Greenwood,       |
  |  D. A. Braden, D. M. Philipp, D. Rinaldo, M. D. Halls,             |
  |  J. Zhang, R. A. Friesner, "Jaguar: A High-Performance Quantum     |
  |  Chemistry Software Program with Strengths in Life and Materials   |
  |  Sciences", Int. J. Quantum Chem., 2013, 113(18), 2110-2142.       |
  +--------------------------------------------------------------------+
  
  start of program pre
  
  Job name: Benzene_raman
  Executables used: /opt/schrodinger2014-3/jaguar-v85013/bin/Linux-x86_64
  Temporary files : /home/srmcgrat/.schrodinger/tmp/Benzene_raman
  Maestro file (input):  Benzene_raman.mae
  Maestro file (output): Benzene_raman.01.mae
  
  
  basis set:             6-31g**         
  net molecular charge:    0
  multiplicity:            1
  
  number of basis functions....          120
  
 Input geometry:
                                   angstroms
  atom               x                 y                 z
  C1            0.4985953333      0.6588376667      1.7592030000 
  C2           -0.2037046667      1.8752376667      1.7592030000 
  C3           -1.6082046667      1.8752376667      1.7592030000 
  C4           -2.3104046667      0.6588376667      1.7592030000 
  C5           -1.6082046667     -0.5575623333      1.7592030000 
  C6           -0.2036046667     -0.5575623333      1.7592030000 
  H7            1.6019953333      0.6588376667      1.7592030000 
  H8            0.3480953333      2.8308376667      1.7592030000 
  H9           -2.1599046667      2.8308376667      1.7592030000 
  H10          -3.4138046667      0.6588376667      1.7592030000 
  H11          -2.1599046667     -1.5130623333      1.7592030000 
  H12           0.3480953333     -1.5131623333      1.7592030000 
   
  principal moments of inertia:
        amu*angstrom^2:       90.03251       90.04010      180.07260
                g*cm^2: 1.49502478E-38 1.49515079E-38 2.99017558E-38
   
  rotational constants:
               cm^(-1):      0.18723936      0.18722358      0.09361573
                   GHz:      5.61329478      5.61282169      2.80652911
   
  Molecular weight:      78.05 amu
   
  Stoichiometry: C6H6
  Molecular Point Group: D6h     
  Point Group used: C1 (symmetry turned off)
  
  nuclear repulsion energy.......     201.756287423 hartrees
 
 Non-default options chosen:
   SCF calculation type: DFT(b3lyp)                  
   DFT=Becke_3_Parameter/HF+Slater+Becke88+VWN+LYP (B3LYP)
   Vibrational frequencies and related properties will be computed
      from analytic second derivatives
   IR intensities will be computed
   Store KE, NAI, and pt. chg. terms separately
  
 Temporary integer options set:
     73=  2
  
  Peak memory usage:    570 Mb
  
  end of program pre
   
 Time(pre)  user:        0.2  user+sys:        0.2  wallclock:        0.4
  
  start of program onee
  
  smallest eigenvalue of S:    5.545E-04
  number of canonical orbitals.....          120
  Peak memory usage:    708 Mb
  
  end of program onee
   
 Time(onee)  user:        0.2  user+sys:        0.2  wallclock:        0.3
  
  start of program hfig
  
  initial wavefunction generated automatically from atomic wavefunctions
 
  Irreducible     Total no   No of occupied orbitals 
  representation  orbitals   Shell_1  Shell_2    ...
  No Symm          120         21
  ------------------------
  Orbital occupation/shell    1.000
 
  Peak memory usage:    649 Mb
  
  end of program hfig
   
 Time(hfig)  user:        0.1  user+sys:        0.1  wallclock:        0.2
  
  start of program probe
  
  Peak memory usage:    649 Mb
  
  end of program probe
   
 Time(probe)  user:        0.1  user+sys:        0.1  wallclock:        0.1
  
  start of program grid
  
  
   grid     grid set  grid #  grid sym
  ------    --------  ------  --------
  coarse        0        0        1
  medium        2        1        1
  fine          0        0        1
  ultrafine     4        2        1
  charge        0        0        1
  gradient      4        2        1
  density       0        0        1
  DFT-fine    -11        3        1
  DFT-med.    -10        4        1
  DFT-grad    -12        5        1
  DFT-der2     -8        6        1
  DFT-cphf     -9        7        1
  LMP2-enrg     4        2        1
  LMP2-grad     2        1        1
  DFT-cphf2   -15        8        1
  PBF-dens      0        0        1
  plotting      0        0        1
  Rel-grad    -17        0        1
  
   
  number of gridpoints: 
     atom        C1       C2       C3       C4       C5       C6       H7
  grid # 1       97       97       97       97       97       97      118
  grid # 2      342      342      342      342      342      342      451
  grid # 3     4304     4304     4304     4304     4304     4304     4304
  grid # 4     1192     1192     1192     1192     1192     1192     1192
  grid # 5     5226     5226     5226     5226     5226     5226     5226
  grid # 6    12650    12650    12650    12650    12650    12650    13718
  grid # 7      688      688      688      688      688      688      744
  grid # 8      358      358      358      358      358      358      382
   
  number of gridpoints: 
     atom        H8       H9      H10      H11      H12    total
  grid # 1      118      118      118      118      118     1290
  grid # 2      451      451      451      451      451     4758
  grid # 3     4304     4304     4304     4304     4304    51648
  grid # 4     1192     1192     1192     1192     1192    14304
  grid # 5     5226     5226     5226     5226     5226    62712
  grid # 6    13718    13718    13718    13718    13718   158208
  grid # 7      744      744      744      744      744     8592
  grid # 8      382      382      382      382      382     4440
   
  Peak memory usage:    690 Mb
  
  end of program grid
   
 Time(grid)  user:        1.4  user+sys:        1.4  wallclock:        2.8
  
  start of program rwr
  
  Peak memory usage:    574 Mb
  
  end of program rwr
   
 Time(rwr)  user:        1.0  user+sys:        1.0  wallclock:        1.3
  
  start of program scf
  
 number of electrons..........         42
 number of alpha electrons....         21
 number of beta electrons.....         21
 number of orbitals, total....        120
 number of doubly-occ'd orbs..         21
 number of open shell orbs....          0
 number of occupied orbitals..         21
 number of virtual orbitals...         99
 number of hamiltonians.......          1
 number of shells.............          1
 SCF type: DFT=Becke_3_Parameter/HF+Slater+Becke88+VWN+LYP (B3LYP)
  
       i  u  d  i  g                   
       t  p  i  c  r                                 RMS    maximum
       e  d  i  u  i                       energy  density   DIIS  
       r  t  s  t  d       total energy    change  change    error 
  
etot    1  N  N  5  M    -231.57604332919           5.5E-03  1.7E-01
etot    2  Y  Y  6  M    -232.18696162380  6.1E-01  4.7E-03  4.9E-02
etot    3  Y  Y  6  M    -232.22930414068  4.2E-02  1.7E-03  4.0E-02
etot    4  N  Y  2  U    -232.25509171811  2.6E-02  8.9E-04  1.8E-02
etot    5  Y  Y  6  M    -232.25618878054  1.1E-03  1.2E-03  9.6E-03
etot    6  N  Y  2  U    -232.25671223482  5.2E-04  2.3E-04  2.2E-03
etot    7  Y  Y  6  M    -232.25677145909  5.9E-05  7.5E-06  1.0E-04
etot    8  N  Y  2  U    -232.25673767494 -3.4E-05  7.3E-06  5.0E-05
etot    9  N  Y  2  U    -232.25673772383  4.9E-08  1.7E-06  2.0E-05
etot   10  N  N  2  U    -232.25673772886  5.0E-09  0.0E+00  0.0E+00
  
  
 Energy components, in hartrees:
   (A)  Nuclear repulsion............     201.75628742281
   (E)  Total one-electron terms.....    -710.98347116285
   (F)    Electron-nuclear...........    -940.66576631411
   (H)    Kinetic....................     229.68229515126
   (I)  Total two-electron terms.....     276.97044601117
   (J)    Coulomb....................     311.68307853662
   (K)    Exchange+Correlation.......     -34.71263252545
   (L)  Electronic energy............    -434.01302515167  (E+I)
   (M)  -V/T.........................       2.01120871148  (-(A+F+I)/H)
   (N)  Total energy.................    -232.25673772886  (A+L)
  
 SCFE: SCF energy: DFT(b3lyp)      -232.25673772886 hartrees   iterations:  10
  
 
 HOMO energy:    -0.24637
 LUMO energy:     0.00036
 
  Orbital energies (hartrees): 
   -10.19249   -10.19224   -10.19223   -10.19172   -10.19171   -10.19146
    -0.84299    -0.73732    -0.73731    -0.59460    -0.59459    -0.51308
    -0.45542    -0.43692    -0.41424    -0.41423    -0.35785    -0.33883
    -0.33881    -0.24637    -0.24637     0.00036     0.00037     0.08567
     0.14027     0.14027     0.15745     0.17668     0.17668     0.18312
     0.29436
 
  Peak memory usage:    792 Mb
  
  end of program scf
   
 Time(scf)  user:        8.9  user+sys:        8.9  wallclock:       56.6
  
  start of program cutabab2
  
  Peak memory usage:    663 Mb
  
  end of program cutabab2
   
 Time(cutabab2)  user:        0.2  user+sys:        0.2  wallclock:        0.4
  
  start of program der2a
  
  Peak memory usage:    711 Mb
  
  end of program der2a
   
 Time(der2a)  user:        0.3  user+sys:        0.3  wallclock:        0.3
  
  start of program der2b
  
  Peak memory usage:    863 Mb
  
  end of program der2b
   
 Time(der2b)  user:       30.6  user+sys:       30.6  wallclock:       30.7
  
  start of program der2nda
  
 
  Peak memory usage:    708 Mb
  
  end of program der2nda
   
 Time(der2nda)  user:        0.2  user+sys:        0.2  wallclock:        0.3
  
  start of program der2ndb
  
  Peak memory usage:    681 Mb
  
  end of program der2ndb
   
 Time(der2ndb)  user:       80.5  user+sys:       80.5  wallclock:       80.7
  
  start of program rwr
  
  Peak memory usage:    574 Mb
  
  end of program rwr
   
 Time(rwr)  user:        1.0  user+sys:        1.0  wallclock:        1.2
  
  start of program cphfa
  
       1  vectors produced in CPHF
  
     v    i  j  k  i  g
     e    t  c  c  c  r
     c    e  o  o  u  i
     t    r  r  r  t  d       RMS  
  
     1    1  0  0  6  M     2.6E-02
     1    2  0  0  6  M     1.8E-03
     1    3  0  0  6  M     3.4E-04
     1    4  0  0  6  M     2.7E-05
  
  
  Atomic Polar Tensors (au): Total
  =========================
  
  APT for atom C1      
  --------------------------------------
        0.1441      -0.0000       0.0000
       -0.0000      -0.0726      -0.0000
       -0.0000      -0.0000      -0.1082
  --------------------------------------
  
  APT for atom C2      
  --------------------------------------
       -0.0184       0.0939      -0.0000
        0.0938       0.0901      -0.0000
        0.0000       0.0000      -0.1083
  --------------------------------------
  
  APT for atom C3      
  --------------------------------------
       -0.0184      -0.0939       0.0000
       -0.0938       0.0900       0.0000
       -0.0000      -0.0000      -0.1083
  --------------------------------------
  
  APT for atom C4      
  --------------------------------------
        0.1441       0.0001      -0.0000
        0.0001      -0.0725      -0.0000
       -0.0000       0.0000      -0.1082
  --------------------------------------
  
  APT for atom C5      
  --------------------------------------
       -0.0183       0.0937      -0.0000
        0.0937       0.0897       0.0000
       -0.0000       0.0000      -0.1083
  --------------------------------------
  
  APT for atom C6      
  --------------------------------------
       -0.0183      -0.0937       0.0000
       -0.0938       0.0899       0.0000
        0.0000      -0.0000      -0.1083
  --------------------------------------
  
  APT for atom H7      
  --------------------------------------
       -0.1281       0.0001      -0.0000
       -0.0000       0.0565      -0.0000
       -0.0000       0.0000       0.1083
  --------------------------------------
  
  APT for atom H8      
  --------------------------------------
        0.0103      -0.0799      -0.0000
       -0.0799      -0.0820       0.0000
        0.0000       0.0000       0.1083
  --------------------------------------
  
  APT for atom H9      
  --------------------------------------
        0.0104       0.0799      -0.0000
        0.0799      -0.0820       0.0000
        0.0000       0.0000       0.1083
  --------------------------------------
  
  APT for atom H10     
  --------------------------------------
       -0.1281      -0.0001       0.0000
       -0.0000       0.0565      -0.0000
        0.0000      -0.0000       0.1083
  --------------------------------------
  
  APT for atom H11     
  --------------------------------------
        0.0104      -0.0799      -0.0000
       -0.0799      -0.0818       0.0000
        0.0000      -0.0000       0.1083
  --------------------------------------
  
  APT for atom H12     
  --------------------------------------
        0.0104       0.0799       0.0000
        0.0799      -0.0819      -0.0000
       -0.0000       0.0000       0.1083
  --------------------------------------
  
  Peak memory usage:    797 Mb
  
  end of program cphfa
   
 Time(cphfa)  user:       57.0  user+sys:       57.0  wallclock:       58.3
  
  start of program rwr
  
  Peak memory usage:    574 Mb
  
  end of program rwr
   
 Time(rwr)  user:        1.0  user+sys:        1.0  wallclock:        1.1
  
  start of program scf
  
 number of electrons..........         42
 number of alpha electrons....         21
 number of beta electrons.....         21
 number of orbitals, total....        120
 number of doubly-occ'd orbs..         21
 number of open shell orbs....          0
 number of occupied orbitals..         21
 number of virtual orbitals...         99
 number of hamiltonians.......          1
 number of shells.............          1
 SCF type: DFT=Becke_3_Parameter/HF+Slater+Becke88+VWN+LYP (B3LYP)
  
       i  u  d  i  g                   
       t  p  i  c  r                                 RMS    maximum
       e  d  i  u  i                       energy  density   DIIS  
       r  t  s  t  d       total energy    change  change    error 
  
etot    1  N  N  5  M    -232.25542328220           1.0E-03  1.8E-02
etot    2  Y  Y  6  M    -232.25574789331  3.2E-04  1.5E-05  5.0E-04
etot    3  N  Y  2  U    -232.25586539878  1.2E-04  3.9E-04  1.8E-02
etot    4  Y  Y  6  M    -232.25628803430  4.2E-04  1.6E-04  1.1E-02
etot    5  Y  Y  6  M    -232.25638977782  1.0E-04  1.6E-04  8.4E-03
etot    6  Y  Y  6  M    -232.25644535148  5.6E-05  1.1E-04  5.5E-03
etot    7  Y  Y  6  M    -232.25645822217  1.3E-05  7.1E-05  3.5E-03
etot    8  N  Y  2  U    -232.25672471939  2.7E-04  4.0E-05  2.4E-03
etot    9  N  Y  2  U    -232.25671460075 -1.0E-05  1.1E-06  3.1E-03
etot   10  N  N  2  U    -232.25671423081 -3.7E-07  0.0E+00  0.0E+00
  
  
 Energy components, in hartrees:
   (A)  Nuclear repulsion............     201.75628742281
   (E)  Total one-electron terms.....    -710.98264289583
   (F)    Electron-nuclear...........    -940.65907427546
   (H)    Kinetic....................     229.67643137963
   (I)  Total two-electron terms.....     276.96964124220
   (J)    Coulomb....................     311.68174957860
   (K)    Exchange+Correlation.......     -34.71210833640
   (L)  Electronic energy............    -434.01300165362  (E+I)
   (M)  -V/T.........................       2.01123442591  (-(A+F+I)/H)
   (N)  Total energy.................    -232.25671423081  (A+L)
  
 SCFE: SCF energy: DFT(b3lyp)      -232.25671423081 hartrees   iterations:  10
  
 
 HOMO energy:    -0.24637
 LUMO energy:     0.00035
 
  Orbital energies (hartrees): 
   -10.19254   -10.19229   -10.19228   -10.19177   -10.19176   -10.19151
    -0.84299    -0.73734    -0.73733    -0.59462    -0.59462    -0.51311
    -0.45546    -0.43693    -0.41427    -0.41425    -0.35785    -0.33885
    -0.33884    -0.24638    -0.24637     0.00035     0.00036     0.08565
     0.14025     0.14026     0.15744     0.17666     0.17667     0.18311
     0.29434
 
  Peak memory usage:    792 Mb
  
  end of program scf
   
 Time(scf)  user:        7.8  user+sys:        7.8  wallclock:       22.0
  
  start of program der1a
  
  Peak memory usage:    710 Mb
  
  end of program der1a
   
 Time(der1a)  user:        0.2  user+sys:        0.2  wallclock:        0.2
  
  start of program rwr
  
  Peak memory usage:    574 Mb
  
  end of program rwr
   
 Time(rwr)  user:        1.0  user+sys:        1.0  wallclock:        1.4
  
  start of program der1b
  
   
  forces (hartrees/bohr) : total     
   
 atom  label           x              y              z
 ---- --------   -------------  -------------  -------------
    1 C1          2.738314E-03  -1.360260E-05  -5.198861E-07
    2 C2          1.421541E-03   2.387785E-03  -1.442827E-07
    3 C3         -1.360310E-03   2.387764E-03   3.826691E-07
    4 C4         -2.769518E-03  -3.487852E-05   2.253803E-07
    5 C5         -1.318064E-03  -2.309830E-03   2.851156E-07
    6 C6          1.321156E-03  -2.369922E-03   2.932412E-07
    7 H7         -1.118514E-02   4.411627E-06   1.539593E-07
    8 H8         -5.617416E-03  -9.724716E-03   1.420299E-07
    9 H9          5.592466E-03  -9.705176E-03  -6.084588E-08
   10 H10         1.118420E-02  -1.346115E-06  -9.679960E-08
   11 H11         5.570264E-03   9.659442E-03  -4.363494E-08
   12 H12        -5.594474E-03   9.708445E-03   2.406657E-07
 -------------   -------------  -------------  -------------
     total       -1.697865E-05  -1.162181E-05   8.576121E-07
   
  Peak memory usage:    790 Mb
  
  end of program der1b
   
 Time(der1b)  user:        3.6  user+sys:        3.6  wallclock:        7.1
  
  start of program raman
  
  calculation with applied electric field of
     Ex= 0.02400 Ey= 0.00000 Ez= 0.00000 follows...
  nuclear repulsion energy.......     201.756287423 hartrees
  nuclear electric field energy..       1.725634221 hartrees
  Peak memory usage:    534 Mb
  
  end of program raman
   
 Time(raman)  user:        0.1  user+sys:        0.1  wallclock:        0.1
  
  start of program rwr
  
  Peak memory usage:    574 Mb
  
  end of program rwr
   
 Time(rwr)  user:        1.0  user+sys:        1.0  wallclock:        1.1
  
  start of program scf
  
 number of electrons..........         42
 number of alpha electrons....         21
 number of beta electrons.....         21
 number of orbitals, total....        120
 number of doubly-occ'd orbs..         21
 number of open shell orbs....          0
 number of occupied orbitals..         21
 number of virtual orbitals...         99
 number of hamiltonians.......          1
 number of shells.............          1
 SCF type: DFT=Becke_3_Parameter/HF+Slater+Becke88+VWN+LYP (B3LYP)
  
       i  u  d  i  g                   
       t  p  i  c  r                                 RMS    maximum
       e  d  i  u  i                       energy  density   DIIS  
       r  t  s  t  d       total energy    change  change    error 
  
etot    1  N  N  5  M    -232.25554350655           3.8E-03  2.9E-02
etot    2  Y  Y  6  M    -232.25552587017 -1.8E-05  1.6E-03  4.2E-02
etot    3  N  Y  2  U    -232.27537486203  2.0E-02  5.5E-04  1.8E-02
etot    4  Y  Y  6  M    -232.27753973874  2.2E-03  3.3E-04  9.7E-03
etot    5  Y  Y  6  M    -232.27763918772  9.9E-05  3.1E-04  4.2E-03
etot    6  N  Y  2  U    -232.27796220270  3.2E-04  3.0E-05  5.7E-04
etot    7  N  Y  2  U    -232.27796589047  3.7E-06  1.3E-05  2.7E-04
etot    8  N  Y  2  U    -232.27796625792  3.7E-07  1.7E-05  1.6E-04
etot    9  N  Y  2  U    -232.27796641680  1.6E-07  1.2E-06  2.1E-05
etot   10  N  N  2  U    -232.27796643119  1.4E-08  0.0E+00  0.0E+00
  
  
 Energy components, in hartrees:
   (A)  Nuclear repulsion............     203.48192164394
   (E)  Total one-electron terms.....    -712.66774965470
   (F)    Electron-nuclear...........    -940.58258402330
   (H)    Kinetic....................     229.68299140962
   (I)  Total two-electron terms.....     276.90786157956
   (J)    Coulomb....................     311.61656221372
   (K)    Exchange+Correlation.......     -34.70870063416
   (L)  Electronic energy............    -435.75988807513  (E+I)
   (M)  -V/T.........................       2.00359982241  (-(A+F+I)/H)
   (N)  Total energy.................    -232.27796643119  (A+L)
  
 SCFE: SCF energy: DFT(b3lyp)      -232.27796643119 hartrees   iterations:  10
  
 
 HOMO energy:    -0.28709
 LUMO energy:    -0.04406
 
  Orbital energies (hartrees): 
   -10.25523   -10.24506   -10.24506   -10.22510   -10.22509   -10.21542
    -0.88827    -0.78158    -0.78043    -0.63978    -0.63772    -0.56115
    -0.50050    -0.48002    -0.45955    -0.45421    -0.40355    -0.37794
    -0.37373    -0.29007    -0.28709    -0.04406    -0.04127     0.00446
     0.07295     0.07349     0.11728     0.13432     0.15594     0.18985
     0.24366
 
  Peak memory usage:    792 Mb
  
  end of program scf
   
 Time(scf)  user:       10.0  user+sys:       10.0  wallclock:       12.3
  
  start of program der1a
  
  Peak memory usage:    710 Mb
  
  end of program der1a
   
 Time(der1a)  user:        0.2  user+sys:        0.2  wallclock:        0.2
  
  start of program rwr
  
  Peak memory usage:    574 Mb
  
  end of program rwr
   
 Time(rwr)  user:        1.0  user+sys:        1.0  wallclock:        1.4
  
  start of program der1b
  
   
  forces (hartrees/bohr) : total     
   
 atom  label           x              y              z
 ---- --------   -------------  -------------  -------------
    1 C1          6.271886E-03  -5.941044E-06  -4.844771E-07
    2 C2          8.293056E-04   5.074186E-03  -1.336197E-07
    3 C3         -1.572729E-03   7.222142E-04   3.739145E-07
    4 C4          5.123644E-04  -2.975851E-05   2.331526E-07
    5 C5         -1.541607E-03  -6.467658E-04   2.902450E-07
    6 C6          7.385696E-04  -5.058004E-03   3.540519E-07
    7 H7         -1.091174E-02   3.217955E-06   1.182470E-07
    8 H8         -4.526928E-03  -1.099519E-02   1.357168E-07
    9 H9          5.008827E-03  -7.284084E-03  -5.724664E-08
   10 H10         4.692323E-03  -2.415756E-06  -1.099170E-07
   11 H11         4.985587E-03   7.235422E-03  -3.791892E-08
   12 H12        -4.502446E-03   1.097528E-02   2.047973E-07
 -------------   -------------  -------------  -------------
     total       -1.658889E-05  -1.183994E-05   8.869458E-07
   
  Peak memory usage:    790 Mb
  
  end of program der1b
   
 Time(der1b)  user:        3.3  user+sys:        3.3  wallclock:        3.5
  
  start of program raman
  
  calculation with applied electric field of
     Ex=-0.02400 Ey= 0.00000 Ez= 0.00000 follows...
  nuclear repulsion energy.......     201.756287423 hartrees
  nuclear electric field energy..      -1.725634221 hartrees
  Peak memory usage:    534 Mb
  
  end of program raman
   
 Time(raman)  user:        0.1  user+sys:        0.1  wallclock:        0.1
  
  start of program rwr
  
  Peak memory usage:    574 Mb
  
  end of program rwr
   
 Time(rwr)  user:        0.9  user+sys:        0.9  wallclock:        1.1
  
  start of program scf
  
 number of electrons..........         42
 number of alpha electrons....         21
 number of beta electrons.....         21
 number of orbitals, total....        120
 number of doubly-occ'd orbs..         21
 number of open shell orbs....          0
 number of occupied orbitals..         21
 number of virtual orbitals...         99
 number of hamiltonians.......          1
 number of shells.............          1
 SCF type: DFT=Becke_3_Parameter/HF+Slater+Becke88+VWN+LYP (B3LYP)
  
       i  u  d  i  g                   
       t  p  i  c  r                                 RMS    maximum
       e  d  i  u  i                       energy  density   DIIS  
       r  t  s  t  d       total energy    change  change    error 
  
etot    1  N  N  5  M    -232.25554536919           3.8E-03  2.9E-02
etot    2  Y  Y  6  M    -232.25553075882 -1.5E-05  1.6E-03  4.2E-02
etot    3  N  Y  2  U    -232.27537411362  2.0E-02  5.5E-04  1.8E-02
etot    4  Y  Y  6  M    -232.27753990311  2.2E-03  3.3E-04  9.7E-03
etot    5  Y  Y  6  M    -232.27763937445  9.9E-05  3.1E-04  4.2E-03
etot    6  N  Y  2  U    -232.27796239810  3.2E-04  3.0E-05  5.7E-04
etot    7  N  Y  2  U    -232.27796608052  3.7E-06  1.3E-05  2.7E-04
etot    8  N  Y  2  U    -232.27796645325  3.7E-07  1.7E-05  1.6E-04
etot    9  N  Y  2  U    -232.27796661934  1.7E-07  1.3E-06  2.3E-05
etot   10  N  N  2  U    -232.27796663435  1.5E-08  0.0E+00  0.0E+00
  
  
 Energy components, in hartrees:
   (A)  Nuclear repulsion............     200.03065320168
   (E)  Total one-electron terms.....    -709.21640865080
   (F)    Electron-nuclear...........    -940.58251513234
   (H)    Kinetic....................     229.68299539656
   (I)  Total two-electron terms.....     276.90778881477
   (J)    Coulomb....................     311.61648879984
   (K)    Exchange+Correlation.......     -34.70869998506
   (L)  Electronic energy............    -432.30861983603  (E+I)
   (M)  -V/T.........................       2.01862602983  (-(A+F+I)/H)
   (N)  Total energy.................    -232.27796663435  (A+L)
  
 SCFE: SCF energy: DFT(b3lyp)      -232.27796663435 hartrees   iterations:  10
  
 
 HOMO energy:    -0.20492
 LUMO energy:     0.03811
 
  Orbital energies (hartrees): 
   -10.17306   -10.16290   -10.16290   -10.14292   -10.14291   -10.13324
    -0.80610    -0.69940    -0.69826    -0.55760    -0.55555    -0.47897
    -0.41833    -0.39784    -0.37738    -0.37205    -0.32138    -0.29578
    -0.29156    -0.20789    -0.20492     0.03811     0.04090     0.08662
     0.15511     0.15565     0.19946     0.21650     0.23813     0.27203
     0.32582
 
  Peak memory usage:    792 Mb
  
  end of program scf
   
 Time(scf)  user:       10.0  user+sys:       10.0  wallclock:       13.6
  
  start of program der1a
  
  Peak memory usage:    710 Mb
  
  end of program der1a
   
 Time(der1a)  user:        0.2  user+sys:        0.2  wallclock:        0.2
  
  start of program rwr
  
  Peak memory usage:    574 Mb
  
  end of program rwr
   
 Time(rwr)  user:        1.0  user+sys:        1.0  wallclock:        1.4
  
  start of program der1b
  
   
  forces (hartrees/bohr) : total     
   
 atom  label           x              y              z
 ---- --------   -------------  -------------  -------------
    1 C1         -5.436915E-04  -7.372470E-06  -4.517258E-07
    2 C2          1.633403E-03   7.190139E-04  -2.037513E-07
    3 C3         -7.653443E-04   5.076445E-03   3.902900E-07
    4 C4         -6.305076E-03  -2.689067E-05   1.754223E-07
    5 C5         -7.313378E-04  -4.998466E-03   2.310308E-07
    6 C6          1.544557E-03  -7.054533E-04   2.226898E-07
    7 H7         -4.695225E-03   3.359280E-06   1.836920E-07
    8 H8         -5.033124E-03  -7.303390E-03   1.658642E-07
    9 H9          4.501382E-03  -1.097554E-02  -6.656599E-08
   10 H10         1.091055E-02  -2.747533E-06  -6.809189E-08
   11 H11         4.477356E-03   1.092515E-02  -3.702846E-08
   12 H12        -5.010127E-03   7.284349E-03   2.557722E-07
 -------------   -------------  -------------  -------------
     total       -1.668072E-05  -1.153474E-05   7.975979E-07
   
  Peak memory usage:    790 Mb
  
  end of program der1b
   
 Time(der1b)  user:        3.3  user+sys:        3.3  wallclock:        3.5
  
  start of program raman
  
  calculation with applied electric field of
     Ex= 0.00000 Ey= 0.02400 Ez= 0.00000 follows...
  nuclear repulsion energy.......     201.756287423 hartrees
  nuclear electric field energy..      -1.254987468 hartrees
  Peak memory usage:    534 Mb
  
  end of program raman
   
 Time(raman)  user:        0.1  user+sys:        0.1  wallclock:        0.1
  
  start of program rwr
  
  Peak memory usage:    574 Mb
  
  end of program rwr
   
 Time(rwr)  user:        1.0  user+sys:        1.0  wallclock:        1.2
  
  start of program scf
  
 number of electrons..........         42
 number of alpha electrons....         21
 number of beta electrons.....         21
 number of orbitals, total....        120
 number of doubly-occ'd orbs..         21
 number of open shell orbs....          0
 number of occupied orbitals..         21
 number of virtual orbitals...         99
 number of hamiltonians.......          1
 number of shells.............          1
 SCF type: DFT=Becke_3_Parameter/HF+Slater+Becke88+VWN+LYP (B3LYP)
  
       i  u  d  i  g                   
       t  p  i  c  r                                 RMS    maximum
       e  d  i  u  i                       energy  density   DIIS  
       r  t  s  t  d       total energy    change  change    error 
  
etot    1  N  N  5  M    -232.25554017862           3.7E-03  2.9E-02
etot    2  Y  Y  6  M    -232.25565172277  1.1E-04  1.6E-03  4.1E-02
etot    3  N  Y  2  U    -232.27538126292  2.0E-02  5.5E-04  1.8E-02
etot    4  Y  Y  6  M    -232.27754060661  2.2E-03  3.2E-04  9.7E-03
etot    5  Y  Y  6  M    -232.27763944960  9.9E-05  3.1E-04  4.2E-03
etot    6  N  Y  2  U    -232.27796245403  3.2E-04  3.0E-05  5.8E-04
etot    7  N  Y  2  U    -232.27796598347  3.5E-06  1.3E-05  2.8E-04
etot    8  N  Y  2  U    -232.27796635320  3.7E-07  1.6E-05  1.6E-04
etot    9  N  Y  2  U    -232.27796654629  1.9E-07  2.2E-06  1.8E-05
etot   10  N  N  2  U    -232.27796654070 -5.6E-09  0.0E+00  0.0E+00
  
  
 Energy components, in hartrees:
   (A)  Nuclear repulsion............     200.50129995463
   (E)  Total one-electron terms.....    -709.68697891587
   (F)    Electron-nuclear...........    -940.58231668289
   (H)    Kinetic....................     229.68287257328
   (I)  Total two-electron terms.....     276.90771242054
   (J)    Coulomb....................     311.61640096941
   (K)    Exchange+Correlation.......     -34.70868854887
   (L)  Electronic energy............    -432.77926649533  (E+I)
   (M)  -V/T.........................       2.01657746230  (-(A+F+I)/H)
   (N)  Total energy.................    -232.27796654070  (A+L)
  
 SCFE: SCF energy: DFT(b3lyp)      -232.27796654070 hartrees   iterations:  10
  
 
 HOMO energy:    -0.21614
 LUMO energy:     0.02689
 
  Orbital energies (hartrees): 
   -10.18182   -10.18131   -10.16398   -10.16398   -10.14731   -10.14679
    -0.81731    -0.71061    -0.70947    -0.56882    -0.56675    -0.49019
    -0.42956    -0.40899    -0.38850    -0.38339    -0.33259    -0.30685
    -0.30288    -0.21909    -0.21614     0.02689     0.02970     0.07635
     0.12789     0.17326     0.18477     0.18825     0.23491     0.25964
     0.31515
 
  Peak memory usage:    792 Mb
  
  end of program scf
   
 Time(scf)  user:       10.0  user+sys:       10.0  wallclock:       24.7
  
  start of program der1a
  
  Peak memory usage:    710 Mb
  
  end of program der1a
   
 Time(der1a)  user:        0.2  user+sys:        0.2  wallclock:        0.2
  
  start of program rwr
  
  Peak memory usage:    574 Mb
  
  end of program rwr
   
 Time(rwr)  user:        1.0  user+sys:        1.0  wallclock:        1.4
  
  start of program der1b
  
   
  forces (hartrees/bohr) : total     
   
 atom  label           x              y              z
 ---- --------   -------------  -------------  -------------
    1 C1          3.176090E-03  -1.714430E-03  -4.888151E-07
    2 C2          4.003105E-03   4.513311E-03  -8.490174E-08
    3 C3         -3.938040E-03   4.516241E-03   3.545789E-07
    4 C4         -3.208854E-03  -1.734621E-03   2.339188E-07
    5 C5          4.061825E-04  -1.388032E-04   2.495353E-07
    6 C6         -4.009037E-04  -1.918227E-04   2.874686E-07
    7 H7         -1.107798E-02   1.354696E-03   1.512685E-07
    8 H8         -6.585354E-03  -9.267144E-03   1.267557E-07
    9 H9          6.558980E-03  -9.246053E-03  -5.164011E-08
   10 H10         1.107440E-02   1.348860E-03  -9.758796E-08
   11 H11         2.805717E-03   5.249629E-03  -4.924471E-08
   12 H12        -2.830667E-03   5.297395E-03   2.725623E-07
 -------------   -------------  -------------  -------------
     total       -1.732244E-05  -1.274195E-05   9.038984E-07
   
  Peak memory usage:    790 Mb
  
  end of program der1b
   
 Time(der1b)  user:        3.3  user+sys:        3.3  wallclock:        3.5
  
  start of program raman
  
  calculation with applied electric field of
     Ex= 0.00000 Ey=-0.02400 Ez= 0.00000 follows...
  nuclear repulsion energy.......     201.756287423 hartrees
  nuclear electric field energy..       1.254987468 hartrees
  Peak memory usage:    534 Mb
  
  end of program raman
   
 Time(raman)  user:        0.1  user+sys:        0.1  wallclock:        0.1
  
  start of program rwr
  
  Peak memory usage:    574 Mb
  
  end of program rwr
   
 Time(rwr)  user:        0.9  user+sys:        0.9  wallclock:        1.4
  
  start of program scf
  
 number of electrons..........         42
 number of alpha electrons....         21
 number of beta electrons.....         21
 number of orbitals, total....        120
 number of doubly-occ'd orbs..         21
 number of open shell orbs....          0
 number of occupied orbitals..         21
 number of virtual orbitals...         99
 number of hamiltonians.......          1
 number of shells.............          1
 SCF type: DFT=Becke_3_Parameter/HF+Slater+Becke88+VWN+LYP (B3LYP)
  
       i  u  d  i  g                   
       t  p  i  c  r                                 RMS    maximum
       e  d  i  u  i                       energy  density   DIIS  
       r  t  s  t  d       total energy    change  change    error 
  
etot    1  N  N  5  M    -232.25554869712           3.8E-03  2.9E-02
etot    2  Y  Y  6  M    -232.25565866700  1.1E-04  1.6E-03  4.1E-02
etot    3  N  Y  2  U    -232.27537414205  2.0E-02  5.5E-04  1.8E-02
etot    4  Y  Y  6  M    -232.27754023412  2.2E-03  3.3E-04  9.7E-03
etot    5  Y  Y  6  M    -232.27764039680  1.0E-04  3.2E-04  4.2E-03
etot    6  N  Y  2  U    -232.27796399640  3.2E-04  3.0E-05  5.8E-04
etot    7  N  Y  2  U    -232.27796758097  3.6E-06  1.3E-05  2.7E-04
etot    8  N  Y  2  U    -232.27796795221  3.7E-07  1.7E-05  1.6E-04
etot    9  N  Y  2  U    -232.27796813951  1.9E-07  2.4E-06  1.8E-05
etot   10  N  N  2  U    -232.27796813457 -4.9E-09  0.0E+00  0.0E+00
  
  
 Energy components, in hartrees:
   (A)  Nuclear repulsion............     203.01127489099
   (E)  Total one-electron terms.....    -712.19685707699
   (F)    Electron-nuclear...........    -940.58220739876
   (H)    Kinetic....................     229.68286151241
   (I)  Total two-electron terms.....     276.90761405143
   (J)    Coulomb....................     311.61629967657
   (K)    Exchange+Correlation.......     -34.70868562514
   (L)  Electronic energy............    -435.28924302556  (E+I)
   (M)  -V/T.........................       2.00564950917  (-(A+F+I)/H)
   (N)  Total energy.................    -232.27796813457  (A+L)
  
 SCFE: SCF energy: DFT(b3lyp)      -232.27796813457 hartrees   iterations:  10
  
 
 HOMO energy:    -0.27590
 LUMO energy:    -0.03287
 
  Orbital energies (hartrees): 
   -10.24159   -10.24108   -10.22375   -10.22373   -10.20707   -10.20656
    -0.87707    -0.77037    -0.76924    -0.62858    -0.62651    -0.54995
    -0.48932    -0.46875    -0.44826    -0.44316    -0.39236    -0.36661
    -0.36265    -0.27885    -0.27590    -0.03287    -0.03006     0.01657
     0.06811     0.11350     0.12501     0.12848     0.17515     0.19989
     0.25538
 
  Peak memory usage:    792 Mb
  
  end of program scf
   
 Time(scf)  user:       10.1  user+sys:       10.1  wallclock:       12.1
  
  start of program der1a
  
  Peak memory usage:    710 Mb
  
  end of program der1a
   
 Time(der1a)  user:        0.2  user+sys:        0.2  wallclock:        0.2
  
  start of program rwr
  
  Peak memory usage:    574 Mb
  
  end of program rwr
   
 Time(rwr)  user:        1.0  user+sys:        1.0  wallclock:       18.2
  
  start of program der1b
  
   
  forces (hartrees/bohr) : total     
   
 atom  label           x              y              z
 ---- --------   -------------  -------------  -------------
    1 C1          3.174407E-03   1.694381E-03  -4.392555E-07
    2 C2         -3.070553E-04   2.069787E-04  -2.381565E-07
    3 C3          3.724158E-04   2.151405E-04   4.003935E-07
    4 C4         -3.210944E-03   1.672308E-03   1.781875E-07
    5 C5         -3.897732E-03  -4.438671E-03   2.788642E-07
    6 C6          3.908416E-03  -4.496295E-03   2.863796E-07
    7 H7         -1.107784E-02  -1.347276E-03   1.343289E-07
    8 H8         -2.853421E-03  -5.314408E-03   1.702671E-07
    9 H9          2.828080E-03  -5.295690E-03  -6.854030E-08
   10 H10         1.107399E-02  -1.353260E-03  -7.700372E-08
   11 H11         6.535370E-03   9.198171E-03  -3.099508E-08
   12 H12        -6.561782E-03   9.249350E-03   2.008064E-07
 -------------   -------------  -------------  -------------
     total       -1.609769E-05  -9.271280E-06   7.952762E-07
   
  Peak memory usage:    790 Mb
  
  end of program der1b
   
 Time(der1b)  user:        3.3  user+sys:        3.3  wallclock:        3.5
  
  start of program raman
  
  calculation with applied electric field of
     Ex= 0.00000 Ey= 0.00000 Ez= 0.02400 follows...
  nuclear repulsion energy.......     201.756287423 hartrees
  nuclear electric field energy..      -3.351007163 hartrees
  Peak memory usage:    534 Mb
  
  end of program raman
   
 Time(raman)  user:        0.1  user+sys:        0.1  wallclock:        0.1
  
  start of program rwr
  
  Peak memory usage:    574 Mb
  
  end of program rwr
   
 Time(rwr)  user:        0.9  user+sys:        0.9  wallclock:        2.2
  
  start of program scf
  
 number of electrons..........         42
 number of alpha electrons....         21
 number of beta electrons.....         21
 number of orbitals, total....        120
 number of doubly-occ'd orbs..         21
 number of open shell orbs....          0
 number of occupied orbitals..         21
 number of virtual orbitals...         99
 number of hamiltonians.......          1
 number of shells.............          1
 SCF type: DFT=Becke_3_Parameter/HF+Slater+Becke88+VWN+LYP (B3LYP)
  
       i  u  d  i  g                   
       t  p  i  c  r                                 RMS    maximum
       e  d  i  u  i                       energy  density   DIIS  
       r  t  s  t  d       total energy    change  change    error 
  
etot    1  N  N  5  M    -232.25554443727           1.7E-03  1.6E-02
etot    2  Y  Y  6  M    -232.25991006540  4.4E-03  3.6E-04  1.3E-02
etot    3  N  Y  2  U    -232.26207175996  2.2E-03  3.1E-04  1.8E-02
etot    4  Y  Y  6  M    -232.26242461379  3.5E-04  9.2E-04  1.3E-02
etot    5  N  Y  2  U    -232.26291986756  5.0E-04  1.2E-04  3.1E-03
etot    6  Y  Y  6  M    -232.26297502895  5.5E-05  3.2E-05  1.1E-03
etot    7  N  Y  2  U    -232.26294924492 -2.6E-05  3.6E-05  6.2E-04
etot    8  N  Y  2  U    -232.26295039626  1.2E-06  1.1E-06  1.8E-05
etot    9  N  N  2  U    -232.26295040482  8.6E-09  0.0E+00  0.0E+00
  
  
 Energy components, in hartrees:
   (A)  Nuclear repulsion............     198.40528025960
   (E)  Total one-electron terms.....    -707.63134771687
   (F)    Electron-nuclear...........    -940.64956630660
   (H)    Kinetic....................     229.67963825973
   (I)  Total two-electron terms.....     276.96311705246
   (J)    Coulomb....................     311.67480151465
   (K)    Exchange+Correlation.......     -34.71168446220
   (L)  Electronic energy............    -430.66823066441  (E+I)
   (M)  -V/T.........................       2.02578327152  (-(A+F+I)/H)
   (N)  Total energy.................    -232.26295040482  (A+L)
  
 SCFE: SCF energy: DFT(b3lyp)      -232.26295040482 hartrees   iterations:   9
  
 
 HOMO energy:    -0.16681
 LUMO energy:     0.07977
 
  Orbital energies (hartrees): 
   -10.11308   -10.11283   -10.11282   -10.11230   -10.11230   -10.11206
    -0.76364    -0.65799    -0.65798    -0.51523    -0.51523    -0.43357
    -0.37606    -0.35738    -0.33471    -0.33470    -0.27821    -0.25931
    -0.25929    -0.16682    -0.16681     0.07977     0.07977     0.16529
     0.21989     0.21990     0.23675     0.25627     0.25627     0.26276
     0.37404
 
  Peak memory usage:    792 Mb
  
  end of program scf
   
 Time(scf)  user:        8.6  user+sys:        8.6  wallclock:       15.0
  
  start of program der1a
  
  Peak memory usage:    710 Mb
  
  end of program der1a
   
 Time(der1a)  user:        0.2  user+sys:        0.2  wallclock:        0.2
  
  start of program rwr
  
  Peak memory usage:    574 Mb
  
  end of program rwr
   
 Time(rwr)  user:        1.0  user+sys:        1.0  wallclock:        1.4
  
  start of program der1b
  
   
  forces (hartrees/bohr) : total     
   
 atom  label           x              y              z
 ---- --------   -------------  -------------  -------------
    1 C1          2.770224E-03  -1.194144E-05  -2.596964E-03
    2 C2          1.433059E-03   2.416078E-03  -2.596623E-03
    3 C3         -1.371152E-03   2.417780E-03  -2.596108E-03
    4 C4         -2.802153E-03  -3.336818E-05  -2.595912E-03
    5 C5         -1.334315E-03  -2.339174E-03  -2.596299E-03
    6 C6          1.338416E-03  -2.399252E-03  -2.595867E-03
    7 H7         -1.104036E-02   3.781516E-06   2.610824E-03
    8 H8         -5.545791E-03  -9.600288E-03   2.610828E-03
    9 H9          5.520874E-03  -9.580869E-03   2.610834E-03
   10 H10         1.103891E-02  -2.099110E-06   2.610445E-03
   11 H11         5.498050E-03   9.534230E-03   2.611019E-03
   12 H12        -5.522784E-03   9.583638E-03   2.611117E-03
 -------------   -------------  -------------  -------------
     total       -1.702470E-05  -1.148439E-05   8.729309E-05
   
  Peak memory usage:    790 Mb
  
  end of program der1b
   
 Time(der1b)  user:        3.5  user+sys:        3.5  wallclock:        3.7
  
  start of program raman
  
  calculation with applied electric field of
     Ex= 0.00000 Ey= 0.00000 Ez=-0.02400 follows...
  nuclear repulsion energy.......     201.756287423 hartrees
  nuclear electric field energy..       3.351007163 hartrees
  Peak memory usage:    534 Mb
  
  end of program raman
   
 Time(raman)  user:        0.1  user+sys:        0.1  wallclock:        0.1
  
  start of program rwr
  
  Peak memory usage:    574 Mb
  
  end of program rwr
   
 Time(rwr)  user:        1.0  user+sys:        1.0  wallclock:        1.2
  
  start of program scf
  
 number of electrons..........         42
 number of alpha electrons....         21
 number of beta electrons.....         21
 number of orbitals, total....        120
 number of doubly-occ'd orbs..         21
 number of open shell orbs....          0
 number of occupied orbitals..         21
 number of virtual orbitals...         99
 number of hamiltonians.......          1
 number of shells.............          1
 SCF type: DFT=Becke_3_Parameter/HF+Slater+Becke88+VWN+LYP (B3LYP)
  
       i  u  d  i  g                   
       t  p  i  c  r                                 RMS    maximum
       e  d  i  u  i                       energy  density   DIIS  
       r  t  s  t  d       total energy    change  change    error 
  
etot    1  N  N  5  M    -232.25554443847           1.7E-03  1.6E-02
etot    2  Y  Y  6  M    -232.25991004376  4.4E-03  3.6E-04  1.3E-02
etot    3  N  Y  2  U    -232.26207176132  2.2E-03  3.1E-04  1.8E-02
etot    4  Y  Y  6  M    -232.26242461577  3.5E-04  9.2E-04  1.3E-02
etot    5  N  Y  2  U    -232.26291986902  5.0E-04  1.2E-04  3.1E-03
etot    6  Y  Y  6  M    -232.26297504187  5.5E-05  3.2E-05  1.1E-03
etot    7  N  Y  2  U    -232.26294924055 -2.6E-05  3.6E-05  6.2E-04
etot    8  N  Y  2  U    -232.26295039889  1.2E-06  1.1E-06  1.8E-05
etot    9  N  N  2  U    -232.26295040746  8.6E-09  0.0E+00  0.0E+00
  
  
 Energy components, in hartrees:
   (A)  Nuclear repulsion............     205.10729458602
   (E)  Total one-electron terms.....    -714.33336200052
   (F)    Electron-nuclear...........    -940.64956637411
   (H)    Kinetic....................     229.67963837084
   (I)  Total two-electron terms.....     276.96311700703
   (J)    Coulomb....................     311.67480146659
   (K)    Exchange+Correlation.......     -34.71168445956
   (L)  Electronic energy............    -437.37024499348  (E+I)
   (M)  -V/T.........................       1.99660343439  (-(A+F+I)/H)
   (N)  Total energy.................    -232.26295040746  (A+L)
  
 SCFE: SCF energy: DFT(b3lyp)      -232.26295040746 hartrees   iterations:   9
  
 
 HOMO energy:    -0.32638
 LUMO energy:    -0.07981
 
  Orbital energies (hartrees): 
   -10.27265   -10.27240   -10.27239   -10.27188   -10.27187   -10.27163
    -0.92322    -0.81756    -0.81755    -0.67481    -0.67480    -0.59314
    -0.53564    -0.51695    -0.49428    -0.49427    -0.43778    -0.41888
    -0.41887    -0.32639    -0.32638    -0.07981    -0.07980     0.00571
     0.06032     0.06033     0.07718     0.09670     0.09670     0.10319
     0.21447
 
  Peak memory usage:    792 Mb
  
  end of program scf
   
 Time(scf)  user:        8.7  user+sys:        8.7  wallclock:       10.5
  
  start of program der1a
  
  Peak memory usage:    710 Mb
  
  end of program der1a
   
 Time(der1a)  user:        0.2  user+sys:        0.2  wallclock:        0.2
  
  start of program rwr
  
  Peak memory usage:    574 Mb
  
  end of program rwr
   
 Time(rwr)  user:        1.0  user+sys:        1.0  wallclock:       17.1
  
  start of program der1b
  
   
  forces (hartrees/bohr) : total     
   
 atom  label           x              y              z
 ---- --------   -------------  -------------  -------------
    1 C1          2.770166E-03  -1.183483E-05   2.595995E-03
    2 C2          1.433169E-03   2.416036E-03   2.596305E-03
    3 C3         -1.371137E-03   2.417793E-03   2.596873E-03
    4 C4         -2.802154E-03  -3.336169E-05   2.596339E-03
    5 C5         -1.334236E-03  -2.339226E-03   2.596850E-03
    6 C6          1.338522E-03  -2.399187E-03   2.596459E-03
    7 H7         -1.104034E-02   3.772705E-06  -2.610531E-03
    8 H8         -5.545775E-03  -9.600304E-03  -2.610530E-03
    9 H9          5.520877E-03  -9.580871E-03  -2.610957E-03
   10 H10         1.103890E-02  -2.097692E-06  -2.610620E-03
   11 H11         5.498052E-03   9.534230E-03  -2.611098E-03
   12 H12        -5.522783E-03   9.583644E-03  -2.610642E-03
 -------------   -------------  -------------  -------------
     total       -1.673991E-05  -1.140675E-05  -8.555743E-05
   
  Peak memory usage:    790 Mb
  
  end of program der1b
   
 Time(der1b)  user:        3.3  user+sys:        3.3  wallclock:        5.0
  
  start of program raman
  
  calculation with applied electric field of
     Ex= 0.01200 Ey= 0.01200 Ez= 0.00000 follows...
  nuclear repulsion energy.......     201.756287423 hartrees
  nuclear electric field energy..       0.235323376 hartrees
  Peak memory usage:    534 Mb
  
  end of program raman
   
 Time(raman)  user:        0.1  user+sys:        0.1  wallclock:        0.1
  
  start of program rwr
  
  Peak memory usage:    574 Mb
  
  end of program rwr
   
 Time(rwr)  user:        1.0  user+sys:        1.0  wallclock:        1.1
  
  start of program scf
  
 number of electrons..........         42
 number of alpha electrons....         21
 number of beta electrons.....         21
 number of orbitals, total....        120
 number of doubly-occ'd orbs..         21
 number of open shell orbs....          0
 number of occupied orbitals..         21
 number of virtual orbitals...         99
 number of hamiltonians.......          1
 number of shells.............          1
 SCF type: DFT=Becke_3_Parameter/HF+Slater+Becke88+VWN+LYP (B3LYP)
  
       i  u  d  i  g                   
       t  p  i  c  r                                 RMS    maximum
       e  d  i  u  i                       energy  density   DIIS  
       r  t  s  t  d       total energy    change  change    error 
  
etot    1  N  N  5  M    -232.25554184259           2.7E-03  1.5E-02
etot    2  Y  Y  6  M    -232.25580101796  2.6E-04  1.2E-03  2.1E-02
etot    3  N  Y  2  U    -232.26536519229  9.6E-03  4.6E-04  1.8E-02
etot    4  Y  Y  6  M    -232.26688719673  1.5E-03  1.4E-04  1.1E-02
etot    5  Y  Y  6  M    -232.26696526654  7.8E-05  5.7E-04  8.2E-03
etot    6  N  Y  2  U    -232.26733761366  3.7E-04  4.0E-05  1.2E-03
etot    7  N  Y  2  U    -232.26734248661  4.9E-06  2.0E-05  6.4E-04
etot    8  N  Y  2  U    -232.26734366217  1.2E-06  2.2E-05  3.3E-04
etot    9  N  Y  2  U    -232.26734409591  4.3E-07  1.2E-06  2.7E-05
etot   10  N  N  2  U    -232.26734411486  1.9E-08  0.0E+00  0.0E+00
  
  
 Energy components, in hartrees:
   (A)  Nuclear repulsion............     201.99161079929
   (E)  Total one-electron terms.....    -711.19820088023
   (F)    Electron-nuclear...........    -940.62427657127
   (H)    Kinetic....................     229.68262833105
   (I)  Total two-electron terms.....     276.93924596608
   (J)    Coulomb....................     311.64991667971
   (K)    Exchange+Correlation.......     -34.71067071363
   (L)  Electronic energy............    -434.25895491415  (E+I)
   (M)  -V/T.........................       2.01013643548  (-(A+F+I)/H)
   (N)  Total energy.................    -232.26734411486  (A+L)
  
 SCFE: SCF energy: DFT(b3lyp)      -232.26734411486 hartrees   iterations:  10
  
 
 HOMO energy:    -0.25177
 LUMO energy:    -0.00692
 
  Orbital energies (hartrees): 
   -10.21233   -10.20859   -10.20221   -10.19490   -10.18865   -10.18506
    -0.85069    -0.74451    -0.74392    -0.60225    -0.60121    -0.52224
    -0.46304    -0.44346    -0.42204    -0.41932    -0.36577    -0.34337
    -0.34125    -0.25328    -0.25177    -0.00692    -0.00551     0.05739
     0.11398     0.13104     0.15232     0.15689     0.18565     0.21266
     0.28318
 
  Peak memory usage:    792 Mb
  
  end of program scf
   
 Time(scf)  user:       10.1  user+sys:       10.1  wallclock:       15.0
  
  start of program der1a
  
  Peak memory usage:    710 Mb
  
  end of program der1a
   
 Time(der1a)  user:        0.2  user+sys:        0.2  wallclock:        0.2
  
  start of program rwr
  
  Peak memory usage:    574 Mb
  
  end of program rwr
   
 Time(rwr)  user:        1.1  user+sys:        1.1  wallclock:        4.2
  
  start of program der1b
  
   
  forces (hartrees/bohr) : total     
   
 atom  label           x              y              z
 ---- --------   -------------  -------------  -------------
    1 C1          4.556995E-03  -1.065084E-03  -4.930300E-07
    2 C2          2.250774E-03   4.651400E-03  -1.094251E-07
    3 C3         -2.864863E-03   2.466528E-03   3.677762E-07
    4 C4         -1.229217E-03  -6.263341E-04   2.351057E-07
    5 C5         -3.691652E-04  -2.930314E-04   2.839829E-07
    6 C6          2.292506E-04  -2.539736E-03   3.267926E-07
    7 H7         -1.180622E-02   9.132236E-04   1.334574E-07
    8 H8         -5.550663E-03  -1.033394E-02   1.324633E-07
    9 H9          6.682199E-03  -9.509287E-03  -5.582331E-08
   10 H10         8.811626E-03   4.003300E-04  -1.040235E-07
   11 H11         3.833626E-03   6.435177E-03  -4.353814E-08
   12 H12        -4.558619E-03   9.491320E-03   2.395819E-07
 -------------   -------------  -------------  -------------
     total       -1.427942E-05  -9.436697E-06   9.133199E-07
   
  Peak memory usage:    790 Mb
  
  end of program der1b
   
 Time(der1b)  user:        3.3  user+sys:        3.3  wallclock:        3.5
  
  start of program raman
  
  calculation with applied electric field of
     Ex=-0.01200 Ey=-0.01200 Ez= 0.00000 follows...
  nuclear repulsion energy.......     201.756287423 hartrees
  nuclear electric field energy..      -0.235323376 hartrees
  Peak memory usage:    534 Mb
  
  end of program raman
   
 Time(raman)  user:        0.1  user+sys:        0.1  wallclock:        0.1
  
  start of program rwr
  
  Peak memory usage:    574 Mb
  
  end of program rwr
   
 Time(rwr)  user:        1.0  user+sys:        1.0  wallclock:        1.2
  
  start of program scf
  
 number of electrons..........         42
 number of alpha electrons....         21
 number of beta electrons.....         21
 number of orbitals, total....        120
 number of doubly-occ'd orbs..         21
 number of open shell orbs....          0
 number of occupied orbitals..         21
 number of virtual orbitals...         99
 number of hamiltonians.......          1
 number of shells.............          1
 SCF type: DFT=Becke_3_Parameter/HF+Slater+Becke88+VWN+LYP (B3LYP)
  
       i  u  d  i  g                   
       t  p  i  c  r                                 RMS    maximum
       e  d  i  u  i                       energy  density   DIIS  
       r  t  s  t  d       total energy    change  change    error 
  
etot    1  N  N  5  M    -232.25554703315           2.7E-03  1.5E-02
etot    2  Y  Y  6  M    -232.25580738643  2.6E-04  1.2E-03  2.1E-02
etot    3  N  Y  2  U    -232.26536117374  9.6E-03  4.6E-04  1.8E-02
etot    4  Y  Y  6  M    -232.26688698994  1.5E-03  1.4E-04  1.1E-02
etot    5  Y  Y  6  M    -232.26696484272  7.8E-05  5.7E-04  8.2E-03
etot    6  N  Y  2  U    -232.26733842210  3.7E-04  4.1E-05  1.2E-03
etot    7  N  Y  2  U    -232.26734330497  4.9E-06  2.1E-05  6.4E-04
etot    8  N  Y  2  U    -232.26734448450  1.2E-06  2.2E-05  3.3E-04
etot    9  N  Y  2  U    -232.26734492278  4.4E-07  8.1E-07  1.6E-05
etot   10  N  N  2  U    -232.26734492972  6.9E-09  0.0E+00  0.0E+00
  
  
 Energy components, in hartrees:
   (A)  Nuclear repulsion............     201.52096404633
   (E)  Total one-electron terms.....    -710.72746595154
   (F)    Electron-nuclear...........    -940.62418372225
   (H)    Kinetic....................     229.68262456357
   (I)  Total two-electron terms.....     276.93915697549
   (J)    Coulomb....................     311.64982576734
   (K)    Exchange+Correlation.......     -34.71066879185
   (L)  Electronic energy............    -433.78830897605  (E+I)
   (M)  -V/T.........................       2.01218556945  (-(A+F+I)/H)
   (N)  Total energy.................    -232.26734492972  (A+L)
  
 SCFE: SCF energy: DFT(b3lyp)      -232.26734492972 hartrees   iterations:  10
  
 
 HOMO energy:    -0.24056
 LUMO energy:     0.00429
 
  Orbital energies (hartrees): 
   -10.20114   -10.19740   -10.19100   -10.18371   -10.17744   -10.17385
    -0.83949    -0.73331    -0.73272    -0.59104    -0.59001    -0.51103
    -0.45184    -0.43226    -0.41084    -0.40812    -0.35457    -0.33217
    -0.33005    -0.24208    -0.24056     0.00429     0.00570     0.06858
     0.12518     0.14224     0.16352     0.16810     0.19686     0.22387
     0.29439
 
  Peak memory usage:    792 Mb
  
  end of program scf
   
 Time(scf)  user:       10.0  user+sys:       10.0  wallclock:       22.0
  
  start of program der1a
  
  Peak memory usage:    710 Mb
  
  end of program der1a
   
 Time(der1a)  user:        0.2  user+sys:        0.2  wallclock:        0.2
  
  start of program rwr
  
  Peak memory usage:    574 Mb
  
  end of program rwr
   
 Time(rwr)  user:        1.0  user+sys:        1.0  wallclock:        1.4
  
  start of program der1b
  
   
  forces (hartrees/bohr) : total     
   
 atom  label           x              y              z
 ---- --------   -------------  -------------  -------------
    1 C1          1.197414E-03   5.831740E-04  -4.614156E-07
    2 C2          4.653397E-04   3.655734E-04  -2.118031E-07
    3 C3         -2.595497E-04   2.559889E-03   3.958477E-07
    4 C4         -4.589962E-03   1.022281E-03   1.781869E-07
    5 C5         -2.149504E-03  -4.574471E-03   2.600546E-07
    6 C6          2.832630E-03  -2.447890E-03   2.592324E-07
    7 H7         -8.814288E-03  -3.988268E-04   1.565125E-07
    8 H8         -3.880784E-03  -6.500239E-03   1.656714E-07
    9 H9          4.556393E-03  -9.489102E-03  -6.855013E-08
   10 H10         1.180443E-02  -9.116260E-04  -7.223876E-08
   11 H11         5.502055E-03   1.026619E-02  -3.586847E-08
   12 H12        -6.683925E-03   9.511549E-03   2.299769E-07
 -------------   -------------  -------------  -------------
     total       -1.975061E-05  -1.350059E-05   7.956065E-07
   
  Peak memory usage:    790 Mb
  
  end of program der1b
   
 Time(der1b)  user:        3.3  user+sys:        3.3  wallclock:        3.5
  
  start of program raman
  
  calculation with applied electric field of
     Ex=-0.01200 Ey= 0.01200 Ez= 0.00000 follows...
  nuclear repulsion energy.......     201.756287423 hartrees
  nuclear electric field energy..      -1.490310845 hartrees
  Peak memory usage:    534 Mb
  
  end of program raman
   
 Time(raman)  user:        0.1  user+sys:        0.1  wallclock:        0.1
  
  start of program rwr
  
  Peak memory usage:    574 Mb
  
  end of program rwr
   
 Time(rwr)  user:        1.0  user+sys:        1.0  wallclock:        1.1
  
  start of program scf
  
 number of electrons..........         42
 number of alpha electrons....         21
 number of beta electrons.....         21
 number of orbitals, total....        120
 number of doubly-occ'd orbs..         21
 number of open shell orbs....          0
 number of occupied orbitals..         21
 number of virtual orbitals...         99
 number of hamiltonians.......          1
 number of shells.............          1
 SCF type: DFT=Becke_3_Parameter/HF+Slater+Becke88+VWN+LYP (B3LYP)
  
       i  u  d  i  g                   
       t  p  i  c  r                                 RMS    maximum
       e  d  i  u  i                       energy  density   DIIS  
       r  t  s  t  d       total energy    change  change    error 
  
etot    1  N  N  5  M    -232.25554277391           2.7E-03  1.5E-02
etot    2  Y  Y  6  M    -232.25580371984  2.6E-04  1.2E-03  2.1E-02
etot    3  N  Y  2  U    -232.26536486374  9.6E-03  4.6E-04  1.8E-02
etot    4  Y  Y  6  M    -232.26688740455  1.5E-03  1.4E-04  1.1E-02
etot    5  Y  Y  6  M    -232.26696541246  7.8E-05  5.7E-04  8.2E-03
etot    6  N  Y  2  U    -232.26733785419  3.7E-04  4.0E-05  1.2E-03
etot    7  N  Y  2  U    -232.26734269293  4.8E-06  2.0E-05  6.4E-04
etot    8  N  Y  2  U    -232.26734385932  1.2E-06  2.2E-05  3.3E-04
etot    9  N  Y  2  U    -232.26734429683  4.4E-07  1.2E-06  2.9E-05
etot   10  N  N  2  U    -232.26734431684  2.0E-08  0.0E+00  0.0E+00
  
  
 Energy components, in hartrees:
   (A)  Nuclear repulsion............     200.26597657815
   (E)  Total one-electron terms.....    -709.47252973904
   (F)    Electron-nuclear...........    -940.62424129804
   (H)    Kinetic....................     229.68263046855
   (I)  Total two-electron terms.....     276.93920884405
   (J)    Coulomb....................     311.64987924082
   (K)    Exchange+Correlation.......     -34.71067039677
   (L)  Electronic energy............    -432.53332089499  (E+I)
   (M)  -V/T.........................       2.01764954943  (-(A+F+I)/H)
   (N)  Total energy.................    -232.26734431684  (A+L)
  
 SCFE: SCF energy: DFT(b3lyp)      -232.26734431684 hartrees   iterations:  10
  
 
 HOMO energy:    -0.21069
 LUMO energy:     0.03417
 
  Orbital energies (hartrees): 
   -10.17126   -10.16751   -10.16111   -10.15383   -10.14756   -10.14396
    -0.80960    -0.70342    -0.70284    -0.56116    -0.56013    -0.48115
    -0.42196    -0.40237    -0.38095    -0.37824    -0.32469    -0.30229
    -0.30016    -0.21219    -0.21069     0.03417     0.03557     0.09847
     0.15506     0.17213     0.19341     0.19797     0.22674     0.25375
     0.32426
 
  Peak memory usage:    792 Mb
  
  end of program scf
   
 Time(scf)  user:       10.0  user+sys:       10.0  wallclock:       13.5
  
  start of program der1a
  
  Peak memory usage:    710 Mb
  
  end of program der1a
   
 Time(der1a)  user:        0.2  user+sys:        0.2  wallclock:        0.2
  
  start of program rwr
  
  Peak memory usage:    574 Mb
  
  end of program rwr
   
 Time(rwr)  user:        1.0  user+sys:        1.0  wallclock:        1.4
  
  start of program der1b
  
   
  forces (hartrees/bohr) : total     
   
 atom  label           x              y              z
 ---- --------   -------------  -------------  -------------
    1 C1          1.198144E-03  -6.054097E-04  -4.916415E-07
    2 C2          2.926645E-03   2.464855E-03  -1.320158E-07
    3 C3         -2.187652E-03   4.652891E-03   3.687400E-07
    4 C4         -4.589184E-03  -1.085753E-03   2.117462E-07
    5 C5         -2.238589E-04  -2.481668E-03   2.454151E-07
    6 C6          3.716406E-04  -3.506102E-04   2.593218E-07
    7 H7         -8.814054E-03   4.062474E-04   1.695207E-07
    8 H8         -6.707229E-03  -9.529170E-03   1.407726E-07
    9 H9          5.525093E-03  -1.031383E-02  -5.995240E-08
   10 H10         1.180467E-02   9.072734E-04  -8.303986E-08
   11 H11         4.533809E-03   9.442289E-03  -4.455018E-08
   12 H12        -3.858090E-03   6.483588E-03   2.688756E-07
 -------------   -------------  -------------  -------------
     total       -2.006800E-05  -9.300590E-06   8.531923E-07
   
  Peak memory usage:    790 Mb
  
  end of program der1b
   
 Time(der1b)  user:        3.5  user+sys:        3.5  wallclock:        3.6
  
  start of program raman
  
  calculation with applied electric field of
     Ex= 0.01200 Ey=-0.01200 Ez= 0.00000 follows...
  nuclear repulsion energy.......     201.756287423 hartrees
  nuclear electric field energy..       1.490310845 hartrees
  Peak memory usage:    534 Mb
  
  end of program raman
   
 Time(raman)  user:        0.1  user+sys:        0.1  wallclock:        0.1
  
  start of program rwr
  
  Peak memory usage:    574 Mb
  
  end of program rwr
   
 Time(rwr)  user:        1.0  user+sys:        1.0  wallclock:        1.2
  
  start of program scf
  
 number of electrons..........         42
 number of alpha electrons....         21
 number of beta electrons.....         21
 number of orbitals, total....        120
 number of doubly-occ'd orbs..         21
 number of open shell orbs....          0
 number of occupied orbitals..         21
 number of virtual orbitals...         99
 number of hamiltonians.......          1
 number of shells.............          1
 SCF type: DFT=Becke_3_Parameter/HF+Slater+Becke88+VWN+LYP (B3LYP)
  
       i  u  d  i  g                   
       t  p  i  c  r                                 RMS    maximum
       e  d  i  u  i                       energy  density   DIIS  
       r  t  s  t  d       total energy    change  change    error 
  
etot    1  N  N  5  M    -232.25554610184           2.7E-03  1.5E-02
etot    2  Y  Y  6  M    -232.25580443178  2.6E-04  1.2E-03  2.1E-02
etot    3  N  Y  2  U    -232.26536164301  9.6E-03  4.6E-04  1.8E-02
etot    4  Y  Y  6  M    -232.26688708165  1.5E-03  1.4E-04  1.1E-02
etot    5  Y  Y  6  M    -232.26696498589  7.8E-05  5.7E-04  8.2E-03
etot    6  N  Y  2  U    -232.26733852271  3.7E-04  4.1E-05  1.2E-03
etot    7  N  Y  2  U    -232.26734342445  4.9E-06  2.1E-05  6.4E-04
etot    8  N  Y  2  U    -232.26734460516  1.2E-06  2.2E-05  3.2E-04
etot    9  N  Y  2  U    -232.26734501718  4.1E-07  7.8E-07  1.6E-05
etot   10  N  N  2  U    -232.26734502334  6.2E-09  0.0E+00  0.0E+00
  
  
 Energy components, in hartrees:
   (A)  Nuclear repulsion............     203.24659826747
   (E)  Total one-electron terms.....    -712.45313563307
   (F)    Electron-nuclear...........    -940.62421680780
   (H)    Kinetic....................     229.68262231843
   (I)  Total two-electron terms.....     276.93919234226
   (J)    Coulomb....................     311.64986136805
   (K)    Exchange+Correlation.......     -34.71066902579
   (L)  Electronic energy............    -435.51394329081  (E+I)
   (M)  -V/T.........................       2.00467245432  (-(A+F+I)/H)
   (N)  Total energy.................    -232.26734502334  (A+L)
  
 SCFE: SCF energy: DFT(b3lyp)      -232.26734502334 hartrees   iterations:  10
  
 
 HOMO energy:    -0.28166
 LUMO energy:    -0.03679
 
  Orbital energies (hartrees): 
   -10.24222   -10.23848   -10.23209   -10.22478   -10.21853   -10.21494
    -0.88057    -0.77438    -0.77381    -0.63213    -0.63110    -0.55212
    -0.49292    -0.47334    -0.45192    -0.44921    -0.39566    -0.37326
    -0.37113    -0.28316    -0.28166    -0.03679    -0.03539     0.02750
     0.08410     0.10115     0.12244     0.12702     0.15578     0.18278
     0.25330
 
  Peak memory usage:    792 Mb
  
  end of program scf
   
 Time(scf)  user:       10.1  user+sys:       10.1  wallclock:       12.1
  
  start of program der1a
  
  Peak memory usage:    710 Mb
  
  end of program der1a
   
 Time(der1a)  user:        0.2  user+sys:        0.2  wallclock:        7.6
  
  start of program rwr
  
  Peak memory usage:    574 Mb
  
  end of program rwr
   
 Time(rwr)  user:        1.0  user+sys:        1.0  wallclock:        1.4
  
  start of program der1b
  
   
  forces (hartrees/bohr) : total     
   
 atom  label           x              y              z
 ---- --------   -------------  -------------  -------------
    1 C1          4.556347E-03   1.044284E-03  -4.751139E-07
    2 C2          3.229047E-04   2.556829E-03  -1.774039E-07
    3 C3         -4.034809E-04   3.692706E-04   3.875430E-07
    4 C4         -1.230223E-03   5.608711E-04   2.109474E-07
    5 C5         -2.827822E-03  -2.387785E-03   2.885593E-07
    6 C6          2.156380E-03  -4.634997E-03   3.222115E-07
    7 H7         -1.180584E-02  -9.057528E-04   1.274641E-07
    8 H8         -4.581584E-03  -9.508323E-03   1.506663E-07
    9 H9          3.856421E-03  -6.481441E-03  -6.307798E-08
   10 H10         8.812005E-03  -4.046715E-04  -9.319664E-08
   11 H11         6.658823E-03   9.461574E-03  -3.527863E-08
   12 H12        -5.527250E-03   1.031649E-02   2.051269E-07
 -------------   -------------  -------------  -------------
     total       -1.331576E-05  -1.365115E-05   8.484474E-07
   
  Peak memory usage:    790 Mb
  
  end of program der1b
   
 Time(der1b)  user:        3.3  user+sys:        3.3  wallclock:        3.5
  
  start of program raman
  
  calculation with applied electric field of
     Ex= 0.01200 Ey= 0.00000 Ez= 0.01200 follows...
  nuclear repulsion energy.......     201.756287423 hartrees
  nuclear electric field energy..      -0.812686471 hartrees
  Peak memory usage:    534 Mb
  
  end of program raman
   
 Time(raman)  user:        0.1  user+sys:        0.1  wallclock:        0.1
  
  start of program rwr
  
  Peak memory usage:    574 Mb
  
  end of program rwr
   
 Time(rwr)  user:        1.0  user+sys:        1.0  wallclock:        1.1
  
  start of program scf
  
 number of electrons..........         42
 number of alpha electrons....         21
 number of beta electrons.....         21
 number of orbitals, total....        120
 number of doubly-occ'd orbs..         21
 number of open shell orbs....          0
 number of occupied orbitals..         21
 number of virtual orbitals...         99
 number of hamiltonians.......          1
 number of shells.............          1
 SCF type: DFT=Becke_3_Parameter/HF+Slater+Becke88+VWN+LYP (B3LYP)
  
       i  u  d  i  g                   
       t  p  i  c  r                                 RMS    maximum
       e  d  i  u  i                       energy  density   DIIS  
       r  t  s  t  d       total energy    change  change    error 
  
etot    1  N  N  5  M    -232.25554397191           2.1E-03  1.5E-02
etot    2  Y  Y  6  M    -232.25682691589  1.3E-03  9.5E-04  2.1E-02
etot    3  N  Y  2  U    -232.26148032318  4.7E-03  4.3E-04  1.8E-02
etot    4  Y  Y  6  M    -232.26310286107  1.6E-03  1.6E-05  1.2E-02
etot    5  N  Y  2  U    -232.26320209155  9.9E-05  1.7E-04  1.2E-02
etot    6  Y  Y  6  M    -232.26328027817  7.8E-05  6.8E-04  9.0E-03
etot    7  N  Y  2  U    -232.26357228879  2.9E-04  1.0E-04  2.6E-03
etot    8  Y  Y  6  M    -232.26361554899  4.3E-05  3.3E-05  8.5E-04
etot    9  N  Y  2  U    -232.26359192706 -2.4E-05  2.0E-05  3.0E-04
etot   10  N  Y  2  U    -232.26359226631  3.4E-07  4.6E-07  4.7E-05
etot   11  N  N  2  U    -232.26359226780  1.5E-09  0.0E+00  0.0E+00
  
  
 Energy components, in hartrees:
   (A)  Nuclear repulsion............     200.94360095177
   (E)  Total one-electron terms.....    -710.16011119300
   (F)    Electron-nuclear...........    -940.64034278313
   (H)    Kinetic....................     229.68125716040
   (I)  Total two-electron terms.....     276.95291797343
   (J)    Coulomb....................     311.66430188194
   (K)    Exchange+Correlation.......     -34.71138390851
   (L)  Electronic energy............    -433.20719321957  (E+I)
   (M)  -V/T.........................       2.01472174778  (-(A+F+I)/H)
   (N)  Total energy.................    -232.26359226780  (A+L)
  
 SCFE: SCF energy: DFT(b3lyp)      -232.26359226780 hartrees   iterations:  11
  
 
 HOMO energy:    -0.22697
 LUMO energy:     0.01878
 
  Orbital energies (hartrees): 
   -10.18328   -10.17822   -10.17820   -10.16826   -10.16824   -10.16329
    -0.82480    -0.71888    -0.71858    -0.57638    -0.57586    -0.49559
    -0.43719    -0.41809    -0.39609    -0.39468    -0.33970    -0.31902
    -0.31791    -0.22773    -0.22697     0.01878     0.01948     0.09249
     0.15082     0.15649     0.17691     0.18274     0.20338     0.22715
     0.31057
 
  Peak memory usage:    792 Mb
  
  end of program scf
   
 Time(scf)  user:       10.3  user+sys:       10.3  wallclock:       12.5
  
  start of program der1a
  
  Peak memory usage:    710 Mb
  
  end of program der1a
   
 Time(der1a)  user:        0.2  user+sys:        0.2  wallclock:        0.2
  
  start of program rwr
  
  Peak memory usage:    574 Mb
  
  end of program rwr
   
 Time(rwr)  user:        1.0  user+sys:        1.0  wallclock:        1.4
  
  start of program der1b
  
   
  forces (hartrees/bohr) : total     
   
 atom  label           x              y              z
 ---- --------   -------------  -------------  -------------
    1 C1          4.453319E-03  -7.963842E-06  -8.162018E-04
    2 C2          1.167748E-03   3.610277E-03  -1.058961E-03
    3 C3         -1.528628E-03   1.441846E-03  -1.523541E-03
    4 C4         -1.141247E-03  -3.052669E-05  -1.745766E-03
    5 C5         -1.496748E-03  -1.364837E-03  -1.523878E-03
    6 C6          1.076933E-03  -3.593773E-03  -1.058546E-03
    7 H7         -1.180264E-02   3.301071E-06   1.550829E-03
    8 H8         -5.259268E-03  -1.047559E-02   1.433703E-03
    9 H9          5.491086E-03  -8.595903E-03   1.167510E-03
   10 H10         8.794512E-03  -2.433686E-06   1.016703E-03
   11 H11         5.467707E-03   8.547416E-03   1.167705E-03
   12 H12        -5.235221E-03   1.045649E-02   1.433899E-03
 -------------   -------------  -------------  -------------
     total       -1.244080E-05  -1.170328E-05   4.345556E-05
   
  Peak memory usage:    790 Mb
  
  end of program der1b
   
 Time(der1b)  user:        3.3  user+sys:        3.3  wallclock:        3.6
  
  start of program raman
  
  calculation with applied electric field of
     Ex=-0.01200 Ey= 0.00000 Ez=-0.01200 follows...
  nuclear repulsion energy.......     201.756287423 hartrees
  nuclear electric field energy..       0.812686471 hartrees
  Peak memory usage:    534 Mb
  
  end of program raman
   
 Time(raman)  user:        0.1  user+sys:        0.1  wallclock:        0.1
  
  start of program rwr
  
  Peak memory usage:    574 Mb
  
  end of program rwr
   
 Time(rwr)  user:        1.0  user+sys:        1.0  wallclock:        1.1
  
  start of program scf
  
 number of electrons..........         42
 number of alpha electrons....         21
 number of beta electrons.....         21
 number of orbitals, total....        120
 number of doubly-occ'd orbs..         21
 number of open shell orbs....          0
 number of occupied orbitals..         21
 number of virtual orbitals...         99
 number of hamiltonians.......          1
 number of shells.............          1
 SCF type: DFT=Becke_3_Parameter/HF+Slater+Becke88+VWN+LYP (B3LYP)
  
       i  u  d  i  g                   
       t  p  i  c  r                                 RMS    maximum
       e  d  i  u  i                       energy  density   DIIS  
       r  t  s  t  d       total energy    change  change    error 
  
etot    1  N  N  5  M    -232.25554490383           2.1E-03  1.5E-02
etot    2  Y  Y  6  M    -232.25682943411  1.3E-03  9.5E-04  2.1E-02
etot    3  N  Y  2  U    -232.26147994391  4.7E-03  4.3E-04  1.8E-02
etot    4  Y  Y  6  M    -232.26310275955  1.6E-03  1.6E-05  1.2E-02
etot    5  N  Y  2  U    -232.26320188876  9.9E-05  1.7E-04  1.2E-02
etot    6  Y  Y  6  M    -232.26328004065  7.8E-05  6.8E-04  9.0E-03
etot    7  N  Y  2  U    -232.26357239283  2.9E-04  1.0E-04  2.6E-03
etot    8  Y  Y  6  M    -232.26361551953  4.3E-05  3.3E-05  8.5E-04
etot    9  N  Y  2  U    -232.26359200369 -2.4E-05  2.0E-05  3.0E-04
etot   10  N  Y  2  U    -232.26359236347  3.6E-07  4.8E-07  4.7E-05
etot   11  N  N  2  U    -232.26359236505  1.6E-09  0.0E+00  0.0E+00
  
  
 Energy components, in hartrees:
   (A)  Nuclear repulsion............     202.56897389385
   (E)  Total one-electron terms.....    -711.78544388345
   (F)    Electron-nuclear...........    -940.64030122383
   (H)    Kinetic....................     229.68125598012
   (I)  Total two-electron terms.....     276.95287762455
   (J)    Coulomb....................     311.66426083079
   (K)    Exchange+Correlation.......     -34.71138320624
   (L)  Electronic energy............    -434.83256625890  (E+I)
   (M)  -V/T.........................       2.00764510686  (-(A+F+I)/H)
   (N)  Total energy.................    -232.26359236505  (A+L)
  
 SCFE: SCF energy: DFT(b3lyp)      -232.26359236505 hartrees   iterations:  11
  
 
 HOMO energy:    -0.26567
 LUMO energy:    -0.01992
 
  Orbital energies (hartrees): 
   -10.22199   -10.21693   -10.21691   -10.20695   -10.20693   -10.20199
    -0.86350    -0.75758    -0.75728    -0.61508    -0.61456    -0.53429
    -0.47589    -0.45679    -0.43479    -0.43339    -0.37840    -0.35772
    -0.35661    -0.26643    -0.26567    -0.01992    -0.01922     0.05378
     0.11211     0.11779     0.13821     0.14404     0.16469     0.18846
     0.27186
 
  Peak memory usage:    792 Mb
  
  end of program scf
   
 Time(scf)  user:       10.4  user+sys:       10.4  wallclock:       12.5
  
  start of program der1a
  
  Peak memory usage:    710 Mb
  
  end of program der1a
   
 Time(der1a)  user:        0.2  user+sys:        0.2  wallclock:        0.2
  
  start of program rwr
  
  Peak memory usage:    574 Mb
  
  end of program rwr
   
 Time(rwr)  user:        1.0  user+sys:        1.0  wallclock:        1.4
  
  start of program der1b
  
   
  forces (hartrees/bohr) : total     
   
 atom  label           x              y              z
 ---- --------   -------------  -------------  -------------
    1 C1          1.109265E-03  -8.471722E-06   1.745700E-03
    2 C2          1.590406E-03   1.439057E-03   1.523642E-03
    3 C3         -1.104265E-03   3.612551E-03   1.059142E-03
    4 C4         -4.486223E-03  -2.914651E-05   8.158319E-04
    5 C5         -1.071019E-03  -3.534295E-03   1.059323E-03
    6 C6          1.500580E-03  -1.423858E-03   1.524168E-03
    7 H7         -8.796880E-03   3.384412E-06  -1.016722E-03
    8 H8         -5.515842E-03  -8.615365E-03  -1.167259E-03
    9 H9          5.233853E-03  -1.045593E-02  -1.433690E-03
   10 H10         1.180109E-02  -2.617619E-06  -1.550732E-03
   11 H11         5.210153E-03   1.040660E-02  -1.433781E-03
   12 H12        -5.492458E-03   8.596604E-03  -1.167363E-03
 -------------   -------------  -------------  -------------
     total       -2.134357E-05  -1.149754E-05  -4.174054E-05
   
  Peak memory usage:    790 Mb
  
  end of program der1b
   
 Time(der1b)  user:        3.3  user+sys:        3.3  wallclock:        3.5
  
  start of program raman
  
  calculation with applied electric field of
     Ex=-0.01200 Ey= 0.00000 Ez= 0.01200 follows...
  nuclear repulsion energy.......     201.756287423 hartrees
  nuclear electric field energy..      -2.538320692 hartrees
  Peak memory usage:    534 Mb
  
  end of program raman
   
 Time(raman)  user:        0.1  user+sys:        0.1  wallclock:        0.1
  
  start of program rwr
  
  Peak memory usage:    574 Mb
  
  end of program rwr
   
 Time(rwr)  user:        0.9  user+sys:        0.9  wallclock:        1.1
  
  start of program scf
  
 number of electrons..........         42
 number of alpha electrons....         21
 number of beta electrons.....         21
 number of orbitals, total....        120
 number of doubly-occ'd orbs..         21
 number of open shell orbs....          0
 number of occupied orbitals..         21
 number of virtual orbitals...         99
 number of hamiltonians.......          1
 number of shells.............          1
 SCF type: DFT=Becke_3_Parameter/HF+Slater+Becke88+VWN+LYP (B3LYP)
  
       i  u  d  i  g                   
       t  p  i  c  r                                 RMS    maximum
       e  d  i  u  i                       energy  density   DIIS  
       r  t  s  t  d       total energy    change  change    error 
  
etot    1  N  N  5  M    -232.25554490323           2.1E-03  1.5E-02
etot    2  Y  Y  6  M    -232.25682943757  1.3E-03  9.5E-04  2.1E-02
etot    3  N  Y  2  U    -232.26147995055  4.7E-03  4.3E-04  1.8E-02
etot    4  Y  Y  6  M    -232.26310276744  1.6E-03  1.6E-05  1.2E-02
etot    5  N  Y  2  U    -232.26320189517  9.9E-05  1.7E-04  1.2E-02
etot    6  Y  Y  6  M    -232.26328004795  7.8E-05  6.8E-04  9.0E-03
etot    7  N  Y  2  U    -232.26357240080  2.9E-04  1.0E-04  2.6E-03
etot    8  Y  Y  6  M    -232.26361553034  4.3E-05  3.3E-05  8.5E-04
etot    9  N  Y  2  U    -232.26359200744 -2.4E-05  2.0E-05  3.0E-04
etot   10  N  Y  2  U    -232.26359236843  3.6E-07  4.8E-07  4.7E-05
etot   11  N  N  2  U    -232.26359237000  1.6E-09  0.0E+00  0.0E+00
  
  
 Energy components, in hartrees:
   (A)  Nuclear repulsion............     199.21796673064
   (E)  Total one-electron terms.....    -708.43443690075
   (F)    Electron-nuclear...........    -940.64030111231
   (H)    Kinetic....................     229.68125569241
   (I)  Total two-electron terms.....     276.95287780011
   (J)    Coulomb....................     311.66426100300
   (K)    Exchange+Correlation.......     -34.71138320288
   (L)  Electronic energy............    -431.48155910064  (E+I)
   (M)  -V/T.........................       2.02223492370  (-(A+F+I)/H)
   (N)  Total energy.................    -232.26359237000  (A+L)
  
[...]
   (M)  -V/T.........................       2.00662049641  (-(A+F+I)/H)
   (N)  Total energy.................    -232.26359198106  (A+L)
  
 SCFE: SCF energy: DFT(b3lyp)      -232.26359198106 hartrees   iterations:  11
  
 
 HOMO energy:    -0.27128
 LUMO energy:    -0.02553
 
  Orbital energies (hartrees): 
   -10.22647   -10.22596   -10.21751   -10.21750   -10.20919   -10.20867
    -0.86910    -0.76317    -0.76289    -0.62068    -0.62016    -0.53989
    -0.48149    -0.46239    -0.44037    -0.43901    -0.38400    -0.36330
    -0.36223    -0.27203    -0.27128    -0.02553    -0.02482     0.04824
     0.10345     0.11728     0.13260     0.13530     0.16036     0.18264
     0.26631
 
  Peak memory usage:    792 Mb
  
  end of program scf
   
 Time(scf)  user:       10.4  user+sys:       10.4  wallclock:       12.4
  
  start of program der1a
  
  Peak memory usage:    710 Mb
  
  end of program der1a
   
 Time(der1a)  user:        0.2  user+sys:        0.2  wallclock:        0.2
  
  start of program rwr
  
  Peak memory usage:    574 Mb
  
  end of program rwr
   
 Time(rwr)  user:        1.0  user+sys:        1.0  wallclock:        1.4
  
  start of program der1b
  
   
  forces (hartrees/bohr) : total     
   
 atom  label           x              y              z
 ---- --------   -------------  -------------  -------------
    1 C1          2.859165E-03  -8.547091E-04   1.294353E-03
    2 C2          2.616023E-03   3.438250E-03   8.814638E-04
    3 C3         -2.553169E-03   3.440071E-03   8.819956E-04
    4 C4         -2.891024E-03  -8.755491E-04   1.294958E-03
    5 C5         -3.533170E-04  -1.272152E-03   1.687813E-03
    6 C6          3.574770E-04  -1.329608E-03   1.687511E-03
    7 H7         -1.111721E-02   6.729894E-04  -1.305882E-03
    8 H8         -6.305537E-03  -1.003915E-02  -1.520196E-03
    9 H9          6.280113E-03  -1.001907E-02  -1.520468E-03
   10 H10         1.111508E-02   6.670816E-04  -1.306071E-03
   11 H11         4.392376E-03   8.057663E-03  -1.058832E-03
   12 H12        -4.417096E-03   8.106352E-03  -1.058330E-03
 -------------   -------------  -------------  -------------
     total       -1.712183E-05  -7.832085E-06  -4.168369E-05
   
  Peak memory usage:    790 Mb
  
  end of program der1b
   
 Time(der1b)  user:        3.3  user+sys:        3.3  wallclock:        3.6
  
  start of program raman
  
   gradient of polarizability calculations complete...
  Peak memory usage:    534 Mb
  
  end of program raman
   
 Time(raman)  user:        0.1  user+sys:        0.1  wallclock:        0.1
  
  start of program freq
  
   
  harmonic frequencies in cm**-1, reduced masses in amu,
  force constants in mDyne/A, and
  normal modes in cartesian coordinates:
  IR intensities in km/mol
  Raman intensities in Angstrom^4
  
  frequencies       438.23   438.24   625.73   625.82   722.45   783.29
  intensities         0.00     0.00     0.00     0.00     0.00    73.76
  reduc. mass         1.70     1.70     2.08     2.08     1.39     0.15
  force const         0.19     0.19     0.48     0.48     0.43     0.06
  Raman Int.          0.02     0.00     4.19     3.93     0.01     0.00
    C1       X     0.00001  0.00000 -0.00848  0.14614  0.00001  0.00000
    C1       Y    -0.00000  0.00000 -0.06372 -0.00370  0.00000 -0.00000
    C1       Z     0.14269 -0.02139 -0.00001  0.00001 -0.10752 -0.03282
    C2       X    -0.00000  0.00000 -0.09152  0.00597  0.00000 -0.00000
    C2       Y    -0.00000 -0.00000 -0.08841 -0.09632 -0.00001 -0.00000
    C2       Z    -0.05282  0.13429  0.00001 -0.00002  0.10753 -0.03271
    C3       X    -0.00001  0.00000 -0.09022 -0.01652  0.00000 -0.00000
    C3       Y     0.00000 -0.00000  0.09897 -0.08543 -0.00002  0.00000
    C3       Z    -0.08988 -0.11290 -0.00000  0.00002 -0.10751 -0.03279
    C4       X    -0.00000 -0.00001  0.00849 -0.14615 -0.00002  0.00000
    C4       Y     0.00000 -0.00000  0.06372  0.00370 -0.00000  0.00000
    C4       Z     0.14271 -0.02139  0.00000 -0.00002  0.10751 -0.03282
    C5       X     0.00000 -0.00000  0.09152 -0.00598 -0.00000 -0.00000
    C5       Y     0.00000  0.00000  0.08841  0.09632  0.00001 -0.00000
    C5       Z    -0.05283  0.13426 -0.00000  0.00001 -0.10751 -0.03291
    C6       X     0.00000  0.00000  0.09022  0.01653 -0.00000 -0.00000
    C6       Y     0.00000  0.00000 -0.09896  0.08544  0.00002 -0.00000
    C6       Z    -0.08987 -0.11288  0.00001 -0.00001  0.10753 -0.03279
    H7       X     0.00001  0.00000 -0.00846  0.14569  0.00001  0.00000
    H7       Y     0.00000 -0.00000  0.07571  0.00440 -0.00000  0.00000
    H7       Z     0.28464 -0.04267 -0.00001  0.00002 -0.16663  0.39046
    H8       X    -0.00000 -0.00000 -0.02494 -0.09501 -0.00001 -0.00000
    H8       Y    -0.00000  0.00000 -0.12643 -0.03775 -0.00000  0.00000
    H8       Z    -0.10534  0.26775  0.00001 -0.00001  0.16642  0.39007
    H9       X    -0.00000  0.00000 -0.03575  0.09152  0.00001 -0.00000
    H9       Y     0.00000 -0.00000  0.12996 -0.02284 -0.00001  0.00000
    H9       Z    -0.17924 -0.22515 -0.00000  0.00003 -0.16651  0.39041
    H10      X    -0.00000 -0.00001  0.00846 -0.14570 -0.00002  0.00000
    H10      Y    -0.00000  0.00000 -0.07571 -0.00439  0.00000 -0.00000
    H10      Z     0.28466 -0.04263 -0.00001 -0.00003  0.16648  0.39073
    H11      X     0.00000  0.00000  0.02490  0.09508  0.00001 -0.00000
    H11      Y     0.00000 -0.00000  0.12645  0.03770  0.00000  0.00000
    H11      Z    -0.10537  0.26791 -0.00000  0.00001 -0.16663  0.39116
    H12      X    -0.00000 -0.00000  0.03576 -0.09151 -0.00001 -0.00000
    H12      Y    -0.00000  0.00000 -0.12995  0.02284  0.00001 -0.00000
    H12      Z    -0.17922 -0.22516  0.00001  0.00000  0.16647  0.39071
  
  frequencies       927.76   927.81   996.57  1012.69  1025.15  1025.18
  intensities         0.00     0.00     0.00     0.00     0.00     0.00
  reduc. mass         0.29     0.29     1.65     1.71     0.33     0.33
  force const         0.15     0.15     0.97     1.03     0.20     0.20
  Raman Int.          7.23     7.23    13.84     0.00     0.04     0.00
    C1       X    -0.00000 -0.00000 -0.11234  0.11330 -0.00003 -0.00002
    C1       Y     0.00000 -0.00000  0.00001  0.00000 -0.00000 -0.00000
    C1       Z     0.06698  0.03729 -0.00001  0.00002  0.06300  0.05451
    C2       X    -0.00000  0.00000 -0.05607 -0.05664  0.00002  0.00000
    C2       Y    -0.00001  0.00000 -0.09728 -0.09811  0.00003  0.00001
    C2       Z     0.06565 -0.03925 -0.00000 -0.00002 -0.07873  0.02750
    C3       X     0.00000  0.00000  0.05610 -0.05665  0.00001  0.00001
    C3       Y    -0.00001 -0.00000 -0.09721  0.09813 -0.00003 -0.00002
    C3       Z    -0.00103 -0.07663  0.00001 -0.00001  0.01538 -0.08187
    C4       X     0.00000 -0.00000  0.11230  0.11329 -0.00002 -0.00000
    C4       Y     0.00000  0.00000 -0.00001 -0.00001 -0.00000 -0.00000
    C4       Z    -0.06681 -0.03736 -0.00000  0.00002  0.06338  0.05435
    C5       X     0.00000  0.00000  0.05623 -0.05665  0.00002  0.00001
    C5       Y     0.00001  0.00000  0.09724 -0.09812  0.00003  0.00002
    C5       Z    -0.06587  0.03934  0.00000 -0.00002 -0.07875  0.02751
    C6       X    -0.00000  0.00000 -0.05622 -0.05665  0.00001  0.00000
    C6       Y     0.00000 -0.00000  0.09728  0.09812 -0.00003 -0.00000
    C6       Z     0.00124  0.07652  0.00000 -0.00000  0.01572 -0.08202
    H7       X    -0.00000 -0.00000 -0.12330  0.11197 -0.00003 -0.00002
    H7       Y     0.00000  0.00000 -0.00009 -0.00004 -0.00001 -0.00000
    H7       Z    -0.44665 -0.24856  0.00007 -0.00016 -0.37591 -0.32548
    H8       X    -0.00001  0.00000 -0.06151 -0.05597  0.00000  0.00000
    H8       Y    -0.00001 -0.00000 -0.10679 -0.09697  0.00004  0.00001
    H8       Z    -0.43817  0.26183  0.00001  0.00012  0.46987 -0.16410
    H9       X     0.00001  0.00000  0.06165 -0.05598 -0.00000  0.00000
    H9       Y    -0.00000  0.00000 -0.10664  0.09699 -0.00004 -0.00002
    H9       Z     0.00694  0.51104 -0.00002  0.00003 -0.09166  0.48869
    H10      X     0.00000 -0.00000  0.12325  0.11196 -0.00002 -0.00000
    H10      Y     0.00000 -0.00000 -0.00016 -0.00004 -0.00001 -0.00000
    H10      Z     0.44544  0.24916 -0.00001 -0.00014 -0.37855 -0.32441
    H11      X     0.00000  0.00000  0.06189 -0.05599  0.00000  0.00001
    H11      Y     0.00001  0.00000  0.10661 -0.09698  0.00004  0.00002
    H11      Z     0.43891 -0.26209  0.00000  0.00011  0.47021 -0.16422
    H12      X    -0.00000  0.00000 -0.06178 -0.05599 -0.00001 -0.00000
    H12      Y     0.00000 -0.00000  0.10672  0.09697 -0.00004 -0.00001
    H12      Z    -0.00825 -0.51028 -0.00005  0.00002 -0.09402  0.48974
  
  frequencies      1060.71  1066.93  1067.02  1192.15  1216.10  1216.36
  intensities         0.00     2.50     2.50     0.00     0.00     0.00
  reduc. mass         0.17     0.57     0.57     0.21     0.25     0.25
  force const         0.11     0.38     0.38     0.18     0.22     0.22
  Raman Int.          0.56     0.00     5.88     0.00    62.65     9.49
    C1       X    -0.00000  0.01498 -0.09299  0.00005 -0.00489 -0.00017
    C1       Y     0.00001 -0.06856 -0.01098  0.05812  0.00246 -0.06497
    C1       Z     0.04834  0.00000  0.00001 -0.00000 -0.00000  0.00000
    C2       X    -0.00001  0.06547  0.03947  0.05006  0.05102 -0.02427
    C2       Y    -0.00000  0.06388 -0.06152 -0.02897 -0.02683  0.01896
    C2       Z    -0.04847 -0.00000 -0.00001  0.00000 -0.00000 -0.00000
    C3       X     0.00001 -0.07453  0.01696 -0.05006 -0.04912 -0.02777
    C3       Y    -0.00001  0.04139  0.07847 -0.02896 -0.02536 -0.02083
    C3       Z     0.04838  0.00000  0.00000  0.00000  0.00000  0.00000
    C4       X     0.00001  0.01486 -0.09305 -0.00002  0.00483  0.00019
    C4       Y     0.00001 -0.06852 -0.01098  0.05813 -0.00223  0.06493
    C4       Z    -0.04817 -0.00001  0.00000 -0.00000 -0.00000 -0.00000
    C5       X    -0.00000  0.06551  0.03944  0.05028 -0.05068  0.02417
    C5       Y     0.00000  0.06376 -0.06159 -0.02913  0.02669 -0.01893
    C5       Z     0.04803  0.00001 -0.00000  0.00000  0.00000  0.00000
    C6       X     0.00000 -0.07455  0.01697 -0.05030  0.04884  0.02784
    C6       Y    -0.00001  0.04129  0.07836 -0.02917  0.02530  0.02083
    C6       Z    -0.04817 -0.00000 -0.00000  0.00000 -0.00000  0.00000
    H7       X    -0.00000  0.01625 -0.10083  0.00006 -0.00530 -0.00018
    H7       Y     0.00004 -0.39140 -0.06276  0.35398  0.01972 -0.52883
    H7       Z    -0.37146 -0.00002 -0.00004  0.00000  0.00000 -0.00000
    H8       X    -0.00003  0.17015  0.30248  0.30538  0.40705 -0.21232
    H8       Y     0.00001  0.01201 -0.21663 -0.17640 -0.23220  0.12794
    H8       Z     0.37238  0.00002  0.00004 -0.00000 -0.00000 -0.00000
    H9       X     0.00001 -0.25630  0.23411 -0.30562 -0.39066 -0.24111
    H9       Y    -0.00001 -0.05643  0.20961 -0.17652 -0.22230 -0.14439
    H9       Z    -0.37171 -0.00003 -0.00002 -0.00000 -0.00000 -0.00000
    H10      X     0.00001  0.01611 -0.10090 -0.00003  0.00524  0.00021
    H10      Y     0.00003 -0.39125 -0.06276  0.35397 -0.01839  0.52908
    H10      Z     0.37052  0.00005 -0.00001  0.00000  0.00000  0.00000
    H11      X    -0.00003  0.17047  0.30275  0.30743 -0.40532  0.21246
    H11      Y     0.00002  0.01171 -0.21689 -0.17763  0.23125 -0.12805
    H11      Z    -0.36948 -0.00004  0.00001 -0.00000 -0.00000  0.00000
    H12      X     0.00001 -0.25646  0.23406 -0.30740  0.38895  0.24110
    H12      Y    -0.00000 -0.05662  0.20946 -0.17762  0.22144  0.14434
    H12      Z     0.37047  0.00002  0.00003 -0.00000 -0.00000 -0.00000
  
  frequencies      1331.65  1404.66  1527.26  1527.40  1631.44  1631.51
  intensities         0.00     0.00     7.33     7.33     0.00     0.00
  reduc. mass         1.16     0.19     0.61     0.61     1.75     1.75
  force const         1.21     0.23     0.84     0.84     2.75     2.75
  Raman Int.          8.64     0.00     6.12     0.00    19.01    13.98
    C1       X     0.00004  0.00003 -0.00155  0.06050 -0.05873 -0.02550
    C1       Y     0.10256 -0.05410  0.10066  0.00251  0.05549 -0.12801
    C1       Z    -0.00000  0.00000  0.00000 -0.00000  0.00000  0.00000
    C2       X     0.08880  0.04692 -0.06820 -0.06200  0.12382  0.01807
    C2       Y    -0.05125 -0.02707 -0.02202  0.06925 -0.06298  0.06300
    C2       Z     0.00000 -0.00000 -0.00000  0.00000 -0.00000 -0.00000
    C3       X    -0.08884  0.04686  0.07116 -0.05865 -0.09777 -0.07807
    C3       Y    -0.05127  0.02702 -0.01855 -0.07029  0.00303 -0.08907
    C3       Z     0.00000 -0.00000 -0.00000  0.00000  0.00000  0.00000
    C4       X    -0.00005  0.00003 -0.00142  0.06054  0.05873  0.02548
    C4       Y     0.10253  0.05421  0.10056  0.00247 -0.05563  0.12805
    C4       Z    -0.00000  0.00000  0.00000 -0.00000 -0.00000 -0.00000
    C5       X     0.08890 -0.04692 -0.06838 -0.06202 -0.12363 -0.01800
    C5       Y    -0.05133  0.02708 -0.02192  0.06925  0.06300 -0.06305
    C5       Z     0.00000 -0.00000 -0.00000  0.00000  0.00000  0.00000
    C6       X    -0.08883 -0.04695  0.07134 -0.05856  0.09760  0.07803
    C6       Y    -0.05130 -0.02713 -0.01855 -0.07024 -0.00300  0.08907
    C6       Z     0.00000  0.00000 -0.00000  0.00000 -0.00000 -0.00000
    H7       X     0.00005  0.00003 -0.00193  0.07617 -0.06612 -0.02872
    H7       Y    -0.20040  0.36096 -0.40108 -0.00988 -0.08410  0.19426
    H7       Z    -0.00000  0.00000  0.00000 -0.00000  0.00000 -0.00000
    H8       X    -0.17344 -0.31282  0.13231  0.32324 -0.17825  0.05666
    H8       Y     0.10021  0.18062 -0.15372 -0.14450  0.11252  0.04998
    H8       Z    -0.00000  0.00000  0.00000 -0.00000  0.00000  0.00000
    H9       X     0.17344 -0.31263 -0.14801  0.31638  0.08027  0.16877
    H9       Y     0.10019 -0.18051 -0.16056  0.13676  0.11332  0.04789
    H9       Z     0.00000 -0.00000 -0.00000  0.00000  0.00000  0.00000
    H10      X    -0.00006  0.00004 -0.00180  0.07622  0.06611  0.02869
    H10      Y    -0.19967 -0.36133 -0.40089 -0.00981  0.08457 -0.19427
    H10      Z     0.00000 -0.00000 -0.00000  0.00000  0.00000  0.00000
    H11      X    -0.17367  0.31273  0.13256  0.32294  0.17787 -0.05674
    H11      Y     0.10030 -0.18055 -0.15385 -0.14432 -0.11211 -0.04995
    H11      Z    -0.00000  0.00000  0.00000 -0.00000 -0.00000 -0.00000
    H12      X     0.17342  0.31300 -0.14829  0.31617 -0.08015 -0.16882
    H12      Y     0.10013  0.18066 -0.16082  0.13663 -0.11309 -0.04788
    H12      Z    -0.00000 -0.00000  0.00000 -0.00000  0.00000  0.00000
  
  frequencies      3015.40  3025.48  3025.67  3042.13  3042.23  3053.30
  intensities         0.00     0.02     0.02    53.38    53.29     0.03
  reduc. mass         0.16     0.23     0.23     0.23     0.23     0.16
  force const         0.83     1.26     1.25     1.27     1.27     0.86
  Raman Int.          7.89   147.33    44.49     0.00     3.78   414.45
    C1       X     0.03267  0.01304 -0.04447  0.04144 -0.02826 -0.03531
    C1       Y     0.00004 -0.00196 -0.00056  0.00193  0.00294 -0.00008
    C1       Z    -0.00000 -0.00000  0.00000 -0.00000  0.00000  0.00000
    C2       X    -0.01699  0.01557  0.01793 -0.00442 -0.02430 -0.01717
    C2       Y    -0.02946  0.02974  0.02825 -0.00053 -0.04244 -0.02975
    C2       Z     0.00000  0.00000 -0.00000  0.00000 -0.00000 -0.00000
    C3       X    -0.01652  0.02174 -0.00844  0.02048  0.01466  0.01749
    C3       Y     0.02873 -0.03880  0.01071 -0.03871 -0.01914 -0.03045
    C3       Z     0.00000 -0.00000  0.00000 -0.00000  0.00000  0.00000
    C4       X     0.03174 -0.01085  0.04663  0.04158 -0.02525  0.03622
    C4       Y    -0.00006  0.00185  0.00045  0.00194  0.00303 -0.00008
    C4       Z    -0.00000  0.00000 -0.00000 -0.00000  0.00000  0.00000
    C5       X    -0.01544 -0.01538 -0.01771 -0.00442 -0.02454  0.01861
    C5       Y    -0.02678 -0.02942 -0.02789 -0.00054 -0.04286  0.03225
    C5       Z     0.00000 -0.00000  0.00000  0.00000 -0.00000  0.00000
    C6       X    -0.01610 -0.02294  0.00727  0.02040  0.01324 -0.01808
    C6       Y     0.02781  0.04067 -0.00891 -0.03857 -0.01651  0.03116
    C6       Z     0.00000  0.00000 -0.00000  0.00000 -0.00000 -0.00000
    H7       X    -0.39376 -0.15259  0.52025 -0.46228  0.31525  0.38320
    H7       Y    -0.00006  0.00254  0.00073 -0.00285 -0.00434  0.00011
    H7       Z    -0.00000  0.00000 -0.00000  0.00000 -0.00000 -0.00000
    H8       X     0.20448 -0.19428 -0.19675  0.01949  0.27206  0.18606
    H8       Y     0.35423 -0.34009 -0.33712  0.02324  0.47170  0.32223
    H8       Z     0.00000 -0.00000  0.00000 -0.00000  0.00000  0.00000
    H9       X     0.19946 -0.25941  0.08112 -0.24190 -0.13732 -0.19029
    H9       Y    -0.34569  0.45084 -0.13541  0.42378  0.22858  0.32982
    H9       Z     0.00000 -0.00000  0.00000 -0.00000 -0.00000 -0.00000
    H10      X    -0.38259  0.12698 -0.54542 -0.46385  0.28163 -0.39302
    H10      Y     0.00007 -0.00238 -0.00057 -0.00285 -0.00445  0.00012
    H10      Z     0.00000 -0.00000 -0.00000 -0.00000 -0.00000 -0.00000
    H11      X     0.18654  0.19283  0.19497  0.01959  0.27561 -0.20231
    H11      Y     0.32318  0.33759  0.33405  0.02340  0.47787 -0.35039
    H11      Z    -0.00000  0.00000 -0.00000 -0.00000  0.00000 -0.00000
    H12      X     0.19351  0.27248 -0.06847 -0.24098 -0.12077  0.19545
    H12      Y    -0.33514 -0.47317  0.11382  0.42218  0.19970 -0.33828
    H12      Z    -0.00000 -0.00000  0.00000 -0.00000  0.00000 -0.00000
  
  Number of imaginary frequencies:   0
   
  Writing vibrational animation data to Benzene_raman.vib
  Writing vibrational spectrum data to Benzene_raman_vib.spm
  
  Thermochemical properties at    1.0000 atm
  
  rotational symmetry number: 12

  rotational temperatures (K):      0.269395      0.269373      0.134692
   
  vibrational temperatures:
       mode:      1        2        3        4        5        6
  temp. (K):   630.51   630.54   900.28   900.41  1039.44  1126.99
   
       mode:      7        8        9       10       11       12
  temp. (K):  1334.84  1334.91  1433.83  1457.03  1474.96  1475.00
   
       mode:     13       14       15       16       17       18
  temp. (K):  1526.12  1535.08  1535.21  1715.24  1749.70  1750.06
   
       mode:     19       20       21       22       23       24
  temp. (K):  1915.94  2020.99  2197.39  2197.59  2347.27  2347.37
   
       mode:     25       26       27       28       29       30
  temp. (K):  4338.48  4352.98  4353.26  4376.94  4377.09  4393.01
   
   
  Thermodynamic properties calculated assuming an ideal gas

  In the table below, the units for temperature
  are kelvins, the units for U, H, and G are
  kcal/mol and the units for Cv and S are cal/(mol K)

  The zero point energy (ZPE):     62.367 kcal/mol
  is not included in U, H, or G in the table below


  T =   298.15 K
   
              U         Cv          S          H          G        ln(Q)
          ---------  ---------  ---------  ---------  ---------  ---------
  trans.      0.889      2.981     38.979      1.481    -10.140   17.11509
    rot.      0.889      2.981     20.762      0.889     -5.301    8.94785
    vib.      0.898     10.568      3.996      0.898     -0.294    0.49558
   elec.      0.000      0.000      0.000      0.000      0.000    0.00000
   total      2.675     16.530     63.737      3.268    -15.736   26.55853
   
  Total internal energy, Utot (SCFE + ZPE + U):    -232.159941 hartrees
              Total enthalpy, Htot (Utot + pV):    -232.158997 hartrees
    Total Gibbs free energy, Gtot (Htot - T*S):    -232.189280 hartrees
   
  Peak memory usage:    569 Mb
  
  end of program freq
   
 Time(freq)  user:        0.1  user+sys:        0.1  wallclock:        0.1

 Total cpu seconds     user:     328.584   user+sys:     328.584
  
 Total elapsed time:    864 seconds

Job Benzene_raman completed on node011 at Tue Feb 10 18:54:15 2015
