Gaussian '09 started on node015 at Wed Jan 20 15:58:13 EST 2016.
 Entering Gaussian System, Link 0=/usr/local/gaussian/g09/g09
 Initial command:
 /usr/local/gaussian/g09/l1.exe /home/srmcgrat/thesis/gaussian/cellobiose/300/8000/gaussian10459/Gau-10495.inp -scrdir=/home/srmcgrat/thesis/gaussian/cellobiose/300/8000/gaussian10459/
 Entering Link 1 = /usr/local/gaussian/g09/l1.exe PID=     10497.
  
 Copyright (c) 1988,1990,1992,1993,1995,1998,2003,2009,2010,
            Gaussian, Inc.  All Rights Reserved.
  
 This is part of the Gaussian(R) 09 program.  It is based on
 the Gaussian(R) 03 system (copyright 2003, Gaussian, Inc.),
 the Gaussian(R) 98 system (copyright 1998, Gaussian, Inc.),
 the Gaussian(R) 94 system (copyright 1995, Gaussian, Inc.),
 the Gaussian 92(TM) system (copyright 1992, Gaussian, Inc.),
 the Gaussian 90(TM) system (copyright 1990, Gaussian, Inc.),
 the Gaussian 88(TM) system (copyright 1988, Gaussian, Inc.),
 the Gaussian 86(TM) system (copyright 1986, Carnegie Mellon
 University), and the Gaussian 82(TM) system (copyright 1983,
 Carnegie Mellon University). Gaussian is a federally registered
 trademark of Gaussian, Inc.
  
 This software contains proprietary and confidential information,
 including trade secrets, belonging to Gaussian, Inc.
  
 This software is provided under written license and may be
 used, copied, transmitted, or stored only in accord with that
 written license.
  
 The following legend is applicable only to US Government
 contracts under FAR:
  
                    RESTRICTED RIGHTS LEGEND
  
 Use, reproduction and disclosure by the US Government is
 subject to restrictions as set forth in subparagraphs (a)
 and (c) of the Commercial Computer Software - Restricted
 Rights clause in FAR 52.227-19.
  
 Gaussian, Inc.
 340 Quinnipiac St., Bldg. 40, Wallingford CT 06492
  
  
 ---------------------------------------------------------------
 Warning -- This program may not be used in any manner that
 competes with the business of Gaussian, Inc. or will provide
 assistance to any competitor of Gaussian, Inc.  The licensee
 of this program is prohibited from giving any competitor of
 Gaussian, Inc. access to this program.  By using this program,
 the user acknowledges that Gaussian, Inc. is engaged in the
 business of creating and licensing software in the field of
 computational chemistry and represents and warrants to the
 licensee that it is not a competitor of Gaussian, Inc. and that
 it will not use this program in any manner prohibited above.
 ---------------------------------------------------------------
  

 Cite this work as:
 Gaussian 09, Revision B.01,
 M. J. Frisch, G. W. Trucks, H. B. Schlegel, G. E. Scuseria, 
 M. A. Robb, J. R. Cheeseman, G. Scalmani, V. Barone, B. Mennucci, 
 G. A. Petersson, H. Nakatsuji, M. Caricato, X. Li, H. P. Hratchian, 
 A. F. Izmaylov, J. Bloino, G. Zheng, J. L. Sonnenberg, M. Hada, 
 M. Ehara, K. Toyota, R. Fukuda, J. Hasegawa, M. Ishida, T. Nakajima, 
 Y. Honda, O. Kitao, H. Nakai, T. Vreven, J. A. Montgomery, Jr., 
 J. E. Peralta, F. Ogliaro, M. Bearpark, J. J. Heyd, E. Brothers, 
 K. N. Kudin, V. N. Staroverov, T. Keith, R. Kobayashi, J. Normand, 
 K. Raghavachari, A. Rendell, J. C. Burant, S. S. Iyengar, J. Tomasi, 
 M. Cossi, N. Rega, J. M. Millam, M. Klene, J. E. Knox, J. B. Cross, 
 V. Bakken, C. Adamo, J. Jaramillo, R. Gomperts, R. E. Stratmann, 
 O. Yazyev, A. J. Austin, R. Cammi, C. Pomelli, J. W. Ochterski, 
 R. L. Martin, K. Morokuma, V. G. Zakrzewski, G. A. Voth, 
 P. Salvador, J. J. Dannenberg, S. Dapprich, A. D. Daniels, 
 O. Farkas, J. B. Foresman, J. V. Ortiz, J. Cioslowski, 
 and D. J. Fox, Gaussian, Inc., Wallingford CT, 2010.
 
 ******************************************
 Gaussian 09:  EM64L-G09RevB.01 12-Aug-2010
                20-Jan-2016 
 ******************************************
 ------------------------------------------------
 # freq=raman b3lyp/6-31+g(d,p) geom=connectivity
 ------------------------------------------------
 1/10=4,30=1,38=1,57=2/1,3;
 2/12=2,17=6,18=5,40=1/2;
 3/5=1,6=6,7=111,11=2,16=1,25=1,30=1,71=2,74=-5/1,2,3;
 4//1;
 5/5=2,38=5,98=1/2;
 8/6=4,10=90,11=11/1;
 10/13=10,15=4/2;
 11/6=3,8=1,9=11,15=111,16=1/1,2,10;
 10/6=1/2;
 6/7=2,8=2,9=2,10=2,18=1,28=1/1;
 7/8=1,10=1,25=1/1,2,3,16;
 1/10=4,30=1/3;
 99//99;
 ------------
 300 8000.com
 ------------
 Symbolic Z-matrix:
 Charge =  0 Multiplicity = 1
 O                     7.812     7.903     12.432 
 C                     8.196     8.196     13.784 
 C                     7.654     9.51      14.322 
 O                     8.137     10.565    13.477 
 H                     7.861     10.322    12.547 
 C                     8.068     9.802     15.754 
 O                     7.412     10.943    16.325 
 H                     7.939     11.195    17.137 
 C                     8.36      5.722     14.548 
 O                     8.092     4.967     13.358 
 H                     8.252     3.996     13.535 
 C                     7.821     7.122     14.792 
 O                     8.341     7.452     16.089 
 C                     7.845     8.644     16.714 
 O                     8.642     8.785     17.899 
 C                     8.087     8.388     19.162 
 C                     8.716     7.067     19.575 
 O                     8.543     6.119     18.513 
 H                     8.653     6.664     17.682 
 C                     8.196     6.63      20.935 
 O                     8.691     5.392     21.465 
 H                     8.535     5.195     22.433 
 C                     7.988     10.879    19.94 
 O                     8.327     11.623    18.76 
 H                     8.444     12.601    18.931 
 C                     8.479     9.459     20.167 
 O                     8.055     9.047     21.475 
 C                     8.399     7.739     21.955 
 O                     7.585     7.501     23.113 
 H                     8.149     7.3446    23.87395 
 H                     8.59853   7.78642   11.89406 
 H                     9.26326   8.27215   13.79158 
 H                     6.58546   9.48849   14.27035 
 H                     9.1176    10.00967   15.7432 
 H                     6.80846   8.54308   16.95955 
 H                     6.75399   7.07093   14.85342 
 H                     8.02308   5.12231   15.36761 
 H                     9.4248    5.79092   14.62772 
 H                     7.02266   8.29882   19.09777 
 H                     9.76758   7.23476   19.67953 
 H                     9.54824   9.49769   20.1786 
 H                     8.32346   11.45756   20.77525 
 H                     9.42645   7.74388   22.2537 
 H                     7.13873   6.50721   20.82545 
 H                     6.91951   10.84599   19.98631 
 

 GradGradGradGradGradGradGradGradGradGradGradGradGradGradGradGradGradGrad
 Berny optimization.
 Initialization pass.
 Trust Radius=3.00D-01 FncErr=1.00D-07 GrdErr=1.00D-07
 Number of steps in this run=      2 maximum allowed number of steps=      2.
 GradGradGradGradGradGradGradGradGradGradGradGradGradGradGradGradGradGrad

                          Input orientation:                          
 ---------------------------------------------------------------------
 Center     Atomic      Atomic             Coordinates (Angstroms)
 Number     Number       Type             X           Y           Z
 ---------------------------------------------------------------------
      1          8           0        7.812000    7.903000   12.432000
      2          6           0        8.196000    8.196000   13.784000
      3          6           0        7.654000    9.510000   14.322000
      4          8           0        8.137000   10.565000   13.477000
      5          1           0        7.861000   10.322000   12.547000
      6          6           0        8.068000    9.802000   15.754000
      7          8           0        7.412000   10.943000   16.325000
      8          1           0        7.939000   11.195000   17.137000
      9          6           0        8.360000    5.722000   14.548000
     10          8           0        8.092000    4.967000   13.358000
     11          1           0        8.252000    3.996000   13.535000
     12          6           0        7.821000    7.122000   14.792000
     13          8           0        8.341000    7.452000   16.089000
     14          6           0        7.845000    8.644000   16.714000
     15          8           0        8.642000    8.785000   17.899000
     16          6           0        8.087000    8.388000   19.162000
     17          6           0        8.716000    7.067000   19.575000
     18          8           0        8.543000    6.119000   18.513000
     19          1           0        8.653000    6.664000   17.682000
     20          6           0        8.196000    6.630000   20.935000
     21          8           0        8.691000    5.392000   21.465000
     22          1           0        8.535000    5.195000   22.433000
     23          6           0        7.988000   10.879000   19.940000
     24          8           0        8.327000   11.623000   18.760000
     25          1           0        8.444000   12.601000   18.931000
     26          6           0        8.479000    9.459000   20.167000
     27          8           0        8.055000    9.047000   21.475000
     28          6           0        8.399000    7.739000   21.955000
     29          8           0        7.585000    7.501000   23.113000
     30          1           0        8.148998    7.344604   23.873951
     31          1           0        8.598532    7.786420   11.894062
     32          1           0        9.263260    8.272146   13.791580
     33          1           0        6.585464    9.488489   14.270350
     34          1           0        9.117597   10.009675   15.743196
     35          1           0        6.808458    8.543084   16.959554
     36          1           0        6.753986    7.070932   14.853422
     37          1           0        8.023079    5.122309   15.367607
     38          1           0        9.424798    5.790922   14.627721
     39          1           0        7.022659    8.298824   19.097772
     40          1           0        9.767584    7.234762   19.679532
     41          1           0        9.548237    9.497691   20.178599
     42          1           0        8.323461   11.457559   20.775246
     43          1           0        9.426451    7.743878   22.253698
     44          1           0        7.138729    6.507212   20.825452
     45          1           0        6.919512   10.845990   19.986309
 ---------------------------------------------------------------------
                    Distance matrix (angstroms):
                    1          2          3          4          5
     1  O    0.000000
     2  C    1.435691   0.000000
     3  C    2.485863   1.519804   0.000000
     4  O    2.878175   2.389538   1.435388   0.000000
     5  H    2.422228   2.482392   1.962860   1.000062   0.000000
     6  C    3.835026   2.544901   1.518975   2.402428   3.255472
     7  O    4.955507   3.823264   2.474684   2.963041   3.854935
     8  H    5.743729   4.505847   3.293125   3.719100   4.672934
     9  C    3.087802   2.594469   3.859852   4.965020   5.041131
    10  O    3.091274   3.258640   4.664760   5.599446   5.420988
    11  H    4.083486   4.207747   5.601890   6.570263   6.414616
    12  C    2.485889   1.519923   2.439535   3.699099   3.909172
    13  O    3.722485   2.426435   2.798146   4.068775   4.584001
    14  C    4.345767   2.984762   2.551098   3.775404   4.492196
    15  O    5.599546   4.180797   3.781097   4.793486   5.622831
    16  C    6.753055   5.382530   4.987181   6.087779   6.895626
    17  C    7.248349   5.922898   5.889830   7.053853   7.792229
    18  O    6.379309   5.176657   5.463852   6.730011   7.329631
    19  H    5.459387   4.213108   4.515232   5.759000   6.354247
    20  C    8.606335   7.320462   7.233252   8.432643   9.170694
    21  O    9.416626   8.191776   8.309978   9.532837  10.223724
    22  H   10.386337   9.161120   9.229502  10.450131  11.156765
    23  C    8.078219   6.718489   5.792033   6.472339   7.415041
    24  O    7.358479   6.043349   4.961204   5.391248   6.364835
    25  H    8.044105   6.779169   5.605467   5.829722   6.803616
    26  C    7.918096   6.512906   5.903156   6.789426   7.693575
    27  O    9.118313   7.739222   7.179177   8.141195   9.020668
    28  C    9.542484   8.186287   7.871096   8.940436   9.770967
    29  O   10.690973   9.374785   9.017900  10.126465  10.939587
    30  H   11.460524  10.125917   9.806821  10.884286  11.715274
    31  H    0.960000   1.975260   3.123739   3.230976   2.720192
    32  H    2.022593   1.070000   2.098415   2.573830   2.777988
    33  H    2.719870   2.121530   1.070000   2.048303   2.300363
    34  H    4.136023   2.824395   2.100379   2.530929   3.448515
    35  H    4.681405   3.482798   2.933694   4.240442   4.872681
    36  H    2.770382   2.118690   2.653580   4.001971   4.136968
    37  H    4.049022   3.461977   4.525632   5.762834   5.917675
    38  H    3.447199   2.829524   4.130464   5.076850   5.225469
    39  H    6.724006   5.442745   4.967246   6.162012   6.907146
    40  H    7.536416   6.176662   6.192503   7.226389   8.002444
    41  H    8.097367   6.664371   6.155326   6.931246   7.859234
    42  H    9.083294   7.715668   6.773887   7.354986   8.319098
    43  H    9.954774   8.570543   8.317007   9.308698  10.164514
    44  H    8.535312   7.317914   7.181721   8.453516   9.143689
    45  H    8.156305   6.864437   5.865896   6.628147   7.516933
                    6          7          8          9         10
     6  C    0.000000
     7  O    1.434663   0.000000
     8  H    1.967175   1.000288   0.000000
     9  C    4.264516   5.596005   6.069093   0.000000
    10  O    5.396167   6.706569   7.286442   1.434555   0.000000
    11  H    6.218316   7.533293   8.055928   2.004223   0.999885
    12  C    2.858121   4.137319   4.701306   1.519887   2.602657
    13  O    2.389405   3.620196   3.907679   2.316882   3.700755
    14  C    1.520623   2.371542   2.587541   3.673536   4.984383
    15  O    2.442292   2.940636   2.623538   4.548702   5.958213
    16  C    3.689745   3.877141   3.464358   5.335830   6.737187
    17  C    4.743434   5.223628   4.856743   5.215984   6.591697
    18  O    4.626251   5.416408   5.293767   3.989025   5.301371
    19  H    3.729136   4.657400   4.619175   3.285600   4.678836
    20  C    6.076243   6.361503   5.943911   6.453304   7.758048
    21  O    7.242358   7.672616   7.278180   6.932774   8.140201
    22  H    8.127212   8.462169   8.025138   7.904529   9.088666
    23  C    4.323069   3.661161   2.821182   7.470388   8.847897
    24  O    3.524083   2.688652   1.722747   7.250092   8.575498
    25  H    4.250777   3.256566   2.334587   8.157106   9.458340
    26  C    4.445350   4.254610   3.533581   6.749259   8.166414
    27  O    5.770618   5.525465   4.842066   7.689732   9.084793
    28  C    6.543541   6.552609   5.947156   7.676813   9.038066
    29  O    7.725463   7.612768   7.034453   8.782066  10.091493
    30  H    8.484042   8.395134   7.762484   9.468407  10.781534
    31  H    4.386701   5.568219   6.288226   3.370773   3.216958
    32  H    2.760469   4.120539   4.635577   2.809145   3.533247
    33  H    2.120712   2.649595   3.600267   4.172829   4.852411
    34  H    1.070000   2.029447   2.176414   4.515153   5.671823
    35  H    2.150506   2.554705   2.888299   4.022610   5.235174
    36  H    3.161709   4.194214   4.860753   2.119477   2.907422
    37  H    4.695831   5.930469   6.325773   1.070000   2.016777
    38  H    4.381569   5.785846   6.140695   1.070000   2.016777
    39  H    3.812229   3.851171   3.615542   5.397122   6.722315
    40  H    4.988898   5.527449   5.048928   5.531940   6.921856
    41  H    4.675552   4.637095   3.836903   6.882688   8.316752
    42  H    5.293302   4.571676   3.667912   8.466201   9.858827
    43  H    6.951787   7.031491   6.348493   8.037605   9.414099
    44  H    6.118725   6.324947   6.018344   6.443172   7.683997
    45  H    4.507924   3.695556   3.046264   7.609565   8.937098
                   11         12         13         14         15
    11  H    0.000000
    12  C    3.396717   0.000000
    13  O    4.298229   1.435796   0.000000
    14  C    5.645848   2.451763   1.434401   0.000000
    15  O    6.490849   3.618433   2.267948   1.435031   0.000000
    16  C    7.140029   4.557457   3.222412   2.473217   1.435550
    17  C    6.791755   4.866327   3.527187   3.380960   2.401245
    18  O    5.419621   3.920859   2.773710   3.177929   2.737582
    19  H    4.947387   3.042053   1.804422   2.347400   2.132100
    20  C    7.855004   6.174070   4.917360   4.690015   3.749698
    21  O    8.063897   6.948290   5.767796   5.819211   4.922520
    22  H    8.982878   7.912522   6.736321   6.714064   5.784177
    23  C    9.405818   6.375331   5.167121   3.927181   2.996370
    24  O    9.245398   6.021633   4.952946   3.645940   2.982413
    25  H   10.158726   6.894845   5.882157   4.575122   3.958040
    26  C    8.595308   5.897894   4.547216   3.604080   2.371638
    27  O    9.412492   6.958654   5.624484   4.782638   3.633317
    28  C    9.215642   7.212721   5.873303   5.347338   4.195748
    29  O   10.220959   8.332969   7.064737   6.505478   5.472815
    30  H   10.868195   9.090598   7.788059   7.283251   6.165860
    31  H    4.144882   3.073118   4.216119   4.953287   6.087555
    32  H    4.401580   2.098521   2.607938   3.269598   4.185675
    33  H    5.786667   2.720099   3.246025   2.875938   4.229816
    34  H    6.464493   3.305239   2.695252   2.104051   2.524581
    35  H    5.872594   2.782627   2.072924   1.070000   2.074357
    36  H    3.665719   1.070000   2.047066   2.669570   3.972174
    37  H    2.163198   2.090675   2.459460   3.774493   4.495144
    38  H    2.406499   2.090675   2.463561   3.871482   4.503170
    39  H    7.139328   4.534527   3.392321   2.545145   2.072604
    40  H    7.109279   5.262117   3.869658   3.804821   2.615430
    41  H    8.722743   6.135365   4.729386   3.953891   2.554558
    42  H   10.397169   7.405995   6.164877   4.963744   3.939140
    43  H    9.562511   7.657751   6.266331   5.830906   4.545624
    44  H    7.790779   6.102950   4.977153   4.687080   4.001532
    45  H    9.503540   6.454582   5.359926   4.051332   3.401691
                   16         17         18         19         20
    16  C    0.000000
    17  C    1.520280   0.000000
    18  O    2.403643   1.434042   0.000000
    19  H    2.341566   1.936447   0.999843   0.000000
    20  C    2.499195   1.520187   2.499523   3.285120   0.000000
    21  O    3.826832   2.525540   3.043803   3.991305   1.434771
    22  H    4.592972   3.421302   4.027436   4.974323   2.101940
    23  C    2.611545   3.898019   5.000195   4.827734   4.368900
    24  O    3.268704   4.644640   5.513772   5.085277   5.447737
    25  H    4.234404   5.577981   6.496218   6.070556   6.303202
    26  C    1.520109   2.475540   3.727655   3.743999   2.945022
    27  O    2.405260   2.822644   4.193420   4.519197   2.480599
    28  C    2.884336   2.493286   3.806902   4.413465   1.520359
    29  O    4.080340   3.739647   4.897723   5.597942   2.423973
    30  H    4.826490   4.345059   5.513360   6.249600   3.024947
    31  H    7.310710   7.715450   6.825958   5.896017   9.123480
    32  H    5.498947   5.932943   5.238952   4.253694   7.407033
    33  H    5.233921   6.208229   5.760684   4.887924   7.428482
    34  H    3.921757   4.848024   4.810335   3.894657   6.263096
    35  H    2.551370   3.557822   3.361252   2.730425   4.624861
    36  H    4.698450   5.113004   4.183211   3.431137   6.265733
    37  H    5.006620   4.686590   3.340241   2.851321   5.770520
    38  H    5.393904   5.158133   3.997574   3.269030   6.480414
    39  H    1.070000   2.147683   2.721218   2.708334   2.745380
    40  H    2.102893   1.070000   2.026161   2.357584   2.100432
    41  H    2.097642   2.639168   3.898753   3.881270   3.259500
    42  H    3.475726   4.568554   5.802255   5.714453   4.831883
    43  H    3.430397   2.852776   4.172953   4.760755   2.119835
    44  H    2.683962   2.089205   2.733152   3.492691   1.070000
    45  H    2.843278   4.204439   5.210642   5.079750   4.505997
                   21         22         23         24         25
    21  O    0.000000
    22  H    1.000084   0.000000
    23  C    5.738206   6.230739   0.000000
    24  O    6.802564   7.406307   1.435569   0.000000
    25  H    7.645381   8.192748   2.047267   0.999707   0.000000
    26  C    4.274370   4.829036   1.519543   2.585662   3.376549
    27  O    3.709935   3.998258   2.391012   3.752464   4.387958
    28  C    2.415320   2.592087   3.753498   5.029778   5.725875
    29  O    2.896035   2.585060   4.652013   6.040700   6.651091
    30  H    3.147932   2.616512   5.290921   6.669996   7.221460
    31  H    9.866339  10.853050   8.641407   7.869827   8.527752
    32  H    8.216087   9.201811   6.798900   6.065476   6.769328
    33  H    8.542687   9.426749   6.003796   5.267452   5.904536
    34  H    7.365049   8.262808   4.432254   3.511263   4.163027
    35  H    5.811397   6.644488   3.966217   3.877300   4.798779
    36  H    7.091107   8.008816   6.472823   6.201374   7.075623
    37  H    6.139793   7.084288   7.351701   7.338916   8.294924
    38  H    6.888104   7.878404   7.494880   7.231460   8.115253
    39  H    4.103262   4.800484   2.880719   3.586857   4.533954
    40  H    2.782571   3.641631   4.063894   4.709295   5.577516
    41  H    4.387070   4.962068   2.097447   2.832099   3.522268
    42  H    6.115705   6.481708   1.070000   2.022028   2.173299
    43  H    2.587327   2.706217   4.153472   5.335008   5.966336
    44  H    2.015506   2.501137   4.540685   5.643524   6.513596
    45  H    5.922053   6.366301   1.070000   2.022028   2.552998
                   26         27         28         29         30
    26  C    0.000000
    27  O    1.435404   0.000000
    28  C    2.482286   1.435131   0.000000
    29  O    3.648550   2.300882   1.435341   0.000000
    30  H    4.280310   2.943120   1.974949   0.960000   0.000000
    31  H    8.441167   9.678784  10.063028  11.268242  11.996458
    32  H    6.532202   7.816344   8.226336   9.502636  10.186074
    33  H    6.193289   7.366236   8.087241   9.118204   9.963435
    34  H    4.503453   5.908420   6.652733   7.934501   8.611037
    35  H    3.730593   4.711375   5.303853   6.289186   7.144389
    36  H    6.075578   7.031555   7.320163   8.312410   9.131861
    37  H    6.484515   7.259785   7.098038   8.114259   8.792744
    38  H    6.710659   7.704779   7.650901   8.849247   9.462260
    39  H    2.147134   2.697538   3.220477   4.132167   4.999106
    40  H    2.616354   3.072598   2.702782   4.077163   4.497226
    41  H    1.070000   2.028185   2.751243   4.056080   4.499920
    42  H    2.094849   2.524386   3.901949   4.654544   5.152554
    43  H    2.862450   2.045819   1.070000   2.046541   2.101553
    44  H    3.308011   2.777047   2.093195   2.533703   3.318918
    45  H    2.094849   2.596517   3.964596   4.626882   5.374486
                   31         32         33         34         35
    31  H    0.000000
    32  H    2.068422   0.000000
    33  H    3.549115   2.979816   0.000000
    34  H    4.475279   2.617064   2.975334   0.000000
    35  H    5.425505   4.016904   2.859254   2.993750   0.000000
    36  H    3.559787   2.977731   2.492579   3.874863   2.570212
    37  H    4.415217   3.734084   4.725911   5.022488   3.963749
    38  H    3.483908   2.623299   4.675631   4.374532   4.456128
    39  H    7.391845   5.759920   4.991037   4.309171   2.162758
    40  H    7.892056   5.999874   6.668165   4.859770   4.226868
    41  H    8.512575   6.509776   6.609502   4.485574   4.333580
    42  H    9.613966   7.733153   7.015094   5.296088   5.034769
    43  H   10.392753   8.480162   8.651516   6.900425   5.959915
    44  H    9.139864   7.556717   7.222428   6.481704   4.381668
    45  H    8.812748   7.105806   5.884436   4.851289   3.804859
                   36         37         38         39         40
    36  H    0.000000
    37  H    2.381621   0.000000
    38  H    2.970287   1.720259   0.000000
    39  H    4.426557   5.000522   5.660495   0.000000
    40  H    5.692095   5.108665   5.265261   3.000881   0.000000
    41  H    6.484944   6.679500   6.675898   2.997335   2.327666
    42  H    7.534835   8.334758   8.433017   3.805734   4.595443
    43  H    7.896772   7.500689   7.872075   4.005753   2.646111
    44  H    6.010902   5.699834   6.644625   2.491631   2.958604
    45  H    6.373773   7.437123   7.781043   2.699665   4.609403
                   41         42         43         44         45
    41  H    0.000000
    42  H    2.386870   0.000000
    43  H    2.719693   4.146545   0.000000
    44  H    3.894498   5.090388   2.966969   0.000000
    45  H    2.960588   1.722646   4.587908   4.424615   0.000000
 Stoichiometry    C12H22O11
 Framework group  C1[X(C12H22O11)]
 Deg. of freedom   129
 Full point group                 C1      NOp   1
 Largest Abelian subgroup         C1      NOp   1
 Largest concise Abelian subgroup C1      NOp   1
                         Standard orientation:                         
 ---------------------------------------------------------------------
 Center     Atomic      Atomic             Coordinates (Angstroms)
 Number     Number       Type             X           Y           Z
 ---------------------------------------------------------------------
      1          8           0       -5.150741   -0.389202    0.220652
      2          6           0       -3.792429   -0.100470   -0.143807
      3          6           0       -3.289298    1.255129    0.324184
      4          8           0       -4.134816    2.261944   -0.251804
      5          1           0       -5.068912    2.022763    0.013491
      6          6           0       -1.850138    1.542169   -0.067875
      7          8           0       -1.314883    2.733268    0.526299
      8          1           0       -0.491525    2.962867    0.006738
      9          6           0       -2.988719   -2.567205   -0.120645
     10          8           0       -4.175134   -3.321931    0.163534
     11          1           0       -3.979692   -4.298412    0.073781
     12          6           0       -2.780573   -1.130766    0.330327
     13          8           0       -1.473790   -0.815032   -0.173794
     14          6           0       -0.880620    0.417208    0.258916
     15          8           0        0.325007    0.524194   -0.512013
     16          6           0        1.576807    0.185387    0.103626
     17          6           0        2.026813   -1.167570   -0.423872
     18          8           0        0.973860   -2.119075   -0.217948
     19          1           0        0.138729   -1.596099   -0.387467
     20          6           0        3.377154   -1.547035    0.162264
     21          8           0        3.939002   -2.806401   -0.233832
     22          1           0        4.904750   -2.976920   -0.037811
     23          6           0        2.315937    2.689736    0.057950
     24          8           0        1.135833    3.390406   -0.363089
     25          1           0        1.296194    4.361130   -0.540269
     26          6           0        2.577427    1.244154   -0.330541
     27          8           0        3.878241    0.882420    0.156712
     28          6           0        4.386707   -0.437575   -0.085515
     29          8           0        5.523730   -0.602272    0.774867
     30          1           0        6.302977   -0.783397    0.244237
     31          1           0       -5.663769   -0.566396   -0.571185
     32          1           0       -3.754783   -0.095178   -1.213131
     33          1           0       -3.371808    1.303716    1.389891
     34          1           0       -1.833261    1.679556   -1.128883
     35          1           0       -0.664015    0.389265    1.306390
     36          1           0       -2.749604   -1.109936    1.399676
     37          1           0       -2.170818   -3.129875    0.278530
     38          1           0       -2.878939   -2.567789   -1.184998
     39          1           0        1.482814    0.165985    1.169313
     40          1           0        2.159594   -1.068267   -1.480947
     41          1           0        2.619682    1.212011   -1.399223
     42          1           0        3.152274    3.258214   -0.291727
     43          1           0        4.715172   -0.496032   -1.102173
     44          1           0        3.238552   -1.601173    1.221867
     45          1           0        2.331500    2.728434    1.127137
 ---------------------------------------------------------------------
 Rotational constants (GHZ):      0.4026629      0.1442514      0.1086407
 Standard basis: 6-31+G(d,p) (6D, 7F)
 There are   547 symmetry adapted basis functions of A   symmetry.
 Integral buffers will be    131072 words long.
 Raffenetti 2 integral format.
 Two-electron integral symmetry is turned on.
   547 basis functions,   890 primitive gaussians,   547 cartesian basis functions
    91 alpha electrons       91 beta electrons
       nuclear repulsion energy      2277.3926555365 Hartrees.
 NAtoms=   45 NActive=   45 NUniq=   45 SFac= 1.00D+00 NAtFMM=   50 NAOKFM=F Big=F
 One-electron integrals computed using PRISM.
 NBasis=   547 RedAO= T  NBF=   547
 NBsUse=   547 1.00D-06 NBFU=   547
 Harris functional with IExCor=  402 diagonalized for initial guess.
 ExpMin= 4.38D-02 ExpMax= 5.48D+03 ExpMxC= 8.25D+02 IAcc=2 IRadAn=         0 AccDes= 0.00D+00
 HarFok:  IExCor=  402 AccDes= 0.00D+00 IRadAn=         0 IDoV= 1
 ScaDFX=  1.000000  1.000000  1.000000  1.000000
 FoFCou: FMM=F IPFlag=           0 FMFlag=      100000 FMFlg1=           0
         NFxFlg=           0 DoJE=T BraDBF=F KetDBF=T FulRan=T
         Omega=  0.000000  0.000000  1.000000  0.000000  0.000000 ICntrl=     500 IOpCl=  0
         NMat0=    1 NMatS0=    1 NMatT0=    0 NMatD0=    1 NMtDS0=    0 NMtDT0=    0
         I1Cent=           4 NGrid=           0.
 Petite list used in FoFCou.
 Initial guess orbital symmetries:
       Occupied  (A) (A) (A) (A) (A) (A) (A) (A) (A) (A) (A) (A)
                 (A) (A) (A) (A) (A) (A) (A) (A) (A) (A) (A) (A)
                 (A) (A) (A) (A) (A) (A) (A) (A) (A) (A) (A) (A)
                 (A) (A) (A) (A) (A) (A) (A) (A) (A) (A) (A) (A)
                 (A) (A) (A) (A) (A) (A) (A) (A) (A) (A) (A) (A)
                 (A) (A) (A) (A) (A) (A) (A) (A) (A) (A) (A) (A)
                 (A) (A) (A) (A) (A) (A) (A) (A) (A) (A) (A) (A)
                 (A) (A) (A) (A) (A) (A) (A)
       Virtual   (A) (A) (A) (A) (A) (A) (A) (A) (A) (A) (A) (A)
                 (A) (A) (A) (A) (A) (A) (A) (A) (A) (A) (A) (A)
                 (A) (A) (A) (A) (A) (A) (A) (A) (A) (A) (A) (A)
                 (A) (A) (A) (A) (A) (A) (A) (A) (A) (A) (A) (A)
                 (A) (A) (A) (A) (A) (A) (A) (A) (A) (A) (A) (A)
                 (A) (A) (A) (A) (A) (A) (A) (A) (A) (A) (A) (A)
                 (A) (A) (A) (A) (A) (A) (A) (A) (A) (A) (A) (A)
                 (A) (A) (A) (A) (A) (A) (A) (A) (A) (A) (A) (A)
                 (A) (A) (A) (A) (A) (A) (A) (A) (A) (A) (A) (A)
                 (A) (A) (A) (A) (A) (A) (A) (A) (A) (A) (A) (A)
                 (A) (A) (A) (A) (A) (A) (A) (A) (A) (A) (A) (A)
                 (A) (A) (A) (A) (A) (A) (A) (A) (A) (A) (A) (A)
                 (A) (A) (A) (A) (A) (A) (A) (A) (A) (A) (A) (A)
                 (A) (A) (A) (A) (A) (A) (A) (A) (A) (A) (A) (A)
                 (A) (A) (A) (A) (A) (A) (A) (A) (A) (A) (A) (A)
                 (A) (A) (A) (A) (A) (A) (A) (A) (A) (A) (A) (A)
                 (A) (A) (A) (A) (A) (A) (A) (A) (A) (A) (A) (A)
                 (A) (A) (A) (A) (A) (A) (A) (A) (A) (A) (A) (A)
                 (A) (A) (A) (A) (A) (A) (A) (A) (A) (A) (A) (A)
                 (A) (A) (A) (A) (A) (A) (A) (A) (A) (A) (A) (A)
                 (A) (A) (A) (A) (A) (A) (A) (A) (A) (A) (A) (A)
                 (A) (A) (A) (A) (A) (A) (A) (A) (A) (A) (A) (A)
                 (A) (A) (A) (A) (A) (A) (A) (A) (A) (A) (A) (A)
                 (A) (A) (A) (A) (A) (A) (A) (A) (A) (A) (A) (A)
                 (A) (A) (A) (A) (A) (A) (A) (A) (A) (A) (A) (A)
                 (A) (A) (A) (A) (A) (A) (A) (A) (A) (A) (A) (A)
                 (A) (A) (A) (A) (A) (A) (A) (A) (A) (A) (A) (A)
                 (A) (A) (A) (A) (A) (A) (A) (A) (A) (A) (A) (A)
                 (A) (A) (A) (A) (A) (A) (A) (A) (A) (A) (A) (A)
                 (A) (A) (A) (A) (A) (A) (A) (A) (A) (A) (A) (A)
                 (A) (A) (A) (A) (A) (A) (A) (A) (A) (A) (A) (A)
                 (A) (A) (A) (A) (A) (A) (A) (A) (A) (A) (A) (A)
                 (A) (A) (A) (A) (A) (A) (A) (A) (A) (A) (A) (A)
                 (A) (A) (A) (A) (A) (A) (A) (A) (A) (A) (A) (A)
                 (A) (A) (A) (A) (A) (A) (A) (A) (A) (A) (A) (A)
                 (A) (A) (A) (A) (A) (A) (A) (A) (A) (A) (A) (A)
                 (A) (A) (A) (A) (A) (A) (A) (A) (A) (A) (A) (A)
                 (A) (A) (A) (A) (A) (A) (A) (A) (A) (A) (A) (A)
 The electronic state of the initial guess is 1-A.
 Requested convergence on RMS density matrix=1.00D-08 within 128 cycles.
 Requested convergence on MAX density matrix=1.00D-06.
 Requested convergence on             energy=1.00D-06.
 No special actions if energy rises.
 SCF Done:  E(RB3LYP) =  -1297.93943426     A.U. after   13 cycles
             Convg  =    0.8546D-08             -V/T =  2.0088
 Range of M.O.s used for correlation:     1   547
 NBasis=   547 NAE=    91 NBE=    91 NFC=     0 NFV=     0
 NROrb=    547 NOA=    91 NOB=    91 NVA=   456 NVB=   456

 **** Warning!!: The largest alpha MO coefficient is  0.89308300D+02

          Differentiating once with respect to electric field.
                with respect to dipole field.
          Electric field/nuclear overlap derivatives assumed to be zero.
          There are     3 degrees of freedom in the 1st order CPHF.  IDoFFX=0.
      3 vectors produced by pass  0 Test12= 1.38D-12 3.33D-08 XBig12= 1.21D+02 1.18D+00.
 AX will form     3 AO Fock derivatives at one time.
      3 vectors produced by pass  1 Test12= 1.38D-12 3.33D-08 XBig12= 1.97D+01 3.97D-01.
      3 vectors produced by pass  2 Test12= 1.38D-12 3.33D-08 XBig12= 8.51D+00 2.01D-01.
      3 vectors produced by pass  3 Test12= 1.38D-12 3.33D-08 XBig12= 7.95D-01 9.57D-02.
      3 vectors produced by pass  4 Test12= 1.38D-12 3.33D-08 XBig12= 2.26D-01 3.73D-02.
      3 vectors produced by pass  5 Test12= 1.38D-12 3.33D-08 XBig12= 5.11D-02 2.04D-02.
      3 vectors produced by pass  6 Test12= 1.38D-12 3.33D-08 XBig12= 1.53D-02 1.58D-02.
      3 vectors produced by pass  7 Test12= 1.38D-12 3.33D-08 XBig12= 1.95D-03 6.47D-03.
      3 vectors produced by pass  8 Test12= 1.38D-12 3.33D-08 XBig12= 4.57D-04 1.84D-03.
      3 vectors produced by pass  9 Test12= 1.38D-12 3.33D-08 XBig12= 1.07D-04 1.26D-03.
      3 vectors produced by pass 10 Test12= 1.38D-12 3.33D-08 XBig12= 3.11D-05 4.30D-04.
      3 vectors produced by pass 11 Test12= 1.38D-12 3.33D-08 XBig12= 7.04D-06 2.73D-04.
      3 vectors produced by pass 12 Test12= 1.38D-12 3.33D-08 XBig12= 6.04D-07 7.03D-05.
      3 vectors produced by pass 13 Test12= 1.38D-12 3.33D-08 XBig12= 1.78D-07 3.27D-05.
      3 vectors produced by pass 14 Test12= 1.38D-12 3.33D-08 XBig12= 2.14D-08 1.52D-05.
      3 vectors produced by pass 15 Test12= 1.38D-12 3.33D-08 XBig12= 3.68D-09 5.40D-06.
      3 vectors produced by pass 16 Test12= 1.38D-12 3.33D-08 XBig12= 6.26D-10 1.61D-06.
      3 vectors produced by pass 17 Test12= 1.38D-12 3.33D-08 XBig12= 1.10D-10 6.81D-07.
      3 vectors produced by pass 18 Test12= 1.38D-12 3.33D-08 XBig12= 3.68D-11 4.01D-07.
      3 vectors produced by pass 19 Test12= 1.38D-12 3.33D-08 XBig12= 8.56D-12 2.18D-07.
      3 vectors produced by pass 20 Test12= 1.38D-12 3.33D-08 XBig12= 2.84D-12 1.19D-07.
      1 vectors produced by pass 21 Test12= 1.38D-12 3.33D-08 XBig12= 2.54D-13 3.78D-08.
 Inverted reduced A of dimension    64 with in-core refinement.
 End of Minotr Frequency-dependent properties file   721 does not exist.
 End of Minotr Frequency-dependent properties file   722 does not exist.
 Symmetrizing basis deriv contribution to polar:
 IMax=3 JMax=2 DiffMx= 0.00D+00
 G2DrvN: will do    23 centers at a time, making    2 passes doing MaxLOS=2.
 Calling FoFCou, ICntrl=  3107 FMM=F I1Cent=   0 AccDes= 0.00D+00.
 Calling FoFCou, ICntrl=  3107 FMM=F I1Cent=   0 AccDes= 0.00D+00.
 FoFDir/FoFCou used for L=0 through L=2.
 End of G2Drv Frequency-dependent properties file   721 does not exist.
 End of G2Drv Frequency-dependent properties file   722 does not exist.
          IDoAtm=111111111111111111111111111111111111111111111
          Differentiating once with respect to electric field.
                with respect to dipole field.
          Differentiating once with respect to nuclear coordinates.
          There are   138 degrees of freedom in the 1st order CPHF.  IDoFFX=5.
 Will reuse    3 saved solutions.
    135 vectors produced by pass  0 Test12= 4.15D-14 1.00D-09 XBig12= 1.95D-01 1.01D-01.
 AX will form    68 AO Fock derivatives at one time.
    135 vectors produced by pass  1 Test12= 4.15D-14 1.00D-09 XBig12= 3.78D-02 1.35D-02.
    132 vectors produced by pass  2 Test12= 4.15D-14 1.00D-09 XBig12= 2.83D-04 2.14D-03.
    132 vectors produced by pass  3 Test12= 4.15D-14 1.00D-09 XBig12= 8.00D-07 8.12D-05.
    132 vectors produced by pass  4 Test12= 4.15D-14 1.00D-09 XBig12= 1.35D-09 3.54D-06.
    130 vectors produced by pass  5 Test12= 4.15D-14 1.00D-09 XBig12= 3.37D-12 1.10D-07.
     76 vectors produced by pass  6 Test12= 4.15D-14 1.00D-09 XBig12= 1.19D-13 2.27D-08.
 Inverted reduced A of dimension   872 with in-core refinement.
 Isotropic polarizability for W=    0.000000      188.63 Bohr**3.
 End of Minotr Frequency-dependent properties file   721 does not exist.
 End of Minotr Frequency-dependent properties file   722 does not exist.

 **********************************************************************

            Population analysis using the SCF density.

 **********************************************************************

 Orbital symmetries:
       Occupied  (A) (A) (A) (A) (A) (A) (A) (A) (A) (A) (A) (A)
                 (A) (A) (A) (A) (A) (A) (A) (A) (A) (A) (A) (A)
                 (A) (A) (A) (A) (A) (A) (A) (A) (A) (A) (A) (A)
                 (A) (A) (A) (A) (A) (A) (A) (A) (A) (A) (A) (A)
                 (A) (A) (A) (A) (A) (A) (A) (A) (A) (A) (A) (A)
                 (A) (A) (A) (A) (A) (A) (A) (A) (A) (A) (A) (A)
                 (A) (A) (A) (A) (A) (A) (A) (A) (A) (A) (A) (A)
                 (A) (A) (A) (A) (A) (A) (A)
       Virtual   (A) (A) (A) (A) (A) (A) (A) (A) (A) (A) (A) (A)
                 (A) (A) (A) (A) (A) (A) (A) (A) (A) (A) (A) (A)
                 (A) (A) (A) (A) (A) (A) (A) (A) (A) (A) (A) (A)
                 (A) (A) (A) (A) (A) (A) (A) (A) (A) (A) (A) (A)
                 (A) (A) (A) (A) (A) (A) (A) (A) (A) (A) (A) (A)
                 (A) (A) (A) (A) (A) (A) (A) (A) (A) (A) (A) (A)
                 (A) (A) (A) (A) (A) (A) (A) (A) (A) (A) (A) (A)
                 (A) (A) (A) (A) (A) (A) (A) (A) (A) (A) (A) (A)
                 (A) (A) (A) (A) (A) (A) (A) (A) (A) (A) (A) (A)
                 (A) (A) (A) (A) (A) (A) (A) (A) (A) (A) (A) (A)
                 (A) (A) (A) (A) (A) (A) (A) (A) (A) (A) (A) (A)
                 (A) (A) (A) (A) (A) (A) (A) (A) (A) (A) (A) (A)
                 (A) (A) (A) (A) (A) (A) (A) (A) (A) (A) (A) (A)
                 (A) (A) (A) (A) (A) (A) (A) (A) (A) (A) (A) (A)
                 (A) (A) (A) (A) (A) (A) (A) (A) (A) (A) (A) (A)
                 (A) (A) (A) (A) (A) (A) (A) (A) (A) (A) (A) (A)
                 (A) (A) (A) (A) (A) (A) (A) (A) (A) (A) (A) (A)
                 (A) (A) (A) (A) (A) (A) (A) (A) (A) (A) (A) (A)
                 (A) (A) (A) (A) (A) (A) (A) (A) (A) (A) (A) (A)
                 (A) (A) (A) (A) (A) (A) (A) (A) (A) (A) (A) (A)
                 (A) (A) (A) (A) (A) (A) (A) (A) (A) (A) (A) (A)
                 (A) (A) (A) (A) (A) (A) (A) (A) (A) (A) (A) (A)
                 (A) (A) (A) (A) (A) (A) (A) (A) (A) (A) (A) (A)
                 (A) (A) (A) (A) (A) (A) (A) (A) (A) (A) (A) (A)
                 (A) (A) (A) (A) (A) (A) (A) (A) (A) (A) (A) (A)
                 (A) (A) (A) (A) (A) (A) (A) (A) (A) (A) (A) (A)
                 (A) (A) (A) (A) (A) (A) (A) (A) (A) (A) (A) (A)
                 (A) (A) (A) (A) (A) (A) (A) (A) (A) (A) (A) (A)
                 (A) (A) (A) (A) (A) (A) (A) (A) (A) (A) (A) (A)
                 (A) (A) (A) (A) (A) (A) (A) (A) (A) (A) (A) (A)
                 (A) (A) (A) (A) (A) (A) (A) (A) (A) (A) (A) (A)
                 (A) (A) (A) (A) (A) (A) (A) (A) (A) (A) (A) (A)
                 (A) (A) (A) (A) (A) (A) (A) (A) (A) (A) (A) (A)
                 (A) (A) (A) (A) (A) (A) (A) (A) (A) (A) (A) (A)
                 (A) (A) (A) (A) (A) (A) (A) (A) (A) (A) (A) (A)
                 (A) (A) (A) (A) (A) (A) (A) (A) (A) (A) (A) (A)
                 (A) (A) (A) (A) (A) (A) (A) (A) (A) (A) (A) (A)
                 (A) (A) (A) (A) (A) (A) (A) (A) (A) (A) (A) (A)
 The electronic state is 1-A.
 Alpha  occ. eigenvalues --  -19.19954 -19.19574 -19.19241 -19.19133 -19.18695
 Alpha  occ. eigenvalues --  -19.17925 -19.16962 -19.16596 -19.15973 -19.14637
 Alpha  occ. eigenvalues --  -19.14089 -10.31629 -10.31207 -10.26904 -10.26452
 Alpha  occ. eigenvalues --  -10.26141 -10.26094 -10.25620 -10.25389 -10.24962
 Alpha  occ. eigenvalues --  -10.24821 -10.24606 -10.24015  -1.10302  -1.09031
 Alpha  occ. eigenvalues --   -1.05662  -1.05313  -1.04369  -1.03607  -1.02568
 Alpha  occ. eigenvalues --   -1.02277  -1.02047  -1.00825  -1.00180  -0.82675
 Alpha  occ. eigenvalues --   -0.80314  -0.80044  -0.78464  -0.72496  -0.70148
 Alpha  occ. eigenvalues --   -0.67706  -0.64936  -0.63713  -0.62612  -0.61611
 Alpha  occ. eigenvalues --   -0.60146  -0.56596  -0.56204  -0.55545  -0.55393
 Alpha  occ. eigenvalues --   -0.54183  -0.53497  -0.52982  -0.51886  -0.51558
 Alpha  occ. eigenvalues --   -0.50988  -0.50572  -0.49211  -0.48677  -0.47134
 Alpha  occ. eigenvalues --   -0.46553  -0.45066  -0.44568  -0.43794  -0.43527
 Alpha  occ. eigenvalues --   -0.42612  -0.42253  -0.41686  -0.40623  -0.38924
 Alpha  occ. eigenvalues --   -0.38588  -0.37748  -0.37615  -0.35968  -0.35615
 Alpha  occ. eigenvalues --   -0.34817  -0.34427  -0.34198  -0.34023  -0.33525
 Alpha  occ. eigenvalues --   -0.33077  -0.31745  -0.31079  -0.30770  -0.29852
 Alpha  occ. eigenvalues --   -0.29613  -0.28272  -0.28078  -0.27572  -0.26823
 Alpha  occ. eigenvalues --   -0.26364
 Alpha virt. eigenvalues --   -0.02413  -0.02341  -0.01692  -0.00107   0.00244
 Alpha virt. eigenvalues --    0.00944   0.02057   0.02247   0.03016   0.03578
 Alpha virt. eigenvalues --    0.03817   0.04236   0.04615   0.05339   0.05713
 Alpha virt. eigenvalues --    0.06145   0.06793   0.07296   0.07658   0.07976
 Alpha virt. eigenvalues --    0.08342   0.08773   0.09147   0.09761   0.09991
 Alpha virt. eigenvalues --    0.10325   0.10929   0.11199   0.11861   0.11923
 Alpha virt. eigenvalues --    0.12510   0.12961   0.13259   0.13575   0.13839
 Alpha virt. eigenvalues --    0.14029   0.14163   0.14372   0.15058   0.15103
 Alpha virt. eigenvalues --    0.15541   0.16407   0.17001   0.17172   0.17376
 Alpha virt. eigenvalues --    0.17461   0.17500   0.17940   0.18068   0.18638
 Alpha virt. eigenvalues --    0.18871   0.19007   0.19540   0.19772   0.20214
 Alpha virt. eigenvalues --    0.20458   0.20724   0.21050   0.21633   0.21729
 Alpha virt. eigenvalues --    0.22022   0.22424   0.22746   0.22860   0.23348
 Alpha virt. eigenvalues --    0.23597   0.23953   0.24093   0.24460   0.24646
 Alpha virt. eigenvalues --    0.24813   0.25134   0.25564   0.25729   0.25794
 Alpha virt. eigenvalues --    0.26268   0.26442   0.26994   0.27041   0.27522
 Alpha virt. eigenvalues --    0.27664   0.27925   0.28067   0.28527   0.28834
 Alpha virt. eigenvalues --    0.29112   0.29429   0.30099   0.30361   0.30808
 Alpha virt. eigenvalues --    0.31049   0.31424   0.31753   0.32147   0.32248
 Alpha virt. eigenvalues --    0.32558   0.32915   0.33101   0.33601   0.34005
 Alpha virt. eigenvalues --    0.34083   0.34313   0.34812   0.35654   0.35834
 Alpha virt. eigenvalues --    0.36253   0.36440   0.36837   0.37034   0.37315
 Alpha virt. eigenvalues --    0.38131   0.38443   0.39012   0.39135   0.39306
 Alpha virt. eigenvalues --    0.40080   0.40390   0.40926   0.41057   0.41468
 Alpha virt. eigenvalues --    0.42027   0.42597   0.42957   0.43987   0.44312
 Alpha virt. eigenvalues --    0.44404   0.45364   0.45639   0.46605   0.47389
 Alpha virt. eigenvalues --    0.47950   0.48076   0.48607   0.49722   0.50901
 Alpha virt. eigenvalues --    0.51670   0.52515   0.55755   0.62723   0.63128
 Alpha virt. eigenvalues --    0.64527   0.65197   0.67496   0.69142   0.69451
 Alpha virt. eigenvalues --    0.70836   0.71131   0.72180   0.73169   0.73478
 Alpha virt. eigenvalues --    0.74795   0.76318   0.76832   0.78159   0.79379
 Alpha virt. eigenvalues --    0.80036   0.80221   0.81468   0.82613   0.84006
 Alpha virt. eigenvalues --    0.85576   0.86728   0.87583   0.88170   0.89392
 Alpha virt. eigenvalues --    0.90509   0.90820   0.93040   0.94017   0.94368
 Alpha virt. eigenvalues --    0.96223   0.96872   0.97434   0.99583   1.00483
 Alpha virt. eigenvalues --    1.01553   1.02094   1.03003   1.03983   1.04850
 Alpha virt. eigenvalues --    1.05290   1.05430   1.06376   1.07133   1.07412
 Alpha virt. eigenvalues --    1.07839   1.08742   1.08895   1.10106   1.11163
 Alpha virt. eigenvalues --    1.12082   1.12420   1.13189   1.13900   1.15369
 Alpha virt. eigenvalues --    1.16609   1.17705   1.19951   1.20444   1.20729
 Alpha virt. eigenvalues --    1.21840   1.22342   1.23753   1.23940   1.24541
 Alpha virt. eigenvalues --    1.25395   1.25765   1.26133   1.27554   1.27930
 Alpha virt. eigenvalues --    1.28862   1.29119   1.29869   1.30358   1.31357
 Alpha virt. eigenvalues --    1.32325   1.33173   1.33947   1.34503   1.34797
 Alpha virt. eigenvalues --    1.35068   1.35145   1.36013   1.37355   1.38239
 Alpha virt. eigenvalues --    1.39152   1.39788   1.41322   1.41500   1.43923
 Alpha virt. eigenvalues --    1.45130   1.45829   1.46270   1.47014   1.48741
 Alpha virt. eigenvalues --    1.49184   1.50156   1.50798   1.52016   1.52377
 Alpha virt. eigenvalues --    1.53445   1.55679   1.55989   1.56330   1.57925
 Alpha virt. eigenvalues --    1.58766   1.59251   1.59666   1.60355   1.61018
 Alpha virt. eigenvalues --    1.61847   1.62973   1.64116   1.65253   1.65401
 Alpha virt. eigenvalues --    1.65994   1.66924   1.67350   1.67875   1.69589
 Alpha virt. eigenvalues --    1.70778   1.71098   1.71663   1.72625   1.73584
 Alpha virt. eigenvalues --    1.74219   1.74564   1.75929   1.76614   1.77096
 Alpha virt. eigenvalues --    1.78529   1.78850   1.79988   1.80339   1.82016
 Alpha virt. eigenvalues --    1.83114   1.84017   1.85279   1.85578   1.86588
 Alpha virt. eigenvalues --    1.86960   1.88832   1.89368   1.90017   1.92134
 Alpha virt. eigenvalues --    1.92493   1.93088   1.93354   1.93913   1.94157
 Alpha virt. eigenvalues --    1.94886   1.95255   1.95430   1.97179   1.98156
 Alpha virt. eigenvalues --    1.99314   2.00048   2.00507   2.00847   2.01963
 Alpha virt. eigenvalues --    2.02896   2.03285   2.04506   2.05533   2.05796
 Alpha virt. eigenvalues --    2.06837   2.08282   2.08826   2.09580   2.11004
 Alpha virt. eigenvalues --    2.11720   2.12618   2.13092   2.14163   2.15509
 Alpha virt. eigenvalues --    2.16654   2.18010   2.18598   2.19336   2.19829
 Alpha virt. eigenvalues --    2.20171   2.21402   2.23405   2.24469   2.26117
 Alpha virt. eigenvalues --    2.28544   2.29694   2.30780   2.34129   2.35644
 Alpha virt. eigenvalues --    2.36129   2.36610   2.38314   2.39084   2.40341
 Alpha virt. eigenvalues --    2.40928   2.41598   2.41956   2.44087   2.44194
 Alpha virt. eigenvalues --    2.44840   2.46838   2.47387   2.48237   2.49361
 Alpha virt. eigenvalues --    2.50166   2.50335   2.51845   2.52802   2.54009
 Alpha virt. eigenvalues --    2.55529   2.55768   2.57134   2.57898   2.59122
 Alpha virt. eigenvalues --    2.60733   2.61080   2.62370   2.62843   2.64061
 Alpha virt. eigenvalues --    2.64476   2.66697   2.67369   2.68592   2.69980
 Alpha virt. eigenvalues --    2.70834   2.71359   2.72707   2.73658   2.74251
 Alpha virt. eigenvalues --    2.75394   2.76963   2.79273   2.79479   2.79810
 Alpha virt. eigenvalues --    2.81192   2.83489   2.84493   2.85159   2.85610
 Alpha virt. eigenvalues --    2.86703   2.87711   2.87920   2.88412   2.90017
 Alpha virt. eigenvalues --    2.90753   2.91645   2.92677   2.93277   2.94276
 Alpha virt. eigenvalues --    2.95091   2.95443   2.97062   2.98555   2.99403
 Alpha virt. eigenvalues --    3.01000   3.01641   3.04048   3.05206   3.05548
 Alpha virt. eigenvalues --    3.07951   3.10123   3.10333   3.11493   3.13487
 Alpha virt. eigenvalues --    3.16421   3.16991   3.22479   3.22717   3.29303
 Alpha virt. eigenvalues --    3.30863   3.35742   3.37765   3.38075   3.41069
 Alpha virt. eigenvalues --    3.42147   3.45042   3.45551   3.46446   3.48714
 Alpha virt. eigenvalues --    3.49584   3.50861   3.52576   3.53082   3.53258
 Alpha virt. eigenvalues --    3.56269   3.57271   3.61497   3.62396   3.65278
 Alpha virt. eigenvalues --    3.65974   3.68380   3.73739   4.30626   4.32117
 Alpha virt. eigenvalues --    4.35422   4.35850   4.40157   4.41251   4.46122
 Alpha virt. eigenvalues --    4.47552   4.49368   4.51944   4.52580   4.53993
 Alpha virt. eigenvalues --    4.56493   4.58535   4.60244   4.64588   4.71762
 Alpha virt. eigenvalues --    4.75589   4.80819   4.83358   4.84841   4.87996
 Alpha virt. eigenvalues --    4.90181
          Condensed to atoms (all electrons):
              1          2          3          4          5          6
     1  O    8.230921   0.454529  -0.169912  -0.007974   0.026726  -0.010730
     2  C    0.454529   8.540295  -1.341402  -0.042837  -0.090080  -2.062047
     3  C   -0.169912  -1.341402   9.151382   0.104123   0.071443  -0.312509
     4  O   -0.007974  -0.042837   0.104123   8.243452   0.195346  -0.012001
     5  H    0.026726  -0.090080   0.071443   0.195346   0.428040   0.006500
     6  C   -0.010730  -2.062047  -0.312509  -0.012001   0.006500  11.980638
     7  O   -0.000379   0.024274  -0.160708   0.001336  -0.000721   0.358245
     8  H    0.000019  -0.008626   0.034816  -0.000623   0.000017   0.051734
     9  C    0.018200  -0.138964  -0.348303   0.012125  -0.002795   0.573671
    10  O    0.003617  -0.005821   0.022528   0.000008  -0.000031  -0.008958
    11  H    0.000399  -0.005458  -0.001859   0.000001   0.000000   0.000203
    12  C   -0.257159  -1.078433  -0.473144   0.006876   0.022205   0.575277
    13  O    0.005115  -0.035154   0.016419   0.001344   0.000133  -0.234638
    14  C    0.042990   1.087221  -0.405953   0.039475  -0.004113  -3.855576
    15  O    0.000272  -0.028949   0.017600  -0.000290   0.000075   0.157535
    16  C    0.002970   0.154022  -0.113529  -0.002093   0.000964  -0.474856
    17  C    0.000339  -0.002702  -0.000466   0.000800   0.000037  -0.094772
    18  O   -0.000003   0.010070  -0.003870   0.000005   0.000000   0.007002
    19  H   -0.000015  -0.011450   0.009060  -0.000003   0.000000   0.016793
    20  C    0.000037   0.004953  -0.005404  -0.000074   0.000002   0.114644
    21  O    0.000000   0.000031  -0.000025   0.000000   0.000000  -0.000930
    22  H    0.000000   0.000001   0.000000   0.000000   0.000000  -0.000068
    23  C    0.000098   0.014681  -0.013761   0.000745   0.000002  -0.249811
    24  O    0.000004   0.002756  -0.020780  -0.000162  -0.000006  -0.012944
    25  H    0.000000   0.000046   0.001708   0.000007   0.000000  -0.001998
    26  C   -0.000130   0.028138  -0.052836  -0.000083  -0.000028  -0.280653
    27  O    0.000000  -0.000127   0.000690   0.000000   0.000000   0.004946
    28  C    0.000001   0.000980  -0.000129   0.000006   0.000000  -0.013186
    29  O    0.000000  -0.000007   0.000025   0.000000   0.000000  -0.000387
    30  H    0.000000   0.000000   0.000000   0.000000   0.000000   0.000008
    31  H    0.239376   0.019609   0.007240  -0.000604  -0.002390   0.003443
    32  H   -0.048511   0.469558  -0.102172   0.000351  -0.001062  -0.025957
    33  H   -0.003243   0.128711   0.176184  -0.037980  -0.006239  -0.202928
    34  H   -0.000600   0.095894  -0.189502   0.003740   0.000011   0.259683
    35  H    0.000016   0.034004  -0.039083  -0.000330   0.000005  -0.100989
    36  H    0.006441   0.037733  -0.047416   0.000113  -0.000020  -0.039813
    37  H    0.000328  -0.004783  -0.001924   0.000021   0.000000   0.000613
    38  H    0.001669  -0.016323  -0.002343  -0.000009   0.000000   0.017117
    39  H   -0.000001  -0.001009   0.002762   0.000002   0.000000   0.000039
    40  H    0.000000   0.000154   0.000139   0.000000   0.000000   0.002026
    41  H    0.000000  -0.000212   0.000837   0.000000   0.000000   0.002307
    42  H    0.000000   0.000014  -0.000063   0.000000   0.000000   0.000094
    43  H    0.000000  -0.000007   0.000009   0.000000   0.000000   0.000123
    44  H    0.000000   0.000039   0.000060   0.000000   0.000000   0.000664
    45  H    0.000000  -0.000032   0.000592   0.000001   0.000000  -0.001964
              7          8          9         10         11         12
     1  O   -0.000379   0.000019   0.018200   0.003617   0.000399  -0.257159
     2  C    0.024274  -0.008626  -0.138964  -0.005821  -0.005458  -1.078433
     3  C   -0.160708   0.034816  -0.348303   0.022528  -0.001859  -0.473144
     4  O    0.001336  -0.000623   0.012125   0.000008   0.000001   0.006876
     5  H   -0.000721   0.000017  -0.002795  -0.000031   0.000000   0.022205
     6  C    0.358245   0.051734   0.573671  -0.008958   0.000203   0.575277
     7  O    8.224492   0.220845  -0.001968   0.000008   0.000000   0.010678
     8  H    0.220845   0.341696   0.000373   0.000000   0.000000  -0.001504
     9  C   -0.001968   0.000373   7.693155   0.081344  -0.000980  -2.349398
    10  O    0.000008   0.000000   0.081344   8.348117   0.196517   0.014601
    11  H    0.000000   0.000000  -0.000980   0.196517   0.438955   0.030957
    12  C    0.010678  -0.001504  -2.349398   0.014601   0.030957  10.737888
    13  O    0.008758  -0.000513   0.039235  -0.004021  -0.000110  -0.180945
    14  C   -0.118833  -0.074011  -0.442869   0.011476  -0.003862  -0.896417
    15  O   -0.002605   0.013752  -0.004966  -0.000063   0.000007   0.027000
    16  C    0.012030   0.011206  -0.190996  -0.002154  -0.000021   0.010799
    17  C   -0.003753   0.002724  -0.011406   0.000182  -0.000028  -0.104896
    18  O   -0.000095  -0.000010   0.007039  -0.000043   0.000015  -0.023547
    19  H   -0.000021  -0.000006  -0.004432  -0.000016  -0.000003   0.010946
    20  C    0.004505   0.000746   0.008405   0.000090   0.000009  -0.034476
    21  O   -0.000004   0.000000   0.000032   0.000000   0.000000   0.000003
    22  H    0.000000   0.000000  -0.000009   0.000000   0.000000   0.000042
    23  C    0.043872   0.013590   0.000584  -0.000016   0.000000  -0.020041
    24  O   -0.026558  -0.008494   0.000295   0.000000   0.000000   0.004468
    25  H    0.001767   0.000013  -0.000013   0.000000   0.000000  -0.000247
    26  C   -0.025710  -0.028922  -0.008556  -0.000020   0.000006   0.046173
    27  O    0.000171   0.000009  -0.000147   0.000000   0.000000  -0.000539
    28  C   -0.000529  -0.000199  -0.003914  -0.000006   0.000000   0.007671
    29  O   -0.000003   0.000000  -0.000013   0.000000   0.000000   0.000055
    30  H    0.000000   0.000000   0.000000   0.000000   0.000000  -0.000002
    31  H   -0.000025   0.000000  -0.013717  -0.000878   0.000000  -0.000141
    32  H    0.000010   0.000004   0.023083  -0.000455  -0.000001  -0.176199
    33  H    0.006130  -0.000079   0.025112   0.000065   0.000000  -0.031955
    34  H   -0.042885  -0.010246   0.011239   0.000010   0.000000  -0.012056
    35  H   -0.000248  -0.000466   0.005455   0.000054   0.000000  -0.013358
    36  H   -0.000032   0.000002   0.054573   0.005663  -0.000120   0.138008
    37  H   -0.000011   0.000000   0.403004  -0.043654  -0.012033  -0.022802
    38  H   -0.000002   0.000000   0.666334  -0.068892  -0.001643  -0.319418
    39  H   -0.000322   0.000034   0.000039   0.000001   0.000000   0.003073
    40  H    0.000014   0.000000  -0.000009   0.000000   0.000000   0.001294
    41  H    0.000170  -0.000004   0.000095   0.000000   0.000000   0.000575
    42  H   -0.000602   0.000252  -0.000002   0.000000   0.000000   0.000029
    43  H    0.000001   0.000000   0.000004   0.000000   0.000000   0.000020
    44  H    0.000003   0.000000  -0.000094   0.000000   0.000000   0.000528
    45  H    0.002015   0.000182   0.000015   0.000000   0.000000   0.000109
             13         14         15         16         17         18
     1  O    0.005115   0.042990   0.000272   0.002970   0.000339  -0.000003
     2  C   -0.035154   1.087221  -0.028949   0.154022  -0.002702   0.010070
     3  C    0.016419  -0.405953   0.017600  -0.113529  -0.000466  -0.003870
     4  O    0.001344   0.039475  -0.000290  -0.002093   0.000800   0.000005
     5  H    0.000133  -0.004113   0.000075   0.000964   0.000037   0.000000
     6  C   -0.234638  -3.855576   0.157535  -0.474856  -0.094772   0.007002
     7  O    0.008758  -0.118833  -0.002605   0.012030  -0.003753  -0.000095
     8  H   -0.000513  -0.074011   0.013752   0.011206   0.002724  -0.000010
     9  C    0.039235  -0.442869  -0.004966  -0.190996  -0.011406   0.007039
    10  O   -0.004021   0.011476  -0.000063  -0.002154   0.000182  -0.000043
    11  H   -0.000110  -0.003862   0.000007  -0.000021  -0.000028   0.000015
    12  C   -0.180945  -0.896417   0.027000   0.010799  -0.104896  -0.023547
    13  O    8.512095   0.286338  -0.042282   0.148577  -0.091980   0.029371
    14  C    0.286338  10.613595   0.009612  -0.762035  -0.080730  -0.052588
    15  O   -0.042282   0.009612   8.331345  -0.042985   0.095274  -0.003862
    16  C    0.148577  -0.762035  -0.042985  12.972495  -2.856629  -0.070360
    17  C   -0.091980  -0.080730   0.095274  -2.856629   9.857731   0.356669
    18  O    0.029371  -0.052588  -0.003862  -0.070360   0.356669   8.218389
    19  H    0.004517   0.013333   0.036761  -0.125030   0.054336   0.170307
    20  C   -0.010891  -0.301667   0.034748  -1.169717  -1.174128  -0.119955
    21  O    0.000128   0.001616  -0.000545   0.004982  -0.178182   0.015658
    22  H    0.000001  -0.000994   0.000029  -0.016327   0.026011  -0.000809
    23  C    0.017624  -0.026562  -0.052547   0.332430  -0.424595   0.005513
    24  O    0.000301   0.066882  -0.011420   0.038836  -0.007874   0.000093
    25  H    0.000042  -0.005708   0.002004  -0.010675   0.000222   0.000000
    26  C   -0.023157  -0.142090  -0.055637  -3.060358   0.599169   0.038118
    27  O   -0.000320  -0.012341   0.007348  -0.100169  -0.028220  -0.000072
    28  C    0.005053  -0.067643   0.009975   0.881731  -0.219492  -0.005922
    29  O    0.000007   0.000387   0.000105  -0.016172   0.043400  -0.000834
    30  H    0.000000   0.000061  -0.000007  -0.000706   0.011067  -0.000017
    31  H   -0.001047  -0.003698  -0.000018   0.000096  -0.000051   0.000000
    32  H    0.012381   0.086194  -0.000417   0.001119   0.001017   0.000080
    33  H    0.007923   0.146943  -0.000698   0.006517   0.000859   0.000034
    34  H    0.014870   0.073119  -0.011138   0.025784   0.003058   0.000168
    35  H   -0.058969   0.379132  -0.066194   0.021982   0.034346  -0.000741
    36  H   -0.038229   0.111756  -0.001482   0.005703   0.003988   0.000315
    37  H   -0.001969   0.002545  -0.000333   0.005629  -0.000870  -0.001369
    38  H    0.008261   0.006085  -0.000210  -0.006156   0.000922   0.000347
    39  H    0.000214   0.012360  -0.056850   0.288996  -0.000358  -0.002842
    40  H    0.002771   0.035094  -0.012923   0.071846   0.246825  -0.050610
    41  H   -0.000409   0.045826   0.003710  -0.000164  -0.003371  -0.000204
    42  H    0.000007   0.003725   0.000749   0.015069  -0.005412   0.000031
    43  H    0.000007   0.004906   0.000139   0.087034  -0.004878  -0.000467
    44  H    0.000429   0.002825  -0.001488   0.123566  -0.276550   0.003609
    45  H   -0.000047  -0.001639  -0.000055   0.030332   0.001387   0.000009
             19         20         21         22         23         24
     1  O   -0.000015   0.000037   0.000000   0.000000   0.000098   0.000004
     2  C   -0.011450   0.004953   0.000031   0.000001   0.014681   0.002756
     3  C    0.009060  -0.005404  -0.000025   0.000000  -0.013761  -0.020780
     4  O   -0.000003  -0.000074   0.000000   0.000000   0.000745  -0.000162
     5  H    0.000000   0.000002   0.000000   0.000000   0.000002  -0.000006
     6  C    0.016793   0.114644  -0.000930  -0.000068  -0.249811  -0.012944
     7  O   -0.000021   0.004505  -0.000004   0.000000   0.043872  -0.026558
     8  H   -0.000006   0.000746   0.000000   0.000000   0.013590  -0.008494
     9  C   -0.004432   0.008405   0.000032  -0.000009   0.000584   0.000295
    10  O   -0.000016   0.000090   0.000000   0.000000  -0.000016   0.000000
    11  H   -0.000003   0.000009   0.000000   0.000000   0.000000   0.000000
    12  C    0.010946  -0.034476   0.000003   0.000042  -0.020041   0.004468
    13  O    0.004517  -0.010891   0.000128   0.000001   0.017624   0.000301
    14  C    0.013333  -0.301667   0.001616  -0.000994  -0.026562   0.066882
    15  O    0.036761   0.034748  -0.000545   0.000029  -0.052547  -0.011420
    16  C   -0.125030  -1.169717   0.004982  -0.016327   0.332430   0.038836
    17  C    0.054336  -1.174128  -0.178182   0.026011  -0.424595  -0.007874
    18  O    0.170307  -0.119955   0.015658  -0.000809   0.005513   0.000093
    19  H    0.378047   0.027315  -0.000978   0.000006  -0.006464   0.000010
    20  C    0.027315   9.532621   0.277658  -0.023254   0.139635  -0.001484
    21  O   -0.000978   0.277658   8.252068   0.205055   0.001008   0.000020
    22  H    0.000006  -0.023254   0.205055   0.424501  -0.000132   0.000000
    23  C   -0.006464   0.139635   0.001008  -0.000132   6.965569   0.045988
    24  O    0.000010  -0.001484   0.000020   0.000000   0.045988   8.506623
    25  H    0.000000   0.000692   0.000000   0.000000   0.000407   0.218998
    26  C    0.014495   0.259681   0.008843   0.006486  -1.619766  -0.051511
    27  O    0.000226  -0.188533   0.008808   0.001030  -0.073580   0.002802
    28  C   -0.005112  -1.442070  -0.011015   0.011127  -0.076519   0.002319
    29  O    0.000034  -0.127376  -0.005919   0.019058  -0.002756  -0.000006
    30  H    0.000000  -0.024828  -0.000448  -0.002756   0.000726   0.000000
    31  H    0.000000   0.000000   0.000000   0.000000   0.000001   0.000000
    32  H   -0.000004   0.000031   0.000000   0.000000   0.000120   0.000012
    33  H   -0.000002   0.000001   0.000000   0.000000   0.000789   0.000135
    34  H   -0.000057   0.000688   0.000000   0.000000   0.008037   0.002726
    35  H   -0.000578   0.009657   0.000007   0.000000   0.002627   0.000684
    36  H    0.000087   0.000534   0.000000   0.000000   0.000244   0.000009
    37  H    0.000326  -0.000993  -0.000004   0.000000   0.000009   0.000000
    38  H   -0.000102   0.000288   0.000000   0.000000   0.000011   0.000000
    39  H   -0.000409   0.025392  -0.000564   0.000003   0.020113   0.000276
    40  H   -0.004336  -0.090177   0.001633  -0.000130   0.031933  -0.000041
    41  H    0.000034  -0.038780   0.000086   0.000002   0.009870   0.007155
    42  H    0.000000   0.000937  -0.000005   0.000000   0.426716  -0.040971
    43  H    0.000004  -0.176007   0.004000  -0.001464   0.000037   0.000033
    44  H   -0.000091   0.432026  -0.054656  -0.002158   0.015996   0.000000
    45  H    0.000002  -0.001201  -0.000002   0.000000   0.614253  -0.071569
             25         26         27         28         29         30
     1  O    0.000000  -0.000130   0.000000   0.000001   0.000000   0.000000
     2  C    0.000046   0.028138  -0.000127   0.000980  -0.000007   0.000000
     3  C    0.001708  -0.052836   0.000690  -0.000129   0.000025   0.000000
     4  O    0.000007  -0.000083   0.000000   0.000006   0.000000   0.000000
     5  H    0.000000  -0.000028   0.000000   0.000000   0.000000   0.000000
     6  C   -0.001998  -0.280653   0.004946  -0.013186  -0.000387   0.000008
     7  O    0.001767  -0.025710   0.000171  -0.000529  -0.000003   0.000000
     8  H    0.000013  -0.028922   0.000009  -0.000199   0.000000   0.000000
     9  C   -0.000013  -0.008556  -0.000147  -0.003914  -0.000013   0.000000
    10  O    0.000000  -0.000020   0.000000  -0.000006   0.000000   0.000000
    11  H    0.000000   0.000006   0.000000   0.000000   0.000000   0.000000
    12  C   -0.000247   0.046173  -0.000539   0.007671   0.000055  -0.000002
    13  O    0.000042  -0.023157  -0.000320   0.005053   0.000007   0.000000
    14  C   -0.005708  -0.142090  -0.012341  -0.067643   0.000387   0.000061
    15  O    0.002004  -0.055637   0.007348   0.009975   0.000105  -0.000007
    16  C   -0.010675  -3.060358  -0.100169   0.881731  -0.016172  -0.000706
    17  C    0.000222   0.599169  -0.028220  -0.219492   0.043400   0.011067
    18  O    0.000000   0.038118  -0.000072  -0.005922  -0.000834  -0.000017
    19  H    0.000000   0.014495   0.000226  -0.005112   0.000034   0.000000
    20  C    0.000692   0.259681  -0.188533  -1.442070  -0.127376  -0.024828
    21  O    0.000000   0.008843   0.008808  -0.011015  -0.005919  -0.000448
    22  H    0.000000   0.006486   0.001030   0.011127   0.019058  -0.002756
    23  C    0.000407  -1.619766  -0.073580  -0.076519  -0.002756   0.000726
    24  O    0.218998  -0.051511   0.002802   0.002319  -0.000006   0.000000
    25  H    0.383022   0.020457  -0.000347  -0.000991   0.000000   0.000000
    26  C    0.020457  10.951884   0.289046  -0.686019  -0.039418   0.000895
    27  O   -0.000347   0.289046   8.415619   0.145751  -0.068667  -0.000525
    28  C   -0.000991  -0.686019   0.145751   6.371790   0.355279   0.021029
    29  O    0.000000  -0.039418  -0.068667   0.355279   8.221433   0.235416
    30  H    0.000000   0.000895  -0.000525   0.021029   0.235416   0.406064
    31  H    0.000000  -0.000005   0.000000   0.000000   0.000000   0.000000
    32  H    0.000000   0.000201   0.000000  -0.000009   0.000000   0.000000
    33  H    0.000000   0.000507   0.000000  -0.000011   0.000000   0.000000
    34  H    0.000017   0.000261   0.000003  -0.000106   0.000000   0.000000
    35  H    0.000006   0.016890   0.000266  -0.000796  -0.000004   0.000000
    36  H    0.000000   0.000417   0.000000  -0.000080   0.000000   0.000000
    37  H    0.000000  -0.000198   0.000000   0.000118   0.000000   0.000000
    38  H    0.000000  -0.000213   0.000000  -0.000040   0.000000   0.000000
    39  H    0.000001  -0.063254   0.008366  -0.001214  -0.000764   0.000001
    40  H    0.000000  -0.015368   0.002407  -0.010896  -0.000632   0.000006
    41  H   -0.000192   0.206458  -0.043543   0.036618  -0.001588   0.000015
    42  H   -0.011320  -0.059363  -0.004268   0.000196  -0.000136  -0.000001
    43  H    0.000000  -0.059127  -0.066180   0.497135  -0.063205  -0.008316
    44  H    0.000000  -0.011710   0.006661  -0.002372  -0.010055   0.000370
    45  H    0.000436  -0.297506   0.011521   0.005520  -0.000159   0.000000
             31         32         33         34         35         36
     1  O    0.239376  -0.048511  -0.003243  -0.000600   0.000016   0.006441
     2  C    0.019609   0.469558   0.128711   0.095894   0.034004   0.037733
     3  C    0.007240  -0.102172   0.176184  -0.189502  -0.039083  -0.047416
     4  O   -0.000604   0.000351  -0.037980   0.003740  -0.000330   0.000113
     5  H   -0.002390  -0.001062  -0.006239   0.000011   0.000005  -0.000020
     6  C    0.003443  -0.025957  -0.202928   0.259683  -0.100989  -0.039813
     7  O   -0.000025   0.000010   0.006130  -0.042885  -0.000248  -0.000032
     8  H    0.000000   0.000004  -0.000079  -0.010246  -0.000466   0.000002
     9  C   -0.013717   0.023083   0.025112   0.011239   0.005455   0.054573
    10  O   -0.000878  -0.000455   0.000065   0.000010   0.000054   0.005663
    11  H    0.000000  -0.000001   0.000000   0.000000   0.000000  -0.000120
    12  C   -0.000141  -0.176199  -0.031955  -0.012056  -0.013358   0.138008
    13  O   -0.001047   0.012381   0.007923   0.014870  -0.058969  -0.038229
    14  C   -0.003698   0.086194   0.146943   0.073119   0.379132   0.111756
    15  O   -0.000018  -0.000417  -0.000698  -0.011138  -0.066194  -0.001482
    16  C    0.000096   0.001119   0.006517   0.025784   0.021982   0.005703
    17  C   -0.000051   0.001017   0.000859   0.003058   0.034346   0.003988
    18  O    0.000000   0.000080   0.000034   0.000168  -0.000741   0.000315
    19  H    0.000000  -0.000004  -0.000002  -0.000057  -0.000578   0.000087
    20  C    0.000000   0.000031   0.000001   0.000688   0.009657   0.000534
    21  O    0.000000   0.000000   0.000000   0.000000   0.000007   0.000000
    22  H    0.000000   0.000000   0.000000   0.000000   0.000000   0.000000
    23  C    0.000001   0.000120   0.000789   0.008037   0.002627   0.000244
    24  O    0.000000   0.000012   0.000135   0.002726   0.000684   0.000009
    25  H    0.000000   0.000000   0.000000   0.000017   0.000006   0.000000
    26  C   -0.000005   0.000201   0.000507   0.000261   0.016890   0.000417
    27  O    0.000000   0.000000   0.000000   0.000003   0.000266   0.000000
    28  C    0.000000  -0.000009  -0.000011  -0.000106  -0.000796  -0.000080
    29  O    0.000000   0.000000   0.000000   0.000000  -0.000004   0.000000
    30  H    0.000000   0.000000   0.000000   0.000000   0.000000   0.000000
    31  H    0.391344  -0.011490  -0.000078   0.000012   0.000001  -0.000101
    32  H   -0.011490   0.618441   0.006495   0.003255   0.000019   0.006777
    33  H   -0.000078   0.006495   0.624407   0.007168   0.002180   0.004035
    34  H    0.000012   0.003255   0.007168   0.602241   0.005546   0.000081
    35  H    0.000001   0.000019   0.002180   0.005546   0.625948   0.005307
    36  H   -0.000101   0.006777   0.004035   0.000081   0.005307   0.618948
    37  H   -0.000018  -0.000051   0.000004   0.000001   0.000000  -0.009527
    38  H   -0.000012   0.004701   0.000005   0.000000  -0.000008   0.007302
    39  H    0.000000   0.000000  -0.000002   0.000011   0.010342  -0.000003
    40  H    0.000000   0.000000   0.000000  -0.000005  -0.000037   0.000000
    41  H    0.000000   0.000000   0.000000  -0.000011  -0.000016   0.000000
    42  H    0.000000   0.000000   0.000000   0.000001   0.000001   0.000000
    43  H    0.000000   0.000000   0.000000   0.000000   0.000000   0.000000
    44  H    0.000000   0.000000   0.000000   0.000000  -0.000022   0.000000
    45  H    0.000000   0.000000   0.000000  -0.000005  -0.000002   0.000000
             37         38         39         40         41         42
     1  O    0.000328   0.001669  -0.000001   0.000000   0.000000   0.000000
     2  C   -0.004783  -0.016323  -0.001009   0.000154  -0.000212   0.000014
     3  C   -0.001924  -0.002343   0.002762   0.000139   0.000837  -0.000063
     4  O    0.000021  -0.000009   0.000002   0.000000   0.000000   0.000000
     5  H    0.000000   0.000000   0.000000   0.000000   0.000000   0.000000
     6  C    0.000613   0.017117   0.000039   0.002026   0.002307   0.000094
     7  O   -0.000011  -0.000002  -0.000322   0.000014   0.000170  -0.000602
     8  H    0.000000   0.000000   0.000034   0.000000  -0.000004   0.000252
     9  C    0.403004   0.666334   0.000039  -0.000009   0.000095  -0.000002
    10  O   -0.043654  -0.068892   0.000001   0.000000   0.000000   0.000000
    11  H   -0.012033  -0.001643   0.000000   0.000000   0.000000   0.000000
    12  C   -0.022802  -0.319418   0.003073   0.001294   0.000575   0.000029
    13  O   -0.001969   0.008261   0.000214   0.002771  -0.000409   0.000007
    14  C    0.002545   0.006085   0.012360   0.035094   0.045826   0.003725
    15  O   -0.000333  -0.000210  -0.056850  -0.012923   0.003710   0.000749
    16  C    0.005629  -0.006156   0.288996   0.071846  -0.000164   0.015069
    17  C   -0.000870   0.000922  -0.000358   0.246825  -0.003371  -0.005412
    18  O   -0.001369   0.000347  -0.002842  -0.050610  -0.000204   0.000031
    19  H    0.000326  -0.000102  -0.000409  -0.004336   0.000034   0.000000
    20  C   -0.000993   0.000288   0.025392  -0.090177  -0.038780   0.000937
    21  O   -0.000004   0.000000  -0.000564   0.001633   0.000086  -0.000005
    22  H    0.000000   0.000000   0.000003  -0.000130   0.000002   0.000000
    23  C    0.000009   0.000011   0.020113   0.031933   0.009870   0.426716
    24  O    0.000000   0.000000   0.000276  -0.000041   0.007155  -0.040971
    25  H    0.000000   0.000000   0.000001   0.000000  -0.000192  -0.011320
    26  C   -0.000198  -0.000213  -0.063254  -0.015368   0.206458  -0.059363
    27  O    0.000000   0.000000   0.008366   0.002407  -0.043543  -0.004268
    28  C    0.000118  -0.000040  -0.001214  -0.010896   0.036618   0.000196
    29  O    0.000000   0.000000  -0.000764  -0.000632  -0.001588  -0.000136
    30  H    0.000000   0.000000   0.000001   0.000006   0.000015  -0.000001
    31  H   -0.000018  -0.000012   0.000000   0.000000   0.000000   0.000000
    32  H   -0.000051   0.004701   0.000000   0.000000   0.000000   0.000000
    33  H    0.000004   0.000005  -0.000002   0.000000   0.000000   0.000000
    34  H    0.000001   0.000000   0.000011  -0.000005  -0.000011   0.000001
    35  H    0.000000  -0.000008   0.010342  -0.000037  -0.000016   0.000001
    36  H   -0.009527   0.007302  -0.000003   0.000000   0.000000   0.000000
    37  H    0.595170  -0.050414   0.000000   0.000000   0.000000   0.000000
    38  H   -0.050414   0.617433   0.000000   0.000001   0.000000   0.000000
    39  H    0.000000   0.000000   0.598610   0.006054   0.006107  -0.000030
    40  H    0.000000   0.000001   0.006054   0.638706   0.004278   0.000003
    41  H    0.000000   0.000000   0.006107   0.004278   0.627139  -0.008479
    42  H    0.000000   0.000000  -0.000030   0.000003  -0.008479   0.585773
    43  H    0.000000   0.000000   0.000039   0.003740   0.005042  -0.000034
    44  H    0.000000   0.000000   0.003835   0.007714   0.000069   0.000001
    45  H    0.000000   0.000000   0.003664  -0.000001   0.007169  -0.040970
             43         44         45
     1  O    0.000000   0.000000   0.000000
     2  C   -0.000007   0.000039  -0.000032
     3  C    0.000009   0.000060   0.000592
     4  O    0.000000   0.000000   0.000001
     5  H    0.000000   0.000000   0.000000
     6  C    0.000123   0.000664  -0.001964
     7  O    0.000001   0.000003   0.002015
     8  H    0.000000   0.000000   0.000182
     9  C    0.000004  -0.000094   0.000015
    10  O    0.000000   0.000000   0.000000
    11  H    0.000000   0.000000   0.000000
    12  C    0.000020   0.000528   0.000109
    13  O    0.000007   0.000429  -0.000047
    14  C    0.004906   0.002825  -0.001639
    15  O    0.000139  -0.001488  -0.000055
    16  C    0.087034   0.123566   0.030332
    17  C   -0.004878  -0.276550   0.001387
    18  O   -0.000467   0.003609   0.000009
    19  H    0.000004  -0.000091   0.000002
    20  C   -0.176007   0.432026  -0.001201
    21  O    0.004000  -0.054656  -0.000002
    22  H   -0.001464  -0.002158   0.000000
    23  C    0.000037   0.015996   0.614253
    24  O    0.000033   0.000000  -0.071569
    25  H    0.000000   0.000000   0.000436
    26  C   -0.059127  -0.011710  -0.297506
    27  O   -0.066180   0.006661   0.011521
    28  C    0.497135  -0.002372   0.005520
    29  O   -0.063205  -0.010055  -0.000159
    30  H   -0.008316   0.000370   0.000000
    31  H    0.000000   0.000000   0.000000
    32  H    0.000000   0.000000   0.000000
    33  H    0.000000   0.000000   0.000000
    34  H    0.000000   0.000000  -0.000005
    35  H    0.000000  -0.000022  -0.000002
    36  H    0.000000   0.000000   0.000000
    37  H    0.000000   0.000000   0.000000
    38  H    0.000000   0.000000   0.000000
    39  H    0.000039   0.003835   0.003664
    40  H    0.003740   0.007714  -0.000001
    41  H    0.005042   0.000069   0.007169
    42  H   -0.000034   0.000001  -0.040970
    43  H    0.645047   0.006316   0.000005
    44  H    0.006316   0.610538  -0.000005
    45  H    0.000005  -0.000005   0.585053
 Mulliken atomic charges:
              1
     1  O   -0.535410
     2  C   -0.233289
     3  C    0.189479
     4  O   -0.504813
     5  H    0.355980
     6  C   -0.135594
     7  O   -0.533309
     8  H    0.441690
     9  C   -0.099861
    10  O   -0.549252
    11  H    0.359051
    12  C    0.347402
    13  O   -0.397241
    14  C    0.175834
    15  O   -0.350075
    16  C   -0.233582
    17  C    0.230979
    18  O   -0.524624
    19  H    0.422472
    20  C    0.055723
    21  O   -0.528361
    22  H    0.354748
    23  C   -0.146677
    24  O   -0.647602
    25  H    0.401646
    26  C    0.093512
    27  O   -0.318093
    28  C    0.195970
    29  O   -0.537095
    30  H    0.361948
    31  H    0.373151
    32  H    0.132481
    33  H    0.139010
    34  H    0.148989
    35  H    0.127366
    36  H    0.128788
    37  H    0.143182
    38  H    0.135308
    39  H    0.137288
    40  H    0.128527
    41  H    0.133411
    42  H    0.138056
    43  H    0.126046
    44  H    0.143954
    45  H    0.152890
 Sum of Mulliken atomic charges =   0.00000
 Mulliken charges with hydrogens summed into heavy atoms:
              1
     1  O   -0.162259
     2  C   -0.100809
     3  C    0.328489
     4  O   -0.148833
     6  C    0.013395
     7  O   -0.091619
     9  C    0.178629
    10  O   -0.190202
    12  C    0.476190
    13  O   -0.397241
    14  C    0.303199
    15  O   -0.350075
    16  C   -0.096294
    17  C    0.359505
    18  O   -0.102152
    20  C    0.199677
    21  O   -0.173613
    23  C    0.144269
    24  O   -0.245956
    26  C    0.226923
    27  O   -0.318093
    28  C    0.322016
    29  O   -0.175147
 Sum of Mulliken charges with hydrogens summed into heavy atoms =   0.00000
 APT atomic charges:
              1
     1  O   -0.642686
     2  C    0.414553
     3  C    0.406762
     4  O   -0.633515
     5  H    0.265068
     6  C    0.367728
     7  O   -0.732865
     8  H    0.458810
     9  C    0.481854
    10  O   -0.631768
    11  H    0.255436
    12  C    0.467334
    13  O   -0.913037
    14  C    0.959411
    15  O   -0.871877
    16  C    0.440930
    17  C    0.383998
    18  O   -0.704797
    19  H    0.412373
    20  C    0.402167
    21  O   -0.658421
    22  H    0.272426
    23  C    0.456677
    24  O   -0.678371
    25  H    0.264759
    26  C    0.483853
    27  O   -0.837183
    28  C    0.960242
    29  O   -0.671611
    30  H    0.265111
    31  H    0.267616
    32  H   -0.044932
    33  H   -0.053495
    34  H   -0.028603
    35  H   -0.060940
    36  H   -0.059786
    37  H   -0.043200
    38  H   -0.054619
    39  H   -0.032085
    40  H   -0.062247
    41  H   -0.062144
    42  H   -0.036045
    43  H   -0.095362
    44  H   -0.045145
    45  H   -0.032374
 Sum of APT charges=   0.00000
 APT Atomic charges with hydrogens summed into heavy atoms:
              1
     1  O   -0.375070
     2  C    0.369621
     3  C    0.353266
     4  O   -0.368448
[...]
 037338,-0.00044172,-0.00052766,0.00000317,0.00001040,0.00000179,-0.000
 00069,-0.00000959,-0.00000677,0.00000026,0.00000164,0.00000019,-0.0000
 0051,0.00000297,0.00002883,0.00005485,-0.00003941,-0.00004157,-0.00021
 978,0.00007821,0.00008816,0.00006325,-0.00022610,-0.00015616,-0.000560
 03,0.00210680,-0.00128651,0.00058274,0.00023839,0.00051068,-0.00015549
 ,0.00033442,0.00007410,0.00000820,0.00001571,-0.00007824,-0.00002619,-
 0.00001031,0.00001232,0.00000590,-0.00002041,-0.00000411,0.00000482,0.
 00000683,-0.00000642,-0.08378954,-0.05985318,-0.08383763,0.00534816,0.
 00475091,0.01578038,0.00201765,0.00107603,-0.00058840,0.00460725,0.012
 32632,0.01147319,0.00017475,-0.00154668,0.00070979,-0.00009848,0.00017
 613,0.00005753,-0.00006367,-0.00001788,0.00015295,0.00000143,-0.000049
 28,-0.00001788,0.00000045,0.00000134,0.00000328,-0.00000065,0.00000041
 ,-0.00000097,0.00000249,0.00000030,-0.00000039,0.00000468,-0.00000606,
 -0.00001481,0.00005087,0.00003028,0.00001629,0.00000092,0.00000178,0.,
 -0.00000228,0.00000005,-0.00000107,0.00000003,-0.00000101,-0.00000088,
 0.00017744,0.00037022,0.00013816,-0.00002788,-0.00008388,0.00001662,0.
 00097379,-0.00057011,0.00077155,0.08035785,-0.00000564,0.00003914,-0.0
 0003715,-0.00000097,-0.00006178,0.00005797,-0.00003369,0.00009882,0.00
 005497,-0.00000557,0.00005527,-0.00004828,0.00000673,-0.00000328,-0.00
 000312,0.00024716,-0.00047201,-0.00013632,0.00037445,0.00080494,0.0009
 4027,-0.00059115,-0.00084146,-0.00155301,-0.00000746,0.00003111,0.0000
 3323,-0.00000116,-0.00004028,-0.00005462,-0.00000163,0.00000762,0.0000
 0642,0.00003963,0.00001232,0.00012689,-0.00003222,0.00002963,-0.000355
 27,0.00028173,0.00002559,0.00067358,-0.00021247,0.00045178,-0.00016078
 ,0.00339566,-0.00449352,0.00409363,-0.00106551,0.00011537,-0.00173530,
 0.00041583,-0.00123485,-0.00036920,-0.00010781,0.00000708,0.00039063,-
 0.00000874,0.00030112,-0.00055470,0.00003884,0.00006287,0.00031132,-0.
 00001611,-0.00007605,0.00000067,-0.05723937,-0.14257829,-0.14137695,0.
 00325375,0.00521810,0.02793826,0.00050567,0.00321374,0.00154522,-0.011
 50653,-0.02136653,-0.02563455,0.00038059,0.00266190,-0.00045501,0.0000
 9328,-0.00030855,0.00036474,0.00002757,0.00012693,0.00014984,-0.000019
 75,-0.00007080,0.00000966,-0.00000206,-0.00000099,0.00000723,-0.000001
 40,0.00000081,-0.00000098,-0.00000172,-0.00000588,-0.00001119,-0.00004
 124,0.00001181,-0.00000863,-0.00000432,-0.00002040,-0.00001776,-0.0000
 0979,-0.00000218,-0.00001275,0.00000874,0.00001980,-0.00000189,-0.0000
 0424,-0.00000252,0.00000295,0.00002358,0.00026739,0.00016855,0.0001328
 9,-0.00002583,0.00006284,0.00016070,0.00138649,-0.00005465,0.06095785,
 0.15544132,0.00000833,-0.00006518,-0.00008821,-0.00003092,0.00009693,0
 .00001126,0.00007007,-0.00015069,0.00004313,0.00001452,-0.00000880,-0.
 00006016,-0.00000283,-0.00000470,0.00001483,-0.00041623,0.00056014,0.0
 0019135,-0.00044827,-0.00103914,-0.00137882,0.00082737,0.00127870,0.00
 254528,-0.00000700,0.00003408,0.00002021,-0.00000297,-0.00003782,-0.00
 002041,0.00000185,0.00000579,0.00000057,0.00003566,0.00003986,0.000019
 84,0.00003618,-0.00022001,0.00004078,-0.00002305,0.00020515,-0.0001745
 6,-0.00001016,-0.00026893,0.00014688,0.00043182,0.00114139,-0.00025692
 ,-0.00005653,0.00002785,0.00012687,-0.00002864,0.00009562,0.00013899,-
 0.00000914,0.00006112,-0.00009939,-0.00002632,0.00004122,-0.00006427,0
 .00000785,0.00001676,0.00003837,-0.00000254,-0.00001617,-0.00000396,-0
 .07891674,-0.13390381,-0.22414411,-0.00419816,-0.00276752,-0.04145128,
 -0.00002929,-0.00086213,0.00056673,-0.00048672,-0.00013363,0.00187846,
 -0.00022172,0.00099167,0.00072504,0.00015093,0.00001464,0.00029204,0.0
 0002335,0.00000588,-0.00001524,-0.00000410,0.00000226,0.00000576,-0.00
 001014,0.00000430,0.00001021,0.00000225,-0.00000323,-0.00000186,-0.000
 00014,0.00000830,0.00000623,0.00005296,-0.00002260,0.00001509,-0.00000
 175,0.00000291,0.00000355,-0.00000288,0.00000205,-0.00000110,-0.000001
 84,-0.00001129,-0.00000012,0.00000134,-0.00000077,-0.00000307,-0.00002
 776,0.00000937,-0.00000352,-0.00000016,0.00001874,-0.00000143,0.000280
 07,-0.00004971,0.00046579,0.08355233,0.13546014,0.25774014,0.00000490,
 -0.00001039,-0.00003405,-0.00001091,0.00001025,0.00001956,0.00000104,-
 0.00000755,0.00002759,0.00000980,0.00000793,-0.00003325,-0.00000244,0.
 00000061,0.00000455,-0.00003164,0.00001110,0.00001371,0.00000633,-0.00
 002448,-0.00008359,0.00000904,0.00001236,0.00009824,-0.00001569,0.0000
 1932,0.00000832,0.00000954,-0.00002272,-0.00001545,-0.00000577,0.00000
 375,0.00000022,0.00001257,0.00000994,0.00004166,0.00001810,-0.00007625
 ,-0.00010585,0.00003706,0.00007558,0.00017197,0.00002649,-0.00008113,-
 0.00036976,0.00007383,0.00044070,0.00026060,-0.00045603,-0.00061079,0.
 00025130,0.00034437,0.00010790,0.00001665,-0.00002550,0.00000072,-0.00
 005486,-0.00638343,0.00117551,-0.00410252,0.00237950,-0.00014754,0.001
 87430,-0.00065570,-0.00047340,-0.00005989,0.00027665,-0.00027350,-0.00
 021205,0.00002712,0.00026398,-0.00016208,-0.00003370,-0.00002332,-0.00
 004043,-0.00045479,-0.00010021,0.00058300,-0.00207105,0.01174612,-0.00
 632821,-0.32862748,-0.01362715,-0.08541551,-0.02215994,-0.00459843,0.0
 0688316,0.00022315,0.00021485,0.00038707,-0.00000561,0.00000267,0.0000
 0489,0.00000319,0.00000032,-0.00000191,0.00000242,0.00000065,-0.000000
 87,0.00000544,-0.00000151,0.00000057,0.00000441,-0.00000427,-0.0000095
 8,0.00000197,-0.00000108,-0.00000327,-0.00000267,0.00000122,-0.0000006
 4,0.00000594,0.00000069,-0.00000275,0.00003879,-0.00014245,0.00015115,
 0.00067615,0.00021335,-0.00053300,-0.00001635,0.00052985,-0.00115240,-
 0.00000915,-0.00002229,0.00001280,0.35618189,-0.00000101,0.00001817,0.
 00001812,0.00000301,-0.00002007,-0.00000775,-0.00000736,0.00000345,-0.
 00001844,-0.00000361,0.00000799,0.00001866,0.00000126,-0.00000283,-0.0
 0000213,0.00003241,-0.00005502,-0.00002675,0.00000885,0.00007904,0.000
 12542,-0.00003340,-0.00004761,-0.00016980,0.00000039,-0.00002057,0.000
 01724,0.00000398,0.00001516,-0.00000556,-0.00000431,-0.00000074,0.0000
 0526,-0.00001730,0.00001203,-0.00001017,-0.00001175,0.00015094,0.00004
 024,-0.00010169,-0.00010741,-0.00016894,0.00001986,0.00038738,0.000460
 97,-0.00030469,-0.00092511,0.00018330,-0.00095897,-0.00040436,0.001504
 14,0.00042757,0.00011515,-0.00053583,0.00013673,-0.00016926,0.00008088
 ,-0.02350865,-0.00090907,-0.01085395,0.00078324,0.00365811,0.00074405,
 -0.00057290,-0.00055897,0.00020772,-0.00009850,0.00024815,0.00027467,-
 0.00013954,-0.00044574,0.00024509,-0.00000083,0.00002245,0.00007957,0.
 00415827,0.00158383,-0.00401638,0.03510148,-0.01906249,0.02052977,-0.0
 1254781,-0.04010786,-0.00640648,-0.00636361,0.00424095,0.00208361,-0.0
 0058328,0.00039758,-0.00053310,0.00000187,-0.00000366,-0.00000222,0.00
 000024,0.00000026,-0.00000023,0.00000156,-0.00000077,0.00000144,-0.000
 00418,0.00000577,-0.00000518,0.00000984,-0.00000007,0.00000913,0.00000
 251,-0.00000272,0.00000285,0.00000442,0.00000964,-0.00000081,-0.000000
 12,0.00000096,0.00000052,0.00001321,-0.00012528,-0.00001094,0.00049907
 ,0.00024103,-0.00030571,-0.00140197,0.00014139,0.00021062,0.00001621,0
 .00001024,-0.00002485,0.00588817,0.05460968,0.00000220,-0.00000578,-0.
 00004823,-0.00001081,0.00000513,0.00003078,0.00000698,-0.00000812,0.00
 003512,0.00000626,0.00001974,-0.00004184,0.00000045,-0.00000205,0.0000
 0469,-0.00001914,-0.00001923,-0.00000340,-0.00000143,0.00000877,-0.000
 05884,0.00000589,-0.00000526,0.00006568,-0.00001067,0.00002418,0.00002
 504,0.00000397,-0.00003159,-0.00003326,-0.00000346,0.00000616,0.000004
 04,0.00001999,0.00002021,0.00006514,0.00000306,-0.00005531,-0.00014735
 ,0.00007028,0.00008006,0.00019751,0.00005705,0.00004336,-0.00046371,0.
 00000222,-0.00019193,0.00005637,-0.00194506,0.00001105,0.00190264,0.00
 072729,-0.00005946,-0.00024409,0.00003687,-0.00000280,0.00006660,-0.02
 717746,-0.00279185,-0.00668220,0.00236602,0.00165220,0.00205456,0.0001
 3822,-0.00051115,0.00011166,0.00016060,-0.00001265,0.00000665,0.000060
 15,0.00020670,-0.00014272,-0.00000587,-0.00001949,-0.00002595,-0.00172
 764,-0.00080238,0.00297895,-0.01262394,0.01165161,-0.00354779,-0.09350
 549,-0.00908696,-0.07432813,0.04074236,0.00423617,-0.00664770,0.002104
 51,-0.00011523,0.00361237,-0.00000503,0.00000198,0.00000728,0.00000157
 ,-0.00000002,-0.00000193,0.00000113,0.00000036,-0.00000134,0.00000170,
 0.00000065,-0.00000128,0.00000433,-0.00000928,0.,-0.00000176,-0.000001
 75,-0.00000442,0.00000126,0.00000648,-0.00000135,0.00000203,-0.0000004
 1,-0.00000195,0.00018112,-0.00001119,0.00010840,0.00076866,0.00019742,
 -0.00027026,0.00088473,-0.00001089,-0.00035291,-0.00000955,-0.00001302
 ,0.00000260,0.08863134,-0.00083320,0.08504928,0.00000631,-0.00000431,-
 0.00001779,-0.00000338,0.00000262,0.00001458,-0.00001381,-0.00001447,0
 .00001798,0.00001373,0.00000898,-0.00001714,-0.00000437,-0.00000021,0.
 00000360,0.00002435,-0.00000011,0.00002684,0.00002497,0.00001130,-0.00
 001752,-0.00001618,-0.00001295,-0.00000053,-0.00002317,0.00000334,0.00
 000877,0.00002149,-0.00000896,-0.00000829,-0.00001275,0.00000234,0.000
 00187,-0.00002189,-0.00000032,0.00002427,0.00005404,-0.00003751,-0.000
 04285,-0.00013831,-0.00003931,0.00012557,0.00069022,0.00008083,0.00006
 842,-0.00079707,0.00123412,-0.00066486,-0.01672430,-0.00607858,0.00049
 176,0.00196156,0.00097401,-0.00021470,0.00006238,0.00008821,-0.0001115
 7,-0.34553906,-0.04779121,-0.02662218,-0.01156742,0.01424684,-0.009082
 70,-0.00080946,0.00024834,0.00055808,-0.00004627,-0.00002580,0.0000110
 6,0.00004568,0.00001839,-0.00001310,-0.00001280,-0.00000381,0.00000047
 ,-0.00000550,-0.00009809,-0.00018199,0.00137030,-0.00111604,0.00039756
 ,-0.00766783,-0.00137181,-0.00076262,0.00163611,0.00007119,0.00040893,
 0.00032698,0.00033376,0.00041822,-0.00000452,0.00000158,0.00000323,0.0
 0000556,0.00000212,-0.00000422,0.00000617,0.00000007,0.00000098,0.0000
 0537,0.00000919,-0.00000895,0.00004021,-0.00001798,0.00003248,0.000013
 74,-0.00000474,0.00000631,-0.00001072,0.00000464,-0.00000232,0.0000133
 3,0.00000353,-0.00000818,0.00091024,-0.00069629,0.00023114,0.00003674,
 -0.00107421,0.00235911,0.00009131,0.00021768,0.00004083,0.00001063,0.0
 0000585,0.00000976,0.00056565,-0.00026183,-0.00006458,0.37543505,0.000
 00105,-0.00000440,0.00000740,0.00000027,0.00000542,-0.00000535,-0.0000
 0209,0.00000594,0.00000218,0.00000302,-0.00000726,-0.00000037,-0.00000
 155,0.00000245,-0.00000101,-0.00000064,0.00000153,-0.00000353,0.000012
 31,-0.00000332,-0.00000698,-0.00000976,-0.00000488,-0.00000477,0.00000
 261,0.00000561,-0.00001940,-0.00000383,0.00000349,0.00001601,0.0000052
 3,-0.00000221,-0.00000458,0.00000033,-0.00000567,-0.00000701,0.0000289
 2,-0.00005229,0.00002861,-0.00003291,0.00008049,0.00003599,0.00020540,
 -0.00003468,-0.00010918,-0.00141899,0.00013400,0.00025990,-0.00861911,
 -0.00000272,0.00048018,0.00092853,0.00043419,0.00061675,-0.00004957,0.
 00001063,-0.00009006,-0.04795749,-0.04357204,-0.00901589,0.04001131,-0
 .01574404,0.01412886,0.00215604,0.00062698,-0.00026310,-0.00005373,0.0
 0003059,-0.00000202,0.00002228,-0.00001409,-0.00000564,-0.00000397,0.0
 0000003,0.00000219,-0.00012518,-0.00028934,0.00001058,0.00161312,0.001
 67171,0.00069239,-0.02922785,-0.00435207,-0.00529082,0.00162422,0.0012
 1006,0.00238281,-0.00002122,0.00008561,0.00050530,0.00000030,0.0000006
 8,-0.00000171,0.00000098,-0.00000047,-0.00000014,0.00000064,0.,0.00000
 090,0.00000185,0.00000262,-0.00000441,0.00002186,-0.00000377,0.0000191
 6,0.00000132,0.00000331,0.00000071,-0.00000073,-0.00000714,0.00000090,
 -0.00000014,-0.00000294,0.00000123,0.00018263,-0.00030502,0.00028701,-
 0.00026891,0.00000776,0.00157962,0.00014502,0.00013461,-0.00001036,0.0
 0000695,-0.00000394,-0.00000142,-0.00035438,-0.00316013,-0.00343990,0.
 04113891,0.06316124,-0.00000249,-0.00000944,0.00000074,0.00000495,0.00
 001031,-0.00000194,0.00000558,0.00001227,0.00000451,-0.00000235,-0.000
 00807,-0.00000530,0.00000073,0.00000282,-0.00000123,-0.00001136,-0.000
 00970,-0.00000899,-0.00000982,-0.00000944,-0.00001054,0.00000842,-0.00
 000304,0.00001023,0.00001452,0.00001387,-0.00001970,-0.00000913,-0.000
 00611,0.00001140,0.00000550,-0.00000007,-0.00000662,0.00001138,-0.0000
 1106,0.00000091,0.00000865,-0.00010709,0.00005303,-0.00001458,0.000159
 69,0.00013035,-0.00049906,-0.00012857,-0.00019366,0.00139222,-0.000949
 77,0.00092072,0.03526037,0.00841021,-0.00059450,-0.00218232,-0.0005602
 9,0.00286258,-0.00011809,0.00027069,0.00015833,-0.02514563,-0.00810659
 ,-0.04611730,-0.01575917,0.00972533,-0.00142660,-0.00130823,-0.0000634
 8,-0.00005908,-0.00002041,-0.00001459,0.00008984,-0.00000155,-0.000005
 65,-0.00000886,-0.00000330,-0.00000381,0.00000304,0.00035781,0.0001713
 3,-0.00035245,0.00154449,0.00052340,0.00073927,-0.02720056,-0.00752304
 ,-0.00499308,0.00064695,0.00116619,0.00270220,-0.00012418,0.00021272,0
 .00045976,0.00000071,0.00000231,-0.00000009,-0.00000293,-0.00000031,0.
 00000308,-0.00000170,-0.00000084,0.00000026,-0.00000035,-0.00000789,0.
 00000795,-0.00003875,0.00000250,-0.00005313,-0.00000654,0.00000350,-0.
 00000608,-0.00000306,-0.00000987,0.00000213,-0.00000561,-0.00000091,0.
 00000353,-0.00053980,0.00034273,-0.00015354,0.00217052,0.00215663,-0.0
 0556888,-0.00018315,-0.00003989,-0.00012632,-0.00000492,0.00002393,0.0
 0000432,-0.00081049,-0.00287960,-0.00332831,0.03258313,-0.00277923,0.0
 5486538,0.00000364,0.00002234,0.00002999,0.00000530,-0.00002830,-0.000
 00559,-0.00003671,0.00003566,-0.00000544,0.00001681,0.00000936,0.00001
 216,-0.00000410,0.00000336,-0.00000312,0.00007328,-0.00014961,0.000031
 35,0.00029707,0.00044735,0.00033536,-0.00045510,-0.00053079,-0.0007946
 7,-0.00000548,-0.00001420,-0.00001219,0.00001090,0.00001740,0.00001269
 ,-0.00000546,-0.00000320,-0.00000050,-0.00002842,-0.00001118,0.0000007
 0,0.00008023,0.00004735,0.00000785,-0.00030547,0.00002649,0.00001860,0
 .00026409,0.00006215,0.00008554,0.00069598,-0.00081242,-0.00030610,0.0
 0024023,0.00004668,0.00004064,0.00005776,0.00016103,0.00002393,-0.0000
 2941,-0.00001319,-0.00003032,-0.00008401,-0.00002490,0.00003511,0.0000
 4649,-0.00000495,-0.00002500,-0.00001374,0.00000716,-0.00000380,-0.358
 76645,-0.00453331,0.00028572,-0.00283841,-0.00879565,0.01122455,-0.000
 99368,0.00082369,0.00082660,-0.01680918,0.00164198,-0.00064646,0.00160
 016,-0.00015887,-0.00062232,0.00027888,-0.00002487,-0.00005954,0.00006
 427,0.00008443,-0.00017216,0.00001256,0.00002836,-0.00000380,0.0000003
 3,-0.00000308,-0.00000345,0.00000524,-0.00000080,-0.00000250,0.0000122
 2,0.00000182,0.00000875,0.00001415,-0.00000963,-0.00004270,0.00009151,
 0.00003428,0.00002790,0.00000886,0.00000145,0.00000216,-0.00000206,0.0
 0000342,-0.00000064,0.00000547,0.00000001,-0.00000081,0.00032079,0.000
 82947,0.00063597,0.00016066,-0.00021159,0.00004174,0.00037348,0.002715
 37,-0.00010098,-0.00946178,0.00059232,-0.00055342,0.00002249,-0.000186
 86,0.00011963,0.00004667,0.00003696,-0.00000636,0.38502994,-0.00000265
 ,0.00002971,0.00003810,0.00001094,-0.00003917,-0.00000945,-0.00002232,
 0.00004541,-0.00002384,0.00000100,0.00000274,0.00003497,-0.00000040,0.
 00000322,-0.00000760,0.00009740,-0.00020915,-0.00010109,0.00014349,0.0
 0021231,0.00041681,-0.00035784,-0.00022307,-0.00085914,0.00000393,-0.0
 0001680,-0.00000657,0.00000081,0.00001802,0.00000736,-0.00000056,-0.00
 000312,0.00000031,-0.00000875,-0.00001930,-0.00002359,-0.00005854,0.00
 010845,-0.00002550,0.00015871,-0.00020679,-0.00004024,-0.00029892,0.00
 016960,-0.00042192,0.00099382,0.00250259,0.00080686,0.00030917,-0.0000
 9418,0.00023700,-0.00025005,-0.00008309,-0.00018158,0.00005021,-0.0000
 6184,0.00007405,0.00003026,0.00007753,-0.00002912,-0.00003772,0.000019
 86,-0.00001681,0.00000402,0.00000986,0.00000291,-0.00446222,-0.0449932
 0,-0.00686597,-0.01991607,-0.00583423,0.01455878,-0.00209483,-0.000051
 59,0.00074463,0.03875790,-0.00437670,0.00057627,-0.00143523,0.00209073
 ,-0.00162946,-0.00013928,0.00003619,0.00002659,-0.00006816,-0.00010012
 ,0.00006331,-0.00000212,0.00000414,-0.00000451,0.00000366,-0.00000362,
 -0.00000517,0.00000037,-0.00000138,0.00000044,0.00000209,0.00000271,0.
 00000220,-0.00000297,-0.00001420,-0.00001272,-0.00002954,-0.00001730,-
 0.00005287,-0.00000012,-0.00000202,-0.00000063,0.00000282,0.00000542,0
 .00000014,-0.00000210,0.00000099,0.00000289,-0.00085649,-0.00018488,-0
 .00031707,-0.00039685,0.00002827,-0.00010804,0.00217661,-0.00616144,0.
 00175495,-0.01995701,0.00120793,-0.00053246,-0.00013469,0.00017042,-0.
 00013135,-0.00004933,-0.00004649,0.00002789,0.00783754,0.05599754,-0.0
 0000321,-0.00000559,0.00002986,0.00000588,0.00000468,-0.00001889,0.000
 00238,0.00000817,-0.00003446,-0.00001865,-0.00003053,0.00003294,-0.000
 00034,0.00000223,-0.00000185,0.00000393,0.00002334,-0.00000522,-0.0004
 5653,-0.00020128,0.00005341,0.00095619,0.00045224,0.00054288,0.0000020
 8,-0.00001767,-0.00001013,-0.00000146,0.00001976,0.00001920,0.00000092
 ,-0.00000365,-0.00000155,-0.00000796,-0.00000930,-0.00006000,-0.000057
 03,0.00006078,0.00011807,0.00015827,-0.00007034,-0.00024305,-0.0001652
 5,-0.00017885,0.00013485,0.00080445,0.00043921,-0.00003413,-0.00004860
 ,-0.00012982,0.00008113,-0.00002678,0.00010159,0.00002092,0.00002306,-
 0.00001878,-0.00003323,0.00000662,-0.00005461,0.00011156,0.00000024,-0
 .00001546,-0.00006799,-0.00000323,0.00001585,0.00000339,-0.00256104,-0
 .00832679,-0.04235540,0.03648524,0.01606605,-0.01587009,0.00248260,-0.
 00036970,-0.00120184,-0.00047283,-0.00043468,0.00304530,-0.00002207,-0
 .00032483,0.00087036,-0.00011579,0.00004701,-0.00005244,0.00006562,-0.
 00005219,-0.00005617,-0.00001017,0.00000677,0.00000915,0.00000370,0.00
 000179,-0.00000476,-0.00000356,0.00000240,0.00000235,-0.00000928,-0.00
 000596,-0.00001374,-0.00004157,0.00004394,0.00005041,-0.00002801,-0.00
 004327,-0.00000496,-0.00000067,-0.00000306,0.00000314,-0.00000075,-0.0
 0000445,0.00000109,-0.00000055,0.00000195,0.00000036,-0.00009648,0.000
 06924,0.00005426,-0.00000629,-0.00000268,-0.00003315,0.00061481,0.0007
 5104,0.00020959,-0.02714368,0.00017221,0.00271411,0.00008974,-0.000025
 22,-0.00000638,0.00000117,0.00000819,0.00000267,-0.01040509,-0.0079697
 6,0.05199841\\0.01693189,-0.01079841,-0.01318608,-0.01166560,0.0082686
 5,-0.00975489,-0.00346503,-0.01515902,0.02228444,0.00835670,0.00369113
 ,0.01990461,-0.00695747,-0.00678933,-0.02653536,0.00240159,-0.01768621
 ,-0.02336860,-0.00743573,0.00256802,0.00275805,0.01458504,0.00396902,0
 .01338764,-0.01331173,0.02486950,-0.00221163,0.00895453,0.00927037,0.0
 0826643,0.00460184,-0.03326365,0.00053550,0.00882410,0.01309914,0.0160
 5259,-0.00465720,0.00487363,0.00109957,-0.02842508,0.00975359,0.007235
 17,0.01369084,-0.00501498,0.01996486,-0.01182600,-0.01200214,0.0002567
 2,-0.00824539,0.02334576,0.01274563,0.00470710,-0.01418917,-0.00191468
 ,0.00024744,0.02238557,-0.01329812,0.02158315,0.00951471,-0.01656415,-
 0.01819634,0.00802718,-0.00298981,0.00557307,-0.02010468,0.03141591,0.
 01900859,-0.01630012,-0.00921569,-0.01941532,-0.01316027,0.00508934,0.
 00476161,0.03375071,-0.00212392,-0.01399069,0.01327054,0.00436508,0.01
 638020,-0.00630456,-0.00589899,0.01135283,-0.01188805,-0.00552784,-0.0
 0347074,-0.00067290,0.02103750,-0.00356027,-0.00425273,-0.00378880,-0.
 00309030,0.00303761,-0.00028154,-0.02023700,-0.00255338,-0.00319737,0.
 02253924,0.00025975,0.00067559,-0.02128201,0.00035981,0.00214088,0.018
 44965,0.00261708,-0.00594815,0.02240741,0.00076016,-0.00065125,0.00489
 011,0.00519693,-0.01855548,-0.02124471,-0.00410934,-0.00506634,0.01904
 910,0.00152631,0.00214824,-0.02318663,-0.00509936,-0.00110841,-0.02299
 670,0.00009161,0.00332890,-0.00456149,-0.00513517,-0.01703291,-0.02113
 003,-0.00092683,-0.00549560,0.02248509,0.00087677,0.00156990,0.0205703
 6,0.00002677,-0.00254692\\\@


 PICNIC:  A SNACK IN THE GRASS.
 Job cpu time:  0 days 13 hours 14 minutes  3.9 seconds.
 File lengths (MBytes):  RWF=   1322 Int=      0 D2E=      0 Chk=     19 Scr=      1
 Normal termination of Gaussian 09 at Thu Jan 21 05:12:41 2016.
Gaussian '09 finished on node015 at Thu Jan 21 05:12:41 EST 2016.
