Gaussian '09 started on node009 at Mon Feb  8 13:54:04 EST 2016.
 Entering Gaussian System, Link 0=/usr/local/gaussian/g09/g09
 Initial command:
 /usr/local/gaussian/g09/l1.exe /home/srmcgrat/thesis/gaussian/cellobiose/320/8000/1/2dfp/gaussian7091/Gau-7171.inp -scrdir=/home/srmcgrat/thesis/gaussian/cellobiose/320/8000/1/2dfp/gaussian7091/
 Entering Link 1 = /usr/local/gaussian/g09/l1.exe PID=      7173.
  
 Copyright (c) 1988,1990,1992,1993,1995,1998,2003,2009,2010,
            Gaussian, Inc.  All Rights Reserved.
  
 This is part of the Gaussian(R) 09 program.  It is based on
 the Gaussian(R) 03 system (copyright 2003, Gaussian, Inc.),
 the Gaussian(R) 98 system (copyright 1998, Gaussian, Inc.),
 the Gaussian(R) 94 system (copyright 1995, Gaussian, Inc.),
 the Gaussian 92(TM) system (copyright 1992, Gaussian, Inc.),
 the Gaussian 90(TM) system (copyright 1990, Gaussian, Inc.),
 the Gaussian 88(TM) system (copyright 1988, Gaussian, Inc.),
 the Gaussian 86(TM) system (copyright 1986, Carnegie Mellon
 University), and the Gaussian 82(TM) system (copyright 1983,
 Carnegie Mellon University). Gaussian is a federally registered
 trademark of Gaussian, Inc.
  
 This software contains proprietary and confidential information,
 including trade secrets, belonging to Gaussian, Inc.
  
 This software is provided under written license and may be
 used, copied, transmitted, or stored only in accord with that
 written license.
  
 The following legend is applicable only to US Government
 contracts under FAR:
  
                    RESTRICTED RIGHTS LEGEND
  
 Use, reproduction and disclosure by the US Government is
 subject to restrictions as set forth in subparagraphs (a)
 and (c) of the Commercial Computer Software - Restricted
 Rights clause in FAR 52.227-19.
  
 Gaussian, Inc.
 340 Quinnipiac St., Bldg. 40, Wallingford CT 06492
  
  
 ---------------------------------------------------------------
 Warning -- This program may not be used in any manner that
 competes with the business of Gaussian, Inc. or will provide
 assistance to any competitor of Gaussian, Inc.  The licensee
 of this program is prohibited from giving any competitor of
 Gaussian, Inc. access to this program.  By using this program,
 the user acknowledges that Gaussian, Inc. is engaged in the
 business of creating and licensing software in the field of
 computational chemistry and represents and warrants to the
 licensee that it is not a competitor of Gaussian, Inc. and that
 it will not use this program in any manner prohibited above.
 ---------------------------------------------------------------
  

 Cite this work as:
 Gaussian 09, Revision B.01,
 M. J. Frisch, G. W. Trucks, H. B. Schlegel, G. E. Scuseria, 
 M. A. Robb, J. R. Cheeseman, G. Scalmani, V. Barone, B. Mennucci, 
 G. A. Petersson, H. Nakatsuji, M. Caricato, X. Li, H. P. Hratchian, 
 A. F. Izmaylov, J. Bloino, G. Zheng, J. L. Sonnenberg, M. Hada, 
 M. Ehara, K. Toyota, R. Fukuda, J. Hasegawa, M. Ishida, T. Nakajima, 
 Y. Honda, O. Kitao, H. Nakai, T. Vreven, J. A. Montgomery, Jr., 
 J. E. Peralta, F. Ogliaro, M. Bearpark, J. J. Heyd, E. Brothers, 
 K. N. Kudin, V. N. Staroverov, T. Keith, R. Kobayashi, J. Normand, 
 K. Raghavachari, A. Rendell, J. C. Burant, S. S. Iyengar, J. Tomasi, 
 M. Cossi, N. Rega, J. M. Millam, M. Klene, J. E. Knox, J. B. Cross, 
 V. Bakken, C. Adamo, J. Jaramillo, R. Gomperts, R. E. Stratmann, 
 O. Yazyev, A. J. Austin, R. Cammi, C. Pomelli, J. W. Ochterski, 
 R. L. Martin, K. Morokuma, V. G. Zakrzewski, G. A. Voth, 
 P. Salvador, J. J. Dannenberg, S. Dapprich, A. D. Daniels, 
 O. Farkas, J. B. Foresman, J. V. Ortiz, J. Cioslowski, 
 and D. J. Fox, Gaussian, Inc., Wallingford CT, 2010.
 
 ******************************************
 Gaussian 09:  EM64L-G09RevB.01 12-Aug-2010
                 8-Feb-2016 
 ******************************************
 --------------------------------------------------
 # freq=raman b3lyp/6-31+g(2df,p) geom=connectivity
 --------------------------------------------------
 1/10=4,30=1,38=1,57=2/1,3;
 2/12=2,17=6,18=5,40=1/2;
 3/5=1,6=6,7=114,11=2,16=1,25=1,30=1,71=2,74=-5/1,2,3;
 4//1;
 5/5=2,38=5,98=1/2;
 8/6=4,10=90,11=11/1;
 10/13=10,15=4/2;
 11/6=3,8=1,9=11,15=111,16=1/1,2,10;
 10/6=1/2;
 6/7=2,8=2,9=2,10=2,18=1,28=1/1;
 7/8=1,10=1,25=1/1,2,3,16;
 1/10=4,30=1/3;
 99//99;
 ------------
 320 8000.com
 ------------
 Symbolic Z-matrix:
 Charge =  0 Multiplicity = 1
 O                     7.355     7.617     12.27 
 C                     8.007     7.945     13.506 
 C                     7.624     9.321     14.025 
 O                     7.841     10.34     13.038 
 H                     7.522     9.913     12.192 
 C                     8.229     9.629     15.385 
 O                     7.658     10.798    15.991 
 H                     7.908     10.892    16.954 
 C                     8.203     5.553     14.304 
 O                     7.912     4.824     13.103 
 H                     8.215     3.939     13.456 
 C                     7.736     6.962     14.633 
 O                     8.444     7.289     15.838 
 C                     7.974     8.524     16.397 
 O                     8.882     8.622     17.504 
 C                     8.237     8.318     18.749 
 C                     8.704     6.981     19.3 
 O                     8.667     5.977     18.275 
 H                     8.951     6.382     17.406 
 C                     8.124     6.586     20.648 
 O                     8.771     5.408     21.151 
 H                     8.561     5.37      22.128 
 C                     7.931     10.72     19.554 
 O                     8.323     11.408    18.357 
 H                     8.418     12.358    18.653 
 C                     8.524     9.347     19.829 
 O                     7.97      9.011     21.109 
 C                     8.523     7.756     21.532 
 O                     7.78      7.416     22.712 
 H                     8.38873   7.21047   23.4253 
 H                     8.01598   7.43843   11.59709 
 H                     7.85552   4.93777   15.10753 
 H                     9.27026   5.57737   14.37651 
 H                     6.68581   6.94456   14.83718 
 H                     9.06137   7.94773   13.32382 
 H                     6.56582   9.28893   14.18031 
 H                     9.28416   9.76929   15.27612 
 H                     6.95139   8.46956   16.70716 
 H                     8.17766   11.34966   20.38321 
 H                     6.86667   10.6126   19.53024 
 H                     9.58449   9.44661   19.93071 
 H                     7.18024   8.27406   18.58705 
 H                     9.7463    7.12278   19.496 
 H                     7.06132   6.4693    20.60336 
 H                     9.57673   7.8012    21.7123 
 

 GradGradGradGradGradGradGradGradGradGradGradGradGradGradGradGradGradGrad
 Berny optimization.
 Initialization pass.
 Trust Radius=3.00D-01 FncErr=1.00D-07 GrdErr=1.00D-07
 Number of steps in this run=      2 maximum allowed number of steps=      2.
 GradGradGradGradGradGradGradGradGradGradGradGradGradGradGradGradGradGrad

                          Input orientation:                          
 ---------------------------------------------------------------------
 Center     Atomic      Atomic             Coordinates (Angstroms)
 Number     Number       Type             X           Y           Z
 ---------------------------------------------------------------------
      1          8           0        7.355000    7.617000   12.270000
      2          6           0        8.007000    7.945000   13.506000
      3          6           0        7.624000    9.321000   14.025000
      4          8           0        7.841000   10.340000   13.038000
      5          1           0        7.522000    9.913000   12.192000
      6          6           0        8.229000    9.629000   15.385000
      7          8           0        7.658000   10.798000   15.991000
      8          1           0        7.908000   10.892000   16.954000
      9          6           0        8.203000    5.553000   14.304000
     10          8           0        7.912000    4.824000   13.103000
     11          1           0        8.215000    3.939000   13.456000
     12          6           0        7.736000    6.962000   14.633000
     13          8           0        8.444000    7.289000   15.838000
     14          6           0        7.974000    8.524000   16.397000
     15          8           0        8.882000    8.622000   17.504000
     16          6           0        8.237000    8.318000   18.749000
     17          6           0        8.704000    6.981000   19.300000
     18          8           0        8.667000    5.977000   18.275000
     19          1           0        8.951000    6.382000   17.406000
     20          6           0        8.124000    6.586000   20.648000
     21          8           0        8.771000    5.408000   21.151000
     22          1           0        8.561000    5.370000   22.128000
     23          6           0        7.931000   10.720000   19.554000
     24          8           0        8.323000   11.408000   18.357000
     25          1           0        8.418000   12.358000   18.653000
     26          6           0        8.524000    9.347000   19.829000
     27          8           0        7.970000    9.011000   21.109000
     28          6           0        8.523000    7.756000   21.532000
     29          8           0        7.780000    7.416000   22.712000
     30          1           0        8.388732    7.210471   23.425305
     31          1           0        8.015985    7.438428   11.597088
     32          1           0        7.855524    4.937775   15.107529
     33          1           0        9.270262    5.577368   14.376511
     34          1           0        6.685807    6.944558   14.837184
     35          1           0        9.061374    7.947733   13.323822
     36          1           0        6.565818    9.288931   14.180312
     37          1           0        9.284161    9.769292   15.276123
     38          1           0        6.951387    8.469563   16.707160
     39          1           0        8.177662   11.349657   20.383210
     40          1           0        6.866669   10.612596   19.530238
     41          1           0        9.584487    9.446609   19.930712
     42          1           0        7.180240    8.274057   18.587049
     43          1           0        9.746296    7.122780   19.496002
     44          1           0        7.061320    6.469305   20.603362
     45          1           0        9.576730    7.801203   21.712305
 ---------------------------------------------------------------------
                    Distance matrix (angstroms):
                    1          2          3          4          5
     1  O    0.000000
     2  C    1.435404   0.000000
     3  C    2.460895   1.519680   0.000000
     4  O    2.870670   2.445936   1.435137   0.000000
     5  H    2.303386   2.415542   1.928926   0.999903   0.000000
     6  C    3.809888   2.532939   1.520029   2.482836   3.282644
     7  O    4.904734   3.799557   2.459236   2.993904   3.903091
     8  H    5.742063   4.536884   3.335826   3.955281   4.876893
     9  C    3.019330   2.529206   3.822421   4.964793   4.892229
    10  O    2.967320   3.148345   4.599569   5.516840   5.184587
    11  H    3.959025   4.011708   5.444168   6.425527   6.145455
    12  C    2.481523   1.519822   2.438665   3.737102   3.835711
    13  O    3.744880   2.461611   2.844010   4.184759   4.585714
    14  C    4.270590   2.948595   2.526676   3.820789   4.451477
    15  O    5.544052   4.148248   3.764918   4.896975   5.633261
    16  C    6.576227   5.261281   4.868054   6.071311   6.785978
    17  C    7.186459   5.914858   5.870913   7.158233   7.779294
    18  O    6.361680   5.201152   5.507512   6.866164   7.335258
    19  H    5.518237   4.306287   4.672238   5.998107   6.457228
    20  C    8.476155   7.271089   7.182921   8.490271   9.106880
    21  O    9.260502   8.091112   8.210180   9.539931  10.105380
    22  H   10.182515   9.015344   9.063497  10.384960  10.974628
    23  C    7.938327   6.654675   5.711505   6.527691   7.417383
    24  O    7.236040   5.968620   4.859053   5.446532   6.394048
    25  H    8.021829   6.792282   5.592154   5.994454   6.966015
    26  C    7.842062   6.497170   5.873423   6.897117   7.723220
    27  O    8.969358   7.677456   7.099216   8.180704   8.973695
    28  C    9.336391   8.044790   7.720912   8.904505   9.637959
    29  O   10.452578   9.223980   8.894792  10.106422  10.815358
    30  H   11.210472   9.953786   9.664620  10.862323  11.586286
    31  H    0.960000   1.975004   3.097174   3.244375   2.592576
    32  H    3.934507   3.410461   4.520856   5.785084   5.776194
    33  H    3.502244   2.821223   4.104695   5.149472   5.160059
    34  H    2.736865   2.125673   2.680919   4.012550   4.062987
    35  H    2.032642   1.070000   2.107974   2.700731   2.740979
    36  H    2.658468   2.082751   1.070000   2.008908   2.292843
    37  H    4.170228   2.844735   2.126596   2.723530   3.554951
    38  H    4.536316   3.411292   2.893326   4.213393   4.774493
    39  H    8.968483   7.675730   6.696927   7.421918   8.342050
    40  H    7.869125   6.686394   5.705210   6.570600   7.400583
    41  H    8.185633   6.783820   6.223883   7.165708   8.022408
    42  H    6.353532   5.158379   4.701628   5.957908   6.610566
    43  H    7.627428   6.291369   6.266433   7.462336   8.129039
    44  H    8.417147   7.310577   7.191913   8.533749   9.100674
    45  H    9.701914   8.356325   8.075741   9.203359   9.965832
                    6          7          8          9         10
     6  C    0.000000
     7  O    1.435214   0.000000
     8  H    2.039601   0.999352   0.000000
     9  C    4.216991   5.536517   5.967784   0.000000
    10  O    5.328793   6.640311   7.186852   1.434755   0.000000
    11  H    6.008106   7.333645   7.789381   1.823251   0.999821
    12  C    2.814506   4.070030   4.567442   1.520398   2.634942
    13  O    2.393122   3.599206   3.809772   2.329149   3.720144
    14  C    1.519932   2.331473   2.433522   3.641419   4.954218
    15  O    2.435286   2.919301   2.530628   4.485510   5.893599
    16  C    3.610441   3.753959   3.155272   5.234922   6.647629
    17  C    4.750237   5.158787   4.629606   5.220173   6.609291
    18  O    4.677718   5.429252   5.145712   4.020437   5.352478
    19  H    3.892137   4.814055   4.651049   3.296839   4.692834
    20  C    6.080300   6.296487   5.677493   6.428037   7.750910
    21  O    7.166405   7.544300   6.959442   6.872049   8.114755
    22  H    7.982315   8.242655   7.595339   7.834324   9.064764
    23  C    4.319681   3.574295   2.605785   7.371185   8.739484
    24  O    3.465034   2.532248   1.551415   7.121954   8.433415
    25  H    4.261805   3.177648   2.301273   8.078864   9.371216
    26  C    4.462699   4.193519   3.321461   6.709926   8.128416
    27  O    5.763088   5.429976   4.561363   7.636758   9.034953
    28  C    6.432742   6.380021   5.583082   7.563041   8.945277
    29  O    7.667066   7.524935   6.727074   8.622306   9.953330
    30  H    8.397696   8.286931   7.460733   9.272535  10.605305
    31  H    4.380897   5.542684   6.374585   3.304117   3.018910
    32  H    4.714241   5.929737   6.234181   1.070000   2.008549
    33  H    4.303138   5.697452   6.061726   1.070000   2.008549
    34  H    3.144483   4.138293   4.642948   2.126639   3.001285
    35  H    2.787106   4.148171   4.814268   2.726224   3.335795
    36  H    2.081609   2.597835   3.473418   4.080789   4.786273
    37  H    1.070000   2.052727   2.443269   4.459939   5.573258
    38  H    2.173637   2.536494   2.616149   3.980962   5.215638
    39  H    5.286341   4.457116   3.470108   8.399921   9.780401
    40  H    4.472852   3.631362   2.792748   7.395868   8.712632
    41  H    4.747010   4.589002   3.709525   6.980586   8.413286
    42  H    3.631651   3.652125   3.170191   5.176359   6.520211
    43  H    5.048135   5.491199   4.903889   5.639403   7.037010
    44  H    6.211155   6.353543   5.796114   6.467225   7.725679
    45  H    6.722500   6.737629   5.914317   7.862857   9.260410
                   11         12         13         14         15
    11  H    0.000000
    12  C    3.279222   0.000000
    13  O    4.116900   1.435346   0.000000
    14  C    5.452503   2.368160   1.434784   0.000000
    15  O    6.225888   3.508783   2.178139   1.435102   0.000000
    16  C    6.869641   4.362476   3.094448   2.375607   1.434736
    17  C    6.606453   4.766369   3.485385   3.367664   2.439299
    18  O    5.251715   3.886020   2.776696   3.239497   2.763456
    19  H    4.702387   3.082556   1.881043   2.561401   2.243204
    20  C    7.664186   6.039217   4.871623   4.674328   3.821596
    21  O    7.853669   6.780152   5.645623   5.739789   4.862379
    22  H    8.796082   7.706498   6.577260   6.567849   5.662148
    23  C    9.124046   6.194904   5.083659   3.845896   3.083586
    24  O    8.934060   5.829208   4.829717   3.504405   2.966797
    25  H    9.895937   6.763308   5.798246   4.470596   3.936139
    26  C    8.364035   5.771272   4.491085   3.571898   2.461588
    27  O    9.184423   6.796450   5.565375   4.737101   3.738862
    28  C    8.937904   6.988992   5.713665   5.221058   4.135652
    29  O    9.897085   8.091866   6.907163   6.414400   5.458214
    30  H   10.493796   8.820001   7.587913   7.162013   6.107174
    31  H    3.967513   3.085796   4.265075   4.921320   6.086250
    32  H    1.963242   2.082535   2.531433   3.812845   4.513341
    33  H    2.155265   2.082535   2.397570   3.800699   4.381977
    34  H    3.644102   1.070000   2.052197   2.566535   3.840440
    35  H    4.099239   2.107660   2.671361   3.310421   4.238007
    36  H    5.645014   2.643645   3.205499   2.735289   4.105655
    37  H    6.200666   3.269755   2.678325   2.126885   2.538001
    38  H    5.717759   2.681512   2.092143   1.070000   2.094148
    39  H   10.144234   7.246483   6.100722   4.890367   4.028158
    40  H    9.124212   6.169727   5.212186   3.924996   3.482768
    41  H    8.609944   6.136443   4.765110   3.991490   2.657517
    42  H    6.796404   4.202959   3.181933   2.342828   2.046960
    43  H    6.997353   5.264592   3.886462   3.835136   2.638701
    44  H    7.669302   6.028529   5.029153   4.769511   4.189871
    45  H    9.216153   7.362683   6.004405   5.598539   4.343522
                   16         17         18         19         20
    16  C    0.000000
    17  C    1.519625   0.000000
    18  O    2.426903   1.435273   0.000000
    19  H    2.462020   2.001761   0.999921   0.000000
    20  C    2.572702   1.519713   2.509354   3.352031   0.000000
    21  O    3.810887   2.430024   2.933590   3.873771   1.435027
    22  H    4.495923   3.257814   3.901960   4.844949   1.964695
    23  C    2.551718   3.826508   4.967251   4.946974   4.280659
    24  O    3.115953   4.542327   5.442501   5.153587   5.342281
    25  H    4.045192   5.423332   6.397034   6.127942   6.114118
    26  C    1.519082   2.431090   3.713794   3.852854   2.907556
    27  O    2.474093   2.816405   4.209812   4.646096   2.473229
    28  C    2.853547   2.369643   3.713977   4.369775   1.519723
    29  O    4.089966   3.561565   4.748101   5.531187   2.251074
    30  H    4.808063   4.143693   5.303256   6.102011   2.858928
    31  H    7.209185   7.747094   6.866885   5.977772   9.091607
    32  H    4.983148   4.740411   3.430941   2.927255   5.786670
    33  H    5.262828   5.150881   3.965079   3.150740   6.454675
    34  H    4.426607   4.898077   4.084100   3.470790   5.996878
    35  H    5.499932   6.064404   5.343546   4.373543   7.508433
    36  H    4.960692   6.009124   5.670126   4.954231   7.180861
    37  H    3.906875   4.929781   4.873975   4.015112   6.351093
    38  H    2.417619   3.465587   3.407979   2.974012   4.522505
    39  H    3.444577   4.531616   5.792189   5.842898   4.771313
    40  H    2.784476   4.076430   5.128895   5.172501   4.363914
    41  H    2.118000   2.693006   3.952386   4.020859   3.290989
    42  H    1.070000   2.121824   2.753960   2.847867   2.826258
    43  H    2.065076   1.070000   1.992119   2.355708   2.060844
    44  H    2.870288   2.158468   2.870861   3.715055   1.070000
    45  H    3.292891   2.693252   3.996297   4.577110   2.172530
                   21         22         23         24         25
    21  O    0.000000
    22  H    1.000036   0.000000
    23  C    5.610112   5.970333   0.000000
    24  O    6.633788   7.122817   1.435206   0.000000
    25  H    7.393721   7.805653   1.931842   0.999570   0.000000
    26  C    4.162261   4.593833   1.520659   2.540651   3.234244
    27  O    3.691202   3.826816   2.310893   3.666568   4.175530
    28  C    2.391604   2.459605   3.612235   4.843318   5.429371
    29  O    2.729627   2.266524   4.572984   5.932701   6.426966
    30  H    2.927028   2.258321   5.245313   6.581131   7.019459
    31  H    9.796424  10.745955   8.607461   7.845265   8.611022
    32  H    6.130477   7.069054   7.294583   7.255440   8.242966
    33  H    6.794972   7.786632   7.419345   7.123052   8.061742
    34  H    6.824464   7.691006   6.168697   5.915388   6.845896
    35  H    8.234032   9.187417   6.912187   6.152359   6.947268
    36  H    8.277376   9.083200   5.726099   5.002286   5.731903
    37  H    7.334738   8.174653   4.586406   3.619530   4.342227
    38  H    5.694899   6.448539   3.758803   3.638365   4.588811
    39  H    6.020369   6.240797   1.070000   2.032254   2.016964
    40  H    5.774181   6.091300   1.070000   2.032254   2.494516
    41  H    4.296653   4.742820   2.120720   2.813356   3.386655
    42  H    4.161567   4.783134   2.735192   3.343714   4.267903
    43  H    2.575013   3.377066   4.029721   4.656845   5.466494
    44  H    2.085493   2.404586   4.463845   5.570340   6.349900
    45  H    2.586829   2.667444   3.985735   5.083197   5.609492
                   26         27         28         29         30
    26  C    0.000000
    27  O    1.434647   0.000000
    28  C    2.330556   1.435187   0.000000
    29  O    3.548801   2.269303   1.435287   0.000000
    30  H    4.185267   2.963530   1.974901   0.960000   0.000000
    31  H    8.465525   9.641140   9.952909  11.117440  11.836284
    32  H    6.494645   7.254097   7.047109   7.998455   8.639147
    33  H    6.670582   7.668567   7.517038   8.664977   9.237142
    34  H    5.836858   6.727184   6.989583   7.964436   8.759365
    35  H    6.675632   7.932883   8.228049   9.490129  10.150663
    36  H    5.978757   7.075005   7.760655   8.818833   9.649503
    37  H    4.635177   6.026979   6.615792   7.943094   8.588278
    38  H    3.604010   4.550485   5.124277   6.152617   6.984607
    39  H    2.106593   2.457481   3.788582   4.588579   5.141182
    40  H    2.106593   2.504982   3.861427   4.601739   5.390980
    41  H    1.070000   2.045651   2.559109   3.887816   4.317676
    42  H    2.121165   2.743545   3.277823   4.255725   5.099057
    43  H    2.559697   3.053255   2.458192   3.780865   4.158135
    44  H    3.319669   2.746195   2.157421   2.420556   3.205420
    45  H    2.654160   2.099802   1.070000   2.091892   2.166720
                   31         32         33         34         35
    31  H    0.000000
    32  H    4.313028   0.000000
    33  H    3.572387   1.716086   0.000000
    34  H    3.537161   2.338483   2.959871   0.000000
    35  H    2.081788   3.700747   2.602003   2.989973   0.000000
    36  H    3.492906   4.632023   4.596543   2.437614   2.959761
    37  H    4.536133   5.041130   4.287391   3.863060   2.679402
    38  H    5.320663   3.981183   4.378801   2.427547   4.021359
    39  H    9.618722   8.309563   8.401996   7.238020   7.886000
    40  H    8.621551   7.262354   7.595504   5.959192   7.101959
    41  H    8.714487   6.825100   6.776349   6.372333   6.794944
    42  H    7.089168   4.867633   5.419313   4.009179   5.598813
    43  H    8.092371   5.254329   5.368808   5.577001   6.264621
    44  H    9.108433   5.760254   6.666982   5.797903   7.692702
    45  H   10.241345   7.401678   7.671586   7.507234   8.405576
                   36         37         38         39         40
    36  H    0.000000
    37  H    2.970006   0.000000
    38  H    2.684211   3.029686   0.000000
    39  H    6.732057   5.459325   4.828254   0.000000
    40  H    5.519449   4.965171   3.545354   1.729023   0.000000
    41  H    6.496486   4.675416   4.275408   2.409462   2.984365
    42  H    4.563641   4.198147   1.903833   3.698698   2.541003
    43  H    6.562333   5.002497   4.171688   4.595024   4.524626
    44  H    7.032168   6.649091   4.381039   5.011240   4.284430
    45  H    8.246808   6.736721   5.691274   4.039234   4.473228
                   41         42         43         44         45
    41  H    0.000000
    42  H    2.993445   0.000000
    43  H    2.369670   2.955719   0.000000
    44  H    3.960199   2.708650   2.976974   0.000000
    45  H    2.425179   3.966607   2.324006   3.054668   0.000000
 Stoichiometry    C12H22O11
 Framework group  C1[X(C12H22O11)]
 Deg. of freedom   129
 Full point group                 C1      NOp   1
 Largest Abelian subgroup         C1      NOp   1
 Largest concise Abelian subgroup C1      NOp   1
                         Standard orientation:                         
 ---------------------------------------------------------------------
 Center     Atomic      Atomic             Coordinates (Angstroms)
 Number     Number       Type             X           Y           Z
 ---------------------------------------------------------------------
      1          8           0       -5.034181   -0.428436    0.512351
      2          6           0       -3.759012   -0.139647   -0.080042
      3          6           0       -3.259577    1.256571    0.252474
      4          8           0       -4.227469    2.261004   -0.085041
      5          1           0       -5.093161    1.853669    0.205582
      6          6           0       -1.863627    1.528168   -0.284228
      7          8           0       -1.289756    2.728864    0.253209
      8          1           0       -0.312795    2.807858    0.058242
      9          6           0       -2.959322   -2.539097   -0.084664
     10          8           0       -4.178723   -3.249540    0.173895
     11          1           0       -3.810954   -4.150933   -0.053874
     12          6           0       -2.654594   -1.104957    0.317823
     13          8           0       -1.406906   -0.820478   -0.332226
     14          6           0       -0.873453    0.440131    0.097773
     15          8           0        0.287941    0.484186   -0.744094
     16          6           0        1.489528    0.218804   -0.006376
     17          6           0        2.063377   -1.143510   -0.358592
     18          8           0        1.034323   -2.143506   -0.325961
     19          1           0        0.186063   -1.755967   -0.686670
     20          6           0        3.371447   -1.503583    0.326119
     21          8           0        3.909113   -2.717821   -0.217797
     22          1           0        4.871107   -2.743386    0.054208
     23          6           0        2.282992    2.634655    0.206570
     24          8           0        1.115095    3.298328   -0.298773
     25          1           0        1.419935    4.241028   -0.431170
     26          6           0        2.589030    1.228966   -0.286158
     27          8           0        3.831059    0.926255    0.364951
     28          6           0        4.282778   -0.359283   -0.085721
     29          8           0        5.413295   -0.654802    0.747736
     30          1           0        6.162112   -0.896019    0.197566
     31          1           0       -5.665585   -0.645758   -0.177359
     32          1           0       -2.181115   -3.132735    0.347642
     33          1           0       -2.820854   -2.577908   -1.144957
     34          1           0       -2.515817   -1.060257    1.377843
     35          1           0       -3.875621   -0.199280   -1.141996
     36          1           0       -3.170127    1.287145    1.318290
     37          1           0       -1.906516    1.605803   -1.350546
     38          1           0       -0.627335    0.446265    1.139065
     39          1           0        3.128206    3.248573   -0.024984
     40          1           0        2.193052    2.590400    1.271864
     41          1           0        2.756504    1.265662   -1.342334
     42          1           0        1.262368    0.237459    1.039067
     43          1           0        2.323992   -1.063645   -1.393291
     44          1           0        3.260738   -1.557210    1.389024
     45          1           0        4.528073   -0.376502   -1.127082
 ---------------------------------------------------------------------
 Rotational constants (GHZ):      0.4128257      0.1470942      0.1112739
 Standard basis: 6-31+G(2df,p) (6D, 7F)
 There are   846 symmetry adapted basis functions of A   symmetry.
 Integral buffers will be    131072 words long.
 Raffenetti 2 integral format.
 Two-electron integral symmetry is turned on.
   846 basis functions,  1258 primitive gaussians,   915 cartesian basis functions
    91 alpha electrons       91 beta electrons
       nuclear repulsion energy      2297.8340695728 Hartrees.
 NAtoms=   45 NActive=   45 NUniq=   45 SFac= 1.00D+00 NAtFMM=   50 NAOKFM=F Big=F
 One-electron integrals computed using PRISM.
 NBasis=   846 RedAO= T  NBF=   846
 NBsUse=   846 1.00D-06 NBFU=   846
 Harris functional with IExCor=  402 diagonalized for initial guess.
 ExpMin= 4.38D-02 ExpMax= 5.48D+03 ExpMxC= 8.25D+02 IAcc=2 IRadAn=         0 AccDes= 0.00D+00
 HarFok:  IExCor=  402 AccDes= 0.00D+00 IRadAn=         0 IDoV= 1
 ScaDFX=  1.000000  1.000000  1.000000  1.000000
 FoFCou: FMM=F IPFlag=           0 FMFlag=      100000 FMFlg1=           0
         NFxFlg=           0 DoJE=T BraDBF=F KetDBF=T FulRan=T
         Omega=  0.000000  0.000000  1.000000  0.000000  0.000000 ICntrl=     500 IOpCl=  0
         NMat0=    1 NMatS0=    1 NMatT0=    0 NMatD0=    1 NMtDS0=    0 NMtDT0=    0
         I1Cent=           4 NGrid=           0.
 Petite list used in FoFCou.
 Initial guess orbital symmetries:
       Occupied  (A) (A) (A) (A) (A) (A) (A) (A) (A) (A) (A) (A)
                 (A) (A) (A) (A) (A) (A) (A) (A) (A) (A) (A) (A)
                 (A) (A) (A) (A) (A) (A) (A) (A) (A) (A) (A) (A)
                 (A) (A) (A) (A) (A) (A) (A) (A) (A) (A) (A) (A)
                 (A) (A) (A) (A) (A) (A) (A) (A) (A) (A) (A) (A)
                 (A) (A) (A) (A) (A) (A) (A) (A) (A) (A) (A) (A)
                 (A) (A) (A) (A) (A) (A) (A) (A) (A) (A) (A) (A)
                 (A) (A) (A) (A) (A) (A) (A)
       Virtual   (A) (A) (A) (A) (A) (A) (A) (A) (A) (A) (A) (A)
                 (A) (A) (A) (A) (A) (A) (A) (A) (A) (A) (A) (A)
                 (A) (A) (A) (A) (A) (A) (A) (A) (A) (A) (A) (A)
                 (A) (A) (A) (A) (A) (A) (A) (A) (A) (A) (A) (A)
                 (A) (A) (A) (A) (A) (A) (A) (A) (A) (A) (A) (A)
                 (A) (A) (A) (A) (A) (A) (A) (A) (A) (A) (A) (A)
                 (A) (A) (A) (A) (A) (A) (A) (A) (A) (A) (A) (A)
                 (A) (A) (A) (A) (A) (A) (A) (A) (A) (A) (A) (A)
                 (A) (A) (A) (A) (A) (A) (A) (A) (A) (A) (A) (A)
                 (A) (A) (A) (A) (A) (A) (A) (A) (A) (A) (A) (A)
                 (A) (A) (A) (A) (A) (A) (A) (A) (A) (A) (A) (A)
                 (A) (A) (A) (A) (A) (A) (A) (A) (A) (A) (A) (A)
                 (A) (A) (A) (A) (A) (A) (A) (A) (A) (A) (A) (A)
                 (A) (A) (A) (A) (A) (A) (A) (A) (A) (A) (A) (A)
                 (A) (A) (A) (A) (A) (A) (A) (A) (A) (A) (A) (A)
                 (A) (A) (A) (A) (A) (A) (A) (A) (A) (A) (A) (A)
                 (A) (A) (A) (A) (A) (A) (A) (A) (A) (A) (A) (A)
                 (A) (A) (A) (A) (A) (A) (A) (A) (A) (A) (A) (A)
                 (A) (A) (A) (A) (A) (A) (A) (A) (A) (A) (A) (A)
                 (A) (A) (A) (A) (A) (A) (A) (A) (A) (A) (A) (A)
                 (A) (A) (A) (A) (A) (A) (A) (A) (A) (A) (A) (A)
                 (A) (A) (A) (A) (A) (A) (A) (A) (A) (A) (A) (A)
                 (A) (A) (A) (A) (A) (A) (A) (A) (A) (A) (A) (A)
                 (A) (A) (A) (A) (A) (A) (A) (A) (A) (A) (A) (A)
                 (A) (A) (A) (A) (A) (A) (A) (A) (A) (A) (A) (A)
                 (A) (A) (A) (A) (A) (A) (A) (A) (A) (A) (A) (A)
                 (A) (A) (A) (A) (A) (A) (A) (A) (A) (A) (A) (A)
                 (A) (A) (A) (A) (A) (A) (A) (A) (A) (A) (A) (A)
                 (A) (A) (A) (A) (A) (A) (A) (A) (A) (A) (A) (A)
                 (A) (A) (A) (A) (A) (A) (A) (A) (A) (A) (A) (A)
                 (A) (A) (A) (A) (A) (A) (A) (A) (A) (A) (A) (A)
                 (A) (A) (A) (A) (A) (A) (A) (A) (A) (A) (A) (A)
                 (A) (A) (A) (A) (A) (A) (A) (A) (A) (A) (A) (A)
                 (A) (A) (A) (A) (A) (A) (A) (A) (A) (A) (A) (A)
                 (A) (A) (A) (A) (A) (A) (A) (A) (A) (A) (A) (A)
                 (A) (A) (A) (A) (A) (A) (A) (A) (A) (A) (A) (A)
                 (A) (A) (A) (A) (A) (A) (A) (A) (A) (A) (A) (A)
                 (A) (A) (A) (A) (A) (A) (A) (A) (A) (A) (A) (A)
                 (A) (A) (A) (A) (A) (A) (A) (A) (A) (A) (A) (A)
                 (A) (A) (A) (A) (A) (A) (A) (A) (A) (A) (A) (A)
                 (A) (A) (A) (A) (A) (A) (A) (A) (A) (A) (A) (A)
                 (A) (A) (A) (A) (A) (A) (A) (A) (A) (A) (A) (A)
                 (A) (A) (A) (A) (A) (A) (A) (A) (A) (A) (A) (A)
                 (A) (A) (A) (A) (A) (A) (A) (A) (A) (A) (A) (A)
                 (A) (A) (A) (A) (A) (A) (A) (A) (A) (A) (A) (A)
                 (A) (A) (A) (A) (A) (A) (A) (A) (A) (A) (A) (A)
                 (A) (A) (A) (A) (A) (A) (A) (A) (A) (A) (A) (A)
                 (A) (A) (A) (A) (A) (A) (A) (A) (A) (A) (A) (A)
                 (A) (A) (A) (A) (A) (A) (A) (A) (A) (A) (A) (A)
                 (A) (A) (A) (A) (A) (A) (A) (A) (A) (A) (A) (A)
                 (A) (A) (A) (A) (A) (A) (A) (A) (A) (A) (A) (A)
                 (A) (A) (A) (A) (A) (A) (A) (A) (A) (A) (A) (A)
                 (A) (A) (A) (A) (A) (A) (A) (A) (A) (A) (A) (A)
                 (A) (A) (A) (A) (A) (A) (A) (A) (A) (A) (A) (A)
                 (A) (A) (A) (A) (A) (A) (A) (A) (A) (A) (A) (A)
                 (A) (A) (A) (A) (A) (A) (A) (A) (A) (A) (A) (A)
                 (A) (A) (A) (A) (A) (A) (A) (A) (A) (A) (A) (A)
                 (A) (A) (A) (A) (A) (A) (A) (A) (A) (A) (A) (A)
                 (A) (A) (A) (A) (A) (A) (A) (A) (A) (A) (A) (A)
                 (A) (A) (A) (A) (A) (A) (A) (A) (A) (A) (A) (A)
                 (A) (A) (A) (A) (A) (A) (A) (A) (A) (A) (A) (A)
                 (A) (A) (A) (A) (A) (A) (A) (A) (A) (A) (A) (A)
                 (A) (A) (A) (A) (A) (A) (A) (A) (A) (A) (A)
 The electronic state of the initial guess is 1-A.
 Requested convergence on RMS density matrix=1.00D-08 within 128 cycles.
 Requested convergence on MAX density matrix=1.00D-06.
 Requested convergence on             energy=1.00D-06.
 No special actions if energy rises.
 SCF Done:  E(RB3LYP) =  -1297.99744848     A.U. after   13 cycles
             Convg  =    0.3916D-08             -V/T =  2.0064
 Range of M.O.s used for correlation:     1   846
 NBasis=   846 NAE=    91 NBE=    91 NFC=     0 NFV=     0
 NROrb=    846 NOA=    91 NOB=    91 NVA=   755 NVB=   755

 **** Warning!!: The largest alpha MO coefficient is  0.86883207D+02

          Differentiating once with respect to electric field.
                with respect to dipole field.
          Electric field/nuclear overlap derivatives assumed to be zero.
          There are     3 degrees of freedom in the 1st order CPHF.  IDoFFX=0.
      3 vectors produced by pass  0 Test12= 2.29D-12 3.33D-08 XBig12= 1.23D+02 1.08D+00.
 AX will form     3 AO Fock derivatives at one time.
      3 vectors produced by pass  1 Test12= 2.29D-12 3.33D-08 XBig12= 2.50D+01 3.71D-01.
      3 vectors produced by pass  2 Test12= 2.29D-12 3.33D-08 XBig12= 1.05D+01 2.13D-01.
      3 vectors produced by pass  3 Test12= 2.29D-12 3.33D-08 XBig12= 1.15D+00 8.69D-02.
      3 vectors produced by pass  4 Test12= 2.29D-12 3.33D-08 XBig12= 3.34D-01 3.36D-02.
      3 vectors produced by pass  5 Test12= 2.29D-12 3.33D-08 XBig12= 6.56D-02 1.83D-02.
      3 vectors produced by pass  6 Test12= 2.29D-12 3.33D-08 XBig12= 2.33D-02 1.79D-02.
      3 vectors produced by pass  7 Test12= 2.29D-12 3.33D-08 XBig12= 3.28D-03 8.68D-03.
      3 vectors produced by pass  8 Test12= 2.29D-12 3.33D-08 XBig12= 5.94D-04 3.00D-03.
      3 vectors produced by pass  9 Test12= 2.29D-12 3.33D-08 XBig12= 1.76D-04 1.80D-03.
      3 vectors produced by pass 10 Test12= 2.29D-12 3.33D-08 XBig12= 3.96D-05 6.71D-04.
      3 vectors produced by pass 11 Test12= 2.29D-12 3.33D-08 XBig12= 1.00D-05 4.48D-04.
      3 vectors produced by pass 12 Test12= 2.29D-12 3.33D-08 XBig12= 1.41D-06 1.32D-04.
      3 vectors produced by pass 13 Test12= 2.29D-12 3.33D-08 XBig12= 4.57D-07 5.82D-05.
      3 vectors produced by pass 14 Test12= 2.29D-12 3.33D-08 XBig12= 7.46D-08 3.16D-05.
      3 vectors produced by pass 15 Test12= 2.29D-12 3.33D-08 XBig12= 1.54D-08 1.43D-05.
      3 vectors produced by pass 16 Test12= 2.29D-12 3.33D-08 XBig12= 2.51D-09 5.57D-06.
      3 vectors produced by pass 17 Test12= 2.29D-12 3.33D-08 XBig12= 1.83D-10 1.59D-06.
      3 vectors produced by pass 18 Test12= 2.29D-12 3.33D-08 XBig12= 2.88D-11 6.15D-07.
      3 vectors produced by pass 19 Test12= 2.29D-12 3.33D-08 XBig12= 1.54D-11 2.62D-07.
      3 vectors produced by pass 20 Test12= 2.29D-12 3.33D-08 XBig12= 7.56D-12 1.95D-07.
      1 vectors produced by pass 21 Test12= 2.29D-12 3.33D-08 XBig12= 2.17D-12 1.89D-07.
 Inverted reduced A of dimension    64 with in-core refinement.
 End of Minotr Frequency-dependent properties file   721 does not exist.
 End of Minotr Frequency-dependent properties file   722 does not exist.
 Symmetrizing basis deriv contribution to polar:
 IMax=3 JMax=2 DiffMx= 0.00D+00
 G2DrvN: will do     8 centers at a time, making    6 passes doing MaxLOS=3.
 Calling FoFCou, ICntrl=  3107 FMM=F I1Cent=   0 AccDes= 0.00D+00.
 Calling FoFCou, ICntrl=  3107 FMM=F I1Cent=   0 AccDes= 0.00D+00.
 Calling FoFCou, ICntrl=  3107 FMM=F I1Cent=   0 AccDes= 0.00D+00.
 Calling FoFCou, ICntrl=  3107 FMM=F I1Cent=   0 AccDes= 0.00D+00.
 Calling FoFCou, ICntrl=  3107 FMM=F I1Cent=   0 AccDes= 0.00D+00.
 Calling FoFCou, ICntrl=  3107 FMM=F I1Cent=   0 AccDes= 0.00D+00.
 FoFDir/FoFCou used for L=0 through L=3.
 End of G2Drv Frequency-dependent properties file   721 does not exist.
 End of G2Drv Frequency-dependent properties file   722 does not exist.
          IDoAtm=111111111111111111111111111111111111111111111
          Differentiating once with respect to electric field.
                with respect to dipole field.
          Differentiating once with respect to nuclear coordinates.
          There are   138 degrees of freedom in the 1st order CPHF.  IDoFFX=5.
 Will reuse    3 saved solutions.
    135 vectors produced by pass  0 Test12= 6.87D-14 1.00D-09 XBig12= 1.77D-01 7.68D-02.
 AX will form    27 AO Fock derivatives at one time.
    135 vectors produced by pass  1 Test12= 6.87D-14 1.00D-09 XBig12= 2.25D-02 1.28D-02.
    132 vectors produced by pass  2 Test12= 6.87D-14 1.00D-09 XBig12= 1.61D-04 1.59D-03.
    132 vectors produced by pass  3 Test12= 6.87D-14 1.00D-09 XBig12= 9.09D-07 7.60D-05.
    132 vectors produced by pass  4 Test12= 6.87D-14 1.00D-09 XBig12= 2.45D-09 3.28D-06.
    132 vectors produced by pass  5 Test12= 6.87D-14 1.00D-09 XBig12= 6.76D-12 1.29D-07.
     97 vectors produced by pass  6 Test12= 6.87D-14 1.00D-09 XBig12= 2.81D-13 2.79D-08.
      1 vectors produced by pass  7 Test12= 6.87D-14 1.00D-09 XBig12= 8.04D-16 1.47D-09.
 Inverted reduced A of dimension   896 with in-core refinement.
 Isotropic polarizability for W=    0.000000      190.57 Bohr**3.
 End of Minotr Frequency-dependent properties file   721 does not exist.
 End of Minotr Frequency-dependent properties file   722 does not exist.

 **********************************************************************

            Population analysis using the SCF density.

 **********************************************************************

 Orbital symmetries:
       Occupied  (A) (A) (A) (A) (A) (A) (A) (A) (A) (A) (A) (A)
                 (A) (A) (A) (A) (A) (A) (A) (A) (A) (A) (A) (A)
                 (A) (A) (A) (A) (A) (A) (A) (A) (A) (A) (A) (A)
                 (A) (A) (A) (A) (A) (A) (A) (A) (A) (A) (A) (A)
                 (A) (A) (A) (A) (A) (A) (A) (A) (A) (A) (A) (A)
                 (A) (A) (A) (A) (A) (A) (A) (A) (A) (A) (A) (A)
                 (A) (A) (A) (A) (A) (A) (A) (A) (A) (A) (A) (A)
                 (A) (A) (A) (A) (A) (A) (A)
       Virtual   (A) (A) (A) (A) (A) (A) (A) (A) (A) (A) (A) (A)
                 (A) (A) (A) (A) (A) (A) (A) (A) (A) (A) (A) (A)
                 (A) (A) (A) (A) (A) (A) (A) (A) (A) (A) (A) (A)
                 (A) (A) (A) (A) (A) (A) (A) (A) (A) (A) (A) (A)
                 (A) (A) (A) (A) (A) (A) (A) (A) (A) (A) (A) (A)
                 (A) (A) (A) (A) (A) (A) (A) (A) (A) (A) (A) (A)
                 (A) (A) (A) (A) (A) (A) (A) (A) (A) (A) (A) (A)
                 (A) (A) (A) (A) (A) (A) (A) (A) (A) (A) (A) (A)
                 (A) (A) (A) (A) (A) (A) (A) (A) (A) (A) (A) (A)
                 (A) (A) (A) (A) (A) (A) (A) (A) (A) (A) (A) (A)
                 (A) (A) (A) (A) (A) (A) (A) (A) (A) (A) (A) (A)
                 (A) (A) (A) (A) (A) (A) (A) (A) (A) (A) (A) (A)
                 (A) (A) (A) (A) (A) (A) (A) (A) (A) (A) (A) (A)
                 (A) (A) (A) (A) (A) (A) (A) (A) (A) (A) (A) (A)
                 (A) (A) (A) (A) (A) (A) (A) (A) (A) (A) (A) (A)
                 (A) (A) (A) (A) (A) (A) (A) (A) (A) (A) (A) (A)
                 (A) (A) (A) (A) (A) (A) (A) (A) (A) (A) (A) (A)
                 (A) (A) (A) (A) (A) (A) (A) (A) (A) (A) (A) (A)
                 (A) (A) (A) (A) (A) (A) (A) (A) (A) (A) (A) (A)
                 (A) (A) (A) (A) (A) (A) (A) (A) (A) (A) (A) (A)
                 (A) (A) (A) (A) (A) (A) (A) (A) (A) (A) (A) (A)
                 (A) (A) (A) (A) (A) (A) (A) (A) (A) (A) (A) (A)
                 (A) (A) (A) (A) (A) (A) (A) (A) (A) (A) (A) (A)
                 (A) (A) (A) (A) (A) (A) (A) (A) (A) (A) (A) (A)
                 (A) (A) (A) (A) (A) (A) (A) (A) (A) (A) (A) (A)
                 (A) (A) (A) (A) (A) (A) (A) (A) (A) (A) (A) (A)
                 (A) (A) (A) (A) (A) (A) (A) (A) (A) (A) (A) (A)
                 (A) (A) (A) (A) (A) (A) (A) (A) (A) (A) (A) (A)
                 (A) (A) (A) (A) (A) (A) (A) (A) (A) (A) (A) (A)
                 (A) (A) (A) (A) (A) (A) (A) (A) (A) (A) (A) (A)
                 (A) (A) (A) (A) (A) (A) (A) (A) (A) (A) (A) (A)
                 (A) (A) (A) (A) (A) (A) (A) (A) (A) (A) (A) (A)
                 (A) (A) (A) (A) (A) (A) (A) (A) (A) (A) (A) (A)
                 (A) (A) (A) (A) (A) (A) (A) (A) (A) (A) (A) (A)
                 (A) (A) (A) (A) (A) (A) (A) (A) (A) (A) (A) (A)
                 (A) (A) (A) (A) (A) (A) (A) (A) (A) (A) (A) (A)
                 (A) (A) (A) (A) (A) (A) (A) (A) (A) (A) (A) (A)
                 (A) (A) (A) (A) (A) (A) (A) (A) (A) (A) (A) (A)
                 (A) (A) (A) (A) (A) (A) (A) (A) (A) (A) (A) (A)
                 (A) (A) (A) (A) (A) (A) (A) (A) (A) (A) (A) (A)
                 (A) (A) (A) (A) (A) (A) (A) (A) (A) (A) (A) (A)
                 (A) (A) (A) (A) (A) (A) (A) (A) (A) (A) (A) (A)
                 (A) (A) (A) (A) (A) (A) (A) (A) (A) (A) (A) (A)
                 (A) (A) (A) (A) (A) (A) (A) (A) (A) (A) (A) (A)
                 (A) (A) (A) (A) (A) (A) (A) (A) (A) (A) (A) (A)
                 (A) (A) (A) (A) (A) (A) (A) (A) (A) (A) (A) (A)
                 (A) (A) (A) (A) (A) (A) (A) (A) (A) (A) (A) (A)
                 (A) (A) (A) (A) (A) (A) (A) (A) (A) (A) (A) (A)
                 (A) (A) (A) (A) (A) (A) (A) (A) (A) (A) (A) (A)
                 (A) (A) (A) (A) (A) (A) (A) (A) (A) (A) (A) (A)
                 (A) (A) (A) (A) (A) (A) (A) (A) (A) (A) (A) (A)
                 (A) (A) (A) (A) (A) (A) (A) (A) (A) (A) (A) (A)
                 (A) (A) (A) (A) (A) (A) (A) (A) (A) (A) (A) (A)
                 (A) (A) (A) (A) (A) (A) (A) (A) (A) (A) (A) (A)
                 (A) (A) (A) (A) (A) (A) (A) (A) (A) (A) (A) (A)
                 (A) (A) (A) (A) (A) (A) (A) (A) (A) (A) (A) (A)
                 (A) (A) (A) (A) (A) (A) (A) (A) (A) (A) (A) (A)
                 (A) (A) (A) (A) (A) (A) (A) (A) (A) (A) (A) (A)
                 (A) (A) (A) (A) (A) (A) (A) (A) (A) (A) (A) (A)
                 (A) (A) (A) (A) (A) (A) (A) (A) (A) (A) (A) (A)
                 (A) (A) (A) (A) (A) (A) (A) (A) (A) (A) (A) (A)
                 (A) (A) (A) (A) (A) (A) (A) (A) (A) (A) (A) (A)
                 (A) (A) (A) (A) (A) (A) (A) (A) (A) (A) (A)
 The electronic state is 1-A.
 Alpha  occ. eigenvalues --  -19.19755 -19.19214 -19.18895 -19.18410 -19.18265
 Alpha  occ. eigenvalues --  -19.17203 -19.16704 -19.16294 -19.14876 -19.13440
 Alpha  occ. eigenvalues --  -19.12165 -10.31047 -10.30476 -10.26413 -10.25869
 Alpha  occ. eigenvalues --  -10.25742 -10.25368 -10.25108 -10.24921 -10.24008
 Alpha  occ. eigenvalues --  -10.23978 -10.23798 -10.23504  -1.10705  -1.10039
 Alpha  occ. eigenvalues --   -1.06769  -1.05287  -1.04667  -1.04025  -1.03077
 Alpha  occ. eigenvalues --   -1.02738  -1.01590  -1.00215  -0.99399  -0.82362
 Alpha  occ. eigenvalues --   -0.80201  -0.79963  -0.78161  -0.71894  -0.69509
 Alpha  occ. eigenvalues --   -0.67192  -0.65366  -0.63670  -0.62125  -0.61770
 Alpha  occ. eigenvalues --   -0.60268  -0.57068  -0.56637  -0.55572  -0.54830
 Alpha  occ. eigenvalues --   -0.53717  -0.53235  -0.52935  -0.51890  -0.51245
 Alpha  occ. eigenvalues --   -0.51025  -0.49730  -0.49129  -0.48602  -0.46906
 Alpha  occ. eigenvalues --   -0.46235  -0.45667  -0.44261  -0.43879  -0.43199
 Alpha  occ. eigenvalues --   -0.42455  -0.41675  -0.41156  -0.40574  -0.40349
 Alpha  occ. eigenvalues --   -0.39334  -0.38625  -0.38388  -0.36670  -0.36555
 Alpha  occ. eigenvalues --   -0.35888  -0.35211  -0.34558  -0.33841  -0.33706
 Alpha  occ. eigenvalues --   -0.33095  -0.32037  -0.31055  -0.30935  -0.30064
 Alpha  occ. eigenvalues --   -0.29295  -0.28700  -0.28335  -0.26999  -0.26398
 Alpha  occ. eigenvalues --   -0.26165
 Alpha virt. eigenvalues --   -0.02530  -0.02476  -0.01657  -0.00188   0.00143
 Alpha virt. eigenvalues --    0.00794   0.01989   0.02297   0.03277   0.03524
 Alpha virt. eigenvalues --    0.03928   0.04160   0.04783   0.05213   0.05657
 Alpha virt. eigenvalues --    0.06185   0.06619   0.07125   0.07458   0.07829
 Alpha virt. eigenvalues --    0.08544   0.08742   0.09063   0.09517   0.10156
 Alpha virt. eigenvalues --    0.10492   0.10764   0.11486   0.11589   0.11972
 Alpha virt. eigenvalues --    0.12295   0.12831   0.13251   0.13460   0.13774
 Alpha virt. eigenvalues --    0.14076   0.14236   0.14330   0.14447   0.15160
 Alpha virt. eigenvalues --    0.15349   0.15816   0.16705   0.16964   0.17030
 Alpha virt. eigenvalues --    0.17430   0.17589   0.17844   0.17991   0.18071
 Alpha virt. eigenvalues --    0.18699   0.18926   0.19487   0.19674   0.19967
 Alpha virt. eigenvalues --    0.20360   0.20805   0.21030   0.21198   0.21397
 Alpha virt. eigenvalues --    0.21617   0.22381   0.22830   0.22866   0.23502
 Alpha virt. eigenvalues --    0.23590   0.23802   0.24311   0.24427   0.24602
 Alpha virt. eigenvalues --    0.24999   0.25146   0.25206   0.25628   0.25892
 Alpha virt. eigenvalues --    0.26213   0.26499   0.26702   0.27031   0.27250
 Alpha virt. eigenvalues --    0.27408   0.27994   0.28447   0.28609   0.28882
 Alpha virt. eigenvalues --    0.29135   0.29246   0.29865   0.30058   0.30645
 Alpha virt. eigenvalues --    0.30909   0.31554   0.31783   0.31960   0.32358
 Alpha virt. eigenvalues --    0.32604   0.32856   0.33037   0.33330   0.34016
 Alpha virt. eigenvalues --    0.34121   0.34245   0.34814   0.35061   0.35361
 Alpha virt. eigenvalues --    0.35791   0.36162   0.36438   0.36930   0.37426
 Alpha virt. eigenvalues --    0.37712   0.38199   0.38301   0.38822   0.39395
 Alpha virt. eigenvalues --    0.39635   0.39925   0.40406   0.40629   0.41579
 Alpha virt. eigenvalues --    0.41932   0.42739   0.42987   0.43396   0.43625
 Alpha virt. eigenvalues --    0.44586   0.45306   0.45868   0.46419   0.46805
 Alpha virt. eigenvalues --    0.47156   0.47691   0.48823   0.49298   0.49614
 Alpha virt. eigenvalues --    0.51348   0.51549   0.52391   0.56575   0.58202
 Alpha virt. eigenvalues --    0.58541   0.59043   0.60538   0.61040   0.61478
 Alpha virt. eigenvalues --    0.62758   0.62817   0.63811   0.64897   0.65877
 Alpha virt. eigenvalues --    0.66247   0.67663   0.67887   0.68451   0.69568
 Alpha virt. eigenvalues --    0.69881   0.70757   0.71770   0.72191   0.73628
 Alpha virt. eigenvalues --    0.74099   0.74362   0.75099   0.75905   0.76269
 Alpha virt. eigenvalues --    0.77086   0.78091   0.78708   0.79930   0.80928
 Alpha virt. eigenvalues --    0.81718   0.82198   0.82831   0.83743   0.84676
 Alpha virt. eigenvalues --    0.85188   0.86013   0.86546   0.88064   0.88404
 Alpha virt. eigenvalues --    0.89078   0.89319   0.89874   0.90782   0.91329
 Alpha virt. eigenvalues --    0.92112   0.92398   0.92588   0.93008   0.93230
 Alpha virt. eigenvalues --    0.93723   0.94597   0.95121   0.95396   0.95826
 Alpha virt. eigenvalues --    0.96395   0.96896   0.97269   0.98011   0.98876
 Alpha virt. eigenvalues --    0.99320   0.99524   1.00328   1.00494   1.01747
 Alpha virt. eigenvalues --    1.02597   1.03748   1.04350   1.04618   1.05794
 Alpha virt. eigenvalues --    1.06460   1.06718   1.07167   1.07825   1.08134
 Alpha virt. eigenvalues --    1.08873   1.09344   1.10109   1.10666   1.11452
 Alpha virt. eigenvalues --    1.11893   1.12022   1.13206   1.13301   1.14216
 Alpha virt. eigenvalues --    1.15110   1.15606   1.15745   1.15990   1.16573
 Alpha virt. eigenvalues --    1.17440   1.17565   1.18098   1.18805   1.19425
 Alpha virt. eigenvalues --    1.19948   1.20530   1.20978   1.21369   1.21481
 Alpha virt. eigenvalues --    1.22420   1.22474   1.23255   1.24082   1.24579
 Alpha virt. eigenvalues --    1.25015   1.25550   1.25873   1.26503   1.27158
 Alpha virt. eigenvalues --    1.28065   1.28910   1.28977   1.29835   1.30149
 Alpha virt. eigenvalues --    1.30756   1.31827   1.32301   1.33067   1.34346
 Alpha virt. eigenvalues --    1.34679   1.35394   1.36235   1.36682   1.36902
 Alpha virt. eigenvalues --    1.37780   1.38255   1.38814   1.39205   1.39964
 Alpha virt. eigenvalues --    1.40012   1.41285   1.42424   1.42764   1.43367
 Alpha virt. eigenvalues --    1.44258   1.44964   1.45922   1.46333   1.47218
 Alpha virt. eigenvalues --    1.47378   1.47736   1.48633   1.49642   1.50941
 Alpha virt. eigenvalues --    1.51723   1.52326   1.53069   1.53506   1.55204
 Alpha virt. eigenvalues --    1.56375   1.56982   1.57358   1.57998   1.59335
 Alpha virt. eigenvalues --    1.60418   1.61056   1.61604   1.63046   1.63599
 Alpha virt. eigenvalues --    1.64250   1.65297   1.66222   1.66786   1.67214
 Alpha virt. eigenvalues --    1.69069   1.70240   1.70938   1.71250   1.72227
 Alpha virt. eigenvalues --    1.72398   1.72973   1.73644   1.74570   1.75607
 Alpha virt. eigenvalues --    1.76455   1.77413   1.78267   1.79160   1.81161
 Alpha virt. eigenvalues --    1.81707   1.83145   1.84558   1.86205   1.86496
 Alpha virt. eigenvalues --    1.87380   1.87875   1.88194   1.90398   1.90738
 Alpha virt. eigenvalues --    1.91007   1.91977   1.92341   1.93737   1.95355
 Alpha virt. eigenvalues --    1.95800   1.96167   1.98092   1.99318   2.01539
 Alpha virt. eigenvalues --    2.01604   2.02027   2.04264   2.04904   2.06788
 Alpha virt. eigenvalues --    2.07373   2.08148   2.09030   2.10937   2.13120
 Alpha virt. eigenvalues --    2.14544   2.15382   2.18055   2.18514   2.18775
 Alpha virt. eigenvalues --    2.22831   2.23586   2.24836   2.25299   2.26847
 Alpha virt. eigenvalues --    2.27583   2.27971   2.28761   2.30558   2.31795
 Alpha virt. eigenvalues --    2.32632   2.35949   2.37868   2.39770   2.41656
 Alpha virt. eigenvalues --    2.43379   2.43773   2.44582   2.48458   2.49738
 Alpha virt. eigenvalues --    2.50915   2.51845   2.52333   2.53909   2.54499
 Alpha virt. eigenvalues --    2.55769   2.57213   2.58991   2.60266   2.61327
 Alpha virt. eigenvalues --    2.62444   2.62923   2.63745   2.65205   2.66087
 Alpha virt. eigenvalues --    2.67187   2.67813   2.69035   2.70651   2.71665
 Alpha virt. eigenvalues --    2.74219   2.75345   2.76147   2.77436   2.79907
 Alpha virt. eigenvalues --    2.80708   2.81164   2.82280   2.82799   2.83396
 Alpha virt. eigenvalues --    2.84587   2.85585   2.87221   2.87946   2.88461
 Alpha virt. eigenvalues --    2.89111   2.89933   2.90955   2.91425   2.93552
 Alpha virt. eigenvalues --    2.93707   2.94562   2.96095   2.96494   2.98484
 Alpha virt. eigenvalues --    2.98899   2.99395   3.00335   3.01387   3.03152
 Alpha virt. eigenvalues --    3.04034   3.04232   3.05032   3.05195   3.05896
 Alpha virt. eigenvalues --    3.07723   3.07865   3.09532   3.10437   3.11641
 Alpha virt. eigenvalues --    3.12380   3.12924   3.13633   3.14574   3.16345
 Alpha virt. eigenvalues --    3.18018   3.20194   3.20724   3.21431   3.22794
 Alpha virt. eigenvalues --    3.22953   3.24816   3.26630   3.26932   3.27083
 Alpha virt. eigenvalues --    3.27865   3.29784   3.30319   3.30823   3.32290
 Alpha virt. eigenvalues --    3.33355   3.35598   3.37097   3.38099   3.38603
 Alpha virt. eigenvalues --    3.40734   3.41392   3.42290   3.43309   3.44312
 Alpha virt. eigenvalues --    3.45253   3.48638   3.48902   3.50973   3.53008
 Alpha virt. eigenvalues --    3.53913   3.56024   3.58110   3.58880   3.60986
 Alpha virt. eigenvalues --    3.61903   3.63289   3.64457   3.65592   3.66928
 Alpha virt. eigenvalues --    3.67132   3.70416   3.71415   3.73475   3.75786
 Alpha virt. eigenvalues --    3.75856   3.77364   3.77563   3.78701   3.79208
 Alpha virt. eigenvalues --    3.80781   3.82413   3.83845   3.84365   3.85011
 Alpha virt. eigenvalues --    3.86369   3.86999   3.88799   3.90453   3.92023
 Alpha virt. eigenvalues --    3.93643   3.97783   3.98008   3.99908   4.01753
 Alpha virt. eigenvalues --    4.04174   4.05005   4.07078   4.09518   4.15004
 Alpha virt. eigenvalues --    4.16141   4.16419   4.16902   4.18086   4.19051
 Alpha virt. eigenvalues --    4.20669   4.22366   4.23376   4.24486   4.24947
 Alpha virt. eigenvalues --    4.27420   4.28234   4.29401   4.29941   4.30380
 Alpha virt. eigenvalues --    4.31295   4.32837   4.33506   4.33782   4.36218
 Alpha virt. eigenvalues --    4.36943   4.37414   4.38663   4.39071   4.40437
 Alpha virt. eigenvalues --    4.40821   4.41300   4.42360   4.43691   4.44194
 Alpha virt. eigenvalues --    4.44537   4.45195   4.45744   4.47315   4.47917
 Alpha virt. eigenvalues --    4.48579   4.49061   4.49395   4.50606   4.51662
 Alpha virt. eigenvalues --    4.52144   4.53019   4.53040   4.53939   4.55165
 Alpha virt. eigenvalues --    4.55498   4.56399   4.57144   4.57365   4.57634
 Alpha virt. eigenvalues --    4.59333   4.60371   4.60913   4.61481   4.62048
 Alpha virt. eigenvalues --    4.62442   4.63362   4.63643   4.64875   4.65333
 Alpha virt. eigenvalues --    4.65856   4.66032   4.66647   4.67911   4.68457
 Alpha virt. eigenvalues --    4.68808   4.69361   4.70454   4.71836   4.72524
 Alpha virt. eigenvalues --    4.72788   4.74152   4.74610   4.75090   4.75598
 Alpha virt. eigenvalues --    4.76525   4.76757   4.78031   4.79069   4.79473
 Alpha virt. eigenvalues --    4.80332   4.80387   4.81220   4.82126   4.82590
 Alpha virt. eigenvalues --    4.84046   4.84607   4.85496   4.86011   4.86820
 Alpha virt. eigenvalues --    4.87865   4.88164   4.89084   4.89755   4.91696
 Alpha virt. eigenvalues --    4.92198   4.92948   4.93757   4.94789   4.95465
 Alpha virt. eigenvalues --    4.96091   4.98399   4.99204   5.00021   5.01242
 Alpha virt. eigenvalues --    5.03472   5.04869   5.07831   5.09292   5.11707
 Alpha virt. eigenvalues --    5.12200   5.14656   5.15357   5.17906   5.18429
 Alpha virt. eigenvalues --    5.19229   5.21570   5.22179   5.23222   5.24015
 Alpha virt. eigenvalues --    5.25373   5.26444   5.28162   5.29530   5.31194
 Alpha virt. eigenvalues --    5.31321   5.32541   5.33864   5.35528   5.37150
 Alpha virt. eigenvalues --    5.37773   5.39104   5.39251   5.39914   5.40376
 Alpha virt. eigenvalues --    5.41017   5.41726   5.43360   5.43495   5.43929
 Alpha virt. eigenvalues --    5.44779   5.45399   5.47221   5.47724   5.48818
 Alpha virt. eigenvalues --    5.49500   5.50188   5.51533   5.52016   5.53375
 Alpha virt. eigenvalues --    5.55310   5.56323   5.56698   5.57343   5.58188
 Alpha virt. eigenvalues --    5.59304   5.61543   5.63508   5.64540   5.66781
 Alpha virt. eigenvalues --    5.67441   5.67768   5.70201   5.71170   5.73027
 Alpha virt. eigenvalues --    5.73989   5.75156   5.78052   5.80852   5.80922
 Alpha virt. eigenvalues --    5.83299   5.87167   5.88787   5.89505   5.89840
 Alpha virt. eigenvalues --    5.90634   5.91750   5.93552   5.94671   5.96140
 Alpha virt. eigenvalues --    5.96571   5.97424   5.98771   6.00478   6.00757
 Alpha virt. eigenvalues --    6.02311   6.04300   6.05455   6.06196   6.07295
 Alpha virt. eigenvalues --    6.08103   6.09234   6.11012   6.13169   6.13748
 Alpha virt. eigenvalues --    6.14464   6.17623   6.18480   6.22090   6.23195
 Alpha virt. eigenvalues --    6.25935   6.28833   6.30872   6.33510   6.38499
 Alpha virt. eigenvalues --    6.59181   6.67235   6.98415   7.03369   7.05577
 Alpha virt. eigenvalues --    7.17073   7.19527   7.23221   7.25308   7.27670
 Alpha virt. eigenvalues --    7.33183   7.38997   7.46876   7.54481   7.71627
 Alpha virt. eigenvalues --    7.86211   8.29089  12.03784  12.19152  12.23773
 Alpha virt. eigenvalues --   12.26318  12.47782  12.58250  12.82349  12.90744
 Alpha virt. eigenvalues --   12.98882  13.10389  13.23945  13.35961  13.44787
 Alpha virt. eigenvalues --   13.51879  13.55071  13.58054  13.61665  13.62355
 Alpha virt. eigenvalues --   13.67979  13.85265  13.93972  14.15666  14.31215
          Condensed to atoms (all electrons):
              1          2          3          4          5          6
     1  O    8.047145   0.326206  -0.111134  -0.017701   0.022419   0.023876
     2  C    0.326206   7.176817  -0.491796   0.040667  -0.059757  -1.431344
     3  C   -0.111134  -0.491796   6.825460   0.210485  -0.012458   0.453188
     4  O   -0.017701   0.040667   0.210485   8.089755   0.242829  -0.129642
     5  H    0.022419  -0.059757  -0.012458   0.242829   0.417976   0.034979
     6  C    0.023876  -1.431344   0.453188  -0.129642   0.034979   9.041645
     7  O   -0.000104   0.032024  -0.144535   0.009906  -0.000445   0.250181
     8  H    0.000006  -0.005129   0.011946  -0.000364   0.000009  -0.010916
     9  C   -0.015899  -0.289601  -0.262091   0.011677  -0.001270   0.278211
    10  O   -0.005005   0.014287   0.023673  -0.000189  -0.000023  -0.006341
    11  H    0.001270  -0.006625  -0.001869   0.000001   0.000000  -0.000125
    12  C   -0.071845  -0.564049  -0.103872   0.002297   0.010317   0.371268
    13  O    0.000920  -0.059589  -0.034652  -0.002416  -0.000028  -0.047025
    14  C   -0.015744   0.867105  -0.243129   0.022218   0.001651  -2.323073
    15  O    0.000017  -0.015117   0.009418   0.000656   0.000005  -0.001134
    16  C    0.001188   0.126548  -0.129226  -0.001063   0.000697  -0.401187
    17  C    0.000175  -0.029726   0.005051   0.000084   0.000019   0.124298
    18  O    0.000009   0.007518  -0.000910  -0.000009   0.000000   0.004647
    19  H   -0.000006  -0.003632   0.002567   0.000003   0.000000   0.005210
    20  C    0.000041   0.000279  -0.000684  -0.000038   0.000001   0.045738
    21  O    0.000000  -0.000009   0.000014   0.000000   0.000000   0.000043
    22  H    0.000000   0.000000   0.000000   0.000000   0.000000  -0.000046
    23  C    0.000047   0.003423  -0.004161  -0.000026   0.000004  -0.080696
    24  O    0.000000   0.002656  -0.003638  -0.000045  -0.000002  -0.002741
    25  H    0.000000   0.000035   0.000818   0.000001   0.000000   0.002394
    26  C   -0.000034   0.010150  -0.044729   0.000359   0.000000  -0.216693
    27  O    0.000000  -0.000113   0.000122   0.000001   0.000000   0.004145
    28  C    0.000001   0.000602  -0.000801   0.000015   0.000000  -0.011965
    29  O    0.000000   0.000010   0.000012   0.000000   0.000000  -0.000377
    30  H    0.000000   0.000000   0.000000   0.000000   0.000000   0.000006
    31  H    0.276487   0.017366  -0.016040   0.001099  -0.002514  -0.000288
    32  H   -0.000170  -0.003674   0.002863   0.000002   0.000000   0.000179
    33  H    0.000903  -0.010097  -0.009689   0.000019  -0.000001   0.016664
    34  H    0.002039   0.111572  -0.062597   0.000599  -0.000003  -0.033144
    35  H   -0.016187   0.369629  -0.058421   0.001797  -0.000057  -0.031593
    36  H   -0.001606   0.053526   0.247970  -0.021311  -0.002422  -0.218437
    37  H   -0.000341   0.023652  -0.109947   0.002215  -0.000194   0.303042
    38  H    0.000096  -0.016138  -0.030057  -0.000165   0.000003   0.049904
    39  H    0.000000  -0.000020   0.000148   0.000000   0.000000   0.002832
    40  H    0.000000   0.000055  -0.000034   0.000000   0.000000  -0.005793
    41  H    0.000000  -0.000101   0.000552   0.000000   0.000000  -0.003864
    42  H    0.000000  -0.002488   0.003546   0.000004   0.000000   0.019419
    43  H    0.000000   0.000472   0.000235   0.000000   0.000000   0.007014
    44  H    0.000000   0.000112  -0.000007   0.000000   0.000000   0.000378
    45  H    0.000000   0.000004   0.000003   0.000000   0.000000  -0.000152
              7          8          9         10         11         12
     1  O   -0.000104   0.000006  -0.015899  -0.005005   0.001270  -0.071845
     2  C    0.032024  -0.005129  -0.289601   0.014287  -0.006625  -0.564049
     3  C   -0.144535   0.011946  -0.262091   0.023673  -0.001869  -0.103872
     4  O    0.009906  -0.000364   0.011677  -0.000189   0.000001   0.002297
     5  H   -0.000445   0.000009  -0.001270  -0.000023   0.000000   0.010317
     6  C    0.250181  -0.010916   0.278211  -0.006341  -0.000125   0.371268
     7  O    8.161611   0.253338   0.000274  -0.000009   0.000000   0.001538
     8  H    0.253338   0.333199   0.000175   0.000000   0.000000  -0.001634
     9  C    0.000274   0.000175   6.928857   0.132064  -0.038264  -0.899996
    10  O   -0.000009   0.000000   0.132064   8.114346   0.239488  -0.021689
    11  H    0.000000   0.000000  -0.038264   0.239488   0.447274   0.044346
    12  C    0.001538  -0.001634  -0.899996  -0.021689   0.044346   8.494389
    13  O    0.002090   0.000096  -0.032156  -0.001405  -0.000268   0.071092
    14  C   -0.013367  -0.038469  -0.429558   0.012146  -0.003786  -1.056050
    15  O   -0.001009   0.011353  -0.005142   0.000059   0.000000  -0.004561
    16  C    0.028871   0.020028  -0.117476  -0.000597  -0.000150  -0.065516
    17  C    0.001097  -0.000870   0.021175   0.000083  -0.000031  -0.122019
    18  O   -0.000136  -0.000039  -0.002418  -0.000038   0.000003  -0.009895
    19  H   -0.000028  -0.000006   0.007408   0.000000  -0.000002  -0.014235
    20  C    0.000783   0.001062  -0.002026   0.000031   0.000005  -0.005339
    21  O   -0.000003   0.000000   0.000074   0.000000   0.000000   0.000007
    22  H    0.000000   0.000000  -0.000006   0.000000   0.000000   0.000018
    23  C    0.027669   0.029430   0.001236  -0.000001  -0.000001  -0.010137
    24  O   -0.037555  -0.045913   0.000061   0.000000   0.000000   0.002032
    25  H    0.003218   0.001382  -0.000015   0.000000   0.000000  -0.000423
    26  C   -0.017180  -0.034185   0.001984  -0.000030   0.000004   0.034751
    27  O    0.000055  -0.000067  -0.000026   0.000000   0.000000   0.000065
    28  C    0.000212  -0.000258  -0.002706  -0.000001   0.000001   0.003564
    29  O   -0.000003  -0.000001  -0.000014   0.000000   0.000000   0.000078
    30  H    0.000000   0.000000   0.000000   0.000000   0.000000  -0.000001
    31  H   -0.000010   0.000000   0.004915  -0.000653  -0.000025  -0.017907
    32  H   -0.000010   0.000000   0.443473  -0.028124  -0.011958  -0.077960
    33  H    0.000010   0.000000   0.593422  -0.050882  -0.003062  -0.227525
    34  H    0.000307   0.000008   0.060094   0.000240  -0.000186   0.027507
    35  H    0.000928   0.000001  -0.019988  -0.001722  -0.000022  -0.079368
    36  H    0.008815  -0.000196   0.018422  -0.000116   0.000000   0.042066
    37  H   -0.028990  -0.001666   0.014180   0.000007   0.000000   0.060541
    38  H   -0.002084  -0.000155   0.015947   0.000016   0.000000   0.072572
    39  H   -0.000367   0.000247   0.000000   0.000000   0.000000   0.000085
    40  H    0.000718  -0.000118  -0.000009   0.000000   0.000000  -0.000325
    41  H   -0.000195   0.000003   0.000042   0.000000   0.000000   0.000779
    42  H   -0.001909  -0.000451  -0.000802   0.000001   0.000000   0.003634
    43  H    0.000000  -0.000004  -0.000269   0.000000   0.000000  -0.001224
    44  H    0.000003   0.000000  -0.000137   0.000000   0.000000   0.000255
    45  H    0.000000   0.000000  -0.000001   0.000000   0.000000   0.000032
             13         14         15         16         17         18
     1  O    0.000920  -0.015744   0.000017   0.001188   0.000175   0.000009
     2  C   -0.059589   0.867105  -0.015117   0.126548  -0.029726   0.007518
     3  C   -0.034652  -0.243129   0.009418  -0.129226   0.005051  -0.000910
     4  O   -0.002416   0.022218   0.000656  -0.001063   0.000084  -0.000009
     5  H   -0.000028   0.001651   0.000005   0.000697   0.000019   0.000000
     6  C   -0.047025  -2.323073  -0.001134  -0.401187   0.124298   0.004647
     7  O    0.002090  -0.013367  -0.001009   0.028871   0.001097  -0.000136
     8  H    0.000096  -0.038469   0.011353   0.020028  -0.000870  -0.000039
     9  C   -0.032156  -0.429558  -0.005142  -0.117476   0.021175  -0.002418
    10  O   -0.001405   0.012146   0.000059  -0.000597   0.000083  -0.000038
    11  H   -0.000268  -0.003786   0.000000  -0.000150  -0.000031   0.000003
    12  C    0.071092  -1.056050  -0.004561  -0.065516  -0.122019  -0.009895
    13  O    7.948358   0.259346  -0.028779   0.033907   0.005482  -0.023589
    14  C    0.259346  10.140055   0.253624  -1.203408  -0.215890   0.023898
    15  O   -0.028779   0.253624   7.750089   0.231913  -0.014533  -0.006637
    16  C    0.033907  -1.203408   0.231913  12.544681  -2.652080  -0.010835
    17  C    0.005482  -0.215890  -0.014533  -2.652080   8.344210   0.273791
    18  O   -0.023589   0.023898  -0.006637  -0.010835   0.273791   8.113575
    19  H    0.014378  -0.004547   0.022175  -0.086754   0.034143   0.241999
    20  C   -0.015285  -0.144778   0.020677  -1.043008   0.592415  -0.112990
    21  O   -0.000103   0.005804  -0.000115   0.100001  -0.173114   0.014963
    22  H    0.000004  -0.001609  -0.000017  -0.024048  -0.003672  -0.000459
    23  C    0.003111  -0.005382  -0.031900   0.238675  -0.196427   0.010729
    24  O   -0.000219   0.073995  -0.012920   0.048907  -0.000670   0.000106
    25  H   -0.000034  -0.016050   0.001678  -0.003346  -0.000223  -0.000001
    26  C   -0.009474  -0.370172  -0.101917  -3.140353   0.597178  -0.016023
    27  O    0.000239   0.012066   0.002364   0.114896  -0.035788  -0.000765
    28  C    0.001215  -0.069502   0.003956   0.945639  -0.607138  -0.009613
    29  O    0.000051  -0.002211  -0.000278  -0.033157  -0.034652   0.000092
    30  H    0.000000   0.000007  -0.000001   0.002546   0.015788  -0.000006
    31  H   -0.000594   0.000750  -0.000003   0.000175  -0.000038   0.000000
    32  H    0.000827  -0.005278  -0.000044   0.006806  -0.001485  -0.000273
    33  H   -0.006917   0.003051  -0.000494  -0.008051   0.004070  -0.000388
    34  H   -0.027827   0.164726  -0.001418  -0.000855   0.008434  -0.000411
    35  H    0.003584   0.090690  -0.000156  -0.004653   0.001301   0.000024
    36  H    0.004303   0.098323   0.000761  -0.007272   0.000396   0.000047
    37  H    0.009934   0.015889  -0.013599  -0.030532  -0.000333   0.000179
    38  H   -0.020297   0.242670  -0.040883  -0.057207   0.021810  -0.001425
    39  H    0.000030   0.008626   0.000922   0.033308   0.007507   0.000014
    40  H   -0.000049  -0.006109   0.000334   0.071594  -0.010111   0.000065
    41  H   -0.000206   0.046014  -0.002868   0.031802  -0.077632   0.000604
    42  H   -0.001639  -0.044956  -0.034890   0.099848   0.044941  -0.000416
    43  H   -0.000711  -0.006268  -0.008931  -0.100906   0.349000  -0.024627
    44  H    0.000087  -0.010647  -0.000274   0.088642  -0.164580   0.007352
    45  H    0.000018   0.000897   0.000370   0.042175  -0.034667   0.000635
             19         20         21         22         23         24
     1  O   -0.000006   0.000041   0.000000   0.000000   0.000047   0.000000
     2  C   -0.003632   0.000279  -0.000009   0.000000   0.003423   0.002656
     3  C    0.002567  -0.000684   0.000014   0.000000  -0.004161  -0.003638
     4  O    0.000003  -0.000038   0.000000   0.000000  -0.000026  -0.000045
     5  H    0.000000   0.000001   0.000000   0.000000   0.000004  -0.000002
     6  C    0.005210   0.045738   0.000043  -0.000046  -0.080696  -0.002741
     7  O   -0.000028   0.000783  -0.000003   0.000000   0.027669  -0.037555
     8  H   -0.000006   0.001062   0.000000   0.000000   0.029430  -0.045913
     9  C    0.007408  -0.002026   0.000074  -0.000006   0.001236   0.000061
    10  O    0.000000   0.000031   0.000000   0.000000  -0.000001   0.000000
    11  H   -0.000002   0.000005   0.000000   0.000000  -0.000001   0.000000
    12  C   -0.014235  -0.005339   0.000007   0.000018  -0.010137   0.002032
    13  O    0.014378  -0.015285  -0.000103   0.000004   0.003111  -0.000219
    14  C   -0.004547  -0.144778   0.005804  -0.001609  -0.005382   0.073995
    15  O    0.022175   0.020677  -0.000115  -0.000017  -0.031900  -0.012920
    16  C   -0.086754  -1.043008   0.100001  -0.024048   0.238675   0.048907
    17  C    0.034143   0.592415  -0.173114  -0.003672  -0.196427  -0.000670
    18  O    0.241999  -0.112990   0.014963  -0.000459   0.010729   0.000106
    19  H    0.362451   0.025924  -0.000459   0.000013  -0.003767   0.000007
    20  C    0.025924   6.518135   0.219002  -0.000885   0.002997  -0.003993
    21  O   -0.000459   0.219002   8.082987   0.226485   0.000582   0.000018
    22  H    0.000013  -0.000885   0.226485   0.439241  -0.000043   0.000000
    23  C   -0.003767   0.002997   0.000582  -0.000043   6.504715   0.053037
    24  O    0.000007  -0.003993   0.000018   0.000000   0.053037   8.281676
    25  H    0.000000   0.000716   0.000000   0.000000  -0.017255   0.244826
    26  C    0.005146   0.279935  -0.040247   0.013140  -1.110492  -0.064684
    27  O    0.000025  -0.088188   0.002376   0.000126  -0.076517   0.004904
    28  C    0.002684  -0.432770   0.034090   0.003309  -0.049387   0.004767
    29  O   -0.000008   0.009659  -0.033937   0.024882   0.010080   0.000020
    30  H    0.000000  -0.052525   0.000948  -0.003514  -0.000327  -0.000001
    31  H    0.000000   0.000000   0.000000   0.000000   0.000002   0.000000
    32  H    0.000161  -0.000548  -0.000001   0.000000   0.000022   0.000000
    33  H    0.000124   0.000222   0.000000   0.000000  -0.000008   0.000000
    34  H    0.000174   0.000461  -0.000001   0.000000   0.000235   0.000002
    35  H   -0.000001  -0.000012   0.000000   0.000000   0.000038   0.000013
    36  H   -0.000001  -0.000089   0.000000   0.000000   0.000525   0.000136
    37  H   -0.000032  -0.000050   0.000000   0.000000   0.002583   0.000007
    38  H    0.000330   0.010762   0.000006   0.000000   0.002373   0.000116
    39  H    0.000000  -0.001458  -0.000005   0.000000   0.378857  -0.010411
    40  H    0.000000   0.001891   0.000001   0.000000   0.618764  -0.055075
    41  H    0.000037  -0.008770   0.000101   0.000004   0.083342   0.003549
    42  H    0.000585   0.052623  -0.000316   0.000001   0.004520   0.000993
    43  H   -0.002692  -0.068535  -0.000680  -0.000352   0.015677  -0.000016
    44  H   -0.000127   0.292609  -0.017508  -0.003320   0.005948   0.000024
    45  H    0.000005  -0.078156  -0.000615   0.000145  -0.002466   0.000064
             25         26         27         28         29         30
     1  O    0.000000  -0.000034   0.000000   0.000001   0.000000   0.000000
     2  C    0.000035   0.010150  -0.000113   0.000602   0.000010   0.000000
     3  C    0.000818  -0.044729   0.000122  -0.000801   0.000012   0.000000
     4  O    0.000001   0.000359   0.000001   0.000015   0.000000   0.000000
     5  H    0.000000   0.000000   0.000000   0.000000   0.000000   0.000000
     6  C    0.002394  -0.216693   0.004145  -0.011965  -0.000377   0.000006
     7  O    0.003218  -0.017180   0.000055   0.000212  -0.000003   0.000000
     8  H    0.001382  -0.034185  -0.000067  -0.000258  -0.000001   0.000000
     9  C   -0.000015   0.001984  -0.000026  -0.002706  -0.000014   0.000000
    10  O    0.000000  -0.000030   0.000000  -0.000001   0.000000   0.000000
    11  H    0.000000   0.000004   0.000000   0.000001   0.000000   0.000000
    12  C   -0.000423   0.034751   0.000065   0.003564   0.000078  -0.000001
    13  O   -0.000034  -0.009474   0.000239   0.001215   0.000051   0.000000
    14  C   -0.016050  -0.370172   0.012066  -0.069502  -0.002211   0.000007
    15  O    0.001678  -0.101917   0.002364   0.003956  -0.000278  -0.000001
    16  C   -0.003346  -3.140353   0.114896   0.945639  -0.033157   0.002546
    17  C   -0.000223   0.597178  -0.035788  -0.607138  -0.034652   0.015788
    18  O   -0.000001  -0.016023  -0.000765  -0.009613   0.000092  -0.000006
    19  H    0.000000   0.005146   0.000025   0.002684  -0.000008   0.000000
    20  C    0.000716   0.279935  -0.088188  -0.432770   0.009659  -0.052525
    21  O    0.000000  -0.040247   0.002376   0.034090  -0.033937   0.000948
    22  H    0.000000   0.013140   0.000126   0.003309   0.024882  -0.003514
    23  C   -0.017255  -1.110492  -0.076517  -0.049387   0.010080  -0.000327
    24  O    0.244826  -0.064684   0.004904   0.004767   0.000020  -0.000001
    25  H    0.401530   0.024285  -0.000951  -0.000976  -0.000004   0.000000
    26  C    0.024285  11.270093   0.022182  -0.845604   0.011836  -0.002056
    27  O   -0.000951   0.022182   7.901364   0.268541  -0.031863   0.002106
    28  C   -0.000976  -0.845604   0.268541   6.064279   0.237572   0.018511
    29  O   -0.000004   0.011836  -0.031863   0.237572   8.073044   0.273813
    30  H    0.000000  -0.002056   0.002106   0.018511   0.273813   0.406297
    31  H    0.000000  -0.000002   0.000000   0.000000   0.000000   0.000000
    32  H    0.000000   0.000123   0.000000   0.000046   0.000000   0.000000
    33  H    0.000000  -0.000139   0.000000  -0.000036   0.000000   0.000000
    34  H    0.000000  -0.001183   0.000000  -0.000056   0.000000   0.000000
    35  H    0.000000  -0.000233   0.000000  -0.000003   0.000000   0.000000
    36  H    0.000000  -0.000067  -0.000001  -0.000006   0.000000   0.000000
    37  H    0.000000  -0.001589  -0.000002  -0.000056   0.000000   0.000000
    38  H    0.000010   0.014827   0.000224  -0.001172  -0.000004   0.000000
    39  H   -0.014681  -0.080215  -0.001972   0.002770  -0.000074   0.000000
    40  H    0.001796  -0.314087   0.001277   0.003814  -0.000189   0.000000
    41  H   -0.000230   0.155834  -0.028712   0.044921  -0.000477   0.000011
    42  H   -0.000017   0.100300   0.002502  -0.009495  -0.000338   0.000002
    43  H    0.000000   0.090243  -0.000938  -0.034442   0.002397   0.000015
    44  H    0.000000   0.009498  -0.001623   0.054115  -0.000061   0.000220
    45  H    0.000000  -0.000579  -0.038220   0.406611  -0.013190  -0.009309
             31         32         33         34         35         36
     1  O    0.276487  -0.000170   0.000903   0.002039  -0.016187  -0.001606
     2  C    0.017366  -0.003674  -0.010097   0.111572   0.369629   0.053526
     3  C   -0.016040   0.002863  -0.009689  -0.062597  -0.058421   0.247970
     4  O    0.001099   0.000002   0.000019   0.000599   0.001797  -0.021311
     5  H   -0.002514   0.000000  -0.000001  -0.000003  -0.000057  -0.002422
     6  C   -0.000288   0.000179   0.016664  -0.033144  -0.031593  -0.218437
     7  O   -0.000010  -0.000010   0.000010   0.000307   0.000928   0.008815
     8  H    0.000000   0.000000   0.000000   0.000008   0.000001  -0.000196
     9  C    0.004915   0.443473   0.593422   0.060094  -0.019988   0.018422
    10  O   -0.000653  -0.028124  -0.050882   0.000240  -0.001722  -0.000116
    11  H   -0.000025  -0.011958  -0.003062  -0.000186  -0.000022   0.000000
    12  C   -0.017907  -0.077960  -0.227525   0.027507  -0.079368   0.042066
    13  O   -0.000594   0.000827  -0.006917  -0.027827   0.003584   0.004303
    14  C    0.000750  -0.005278   0.003051   0.164726   0.090690   0.098323
    15  O   -0.000003  -0.000044  -0.000494  -0.001418  -0.000156   0.000761
    16  C    0.000175   0.006806  -0.008051  -0.000855  -0.004653  -0.007272
    17  C   -0.000038  -0.001485   0.004070   0.008434   0.001301   0.000396
    18  O    0.000000  -0.000273  -0.000388  -0.000411   0.000024   0.000047
    19  H    0.000000   0.000161   0.000124   0.000174  -0.000001  -0.000001
    20  C    0.000000  -0.000548   0.000222   0.000461  -0.000012  -0.000089
    21  O    0.000000  -0.000001   0.000000  -0.000001   0.000000   0.000000
    22  H    0.000000   0.000000   0.000000   0.000000   0.000000   0.000000
    23  C    0.000002   0.000022  -0.000008   0.000235   0.000038   0.000525
    24  O    0.000000   0.000000   0.000000   0.000002   0.000013   0.000136
    25  H    0.000000   0.000000   0.000000   0.000000   0.000000   0.000000
    26  C   -0.000002   0.000123  -0.000139  -0.001183  -0.000233  -0.000067
    27  O    0.000000   0.000000   0.000000   0.000000   0.000000  -0.000001
    28  C    0.000000   0.000046  -0.000036  -0.000056  -0.000003  -0.000006
    29  O    0.000000   0.000000   0.000000   0.000000   0.000000   0.000000
    30  H    0.000000   0.000000   0.000000   0.000000   0.000000   0.000000
    31  H    0.391943   0.000006  -0.000080  -0.000210  -0.012760  -0.000090
    32  H    0.000006   0.577334  -0.049262  -0.007199   0.000013   0.000007
    33  H   -0.000080  -0.049262   0.590887   0.006644   0.002833  -0.000008
    34  H   -0.000210  -0.007199   0.006644   0.623639   0.006498   0.002365
    35  H   -0.012760   0.000013   0.002833   0.006498   0.611998   0.006791
    36  H   -0.000090   0.000007  -0.000008   0.002365   0.006791   0.634937
    37  H    0.000018   0.000000  -0.000027  -0.000112   0.002269   0.007213
    38  H    0.000001  -0.000005  -0.000024   0.002373  -0.000029   0.002336
    39  H    0.000000   0.000000   0.000000   0.000000   0.000000   0.000000
    40  H    0.000000   0.000000   0.000000   0.000000   0.000000   0.000000
    41  H    0.000000   0.000000   0.000000   0.000000   0.000000   0.000000
    42  H    0.000000  -0.000002   0.000000  -0.000023   0.000000  -0.000005
    43  H    0.000000   0.000000   0.000000   0.000000   0.000000   0.000000
    44  H    0.000000   0.000000   0.000000   0.000000   0.000000   0.000000
    45  H    0.000000   0.000000   0.000000   0.000000   0.000000   0.000000
             37         38         39         40         41         42
     1  O   -0.000341   0.000096   0.000000   0.000000   0.000000   0.000000
[...]
 3077,0.00000458,-0.00001296,-0.00000053,0.00000659,-0.00007453,0.00011
 329,0.00012509,0.00047390,-0.00003232,0.00014791,-0.00077108,0.0003705
 3,-0.00687544,-0.02047949,-0.00361954,0.01025812,-0.33948004,-0.010973
 60,-0.04934165,-0.01196024,0.00032634,-0.00561826,0.00175350,-0.000274
 61,0.00111995,-0.00037261,-0.00016135,-0.00004266,-0.00027251,-0.00002
 578,0.00077619,0.00036060,-0.00000561,-0.00002398,0.00001775,0.0000549
 6,-0.00005421,0.00044461,0.00070700,0.00042272,0.00011074,-0.00009373,
 -0.00001021,0.00002707,-0.00003089,0.00000190,-0.00720771,-0.00036301,
 -0.00164188,0.00144367,0.00050163,-0.00089861,-0.00015369,-0.00008140,
 0.00003885,0.00008137,0.00000456,-0.00013779,-0.00000012,-0.00001363,0
 .00000565,-0.00000231,-0.00000229,0.00000025,-0.00000478,0.00001564,-0
 .00000509,0.00001673,-0.00000019,-0.00001166,0.00005029,0.00001830,0.0
 0003879,0.00000977,0.00000109,-0.00001588,0.00002756,0.00000135,0.0000
 2441,0.00004810,0.00027939,-0.00038765,0.00239138,0.00026715,-0.000155
 53,0.00033080,0.00012856,-0.00000628,0.00063869,-0.00092447,-0.0000362
 6,0.00057835,-0.00030891,-0.00034539,0.37031112,0.00000568,-0.00002920
 ,0.00001875,-0.00001214,0.00004816,-0.00001973,0.00003063,0.00002593,0
 .00000495,0.00000272,-0.00003128,-0.00001993,-0.00000463,0.00001166,-0
 .00000246,-0.00011915,0.00011788,0.00004858,0.00019085,-0.00006552,-0.
 00025785,-0.00026137,-0.00008331,0.00012412,0.00002314,-0.00001691,-0.
 00001383,-0.00001044,0.00002135,0.00002808,0.00000717,-0.00000376,-0.0
 0000316,-0.00002110,0.00003437,-0.00002673,0.00028847,-0.00001549,0.00
 024422,-0.00139733,0.00149087,-0.00083707,-0.00880738,0.00036264,0.003
 78578,-0.00807309,-0.04394424,-0.00338234,0.03348784,-0.00013092,0.008
 93702,-0.00255994,0.00282653,-0.00016848,0.00014372,-0.00001757,-0.000
 20346,0.00087815,0.00141278,-0.00134651,-0.00047693,-0.00030679,0.0000
 0641,-0.00009616,-0.00001334,0.00000681,-0.00176074,0.00162006,0.00062
 428,0.00020646,-0.00020897,-0.00008650,-0.00000721,-0.00003846,0.00002
 776,-0.02746314,-0.00296685,-0.00709395,0.00150185,0.00117709,0.001225
 03,0.00040144,-0.00068576,0.00004703,-0.00006007,0.00013546,0.00009874
 ,-0.00001255,0.00001145,-0.00000631,0.00000028,0.00000159,-0.00000359,
 0.00000382,-0.00001848,0.00000276,-0.00000826,-0.00000550,0.00000334,-
 0.00000942,0.00001939,-0.00000666,0.00000126,-0.00000804,0.00000212,0.
 00000909,0.00000675,0.00001222,0.00007086,-0.00000334,-0.00004279,0.00
 014292,0.00043965,0.00042097,0.00031222,0.00041223,0.00007055,0.000847
 24,-0.00014898,0.00003636,-0.00110169,-0.00292327,-0.00358398,0.012361
 64,0.04684498,-0.00000488,-0.00001426,-0.00002289,-0.00000779,0.000005
 41,0.00001820,0.00002450,0.00006427,0.00002657,-0.00002538,-0.00001108
 ,-0.00001827,-0.00000128,0.00000498,-0.00000296,0.00024271,0.00007368,
 -0.00049446,-0.00023790,-0.00003006,0.00008848,0.00016735,-0.00007290,
 -0.00006646,-0.00004150,0.00002338,-0.00002221,0.00000306,-0.00002054,
 0.00000056,0.00000068,-0.00000049,-0.00000300,-0.00001551,-0.00005756,
 -0.00015508,-0.00083277,-0.00045176,-0.00012134,0.00999039,0.00157775,
 -0.00075817,0.03350745,0.00515504,-0.01463102,-0.05973250,-0.00416040,
 -0.04871633,-0.01324670,-0.00052760,-0.00209869,0.00130479,-0.00009344
 ,0.00103895,0.00002888,0.00032069,-0.00002810,-0.00102443,-0.00043413,
 0.00062285,0.00041012,0.00004654,-0.00000445,-0.00001414,-0.00003000,-
 0.00000944,-0.00041708,0.00128852,0.00081618,0.00013184,-0.00005819,0.
 00002159,-0.00002302,0.00000076,0.00003426,-0.02363261,-0.00242793,-0.
 00403668,0.00121935,0.00075341,0.00178136,-0.00048119,0.00023318,-0.00
 012971,0.00010517,0.00002071,-0.00019381,0.00001440,-0.00001232,0.0000
 1182,-0.00000063,0.00000354,0.00000124,-0.00000303,-0.00001157,-0.0000
 0039,-0.00000211,0.00001372,0.00000380,-0.00004616,-0.00002925,-0.0000
 7554,-0.00000584,0.00000516,0.00001485,-0.00005617,-0.00000808,-0.0000
 5048,-0.00028184,-0.00004101,-0.00001305,-0.00099542,0.00054446,-0.002
 42941,0.00014517,0.00026780,-0.00002210,0.00074888,-0.00040732,0.00009
 664,-0.00074867,-0.00264190,-0.00300537,0.05392705,-0.00136644,0.07324
 059,-0.00000478,0.00002539,-0.00006973,-0.00001862,-0.00002989,0.00005
 105,-0.00000119,-0.00004757,0.00004200,0.00000837,0.00006230,-0.000043
 22,-0.00000085,-0.00001454,0.00000844,0.00010318,-0.00008117,0.0000068
 3,0.00005406,0.00016388,0.00009326,-0.00009468,-0.00011403,-0.00017313
 ,-0.00001535,0.00000077,0.00011492,0.00000394,-0.00004288,-0.00010589,
 -0.00001274,0.00001972,0.00002292,0.00002714,0.00005758,0.00013526,-0.
 00009074,0.00026521,-0.00026302,0.00014477,-0.00043931,-0.00017471,0.0
 0182738,0.00003813,0.00010115,-0.01798954,0.00197905,-0.00279628,-0.33
 323071,-0.03082289,-0.04444364,0.00466763,-0.00695975,-0.00907189,0.00
 019716,-0.00096371,0.00052246,-0.02128416,-0.00123527,0.00100775,0.002
 35447,0.00039001,-0.00082111,0.00019786,0.00004358,-0.00008729,0.00070
 063,0.00038913,0.00006417,0.00002044,-0.00005476,0.00014729,-0.0000113
 8,0.00001738,0.00001126,-0.00089817,-0.00170819,-0.00092543,0.00052211
 ,0.00064208,0.00052342,-0.00218294,-0.00125524,-0.00144474,0.00126595,
 0.00016047,-0.00016469,-0.00001350,-0.00001240,0.00023789,-0.00000745,
 -0.00000325,0.00001363,0.00002829,0.00004766,-0.00000659,-0.00000375,-
 0.00000327,0.00000461,0.00000158,-0.00000718,0.00000241,0.00000511,0.0
 0000074,-0.00000813,0.00001139,0.00000038,0.00000030,-0.00000208,0.000
 02502,-0.00004043,0.00014857,0.00000597,0.00026531,-0.00001808,0.00014
 150,0.00000337,0.00019373,-0.00037889,0.00000043,0.00121261,0.00068912
 ,0.00066568,0.00020724,0.00214903,-0.00071398,0.36069530,-0.00000767,0
 .00003662,-0.00005991,-0.00002763,-0.00004463,0.00003987,0.00002121,-0
 .00000043,-0.00002046,-0.00000913,0.00004620,-0.00001970,0.00000578,-0
 .00001375,0.00000287,-0.00021496,-0.00007293,-0.00009453,-0.00005670,0
 .00008280,0.00010508,0.00005458,0.00001720,-0.00009392,-0.00003871,-0.
 00003979,0.00016249,0.00000806,-0.00003620,-0.00013142,-0.00001872,0.0
 0002334,0.00002752,0.00007102,0.00007938,0.00009817,-0.00011630,0.0006
 0954,-0.00029774,0.00051838,-0.00014616,-0.00019623,-0.00143446,0.0016
 3261,-0.00174349,0.03415668,-0.00369082,0.00695588,-0.03278490,-0.0395
 2158,0.00219741,-0.02647820,-0.01662934,-0.02475649,-0.00070407,-0.000
 41624,0.00112136,-0.01360057,-0.00007900,0.00033619,0.00005219,0.00073
 436,-0.00110323,0.00007914,0.00007622,-0.00019008,0.00019285,0.0001199
 2,0.00015854,-0.00002572,0.00000310,0.00003879,0.00000068,0.00000940,-
 0.00000976,0.00220335,0.00131500,0.00089703,-0.00034522,-0.00016349,-0
 .00020365,0.00096580,0.00015560,-0.00131817,0.00037944,-0.00017756,-0.
 00006506,0.00004083,0.00007262,0.00008995,-0.00000530,-0.00000380,0.00
 000969,0.00004098,0.00007837,0.00000161,0.00000184,0.00000881,-0.00000
 230,-0.00001187,-0.00002476,-0.00000248,-0.00000038,-0.00000007,-0.000
 00270,-0.00000350,0.00000003,-0.00000199,-0.00001886,-0.00003051,0.000
 04538,-0.00032163,-0.00002091,0.00001461,-0.00011452,-0.00000907,-0.00
 000052,-0.00023284,-0.00002797,-0.00003772,-0.00034088,-0.00045560,-0.
 00025652,0.00173425,-0.00515604,0.00236696,0.03670905,0.06138187,-0.00
 000154,0.00002621,-0.00005858,-0.00002929,-0.00002896,0.00004051,-0.00
 000022,-0.00006377,0.00002399,0.00000861,0.00005214,-0.00001727,0.0000
 0043,-0.00001489,0.00000844,0.00004696,-0.00000174,0.00007842,0.000044
 77,0.00009651,0.00002476,-0.00006334,-0.00003499,-0.00004478,-0.000057
 26,-0.00004419,0.00014870,0.00002024,-0.00002951,-0.00011877,-0.000020
 27,0.00001915,0.00002625,0.00003545,0.00006778,0.00011814,0.00005961,0
 .00042002,-0.00037809,-0.00031341,-0.00060321,-0.00045946,0.00057783,-
 0.00103190,0.00160709,-0.01638198,0.00294490,-0.00128040,-0.04767350,0
 .00231699,-0.04458911,-0.02561158,-0.02273787,-0.01991416,-0.00141700,
 -0.00075278,0.00059576,0.03345649,0.00494637,-0.00183846,-0.00109978,-
 0.00138690,0.00216320,-0.00000716,-0.00037533,0.00025271,0.00019498,0.
 00015149,-0.00004106,0.00001278,-0.00002726,0.00004457,-0.00000150,-0.
 00000296,0.00000901,0.00054313,-0.00162473,-0.00000482,-0.00034312,0.0
 0001760,-0.00012587,0.00260572,0.00005566,-0.00057028,-0.00023471,-0.0
 0007910,0.00013179,-0.00011441,-0.00009562,0.00003690,-0.00000722,-0.0
 0000356,0.00000877,0.00003801,0.00007513,-0.00000175,0.00001314,0.0000
 0090,-0.00001058,0.00000994,-0.00001461,0.00001223,0.00000615,0.000000
 46,-0.00001099,0.00001060,0.00000206,0.00000291,0.00001176,0.00003343,
 -0.00003412,0.00021427,0.00002660,0.00002315,0.00003198,0.00007403,0.0
 0000174,0.00009552,-0.00013297,-0.00001954,0.00046853,-0.00009060,0.00
 048053,-0.00085144,0.00224553,-0.00060496,0.05384323,0.01409210,0.0701
 4870,0.00000264,-0.00000405,-0.00000746,0.00000384,0.00000427,0.000008
 54,-0.00001083,-0.00001305,0.00001141,0.00000842,0.00000479,-0.0000094
 4,-0.00000305,-0.00000025,0.00000287,0.00001538,0.00000986,0.00002399,
 0.00002164,-0.00000801,-0.00002491,-0.00001106,0.00000361,0.00002249,-
 0.00001385,0.00000112,0.00000866,0.00001450,-0.00000456,-0.00000542,-0
 .00000958,0.00000118,0.00000140,-0.00002797,-0.00000587,0.00000919,0.0
 0004091,-0.00003353,-0.00000432,-0.00011581,-0.00002703,0.00006590,0.0
 0035955,-0.00003577,0.00009776,-0.00046536,0.00060184,-0.00016034,-0.0
 1157267,-0.00435473,-0.00062384,0.00121739,0.00086104,0.00039154,0.000
 01150,0.00009428,-0.00008636,-0.35270656,-0.04467102,-0.00950522,-0.01
 272202,0.00988843,-0.00590044,-0.00027884,0.00052123,0.00048817,-0.000
 03756,-0.00004542,0.00000082,0.00003648,0.00004082,-0.00004774,-0.0000
 0998,-0.00000600,-0.00000260,-0.00006067,-0.00006693,0.00002717,0.0015
 9000,-0.00062932,0.00029208,-0.00792894,-0.00015727,0.00181447,0.00174
 009,0.00045566,0.00147597,0.00047528,0.00047517,0.00046775,-0.00000186
 ,0.00000113,0.00000225,-0.00000835,0.00000373,-0.00000142,0.00001065,0
 .00000213,-0.00000729,0.00001333,-0.00000421,0.00000578,0.00000372,0.0
 0000156,-0.00000467,0.00000659,0.00000015,0.00000021,0.00000605,0.0000
 0580,-0.00000867,0.00002877,-0.00001604,0.00002577,0.00001064,-0.00000
 842,0.00001046,0.00003969,-0.00003766,0.00001023,0.00006942,0.00015893
 ,-0.00001316,0.00049045,-0.00063167,0.00039043,-0.00004221,-0.00065346
 ,0.00165556,0.37958758,0.00000373,-0.00000438,0.00001594,0.00000267,0.
 00000469,-0.00001043,-0.00000746,0.00000744,-0.00000648,0.00000412,-0.
 00001141,0.00000887,-0.00000169,0.00000317,-0.00000180,0.00000564,0.00
 001080,0.00000064,0.00001527,-0.00001432,-0.00000240,-0.00001318,-0.00
 000114,-0.00000455,0.00000370,0.00000208,-0.00002693,-0.00000249,0.000
 00959,0.00002442,0.00000526,-0.00000450,-0.00000574,-0.00001135,-0.000
 01111,-0.00001928,0.00003540,-0.00004886,0.00005172,-0.00004642,0.0000
 6810,-0.00000845,0.00019576,0.00000450,-0.00002666,-0.00074446,0.00037
 688,-0.00040544,-0.00736570,-0.00002978,-0.00094744,0.00063649,0.00059
 012,0.00082885,-0.00010151,0.00003619,-0.00013096,-0.04393048,-0.04584
 849,-0.00440100,0.03683735,-0.00865187,0.00762830,0.00063585,0.0005441
 5,-0.00092852,-0.00008932,0.00001487,-0.00002293,0.00002898,-0.0000202
 9,-0.00001093,-0.00000364,0.00000326,0.00000471,-0.00020215,-0.0002139
 3,0.00007675,0.00124548,0.00173874,0.00058783,-0.02598885,-0.00370159,
 -0.00050597,0.00083535,0.00140464,0.00262348,0.00008726,0.00001533,0.0
 0037804,0.00000100,0.00000051,-0.00000317,-0.00000270,-0.00000989,0.00
 000186,0.00000038,-0.00000262,0.00000066,0.00000287,0.00000394,0.00000
 180,0.00000092,-0.00000046,-0.00000024,0.00000075,0.00000015,0.0000010
 8,0.00000230,0.00000160,-0.00000538,0.00001641,-0.00000029,0.00002115,
 0.00000784,-0.00001829,0.00000250,0.00003858,-0.00004862,0.00002277,0.
 00016326,0.00009264,-0.00001548,0.00024337,-0.00007353,0.00016082,-0.0
 0048912,-0.00002460,0.00180643,0.03861336,0.05661845,-0.00000311,-0.00
 000922,-0.00000865,-0.00000511,0.00000744,0.00000367,0.00001707,0.0000
 2158,0.00000978,-0.00000571,-0.00000652,-0.00001472,0.00000091,0.00000
 414,-0.00000131,-0.00002611,-0.00002864,-0.00002761,-0.00001408,0.0000
 0279,-0.00000764,0.00001033,-0.00001364,0.00000264,0.00000907,0.000017
 44,-0.00001824,-0.00001011,-0.00001185,0.00000561,0.00000667,0.0000014
 2,-0.00000586,0.00003725,0.00000537,0.00001584,-0.00000963,-0.00008245
 ,-0.00000900,0.00010183,0.00016933,0.00011341,-0.00057291,-0.00007354,
 -0.00043531,0.00107456,-0.00161714,0.00145963,0.03244654,0.00682211,0.
 00126542,-0.00216299,-0.00066538,0.00186293,-0.00017848,0.00008331,0.0
 0012500,-0.00545882,-0.00258881,-0.04309410,-0.01416117,0.00615147,0.0
 0000484,-0.00106021,-0.00020792,0.00021215,0.00000585,0.00000828,0.000
 09316,-0.00000870,-0.00002143,0.00000840,-0.00000358,-0.00000513,0.000
 00623,0.00041512,0.00022633,-0.00045239,0.00131371,0.00065926,0.000679
 58,-0.02155439,-0.00548276,-0.00267666,-0.00064985,0.00013412,0.001473
 58,-0.00010355,-0.00000400,0.00040701,-0.00000017,0.00000260,-0.000000
 18,0.00000083,-0.00000953,0.00000358,-0.00000616,-0.00000081,0.0000040
 0,-0.00001245,0.00000437,-0.00000882,-0.00000228,-0.00000147,0.0000037
 3,-0.00000448,-0.00000043,-0.00000098,-0.00000228,-0.00000528,0.000007
 51,-0.00003188,0.00000870,-0.00005111,-0.00001137,0.00003212,0.0000054
 7,-0.00001479,0.00002818,0.00000129,-0.00016993,0.00001017,-0.00013648
 ,-0.00068904,0.00042937,-0.00022547,0.00293304,0.00215829,-0.00499928,
 0.00930095,-0.00397232,0.04686832,0.00000257,-0.00000792,-0.00000481,-
 0.00000184,0.00000900,0.00000223,-0.00000160,-0.00000332,0.00000733,0.
 00000567,-0.00000294,-0.00000990,-0.00000250,0.00000218,0.00000182,-0.
 00002528,0.00002955,0.00001440,0.00001235,-0.00004203,-0.00007321,0.00
 001062,0.00003461,0.00009554,-0.00000800,0.00000532,-0.00000695,0.0000
 0765,-0.00000280,0.00000500,-0.00000410,-0.00000049,-0.00000158,-0.000
 00848,-0.00000693,-0.00000213,0.00002030,-0.00005919,-0.00000634,0.000
 00119,0.00005958,0.00004747,0.00002994,-0.00007610,-0.00019424,0.00014
 224,0.00048918,0.00002311,-0.00105143,-0.00020785,0.00069559,0.0005305
 3,0.00028165,0.00041229,-0.00002635,0.00003935,-0.00014714,-0.00826509
 ,0.00164552,-0.00099560,0.00229644,0.00024594,0.00122498,-0.00056375,-
 0.00023964,0.00011076,0.00052956,-0.00009952,-0.00012026,-0.00000756,0
 .00023709,-0.00016987,-0.00001512,-0.00001100,-0.00003268,-0.00016763,
 -0.00053580,0.00114958,-0.00847661,0.00955824,-0.00494241,-0.34817741,
 -0.02502566,-0.05686084,-0.01271140,-0.00453322,0.00432404,0.00055670,
 0.00020655,0.00074601,-0.00000184,0.00000141,0.00000088,-0.00000498,-0
 .00000377,-0.00000022,0.00000543,0.00000044,-0.00000282,0.00000501,-0.
 00000048,0.00000012,0.00000269,0.00000002,-0.00000208,0.00000339,0.000
 00063,0.00000042,0.00000667,-0.00000306,-0.00000261,0.00000452,-0.0000
 0059,0.00000121,-0.00000964,-0.00003929,0.00000030,0.00011383,-0.00024
 101,0.00011588,0.00055513,0.00046492,-0.00106062,0.00004789,-0.0001720
 6,0.00023030,0.00132401,0.00033012,0.00022299,0.00022264,-0.00066882,-
 0.00074037,0.37309362,0.00000360,0.00001602,0.00001786,0.00000197,-0.0
 0001703,-0.00000769,-0.00001010,0.00000648,-0.00001615,-0.00000062,0.0
 0000429,0.00001948,0.00000034,-0.00000301,-0.00000286,0.00002817,-0.00
 005242,-0.00002571,0.00000131,0.00007351,0.00013431,-0.00003345,-0.000
 06447,-0.00018686,-0.00000097,-0.00001847,0.00001122,0.00000389,0.0000
 1437,-0.00000145,-0.00000386,-0.00000171,0.00000334,-0.00001697,0.0000
 0403,-0.00000957,-0.00000648,0.00011895,0.00004207,-0.00008608,-0.0000
 7818,-0.00012327,0.00004011,0.00031053,0.00029473,-0.00034592,-0.00077
 588,0.00012515,-0.00156276,-0.00027919,0.00145529,0.00059913,0.0001079
 6,-0.00039730,0.00012936,-0.00012073,0.00003964,-0.02248347,-0.0007189
 1,-0.00601249,0.00073943,0.00304028,0.00036675,-0.00058638,-0.00023879
 ,0.00028455,0.00013512,0.00021373,-0.00009421,-0.00019871,-0.00032490,
 0.00028311,0.00001166,0.00003142,0.00005062,0.00386018,0.00178845,-0.0
 0443003,0.03423103,-0.01104492,0.01343955,-0.02359576,-0.04389374,-0.0
 0517966,-0.00712849,0.00134597,0.00289104,-0.00076071,0.00081853,-0.00
 048210,0.00000122,-0.00000302,-0.00000241,0.00000277,0.00000808,-0.000
 00135,0.00000084,0.00000123,0.00000047,0.00000341,-0.00000331,0.000003
 71,-0.00000022,0.00000104,-0.00000001,0.00000045,-0.00000107,0.0000004
 0,-0.00000540,0.00000625,-0.00000006,0.00000268,-0.00000494,0.00000367
 ,0.00003694,0.00001222,-0.00000876,-0.00027757,0.00003843,0.00002711,-
 0.00138081,0.00009339,0.00009930,0.00000456,-0.00012527,-0.00002258,0.
 00064016,0.00030224,-0.00029403,-0.00033581,-0.00281186,-0.00217991,0.
 01834221,0.05222441,-0.00000225,-0.00000326,-0.00002058,-0.00000274,0.
 00000398,0.00001423,0.00000395,-0.00000545,0.00001738,0.,0.00000795,-0
 .00002007,-0.00000004,-0.00000037,0.00000253,-0.00001860,-0.00000218,-
 0.00000162,0.00000694,-0.00000412,-0.00004005,0.00000145,0.00000831,0.
 00004831,-0.00000576,0.00000912,0.00001298,0.00000265,-0.00001340,-0.0
 0001507,-0.00000275,0.00000338,0.00000233,0.00000789,0.00000734,0.0000
 2295,-0.00000361,-0.00002269,-0.00005757,0.00005259,0.00002291,0.00007
 601,0.00005759,0.00002226,-0.00027916,0.00007876,-0.00013248,-0.000179
 03,-0.00229376,-0.00034138,0.00101664,0.00066977,0.00008728,-0.0000470
 8,0.00003503,-0.00000139,0.00001862,-0.02180652,-0.00092948,-0.0016734
 1,0.00191229,0.00151222,0.00136404,0.00031416,-0.00037312,0.00000612,-
 0.00005155,-0.00001612,0.00006682,0.00008371,0.00012296,-0.00013112,-0
 .00001022,-0.00001200,-0.00000986,-0.00228385,-0.00034278,0.00264570,-
 0.00971396,0.00607563,-0.00124889,-0.06265880,-0.00881027,-0.05719346,
 0.03676206,0.00672818,-0.00614423,0.00160740,-0.00047358,0.00352953,-0
 .00000211,0.00000102,0.00000349,0.00000008,0.00000323,-0.00000070,0.00
 000165,-0.00000025,-0.00000137,0.00000131,-0.00000165,-0.00000029,0.00
 000141,0.,-0.00000238,0.00000182,0.00000018,-0.00000020,0.00000291,-0.
 00000038,-0.00000261,0.00000470,-0.00000545,0.00000829,-0.00000098,-0.
 00002445,-0.00000468,0.00014971,-0.00002785,-0.00003789,0.00066134,0.0
 0011990,0.00000003,0.00015859,0.00002101,0.00012190,0.00053184,-0.0003
 1171,-0.00086594,-0.00019848,-0.00278613,-0.00246896,0.05594442,-0.000
 11490,0.06146831\\0.00831650,-0.01029705,-0.01364295,-0.01142745,-0.00
 729115,-0.00507167,0.01555257,-0.01125599,0.01582100,-0.00107341,0.018
 09362,0.01407159,-0.00851236,-0.01488799,-0.02349963,0.01225335,-0.025
 87063,-0.02549468,0.00501716,0.00309496,0.01347063,-0.00195700,0.00051
 713,0.02309928,-0.00882463,0.00959587,-0.01089507,-0.00236764,0.016807
 34,-0.01511548,0.01377238,-0.02060553,0.02785555,0.00005294,0.02185062
 ,0.02386311,0.01807333,0.00232938,0.02397604,-0.06326708,0.02337887,0.
 01291109,0.02881482,-0.01539882,-0.00928784,0.00194396,0.00706108,-0.0
 1711753,-0.02011504,0.02839661,0.03834742,0.00681701,-0.00435240,0.004
 87938,0.00938201,0.00907232,-0.02447468,-0.03329966,-0.00241038,0.0284
 7731,0.00949537,-0.00796657,-0.02014671,-0.00219836,0.00045615,0.03157
 127,0.00336103,-0.00337009,0.00168569,-0.01502023,-0.02864880,-0.03057
 866,0.00201437,0.02948762,0.02077301,0.00503588,-0.02655597,0.00902742
 ,-0.01580958,0.02343107,0.01110964,0.06748128,0.00598097,-0.02662349,-
 0.01406961,-0.01031611,-0.01093226,-0.00043437,-0.00640394,-0.00540549
 ,-0.00092856,0.00369590,-0.00181016,0.00517440,0.00719853,-0.01889678,
 -0.02172650,-0.00457067,-0.00481026,0.02072155,-0.00111275,-0.00364831
 ,-0.02048690,0.00064796,0.00183978,0.02404745,0.00094994,-0.00455089,-
 0.02059724,0.00051532,0.00085449,0.01575208,0.00090973,-0.00405892,-0.
 00286823,-0.00700982,-0.01547021,0.01965119,0.00242111,-0.00143800,-0.
 02164214,-0.00104265,-0.00033269,0.01842493,-0.00039022,0.00143586,-0.
 02423621,-0.00308936,-0.00613171,0.01708116,0.00044262,-0.00401101,-0.
 01737452,-0.00348781,-0.00162449\\\@


 YOU ARE IN A MAZE OF TWISTY LITTLE PASSAGES.
 Job cpu time:  3 days 22 hours 44 minutes 56.7 seconds.
 File lengths (MBytes):  RWF=   2340 Int=      0 D2E=      0 Chk=     43 Scr=      1
 Normal termination of Gaussian 09 at Fri Feb 12 12:41:02 2016.
Gaussian '09 finished on node009 at Fri Feb 12 12:41:02 EST 2016.
