Gaussian '09 started on node017 at Fri Feb 12 11:14:51 EST 2016.
 Entering Gaussian System, Link 0=/usr/local/gaussian/g09/g09
 Initial command:
 /usr/local/gaussian/g09/l1.exe /home/srmcgrat/thesis/gaussian/cellobiose/450/7000/1/2dfp/gaussian20630/Gau-20666.inp -scrdir=/home/srmcgrat/thesis/gaussian/cellobiose/450/7000/1/2dfp/gaussian20630/
 Entering Link 1 = /usr/local/gaussian/g09/l1.exe PID=     20668.
  
 Copyright (c) 1988,1990,1992,1993,1995,1998,2003,2009,2010,
            Gaussian, Inc.  All Rights Reserved.
  
 This is part of the Gaussian(R) 09 program.  It is based on
 the Gaussian(R) 03 system (copyright 2003, Gaussian, Inc.),
 the Gaussian(R) 98 system (copyright 1998, Gaussian, Inc.),
 the Gaussian(R) 94 system (copyright 1995, Gaussian, Inc.),
 the Gaussian 92(TM) system (copyright 1992, Gaussian, Inc.),
 the Gaussian 90(TM) system (copyright 1990, Gaussian, Inc.),
 the Gaussian 88(TM) system (copyright 1988, Gaussian, Inc.),
 the Gaussian 86(TM) system (copyright 1986, Carnegie Mellon
 University), and the Gaussian 82(TM) system (copyright 1983,
 Carnegie Mellon University). Gaussian is a federally registered
 trademark of Gaussian, Inc.
  
 This software contains proprietary and confidential information,
 including trade secrets, belonging to Gaussian, Inc.
  
 This software is provided under written license and may be
 used, copied, transmitted, or stored only in accord with that
 written license.
  
 The following legend is applicable only to US Government
 contracts under FAR:
  
                    RESTRICTED RIGHTS LEGEND
  
 Use, reproduction and disclosure by the US Government is
 subject to restrictions as set forth in subparagraphs (a)
 and (c) of the Commercial Computer Software - Restricted
 Rights clause in FAR 52.227-19.
  
 Gaussian, Inc.
 340 Quinnipiac St., Bldg. 40, Wallingford CT 06492
  
  
 ---------------------------------------------------------------
 Warning -- This program may not be used in any manner that
 competes with the business of Gaussian, Inc. or will provide
 assistance to any competitor of Gaussian, Inc.  The licensee
 of this program is prohibited from giving any competitor of
 Gaussian, Inc. access to this program.  By using this program,
 the user acknowledges that Gaussian, Inc. is engaged in the
 business of creating and licensing software in the field of
 computational chemistry and represents and warrants to the
 licensee that it is not a competitor of Gaussian, Inc. and that
 it will not use this program in any manner prohibited above.
 ---------------------------------------------------------------
  

 Cite this work as:
 Gaussian 09, Revision B.01,
 M. J. Frisch, G. W. Trucks, H. B. Schlegel, G. E. Scuseria, 
 M. A. Robb, J. R. Cheeseman, G. Scalmani, V. Barone, B. Mennucci, 
 G. A. Petersson, H. Nakatsuji, M. Caricato, X. Li, H. P. Hratchian, 
 A. F. Izmaylov, J. Bloino, G. Zheng, J. L. Sonnenberg, M. Hada, 
 M. Ehara, K. Toyota, R. Fukuda, J. Hasegawa, M. Ishida, T. Nakajima, 
 Y. Honda, O. Kitao, H. Nakai, T. Vreven, J. A. Montgomery, Jr., 
 J. E. Peralta, F. Ogliaro, M. Bearpark, J. J. Heyd, E. Brothers, 
 K. N. Kudin, V. N. Staroverov, T. Keith, R. Kobayashi, J. Normand, 
 K. Raghavachari, A. Rendell, J. C. Burant, S. S. Iyengar, J. Tomasi, 
 M. Cossi, N. Rega, J. M. Millam, M. Klene, J. E. Knox, J. B. Cross, 
 V. Bakken, C. Adamo, J. Jaramillo, R. Gomperts, R. E. Stratmann, 
 O. Yazyev, A. J. Austin, R. Cammi, C. Pomelli, J. W. Ochterski, 
 R. L. Martin, K. Morokuma, V. G. Zakrzewski, G. A. Voth, 
 P. Salvador, J. J. Dannenberg, S. Dapprich, A. D. Daniels, 
 O. Farkas, J. B. Foresman, J. V. Ortiz, J. Cioslowski, 
 and D. J. Fox, Gaussian, Inc., Wallingford CT, 2010.
 
 ******************************************
 Gaussian 09:  EM64L-G09RevB.01 12-Aug-2010
                12-Feb-2016 
 ******************************************
 --------------------------------------------------
 # freq=raman b3lyp/6-31+g(2df,p) geom=connectivity
 --------------------------------------------------
 1/10=4,30=1,38=1,57=2/1,3;
 2/12=2,17=6,18=5,40=1/2;
 3/5=1,6=6,7=114,11=2,16=1,25=1,30=1,71=2,74=-5/1,2,3;
 4//1;
 5/5=2,38=5,98=1/2;
 8/6=4,10=90,11=11/1;
 10/13=10,15=4/2;
 11/6=3,8=1,9=11,15=111,16=1/1,2,10;
 10/6=1/2;
 6/7=2,8=2,9=2,10=2,18=1,28=1/1;
 7/8=1,10=1,25=1/1,2,3,16;
 1/10=4,30=1/3;
 99//99;
 ------------
 450 7000.com
 ------------
 Symbolic Z-matrix:
 Charge =  0 Multiplicity = 1
 O                     10.868    7.411     11.293 
 C                     11.684    7.682     12.442 
 C                     11.889    9.14      12.819 
 O                     12.858    9.786     11.981 
 H                     12.523    9.789     11.038 
 C                     12.506    9.352     14.192 
 O                     12.476    10.669    14.76 
 H                     12.863    11.221    14.021 
 C                     10.838    5.511     13.231 
 O                     10.301    4.646     14.242 
 H                     10.097    3.858     13.661 
 C                     11.009    6.974     13.606 
 O                     11.851    7.105     14.761 
 C                     11.783    8.47      15.197 
 O                     12.511    8.338     16.427 
 C                     11.801    8.323     17.674 
 C                     11.325    6.937     18.076 
 O                     10.452    6.34      17.105 
 H                     10.894    6.077     16.247 
 C                     10.427    7.053     19.297 
 O                     9.778     5.88      19.81 
 H                     8.925     5.76      19.303 
 C                     12.983    10.273    18.434 
 O                     13.369    10.99     19.616 
 H                     14.112    10.489    20.058 
 C                     12.621    8.854     18.839 
 O                     11.842    8.935     20.041 
 C                     11.275    7.667     20.399 
 O                     10.645    7.857     21.674 
 H                     11.31767   7.95795   22.35144 
 H                     12.09384   6.99707   20.55897 
 H                     9.65774   7.75649   19.05569 
 H                     12.15659   6.29547   18.28044 
 H                     10.9393   8.94818   17.56662 
 H                     13.50049   8.26353   18.98977 
 H                     13.79768   10.25418   17.74057 
 H                     12.13614   10.74751   17.98392 
 H                     11.43059   7.23243   10.5359 
 H                     11.79606   5.12957   12.94548 
 H                     10.19303   5.46223   12.37863 
 H                     10.05373   7.41614   13.79803 
 H                     12.6444   7.23698   12.28548 
 H                     10.95684   9.6619    12.75909 
 H                     13.52726   9.03613   14.14572 
 H                     10.77384   8.78549   15.36123 
 

 GradGradGradGradGradGradGradGradGradGradGradGradGradGradGradGradGradGrad
 Berny optimization.
 Initialization pass.
 Trust Radius=3.00D-01 FncErr=1.00D-07 GrdErr=1.00D-07
 Number of steps in this run=      2 maximum allowed number of steps=      2.
 GradGradGradGradGradGradGradGradGradGradGradGradGradGradGradGradGradGrad

                          Input orientation:                          
 ---------------------------------------------------------------------
 Center     Atomic      Atomic             Coordinates (Angstroms)
 Number     Number       Type             X           Y           Z
 ---------------------------------------------------------------------
      1          8           0       10.868000    7.411000   11.293000
      2          6           0       11.684000    7.682000   12.442000
      3          6           0       11.889000    9.140000   12.819000
      4          8           0       12.858000    9.786000   11.981000
      5          1           0       12.523000    9.789000   11.038000
      6          6           0       12.506000    9.352000   14.192000
      7          8           0       12.476000   10.669000   14.760000
      8          1           0       12.863000   11.221000   14.021000
      9          6           0       10.838000    5.511000   13.231000
     10          8           0       10.301000    4.646000   14.242000
     11          1           0       10.097000    3.858000   13.661000
     12          6           0       11.009000    6.974000   13.606000
     13          8           0       11.851000    7.105000   14.761000
     14          6           0       11.783000    8.470000   15.197000
     15          8           0       12.511000    8.338000   16.427000
     16          6           0       11.801000    8.323000   17.674000
     17          6           0       11.325000    6.937000   18.076000
     18          8           0       10.452000    6.340000   17.105000
     19          1           0       10.894000    6.077000   16.247000
     20          6           0       10.427000    7.053000   19.297000
     21          8           0        9.778000    5.880000   19.810000
     22          1           0        8.925000    5.760000   19.303000
     23          6           0       12.983000   10.273000   18.434000
     24          8           0       13.369000   10.990000   19.616000
     25          1           0       14.112000   10.489000   20.058000
     26          6           0       12.621000    8.854000   18.839000
     27          8           0       11.842000    8.935000   20.041000
     28          6           0       11.275000    7.667000   20.399000
     29          8           0       10.645000    7.857000   21.674000
     30          1           0       11.317670    7.957952   22.351439
     31          1           0       12.093842    6.997070   20.558973
     32          1           0        9.657736    7.756493   19.055691
     33          1           0       12.156595    6.295475   18.280439
     34          1           0       10.939302    8.948177   17.566620
     35          1           0       13.500493    8.263527   18.989774
     36          1           0       13.797678   10.254178   17.740570
     37          1           0       12.136141   10.747506   17.983917
     38          1           0       11.430590    7.232432   10.535896
     39          1           0       11.796063    5.129567   12.945476
     40          1           0       10.193025    5.462230   12.378633
     41          1           0       10.053733    7.416140   13.798031
     42          1           0       12.644396    7.236982   12.285479
     43          1           0       10.956835    9.661900   12.759089
     44          1           0       13.527265    9.036126   14.145724
     45          1           0       10.773844    8.785488   15.361228
 ---------------------------------------------------------------------
                    Distance matrix (angstroms):
                    1          2          3          4          5
     1  O    0.000000
     2  C    1.435095   0.000000
     3  C    2.522015   1.519841   0.000000
     4  O    3.173967   2.453082   1.434755   0.000000
     5  H    2.908425   2.667318   1.998779   1.000741   0.000000
     6  C    3.854183   2.554816   1.520119   2.280522   3.184176
     7  O    5.021983   3.862973   2.539664   2.940825   3.824904
     8  H    5.092947   4.050655   2.593076   2.494163   3.326336
     9  C    2.714175   2.459975   3.800524   4.890657   5.094090
    10  O    4.082072   3.790776   4.974204   6.170087   6.453941
    11  H    4.338856   4.315959   5.640900   6.751793   6.924043
    12  C    2.358139   1.520456   2.466845   3.737214   4.100127
    13  O    3.617589   2.395533   2.813189   3.991267   4.638552
    14  C    4.147279   2.867189   2.472857   3.637326   4.425454
    15  O    5.469619   4.122437   3.748033   4.688713   5.580938
    16  C    6.513017   5.272418   4.924049   5.972258   6.834247
    17  C    6.814882   5.694371   5.727770   6.900429   7.687818
    18  O    5.924478   5.006232   5.317402   6.627151   7.279638
    19  H    5.130531   4.204539   4.703528   5.984374   6.600475
    20  C    8.024130   6.997622   6.961142   8.179420   8.949301
    21  O    8.721889   7.820963   7.997375   9.275585   9.988157
    22  H    8.406019   7.640647   7.889991   9.235196   9.873635
    23  C    7.978606   6.656181   5.831702   6.472558   7.426081
    24  O    9.398754   8.077646   7.198063   7.746222   8.702885
    25  H    9.839860   8.472183   7.691856   8.203941   9.185604
    26  C    7.880189   6.570629   6.071081   6.925096   7.857444
    27  O    8.933015   7.703231   7.225062   8.168235   9.069018
    28  C    9.118685   7.967519   7.746168   8.823762   9.679293
    29  O   10.392969   9.291930   9.033529  10.127816  10.971964
    30  H   11.081084   9.920047   9.622424  10.642386  11.523865
    31  H    9.355869   8.156124   8.033760   9.052276   9.931162
    32  H    7.864062   6.917528   6.766753   8.025699   8.753524
    33  H    7.192300   6.019399   6.163623   7.235929   8.049341
    34  H    6.459590   5.330995   4.845474   5.965107   6.770374
    35  H    8.179068   6.819910   6.437668   7.200947   8.155567
    36  H    7.631371   6.257681   5.395025   5.854471   6.838540
    37  H    7.583458   6.349378   5.414935   6.122139   7.022404
    38  H    0.960000   1.974730   3.010236   3.262903   2.825156
    39  H    2.965959   2.604028   4.013503   4.872401   5.086965
    40  H    2.330643   2.674771   4.073849   5.094624   5.093822
    41  H    2.634054   2.137118   2.701555   4.096554   4.398354
    42  H    2.042273   1.070000   2.115832   2.576009   2.843191
    43  H    2.687724   2.132913   1.070000   2.057973   2.330488
    44  H    4.225016   2.852009   2.110663   2.386683   3.351614
    45  H    4.295179   3.250840   2.798602   4.095201   4.770418
                    6          7          8          9         10
     6  C    0.000000
     7  O    1.434578   0.000000
     8  H    1.910458   1.000297   0.000000
     9  C    4.296397   5.623686   6.109732   0.000000
    10  O    5.197207   6.424599   7.059979   1.434822   0.000000
    11  H    6.022398   7.297751   7.873635   1.861824   1.000060
    12  C    2.870416   4.139665   4.652585   1.519946   2.515024
    13  O    2.408692   3.618387   4.302697   2.430618   2.952718
    14  C    1.520091   2.346661   3.180782   3.676121   4.210858
    15  O    2.454271   2.865951   3.771529   4.583151   4.825887
    16  C    3.698674   3.801413   4.782328   5.345555   5.248710
    17  C    4.723605   5.123327   6.095993   5.073921   4.582228
    18  O    4.666544   5.323142   6.256847   3.980466   3.330046
    19  H    4.188937   5.079405   5.940772   3.069161   2.533660
    20  C    5.972325   6.152904   7.151398   6.272403   5.600228
    21  O    7.145537   7.464330   8.459080   6.674054   5.727033
    22  H    7.200580   7.572762   8.557446   6.371087   5.361725
    23  C    4.366959   3.729898   4.515271   7.372169   7.511932
    24  O    5.731282   4.947851   5.622581   8.785990   8.862214
    25  H    6.187242   5.547765   6.208155   9.061318   9.082413
    26  C    4.675023   4.466933   5.373488   6.767895   6.649968
    27  O    5.901321   5.594432   6.519865   7.688166   7.375541
    28  C    6.548392   6.500210   7.472051   7.497968   6.927032
    29  O    7.853577   7.685265   8.648955   8.764999   8.103301
    30  H    8.362532   8.143799   9.079193   9.455161   8.818483
    31  H    6.801023   6.874388   7.821655   7.581869   6.974666
    32  H    5.857793   5.905783   6.901061   6.353132   5.767198
    33  H    5.116617   5.623454   6.550010   5.277398   4.740568
    34  H    3.742416   3.633151   4.630093   5.533719   5.474418
    35  H    5.019206   4.972613   5.817367   6.915834   6.772342
    36  H    3.882615   3.286747   3.955195   7.182872   7.477861
    37  H    4.057446   3.242732   4.056752   7.190020   7.389050
    38  H    4.360753   5.544902   5.486932   3.252395   4.658412
    39  H    4.459459   5.868571   6.276995   1.070000   2.037161
    40  H    4.875291   6.163874   6.556643   1.070000   2.037161
    41  H    3.149028   4.168196   4.734834   2.136857   2.816368
    42  H    2.850838   4.234425   4.351117   2.671347   4.004082
    43  H    2.132881   2.706614   2.767070   4.179329   5.271470
    44  H    1.070000   2.036853   2.287024   4.527182   5.448968
    45  H    2.165270   2.608913   3.477428   3.906950   4.314118
                   11         12         13         14         15
    11  H    0.000000
    12  C    3.247187   0.000000
    13  O    3.850912   1.435322   0.000000
    14  C    5.145137   2.316975   1.434554   0.000000
    15  O    5.792111   3.474844   2.175188   1.435377   0.000000
    16  C    6.240514   4.358404   3.157783   2.481423   1.435038
    17  C    5.520910   4.481308   3.360673   3.293705   2.467508
    18  O    4.259987   3.599334   2.834918   3.154192   2.948079
    19  H    3.499509   2.791543   2.044708   2.760303   2.785536
    20  C    6.487019   5.721228   4.754553   4.544956   3.772424
    21  O    6.480775   6.418864   5.593778   5.657552   4.995572
    22  H    6.068225   6.186490   5.567788   5.689596   5.270375
    23  C    8.500750   6.171682   4.980821   3.894737   2.827553
    24  O    9.850555   7.603812   6.400670   5.328542   4.235444
    25  H   10.050472   7.975722   6.679954   5.755860   4.513775
    26  C    7.625108   5.789407   4.503552   3.756842   2.469028
    27  O    8.338186   6.778542   5.588146   4.866625   3.723569
    28  C    7.829228   6.833436   5.695144   5.288069   4.213635
    29  O    8.972206   8.124334   7.057585   6.604721   5.589662
    30  H    9.686246   8.806029   7.656809   7.187818   6.055365
    31  H    7.837294   7.037134   5.804060   5.569282   4.364094
    32  H    6.670374   5.668980   4.866130   4.462660   3.922918
    33  H    5.614484   4.860838   3.624248   3.791534   2.780782
    34  H    6.470954   4.425917   3.478505   2.560386   2.035014
    35  H    7.706378   6.070868   4.684607   4.168639   2.748173
    36  H    8.440912   5.969167   4.752338   3.702967   2.655700
    37  H    8.385166   5.888629   4.871997   3.616442   2.893135
    38  H    4.788687   3.109672   4.247880   4.835458   6.090539
    39  H    2.239570   2.111325   2.683557   4.028402   4.788130
    40  H    2.056025   2.111325   3.335153   4.417906   5.480176
    41  H    3.561041   1.070000   2.062592   2.461321   3.714763
    42  H    4.449585   2.118362   2.602903   3.277086   4.287451
    43  H    5.936161   2.818649   3.368221   2.836650   4.197822
    44  H    6.230141   3.299291   2.630147   2.113797   2.593144
    45  H    5.256332   2.533301   2.084365   1.070000   2.086583
                   16         17         18         19         20
    16  C    0.000000
    17  C    1.519597   0.000000
    18  O    2.464924   1.435750   0.000000
    19  H    2.811315   2.066543   1.000348   0.000000
    20  C    2.476874   1.520099   2.305181   3.236227   0.000000
    21  O    3.824039   2.552883   2.825403   3.738881   1.435374
    22  H    4.182581   2.941234   2.738491   3.649190   1.981890
    23  C    2.403586   3.742462   4.862169   5.172360   4.200751
    24  O    3.652790   4.793365   6.036266   6.450841   4.925149
    25  H    3.964307   4.930760   6.271364   6.659203   5.095532
    26  C    1.520390   2.436529   3.745866   4.172855   2.875239
    27  O    2.445182   2.849652   4.157670   4.843687   2.469349
    28  C    2.851778   2.435514   3.645366   4.462327   1.520034
    29  O    4.189689   3.775500   4.818122   5.716881   2.518744
    30  H    4.716493   4.395654   5.558082   6.401691   3.307843
    31  H    3.188560   2.599978   3.880376   4.569383   2.091427
    32  H    2.612199   2.100270   2.538208   3.498255   1.070000
    33  H    2.145944   1.070000   2.071058   2.403487   2.144467
    34  H    1.070000   2.110229   2.693166   3.160239   2.616938
    35  H    2.150134   2.706922   4.067633   4.370071   3.317548
    36  H    2.778597   4.150942   5.188285   5.301973   4.902192
    37  H    2.467103   3.896971   4.799473   5.135506   4.277233
    38  H    7.230426   7.546628   6.701283   5.851466   8.820222
    39  H    5.705872   5.459944   4.535779   3.551254   6.776119
    40  H    6.229807   5.993021   4.814155   3.979142   7.102752
    41  H    4.347237   4.488509   3.500391   2.914926   5.523573
    42  H    5.561197   5.946506   5.370192   4.483648   7.356094
    43  H    5.163489   5.985830   5.493343   5.002097   7.059133
    44  H    3.992151   4.970248   5.048135   4.483957   6.330883
    45  H    2.572520   3.330266   3.020718   2.852181   4.314176
                   21         22         23         24         25
    21  O    0.000000
    22  H    0.999529   0.000000
    23  C    5.609265   6.131043   0.000000
    24  O    6.248601   6.870226   1.435343   0.000000
    25  H    6.331504   7.059634   1.989641   0.999207   0.000000
    26  C    4.227312   4.842370   1.519418   2.392850   2.526315
    27  O    3.694115   4.374261   2.382136   2.595261   2.751019
    28  C    2.404433   3.218752   3.683711   4.005029   4.016035
    29  O    2.852142   3.602423   4.669143   4.633706   4.643164
    30  H    3.625932   4.455204   4.845524   4.569890   4.412975
    31  H    2.678046   3.626206   4.004726   4.296361   4.064174
    32  H    2.025999   2.141039   4.216242   4.954089   5.320873
    33  H    2.858302   3.431555   4.065370   5.029137   4.956711
    34  H    3.974303   4.151735   2.585383   3.777887   4.318231
    35  H    4.495657   5.225026   2.148177   2.800554   2.543183
    36  H    6.290770   6.810420   1.070000   2.059718   2.350409
    37  H    5.708592   6.076728   1.070000   2.059718   2.876224
    38  H    9.516781   9.236241   8.604364  10.016238  10.414684
    39  H    7.194263   7.004182   7.614960   9.017466   9.201906
    40  H    7.454662   7.045808   8.221614   9.644819   9.979953
    41  H    6.211242   5.858457   6.183402   7.590272   8.068408
    42  H    8.165540   8.078427   6.865593   8.267208   8.552284
    43  H    8.087507   7.885173   6.056682   7.389155   7.994577
    44  H    7.490136   7.649270   4.496153   5.810903   6.116189
    45  H    5.406028   5.301827   4.066324   5.449568   6.008736
                   26         27         28         29         30
    26  C    0.000000
    27  O    1.434645   0.000000
    28  C    2.377874   1.434391   0.000000
    29  O    3.596639   2.293814   1.434791   0.000000
    30  H    3.852116   2.562747   1.974460   0.960000   0.000000
    31  H    2.585419   2.021705   1.070000   2.020373   2.176848
    32  H    3.167399   2.670342   2.104289   2.800060   3.695663
    33  H    2.659646   3.188360   2.673311   4.029831   4.476680
    34  H    2.110907   2.633931   3.126737   4.260030   4.900837
    35  H    1.070000   2.075224   2.700849   3.940073   4.019811
    36  H    2.133453   3.294979   4.486050   5.581910   5.716923
    37  H    2.133453   2.757406   4.007955   4.918866   5.246595
    38  H    8.543307   9.665143   9.873898  11.183228  11.838335
    39  H    7.020366   8.051701   7.890823   9.216885   9.833654
    40  H    7.689961   8.572696   8.387965   9.609529  10.341678
    41  H    5.836923   6.669295   6.717679   7.910426   8.663249
    42  H    6.750106   7.979675   8.239502   9.619061  10.178583
    43  H    6.355113   7.371440   7.902474   9.101129   9.749196
    44  H    4.783443   6.132261   6.786064   8.146946   8.566127
    45  H    3.938474   4.802455   5.184720   6.381989   7.060001
                   31         32         33         34         35
    31  H    0.000000
    32  H    2.961621   0.000000
    33  H    2.384930   2.996646   0.000000
    34  H    3.754192   2.297794   3.004691   0.000000
    35  H    2.458651   3.876624   2.486453   3.008956   0.000000
    36  H    4.631977   5.010699   4.319253   3.147413   2.368866
    37  H    4.549557   4.029560   4.461942   2.200942   3.007218
    38  H   10.047754   8.718059   7.834725   7.253704   8.764457
    39  H    7.844844   6.986265   5.472765   6.055641   7.018570
    40  H    8.537377   7.080485   6.275445   6.294757   7.905302
    41  H    7.074461   5.283525   5.076406   4.163368   6.289071
    42  H    8.295263   7.417938   6.088016   5.807408   6.836247
    43  H    8.320595   6.705626   6.577047   4.860253   6.873651
    44  H    6.880568   6.381104   5.146433   4.290433   4.905349
    45  H    5.653087   3.994194   4.078475   2.217566   4.568743
                   36         37         38         39         40
    36  H    0.000000
    37  H    1.750227   0.000000
    38  H    8.163417   8.265988   0.000000
    39  H    7.298015   7.553991   3.218957   0.000000
    40  H    8.044044   7.945379   2.839165   1.732543   0.000000
    41  H    6.133123   5.740738   3.545562   2.998497   2.419062
    42  H    6.339680   6.712250   2.129409   2.365685   3.027812
    43  H    5.765096   5.465175   3.327062   4.613142   4.285485
    44  H    3.805219   4.426712   4.547550   4.438339   5.197354
    45  H    4.118482   3.547375   5.111470   4.499616   4.503029
                   41         42         43         44         45
    41  H    0.000000
    42  H    3.005237   0.000000
    43  H    2.634090   2.992055   0.000000
    44  H    3.848463   2.734389   2.986881   0.000000
    45  H    2.199377   3.918810   2.751856   3.020198   0.000000
 Stoichiometry    C12H22O11
 Framework group  C1[X(C12H22O11)]
 Deg. of freedom   129
 Full point group                 C1      NOp   1
 Largest Abelian subgroup         C1      NOp   1
 Largest concise Abelian subgroup C1      NOp   1
                         Standard orientation:                         
 ---------------------------------------------------------------------
 Center     Atomic      Atomic             Coordinates (Angstroms)
 Number     Number       Type             X           Y           Z
 ---------------------------------------------------------------------
      1          8           0       -5.040177    0.646809   -0.571972
      2          6           0       -3.889185    0.062311    0.054988
      3          6           0       -3.428283   -1.289852   -0.463801
      4          8           0       -4.240199   -2.365385    0.028685
      5          1           0       -5.176242   -2.246102   -0.304598
      6          6           0       -2.054319   -1.715224    0.028178
      7          8           0       -1.407777   -2.820733   -0.618232
      8          1           0       -2.117906   -3.524322   -0.582536
      9          6           0       -3.219693    2.402093    0.413705
     10          8           0       -2.254682    3.463915    0.412022
     11          1           0       -2.878923    4.223444    0.595219
     12          6           0       -2.759982    1.062179   -0.137233
     13          8           0       -1.611806    0.586998    0.581128
     14          6           0       -1.093561   -0.547578   -0.127467
     15          8           0        0.115349   -0.734590    0.623448
     16          6           0        1.369579   -0.316745    0.065195
     17          6           0        1.694529    1.140953    0.345729
     18          8           0        0.702439    2.045102   -0.163832
     19          1           0       -0.176280    2.018242    0.313481
     20          6           0        2.933473    1.535932   -0.441487
     21          8           0        3.384581    2.898239   -0.411160
     22          1           0        2.883985    3.398490   -1.117001
     23          6           0        2.227844   -2.559285    0.172996
     24          8           0        3.444964   -3.319261    0.208569
     25          1           0        3.844977   -3.228142    1.119667
     26          6           0        2.552114   -1.128700    0.569109
     27          8           0        3.768226   -0.762541   -0.098128
     28          6           0        4.057704    0.635176    0.043535
     29          8           0        5.351021    0.836651   -0.544141
     30          1           0        6.023257    0.449185    0.021163
     31          1           0        4.164950    0.823318    1.091391
     32          1           0        2.746330    1.290581   -1.466026
     33          1           0        1.847674    1.300129    1.392682
     34          1           0        1.312770   -0.442540   -0.995865
     35          1           0        2.654056   -1.039877    1.630531
     36          1           0        1.522535   -2.974108    0.862460
     37          1           0        1.819711   -2.576735   -0.815954
     38          1           0       -5.814905    0.491846   -0.026643
     39          1           0       -3.541807    2.250784    1.422788
     40          1           0       -4.063794    2.722670   -0.160424
     41          1           0       -2.527573    1.155079   -1.177548
     42          1           0       -4.086402   -0.029000    1.102684
     43          1           0       -3.442879   -1.289057   -1.533701
     44          1           0       -2.134639   -1.943802    1.070387
     45          1           0       -0.895718   -0.319285   -1.153936
 ---------------------------------------------------------------------
 Rotational constants (GHZ):      0.3927766      0.1517083      0.1129092
 Standard basis: 6-31+G(2df,p) (6D, 7F)
 There are   846 symmetry adapted basis functions of A   symmetry.
 Integral buffers will be    131072 words long.
 Raffenetti 2 integral format.
 Two-electron integral symmetry is turned on.
   846 basis functions,  1258 primitive gaussians,   915 cartesian basis functions
    91 alpha electrons       91 beta electrons
       nuclear repulsion energy      2289.8539682324 Hartrees.
 NAtoms=   45 NActive=   45 NUniq=   45 SFac= 1.00D+00 NAtFMM=   50 NAOKFM=F Big=F
 One-electron integrals computed using PRISM.
 NBasis=   846 RedAO= T  NBF=   846
 NBsUse=   846 1.00D-06 NBFU=   846
 Harris functional with IExCor=  402 diagonalized for initial guess.
 ExpMin= 4.38D-02 ExpMax= 5.48D+03 ExpMxC= 8.25D+02 IAcc=2 IRadAn=         0 AccDes= 0.00D+00
 HarFok:  IExCor=  402 AccDes= 0.00D+00 IRadAn=         0 IDoV= 1
 ScaDFX=  1.000000  1.000000  1.000000  1.000000
 FoFCou: FMM=F IPFlag=           0 FMFlag=      100000 FMFlg1=           0
         NFxFlg=           0 DoJE=T BraDBF=F KetDBF=T FulRan=T
         Omega=  0.000000  0.000000  1.000000  0.000000  0.000000 ICntrl=     500 IOpCl=  0
         NMat0=    1 NMatS0=    1 NMatT0=    0 NMatD0=    1 NMtDS0=    0 NMtDT0=    0
         I1Cent=           4 NGrid=           0.
 Petite list used in FoFCou.
 Initial guess orbital symmetries:
       Occupied  (A) (A) (A) (A) (A) (A) (A) (A) (A) (A) (A) (A)
                 (A) (A) (A) (A) (A) (A) (A) (A) (A) (A) (A) (A)
                 (A) (A) (A) (A) (A) (A) (A) (A) (A) (A) (A) (A)
                 (A) (A) (A) (A) (A) (A) (A) (A) (A) (A) (A) (A)
                 (A) (A) (A) (A) (A) (A) (A) (A) (A) (A) (A) (A)
                 (A) (A) (A) (A) (A) (A) (A) (A) (A) (A) (A) (A)
                 (A) (A) (A) (A) (A) (A) (A) (A) (A) (A) (A) (A)
                 (A) (A) (A) (A) (A) (A) (A)
       Virtual   (A) (A) (A) (A) (A) (A) (A) (A) (A) (A) (A) (A)
                 (A) (A) (A) (A) (A) (A) (A) (A) (A) (A) (A) (A)
                 (A) (A) (A) (A) (A) (A) (A) (A) (A) (A) (A) (A)
                 (A) (A) (A) (A) (A) (A) (A) (A) (A) (A) (A) (A)
                 (A) (A) (A) (A) (A) (A) (A) (A) (A) (A) (A) (A)
                 (A) (A) (A) (A) (A) (A) (A) (A) (A) (A) (A) (A)
                 (A) (A) (A) (A) (A) (A) (A) (A) (A) (A) (A) (A)
                 (A) (A) (A) (A) (A) (A) (A) (A) (A) (A) (A) (A)
                 (A) (A) (A) (A) (A) (A) (A) (A) (A) (A) (A) (A)
                 (A) (A) (A) (A) (A) (A) (A) (A) (A) (A) (A) (A)
                 (A) (A) (A) (A) (A) (A) (A) (A) (A) (A) (A) (A)
                 (A) (A) (A) (A) (A) (A) (A) (A) (A) (A) (A) (A)
                 (A) (A) (A) (A) (A) (A) (A) (A) (A) (A) (A) (A)
                 (A) (A) (A) (A) (A) (A) (A) (A) (A) (A) (A) (A)
                 (A) (A) (A) (A) (A) (A) (A) (A) (A) (A) (A) (A)
                 (A) (A) (A) (A) (A) (A) (A) (A) (A) (A) (A) (A)
                 (A) (A) (A) (A) (A) (A) (A) (A) (A) (A) (A) (A)
                 (A) (A) (A) (A) (A) (A) (A) (A) (A) (A) (A) (A)
                 (A) (A) (A) (A) (A) (A) (A) (A) (A) (A) (A) (A)
                 (A) (A) (A) (A) (A) (A) (A) (A) (A) (A) (A) (A)
                 (A) (A) (A) (A) (A) (A) (A) (A) (A) (A) (A) (A)
                 (A) (A) (A) (A) (A) (A) (A) (A) (A) (A) (A) (A)
                 (A) (A) (A) (A) (A) (A) (A) (A) (A) (A) (A) (A)
                 (A) (A) (A) (A) (A) (A) (A) (A) (A) (A) (A) (A)
                 (A) (A) (A) (A) (A) (A) (A) (A) (A) (A) (A) (A)
                 (A) (A) (A) (A) (A) (A) (A) (A) (A) (A) (A) (A)
                 (A) (A) (A) (A) (A) (A) (A) (A) (A) (A) (A) (A)
                 (A) (A) (A) (A) (A) (A) (A) (A) (A) (A) (A) (A)
                 (A) (A) (A) (A) (A) (A) (A) (A) (A) (A) (A) (A)
                 (A) (A) (A) (A) (A) (A) (A) (A) (A) (A) (A) (A)
                 (A) (A) (A) (A) (A) (A) (A) (A) (A) (A) (A) (A)
                 (A) (A) (A) (A) (A) (A) (A) (A) (A) (A) (A) (A)
                 (A) (A) (A) (A) (A) (A) (A) (A) (A) (A) (A) (A)
                 (A) (A) (A) (A) (A) (A) (A) (A) (A) (A) (A) (A)
                 (A) (A) (A) (A) (A) (A) (A) (A) (A) (A) (A) (A)
                 (A) (A) (A) (A) (A) (A) (A) (A) (A) (A) (A) (A)
                 (A) (A) (A) (A) (A) (A) (A) (A) (A) (A) (A) (A)
                 (A) (A) (A) (A) (A) (A) (A) (A) (A) (A) (A) (A)
                 (A) (A) (A) (A) (A) (A) (A) (A) (A) (A) (A) (A)
                 (A) (A) (A) (A) (A) (A) (A) (A) (A) (A) (A) (A)
                 (A) (A) (A) (A) (A) (A) (A) (A) (A) (A) (A) (A)
                 (A) (A) (A) (A) (A) (A) (A) (A) (A) (A) (A) (A)
                 (A) (A) (A) (A) (A) (A) (A) (A) (A) (A) (A) (A)
                 (A) (A) (A) (A) (A) (A) (A) (A) (A) (A) (A) (A)
                 (A) (A) (A) (A) (A) (A) (A) (A) (A) (A) (A) (A)
                 (A) (A) (A) (A) (A) (A) (A) (A) (A) (A) (A) (A)
                 (A) (A) (A) (A) (A) (A) (A) (A) (A) (A) (A) (A)
                 (A) (A) (A) (A) (A) (A) (A) (A) (A) (A) (A) (A)
                 (A) (A) (A) (A) (A) (A) (A) (A) (A) (A) (A) (A)
                 (A) (A) (A) (A) (A) (A) (A) (A) (A) (A) (A) (A)
                 (A) (A) (A) (A) (A) (A) (A) (A) (A) (A) (A) (A)
                 (A) (A) (A) (A) (A) (A) (A) (A) (A) (A) (A) (A)
                 (A) (A) (A) (A) (A) (A) (A) (A) (A) (A) (A) (A)
                 (A) (A) (A) (A) (A) (A) (A) (A) (A) (A) (A) (A)
                 (A) (A) (A) (A) (A) (A) (A) (A) (A) (A) (A) (A)
                 (A) (A) (A) (A) (A) (A) (A) (A) (A) (A) (A) (A)
                 (A) (A) (A) (A) (A) (A) (A) (A) (A) (A) (A) (A)
                 (A) (A) (A) (A) (A) (A) (A) (A) (A) (A) (A) (A)
                 (A) (A) (A) (A) (A) (A) (A) (A) (A) (A) (A) (A)
                 (A) (A) (A) (A) (A) (A) (A) (A) (A) (A) (A) (A)
                 (A) (A) (A) (A) (A) (A) (A) (A) (A) (A) (A) (A)
                 (A) (A) (A) (A) (A) (A) (A) (A) (A) (A) (A) (A)
                 (A) (A) (A) (A) (A) (A) (A) (A) (A) (A) (A)
 The electronic state of the initial guess is 1-A.
 Requested convergence on RMS density matrix=1.00D-08 within 128 cycles.
 Requested convergence on MAX density matrix=1.00D-06.
 Requested convergence on             energy=1.00D-06.
 No special actions if energy rises.
 SCF Done:  E(RB3LYP) =  -1298.01461472     A.U. after   14 cycles
             Convg  =    0.1362D-08             -V/T =  2.0065
 Range of M.O.s used for correlation:     1   846
 NBasis=   846 NAE=    91 NBE=    91 NFC=     0 NFV=     0
 NROrb=    846 NOA=    91 NOB=    91 NVA=   755 NVB=   755

 **** Warning!!: The largest alpha MO coefficient is  0.88423586D+02

          Differentiating once with respect to electric field.
                with respect to dipole field.
          Electric field/nuclear overlap derivatives assumed to be zero.
          There are     3 degrees of freedom in the 1st order CPHF.  IDoFFX=0.
      3 vectors produced by pass  0 Test12= 2.29D-12 3.33D-08 XBig12= 1.22D+02 1.44D+00.
 AX will form     3 AO Fock derivatives at one time.
      3 vectors produced by pass  1 Test12= 2.29D-12 3.33D-08 XBig12= 2.46D+01 3.64D-01.
      3 vectors produced by pass  2 Test12= 2.29D-12 3.33D-08 XBig12= 1.05D+01 2.48D-01.
      3 vectors produced by pass  3 Test12= 2.29D-12 3.33D-08 XBig12= 1.16D+00 7.32D-02.
      3 vectors produced by pass  4 Test12= 2.29D-12 3.33D-08 XBig12= 2.85D-01 3.40D-02.
      3 vectors produced by pass  5 Test12= 2.29D-12 3.33D-08 XBig12= 5.56D-02 1.72D-02.
      3 vectors produced by pass  6 Test12= 2.29D-12 3.33D-08 XBig12= 1.95D-02 1.48D-02.
      3 vectors produced by pass  7 Test12= 2.29D-12 3.33D-08 XBig12= 3.00D-03 7.87D-03.
      3 vectors produced by pass  8 Test12= 2.29D-12 3.33D-08 XBig12= 7.71D-04 2.70D-03.
      3 vectors produced by pass  9 Test12= 2.29D-12 3.33D-08 XBig12= 1.64D-04 1.83D-03.
      3 vectors produced by pass 10 Test12= 2.29D-12 3.33D-08 XBig12= 4.75D-05 8.73D-04.
      3 vectors produced by pass 11 Test12= 2.29D-12 3.33D-08 XBig12= 8.32D-06 5.20D-04.
      3 vectors produced by pass 12 Test12= 2.29D-12 3.33D-08 XBig12= 1.56D-06 1.86D-04.
      3 vectors produced by pass 13 Test12= 2.29D-12 3.33D-08 XBig12= 3.80D-07 4.00D-05.
      3 vectors produced by pass 14 Test12= 2.29D-12 3.33D-08 XBig12= 1.18D-07 2.38D-05.
      3 vectors produced by pass 15 Test12= 2.29D-12 3.33D-08 XBig12= 1.58D-08 1.28D-05.
      3 vectors produced by pass 16 Test12= 2.29D-12 3.33D-08 XBig12= 1.53D-09 3.81D-06.
      3 vectors produced by pass 17 Test12= 2.29D-12 3.33D-08 XBig12= 3.69D-10 1.44D-06.
      3 vectors produced by pass 18 Test12= 2.29D-12 3.33D-08 XBig12= 4.62D-11 4.02D-07.
      3 vectors produced by pass 19 Test12= 2.29D-12 3.33D-08 XBig12= 8.04D-12 1.80D-07.
      3 vectors produced by pass 20 Test12= 2.29D-12 3.33D-08 XBig12= 4.05D-12 1.64D-07.
      3 vectors produced by pass 21 Test12= 2.29D-12 3.33D-08 XBig12= 1.21D-12 6.48D-08.
      1 vectors produced by pass 22 Test12= 2.29D-12 3.33D-08 XBig12= 2.36D-13 3.38D-08.
 Inverted reduced A of dimension    67 with in-core refinement.
 End of Minotr Frequency-dependent properties file   721 does not exist.
 End of Minotr Frequency-dependent properties file   722 does not exist.
 Symmetrizing basis deriv contribution to polar:
 IMax=3 JMax=2 DiffMx= 0.00D+00
 G2DrvN: will do     8 centers at a time, making    6 passes doing MaxLOS=3.
 Calling FoFCou, ICntrl=  3107 FMM=F I1Cent=   0 AccDes= 0.00D+00.
 Calling FoFCou, ICntrl=  3107 FMM=F I1Cent=   0 AccDes= 0.00D+00.
 Calling FoFCou, ICntrl=  3107 FMM=F I1Cent=   0 AccDes= 0.00D+00.
 Calling FoFCou, ICntrl=  3107 FMM=F I1Cent=   0 AccDes= 0.00D+00.
 Calling FoFCou, ICntrl=  3107 FMM=F I1Cent=   0 AccDes= 0.00D+00.
 Calling FoFCou, ICntrl=  3107 FMM=F I1Cent=   0 AccDes= 0.00D+00.
 FoFDir/FoFCou used for L=0 through L=3.
 End of G2Drv Frequency-dependent properties file   721 does not exist.
 End of G2Drv Frequency-dependent properties file   722 does not exist.
          IDoAtm=111111111111111111111111111111111111111111111
          Differentiating once with respect to electric field.
                with respect to dipole field.
          Differentiating once with respect to nuclear coordinates.
          There are   138 degrees of freedom in the 1st order CPHF.  IDoFFX=5.
 Will reuse    3 saved solutions.
    135 vectors produced by pass  0 Test12= 6.87D-14 1.00D-09 XBig12= 1.94D-01 7.98D-02.
 AX will form    27 AO Fock derivatives at one time.
    135 vectors produced by pass  1 Test12= 6.87D-14 1.00D-09 XBig12= 2.20D-02 1.82D-02.
    132 vectors produced by pass  2 Test12= 6.87D-14 1.00D-09 XBig12= 1.94D-04 1.44D-03.
    132 vectors produced by pass  3 Test12= 6.87D-14 1.00D-09 XBig12= 9.79D-07 8.22D-05.
    132 vectors produced by pass  4 Test12= 6.87D-14 1.00D-09 XBig12= 2.52D-09 3.37D-06.
    132 vectors produced by pass  5 Test12= 6.87D-14 1.00D-09 XBig12= 7.35D-12 1.74D-07.
     95 vectors produced by pass  6 Test12= 6.87D-14 1.00D-09 XBig12= 2.56D-13 2.54D-08.
      1 vectors produced by pass  7 Test12= 6.87D-14 1.00D-09 XBig12= 9.23D-16 1.58D-09.
 Inverted reduced A of dimension   894 with in-core refinement.
 Isotropic polarizability for W=    0.000000      190.32 Bohr**3.
 End of Minotr Frequency-dependent properties file   721 does not exist.
 End of Minotr Frequency-dependent properties file   722 does not exist.

 **********************************************************************

            Population analysis using the SCF density.

 **********************************************************************

 Orbital symmetries:
       Occupied  (A) (A) (A) (A) (A) (A) (A) (A) (A) (A) (A) (A)
                 (A) (A) (A) (A) (A) (A) (A) (A) (A) (A) (A) (A)
                 (A) (A) (A) (A) (A) (A) (A) (A) (A) (A) (A) (A)
                 (A) (A) (A) (A) (A) (A) (A) (A) (A) (A) (A) (A)
                 (A) (A) (A) (A) (A) (A) (A) (A) (A) (A) (A) (A)
                 (A) (A) (A) (A) (A) (A) (A) (A) (A) (A) (A) (A)
                 (A) (A) (A) (A) (A) (A) (A) (A) (A) (A) (A) (A)
                 (A) (A) (A) (A) (A) (A) (A)
       Virtual   (A) (A) (A) (A) (A) (A) (A) (A) (A) (A) (A) (A)
                 (A) (A) (A) (A) (A) (A) (A) (A) (A) (A) (A) (A)
                 (A) (A) (A) (A) (A) (A) (A) (A) (A) (A) (A) (A)
                 (A) (A) (A) (A) (A) (A) (A) (A) (A) (A) (A) (A)
                 (A) (A) (A) (A) (A) (A) (A) (A) (A) (A) (A) (A)
                 (A) (A) (A) (A) (A) (A) (A) (A) (A) (A) (A) (A)
                 (A) (A) (A) (A) (A) (A) (A) (A) (A) (A) (A) (A)
                 (A) (A) (A) (A) (A) (A) (A) (A) (A) (A) (A) (A)
                 (A) (A) (A) (A) (A) (A) (A) (A) (A) (A) (A) (A)
                 (A) (A) (A) (A) (A) (A) (A) (A) (A) (A) (A) (A)
                 (A) (A) (A) (A) (A) (A) (A) (A) (A) (A) (A) (A)
                 (A) (A) (A) (A) (A) (A) (A) (A) (A) (A) (A) (A)
                 (A) (A) (A) (A) (A) (A) (A) (A) (A) (A) (A) (A)
                 (A) (A) (A) (A) (A) (A) (A) (A) (A) (A) (A) (A)
                 (A) (A) (A) (A) (A) (A) (A) (A) (A) (A) (A) (A)
                 (A) (A) (A) (A) (A) (A) (A) (A) (A) (A) (A) (A)
                 (A) (A) (A) (A) (A) (A) (A) (A) (A) (A) (A) (A)
                 (A) (A) (A) (A) (A) (A) (A) (A) (A) (A) (A) (A)
                 (A) (A) (A) (A) (A) (A) (A) (A) (A) (A) (A) (A)
                 (A) (A) (A) (A) (A) (A) (A) (A) (A) (A) (A) (A)
                 (A) (A) (A) (A) (A) (A) (A) (A) (A) (A) (A) (A)
                 (A) (A) (A) (A) (A) (A) (A) (A) (A) (A) (A) (A)
                 (A) (A) (A) (A) (A) (A) (A) (A) (A) (A) (A) (A)
                 (A) (A) (A) (A) (A) (A) (A) (A) (A) (A) (A) (A)
                 (A) (A) (A) (A) (A) (A) (A) (A) (A) (A) (A) (A)
                 (A) (A) (A) (A) (A) (A) (A) (A) (A) (A) (A) (A)
                 (A) (A) (A) (A) (A) (A) (A) (A) (A) (A) (A) (A)
                 (A) (A) (A) (A) (A) (A) (A) (A) (A) (A) (A) (A)
                 (A) (A) (A) (A) (A) (A) (A) (A) (A) (A) (A) (A)
                 (A) (A) (A) (A) (A) (A) (A) (A) (A) (A) (A) (A)
                 (A) (A) (A) (A) (A) (A) (A) (A) (A) (A) (A) (A)
                 (A) (A) (A) (A) (A) (A) (A) (A) (A) (A) (A) (A)
                 (A) (A) (A) (A) (A) (A) (A) (A) (A) (A) (A) (A)
                 (A) (A) (A) (A) (A) (A) (A) (A) (A) (A) (A) (A)
                 (A) (A) (A) (A) (A) (A) (A) (A) (A) (A) (A) (A)
                 (A) (A) (A) (A) (A) (A) (A) (A) (A) (A) (A) (A)
                 (A) (A) (A) (A) (A) (A) (A) (A) (A) (A) (A) (A)
                 (A) (A) (A) (A) (A) (A) (A) (A) (A) (A) (A) (A)
                 (A) (A) (A) (A) (A) (A) (A) (A) (A) (A) (A) (A)
                 (A) (A) (A) (A) (A) (A) (A) (A) (A) (A) (A) (A)
                 (A) (A) (A) (A) (A) (A) (A) (A) (A) (A) (A) (A)
                 (A) (A) (A) (A) (A) (A) (A) (A) (A) (A) (A) (A)
                 (A) (A) (A) (A) (A) (A) (A) (A) (A) (A) (A) (A)
                 (A) (A) (A) (A) (A) (A) (A) (A) (A) (A) (A) (A)
                 (A) (A) (A) (A) (A) (A) (A) (A) (A) (A) (A) (A)
                 (A) (A) (A) (A) (A) (A) (A) (A) (A) (A) (A) (A)
                 (A) (A) (A) (A) (A) (A) (A) (A) (A) (A) (A) (A)
                 (A) (A) (A) (A) (A) (A) (A) (A) (A) (A) (A) (A)
                 (A) (A) (A) (A) (A) (A) (A) (A) (A) (A) (A) (A)
                 (A) (A) (A) (A) (A) (A) (A) (A) (A) (A) (A) (A)
                 (A) (A) (A) (A) (A) (A) (A) (A) (A) (A) (A) (A)
                 (A) (A) (A) (A) (A) (A) (A) (A) (A) (A) (A) (A)
                 (A) (A) (A) (A) (A) (A) (A) (A) (A) (A) (A) (A)
                 (A) (A) (A) (A) (A) (A) (A) (A) (A) (A) (A) (A)
                 (A) (A) (A) (A) (A) (A) (A) (A) (A) (A) (A) (A)
                 (A) (A) (A) (A) (A) (A) (A) (A) (A) (A) (A) (A)
                 (A) (A) (A) (A) (A) (A) (A) (A) (A) (A) (A) (A)
                 (A) (A) (A) (A) (A) (A) (A) (A) (A) (A) (A) (A)
                 (A) (A) (A) (A) (A) (A) (A) (A) (A) (A) (A) (A)
                 (A) (A) (A) (A) (A) (A) (A) (A) (A) (A) (A) (A)
                 (A) (A) (A) (A) (A) (A) (A) (A) (A) (A) (A) (A)
                 (A) (A) (A) (A) (A) (A) (A) (A) (A) (A) (A) (A)
                 (A) (A) (A) (A) (A) (A) (A) (A) (A) (A) (A)
 The electronic state is 1-A.
 Alpha  occ. eigenvalues --  -19.19296 -19.18864 -19.18226 -19.17660 -19.17040
 Alpha  occ. eigenvalues --  -19.16878 -19.15848 -19.14810 -19.14752 -19.13756
 Alpha  occ. eigenvalues --  -19.13506 -10.30569 -10.28041 -10.26997 -10.26760
 Alpha  occ. eigenvalues --  -10.26011 -10.25881 -10.24480 -10.24325 -10.23805
 Alpha  occ. eigenvalues --  -10.23553 -10.23234 -10.21915  -1.09930  -1.07284
 Alpha  occ. eigenvalues --   -1.06671  -1.05844  -1.04053  -1.03630  -1.02749
 Alpha  occ. eigenvalues --   -1.01838  -1.00907  -0.99630  -0.99194  -0.82291
 Alpha  occ. eigenvalues --   -0.81546  -0.78708  -0.77357  -0.71680  -0.68871
 Alpha  occ. eigenvalues --   -0.67387  -0.64187  -0.62589  -0.62389  -0.61481
 Alpha  occ. eigenvalues --   -0.59846  -0.57280  -0.56387  -0.54728  -0.53820
 Alpha  occ. eigenvalues --   -0.53373  -0.52722  -0.52546  -0.51607  -0.50497
 Alpha  occ. eigenvalues --   -0.49703  -0.48954  -0.48236  -0.47422  -0.46576
 Alpha  occ. eigenvalues --   -0.45561  -0.44652  -0.44585  -0.43382  -0.43250
 Alpha  occ. eigenvalues --   -0.42580  -0.42085  -0.40926  -0.40010  -0.39719
 Alpha  occ. eigenvalues --   -0.38934  -0.37989  -0.37246  -0.36824  -0.36256
 Alpha  occ. eigenvalues --   -0.34852  -0.34610  -0.34176  -0.34013  -0.32705
 Alpha  occ. eigenvalues --   -0.31935  -0.31386  -0.30883  -0.30310  -0.29636
 Alpha  occ. eigenvalues --   -0.29515  -0.28712  -0.28396  -0.27598  -0.26206
 Alpha  occ. eigenvalues --   -0.25150
 Alpha virt. eigenvalues --   -0.03877  -0.01991  -0.00803  -0.00483   0.00469
 Alpha virt. eigenvalues --    0.01168   0.01488   0.02125   0.02281   0.03011
 Alpha virt. eigenvalues --    0.03772   0.04303   0.05237   0.05377   0.05810
 Alpha virt. eigenvalues --    0.06122   0.06733   0.06889   0.07295   0.08141
 Alpha virt. eigenvalues --    0.08558   0.09112   0.09718   0.09913   0.10217
 Alpha virt. eigenvalues --    0.10535   0.10950   0.11315   0.11412   0.11894
 Alpha virt. eigenvalues --    0.12241   0.12592   0.12952   0.13194   0.13959
 Alpha virt. eigenvalues --    0.14281   0.14380   0.14636   0.15170   0.15255
 Alpha virt. eigenvalues --    0.15622   0.15753   0.16270   0.16485   0.17037
 Alpha virt. eigenvalues --    0.17498   0.17739   0.18083   0.18426   0.18655
 Alpha virt. eigenvalues --    0.19033   0.19138   0.19746   0.19970   0.20111
 Alpha virt. eigenvalues --    0.20337   0.20555   0.20864   0.21276   0.21635
 Alpha virt. eigenvalues --    0.21883   0.22267   0.22799   0.22994   0.23276
 Alpha virt. eigenvalues --    0.23536   0.23834   0.23943   0.24112   0.24560
 Alpha virt. eigenvalues --    0.24962   0.25132   0.25525   0.25658   0.25778
 Alpha virt. eigenvalues --    0.26420   0.26784   0.26866   0.27186   0.27778
 Alpha virt. eigenvalues --    0.27996   0.28323   0.28546   0.28851   0.29113
 Alpha virt. eigenvalues --    0.29333   0.29496   0.29904   0.30114   0.30374
 Alpha virt. eigenvalues --    0.30688   0.31417   0.31785   0.32191   0.32243
 Alpha virt. eigenvalues --    0.32787   0.33006   0.33301   0.33375   0.33676
 Alpha virt. eigenvalues --    0.34266   0.34597   0.34858   0.35129   0.35331
 Alpha virt. eigenvalues --    0.36182   0.36533   0.36749   0.37457   0.37646
 Alpha virt. eigenvalues --    0.37871   0.38106   0.38678   0.38866   0.39490
 Alpha virt. eigenvalues --    0.39664   0.39996   0.40300   0.40795   0.41089
 Alpha virt. eigenvalues --    0.41430   0.42269   0.42498   0.43100   0.43544
 Alpha virt. eigenvalues --    0.44141   0.44603   0.45039   0.45339   0.46487
 Alpha virt. eigenvalues --    0.46661   0.47800   0.49041   0.49703   0.50855
 Alpha virt. eigenvalues --    0.51895   0.52699   0.53317   0.57546   0.57989
 Alpha virt. eigenvalues --    0.58919   0.59238   0.60530   0.62021   0.62601
 Alpha virt. eigenvalues --    0.62887   0.63993   0.64342   0.65102   0.65565
 Alpha virt. eigenvalues --    0.66349   0.67544   0.68157   0.68802   0.69291
 Alpha virt. eigenvalues --    0.70060   0.70786   0.71399   0.71734   0.73020
 Alpha virt. eigenvalues --    0.73087   0.74501   0.75350   0.75602   0.76600
 Alpha virt. eigenvalues --    0.76997   0.77996   0.78393   0.79354   0.80129
 Alpha virt. eigenvalues --    0.81740   0.82361   0.83336   0.84399   0.85299
 Alpha virt. eigenvalues --    0.86217   0.86898   0.87742   0.88157   0.88665
 Alpha virt. eigenvalues --    0.88723   0.89731   0.90381   0.90866   0.91116
 Alpha virt. eigenvalues --    0.91803   0.92281   0.92479   0.92864   0.93113
 Alpha virt. eigenvalues --    0.94182   0.94283   0.94978   0.95306   0.95423
 Alpha virt. eigenvalues --    0.95968   0.96754   0.97028   0.97557   0.98975
 Alpha virt. eigenvalues --    0.99031   0.99279   1.00231   1.01334   1.01582
 Alpha virt. eigenvalues --    1.02402   1.02819   1.03986   1.04174   1.04923
 Alpha virt. eigenvalues --    1.05511   1.05908   1.06550   1.06684   1.07636
 Alpha virt. eigenvalues --    1.07994   1.08910   1.09567   1.09966   1.11279
 Alpha virt. eigenvalues --    1.11592   1.11911   1.12495   1.13153   1.13609
 Alpha virt. eigenvalues --    1.13947   1.14678   1.15105   1.15896   1.16369
 Alpha virt. eigenvalues --    1.17226   1.17815   1.19021   1.19252   1.19589
 Alpha virt. eigenvalues --    1.19738   1.20378   1.21061   1.21568   1.21690
 Alpha virt. eigenvalues --    1.22061   1.23455   1.23558   1.23802   1.24902
 Alpha virt. eigenvalues --    1.25079   1.25329   1.25657   1.26951   1.27310
 Alpha virt. eigenvalues --    1.27523   1.28252   1.29661   1.29863   1.30047
 Alpha virt. eigenvalues --    1.30405   1.31189   1.32669   1.33087   1.33562
 Alpha virt. eigenvalues --    1.33918   1.35101   1.35597   1.35898   1.37207
 Alpha virt. eigenvalues --    1.37382   1.37969   1.38738   1.38938   1.39827
 Alpha virt. eigenvalues --    1.40510   1.40831   1.41068   1.41517   1.42655
 Alpha virt. eigenvalues --    1.44019   1.44632   1.44891   1.46633   1.48070
 Alpha virt. eigenvalues --    1.48471   1.49204   1.49592   1.50289   1.51414
 Alpha virt. eigenvalues --    1.52353   1.53164   1.53814   1.54312   1.54801
 Alpha virt. eigenvalues --    1.55611   1.56196   1.56968   1.58127   1.58797
 Alpha virt. eigenvalues --    1.60057   1.60957   1.61493   1.62972   1.63110
 Alpha virt. eigenvalues --    1.63905   1.64609   1.65920   1.66315   1.67251
 Alpha virt. eigenvalues --    1.68185   1.68412   1.69395   1.70883   1.71201
 Alpha virt. eigenvalues --    1.72971   1.73622   1.74407   1.76757   1.77073
 Alpha virt. eigenvalues --    1.78329   1.79177   1.80171   1.81158   1.82144
 Alpha virt. eigenvalues --    1.82871   1.83394   1.84804   1.85722   1.86691
 Alpha virt. eigenvalues --    1.87803   1.88845   1.89531   1.90276   1.91560
 Alpha virt. eigenvalues --    1.91909   1.93561   1.93645   1.95319   1.95513
 Alpha virt. eigenvalues --    1.96830   1.97357   1.97648   1.97778   1.99396
 Alpha virt. eigenvalues --    2.00780   2.02373   2.02836   2.04055   2.05541
 Alpha virt. eigenvalues --    2.08219   2.09386   2.10327   2.11571   2.13047
 Alpha virt. eigenvalues --    2.14060   2.15477   2.18880   2.19804   2.20257
 Alpha virt. eigenvalues --    2.21342   2.22548   2.23088   2.23995   2.25537
 Alpha virt. eigenvalues --    2.25799   2.25929   2.28375   2.29230   2.29709
 Alpha virt. eigenvalues --    2.32022   2.34225   2.36338   2.38621   2.39680
 Alpha virt. eigenvalues --    2.44145   2.45515   2.46252   2.48813   2.50370
 Alpha virt. eigenvalues --    2.51181   2.51976   2.53516   2.53923   2.54398
 Alpha virt. eigenvalues --    2.55370   2.56520   2.57637   2.58104   2.58699
 Alpha virt. eigenvalues --    2.59676   2.61022   2.62217   2.63725   2.64217
 Alpha virt. eigenvalues --    2.65012   2.65953   2.66782   2.68286   2.69043
 Alpha virt. eigenvalues --    2.70825   2.73242   2.74001   2.76620   2.77996
 Alpha virt. eigenvalues --    2.78353   2.80318   2.80956   2.83376   2.83783
 Alpha virt. eigenvalues --    2.85206   2.85868   2.86118   2.88284   2.89380
 Alpha virt. eigenvalues --    2.89686   2.90122   2.91125   2.92340   2.93000
 Alpha virt. eigenvalues --    2.93680   2.94437   2.96223   2.97220   2.98091
 Alpha virt. eigenvalues --    2.98399   2.99456   3.00060   3.02429   3.02589
 Alpha virt. eigenvalues --    3.03175   3.03895   3.04639   3.04736   3.05500
 Alpha virt. eigenvalues --    3.06270   3.07113   3.07524   3.08947   3.10382
 Alpha virt. eigenvalues --    3.10629   3.11914   3.14369   3.14503   3.16224
 Alpha virt. eigenvalues --    3.16671   3.18493   3.19459   3.21068   3.21783
 Alpha virt. eigenvalues --    3.23482   3.25135   3.25614   3.27403   3.28410
 Alpha virt. eigenvalues --    3.29762   3.30590   3.31864   3.33582   3.34457
 Alpha virt. eigenvalues --    3.34808   3.35619   3.37405   3.38429   3.39534
 Alpha virt. eigenvalues --    3.40571   3.41253   3.41730   3.42476   3.44824
 Alpha virt. eigenvalues --    3.45831   3.48811   3.50736   3.51907   3.52590
 Alpha virt. eigenvalues --    3.55517   3.57707   3.58583   3.58895   3.60990
 Alpha virt. eigenvalues --    3.61629   3.62252   3.62935   3.65694   3.67217
 Alpha virt. eigenvalues --    3.68684   3.69610   3.70752   3.73007   3.73765
 Alpha virt. eigenvalues --    3.74690   3.75814   3.76752   3.77861   3.78095
 Alpha virt. eigenvalues --    3.78604   3.79101   3.82790   3.83839   3.85541
 Alpha virt. eigenvalues --    3.86828   3.89559   3.91563   3.91885   3.93568
 Alpha virt. eigenvalues --    3.96751   3.97743   3.99260   4.03227   4.04166
 Alpha virt. eigenvalues --    4.05257   4.09172   4.10609   4.11052   4.13663
 Alpha virt. eigenvalues --    4.14679   4.15960   4.16152   4.17192   4.18533
 Alpha virt. eigenvalues --    4.19626   4.22386   4.22781   4.24550   4.25703
 Alpha virt. eigenvalues --    4.26401   4.27583   4.28465   4.30349   4.30755
 Alpha virt. eigenvalues --    4.32413   4.32763   4.33594   4.34745   4.35488
 Alpha virt. eigenvalues --    4.36722   4.36941   4.38108   4.38897   4.40419
 Alpha virt. eigenvalues --    4.40496   4.41232   4.42448   4.42880   4.44054
 Alpha virt. eigenvalues --    4.44509   4.45259   4.46216   4.47093   4.47649
 Alpha virt. eigenvalues --    4.48951   4.49381   4.49527   4.50339   4.50764
 Alpha virt. eigenvalues --    4.51510   4.52325   4.53323   4.53535   4.55176
 Alpha virt. eigenvalues --    4.55299   4.56373   4.57098   4.57689   4.58522
 Alpha virt. eigenvalues --    4.59007   4.59352   4.59963   4.60990   4.61903
 Alpha virt. eigenvalues --    4.62073   4.63272   4.63773   4.64277   4.65070
 Alpha virt. eigenvalues --    4.65353   4.66557   4.67570   4.68145   4.68643
 Alpha virt. eigenvalues --    4.69507   4.70403   4.71892   4.72087   4.72547
 Alpha virt. eigenvalues --    4.72866   4.73750   4.74801   4.75526   4.75862
 Alpha virt. eigenvalues --    4.76977   4.77776   4.78253   4.78782   4.79484
 Alpha virt. eigenvalues --    4.80089   4.80398   4.81145   4.81446   4.81606
 Alpha virt. eigenvalues --    4.82768   4.83366   4.85207   4.86041   4.87177
 Alpha virt. eigenvalues --    4.88201   4.89070   4.90106   4.90407   4.91013
 Alpha virt. eigenvalues --    4.93182   4.93945   4.94564   4.95743   4.96863
 Alpha virt. eigenvalues --    4.97968   4.98253   4.99883   5.00225   5.02433
 Alpha virt. eigenvalues --    5.05711   5.06629   5.08729   5.10936   5.12377
 Alpha virt. eigenvalues --    5.13028   5.15424   5.17458   5.18233   5.18938
 Alpha virt. eigenvalues --    5.20645   5.21110   5.22389   5.23884   5.24395
 Alpha virt. eigenvalues --    5.25254   5.25417   5.26390   5.27647   5.28328
 Alpha virt. eigenvalues --    5.29767   5.30850   5.34392   5.35176   5.36568
 Alpha virt. eigenvalues --    5.37171   5.38360   5.38611   5.39328   5.39828
 Alpha virt. eigenvalues --    5.40694   5.41567   5.42672   5.42976   5.43491
 Alpha virt. eigenvalues --    5.44631   5.45363   5.45848   5.46577   5.47740
 Alpha virt. eigenvalues --    5.48319   5.48712   5.49277   5.50894   5.51921
 Alpha virt. eigenvalues --    5.52697   5.54491   5.55109   5.57311   5.58363
 Alpha virt. eigenvalues --    5.59461   5.60411   5.60976   5.63453   5.64635
 Alpha virt. eigenvalues --    5.65210   5.65971   5.69087   5.74095   5.75391
 Alpha virt. eigenvalues --    5.76315   5.77166   5.78636   5.80202   5.82554
 Alpha virt. eigenvalues --    5.83435   5.87186   5.87471   5.89717   5.91013
 Alpha virt. eigenvalues --    5.92591   5.93313   5.93733   5.94104   5.95183
 Alpha virt. eigenvalues --    5.95531   5.97697   5.99187   6.00335   6.01408
 Alpha virt. eigenvalues --    6.02539   6.04011   6.04784   6.06157   6.07447
 Alpha virt. eigenvalues --    6.07542   6.09552   6.10480   6.10742   6.11381
 Alpha virt. eigenvalues --    6.15272   6.15806   6.17346   6.19447   6.21303
 Alpha virt. eigenvalues --    6.22546   6.28425   6.31800   6.37324   6.48104
 Alpha virt. eigenvalues --    6.58349   6.69363   6.93749   7.03407   7.04687
 Alpha virt. eigenvalues --    7.07067   7.12094   7.20691   7.23353   7.26178
 Alpha virt. eigenvalues --    7.37147   7.39686   7.47077   7.55667   7.64205
 Alpha virt. eigenvalues --    7.97609   8.31798  12.07698  12.17035  12.22995
 Alpha virt. eigenvalues --   12.26248  12.43635  12.64585  12.86760  12.89371
 Alpha virt. eigenvalues --   12.94463  13.08351  13.27547  13.30916  13.37424
 Alpha virt. eigenvalues --   13.40871  13.49073  13.50570  13.56924  13.61979
 Alpha virt. eigenvalues --   13.69932  13.74300  13.92473  14.04815  14.31099
          Condensed to atoms (all electrons):
              1          2          3          4          5          6
     1  O    8.120463   0.308738  -0.039425   0.001716   0.008721  -0.022659
     2  C    0.308738   7.408601  -0.727369  -0.009583  -0.043659  -0.730555
     3  C   -0.039425  -0.727369   6.690807   0.046090   0.019950   0.586518
     4  O    0.001716  -0.009583   0.046090   8.143895   0.240287   0.110187
     5  H    0.008721  -0.043659   0.019950   0.240287   0.428714  -0.007634
     6  C   -0.022659  -0.730555   0.586518   0.110187  -0.007634   8.450824
     7  O    0.000387   0.011451  -0.023968  -0.022624   0.000767   0.114587
     8  H   -0.000065   0.003193  -0.033894   0.010621  -0.000527   0.023591
     9  C   -0.091710   0.104377  -0.124003   0.006862  -0.003462   0.217806
    10  O    0.001073   0.020515   0.007350  -0.000018  -0.000001  -0.010074
    11  H    0.000151  -0.001134   0.000841   0.000001   0.000000   0.000755
    12  C   -0.090522  -1.350844   0.039187   0.032397   0.012147   0.235075
    13  O    0.005252  -0.023837  -0.005645  -0.004055   0.000106  -0.008829
    14  C    0.006686   0.600815  -0.472404  -0.053344   0.010411  -2.303486
    15  O   -0.000153  -0.009451   0.016579   0.000297   0.000007  -0.088400
    16  C    0.001989   0.187351  -0.127220  -0.002363   0.000443  -0.208917
    17  C   -0.000919  -0.066544  -0.002187   0.000096   0.000051  -0.009407
    18  O    0.000062  -0.003889  -0.001181  -0.000012   0.000000   0.028258
    19  H   -0.000057   0.002663   0.001279   0.000006   0.000000  -0.013793
    20  C    0.000104   0.011752  -0.005867  -0.000071   0.000002   0.061789
    21  O    0.000000   0.000047   0.000002   0.000000   0.000000  -0.000170
    22  H    0.000000  -0.000019   0.000018   0.000000   0.000000   0.000121
    23  C    0.000016   0.009357  -0.010581  -0.000177  -0.000011  -0.062406
    24  O    0.000000  -0.000100   0.000066   0.000001   0.000000   0.004596
    25  H    0.000000  -0.000005   0.000004   0.000000   0.000000   0.001081
    26  C    0.000179   0.002002  -0.002531   0.001057  -0.000005  -0.302754
    27  O    0.000000   0.000194   0.000008   0.000001   0.000000  -0.002655
    28  C   -0.000007  -0.001679  -0.000106   0.000008   0.000000  -0.014340
    29  O    0.000000  -0.000002   0.000007   0.000000   0.000000  -0.000145
    30  H    0.000000   0.000000   0.000000   0.000000   0.000000   0.000013
    31  H    0.000000   0.000007   0.000000   0.000000   0.000000  -0.000088
    32  H    0.000000   0.000327  -0.000218   0.000000   0.000000   0.001061
    33  H    0.000000   0.000348   0.000217   0.000000   0.000000   0.010522
    34  H    0.000000  -0.001554   0.005378   0.000007   0.000000   0.013202
    35  H    0.000000  -0.000186   0.000314   0.000000   0.000000  -0.001757
    36  H    0.000000   0.000095   0.000826  -0.000002   0.000000  -0.020367
    37  H    0.000000  -0.000086  -0.000397  -0.000002   0.000000   0.005462
    38  H    0.267201   0.015374  -0.028214  -0.000190  -0.000491  -0.004734
    39  H    0.000654   0.066095  -0.005860   0.000037  -0.000001   0.010945
    40  H   -0.013138  -0.006664  -0.006911  -0.000046   0.000000  -0.004635
    41  H    0.003871   0.131566  -0.078635   0.000282   0.000000  -0.035855
    42  H   -0.024503   0.328778  -0.088348   0.005762  -0.000546   0.003744
    43  H    0.000952  -0.029658   0.281194  -0.017120  -0.005517  -0.094653
    44  H   -0.000095  -0.004922  -0.056713  -0.001451  -0.000038   0.373249
    45  H    0.000338  -0.015156  -0.018641   0.000205   0.000011  -0.034596
              7          8          9         10         11         12
     1  O    0.000387  -0.000065  -0.091710   0.001073   0.000151  -0.090522
     2  C    0.011451   0.003193   0.104377   0.020515  -0.001134  -1.350844
     3  C   -0.023968  -0.033894  -0.124003   0.007350   0.000841   0.039187
     4  O   -0.022624   0.010621   0.006862  -0.000018   0.000001   0.032397
     5  H    0.000767  -0.000527  -0.003462  -0.000001   0.000000   0.012147
     6  C    0.114587   0.023591   0.217806  -0.010074   0.000755   0.235075
     7  O    8.101775   0.235168  -0.001724  -0.000011   0.000000   0.000793
     8  H    0.235168   0.415133   0.000477   0.000000   0.000000   0.000520
     9  C   -0.001724   0.000477   6.802897   0.175629  -0.037469  -1.085449
    10  O   -0.000011   0.000000   0.175629   8.125538   0.234348  -0.075099
    11  H    0.000000   0.000000  -0.037469   0.234348   0.441645   0.029062
    12  C    0.000793   0.000520  -1.085449  -0.075099   0.029062   9.236076
    13  O    0.004387  -0.000688  -0.028867   0.006524   0.000318   0.138118
    14  C    0.051533  -0.001158  -0.504631   0.000830   0.000112  -0.857550
    15  O   -0.005486   0.001434  -0.001675  -0.000767   0.000012  -0.034425
    16  C   -0.005127  -0.003015  -0.070364   0.012801  -0.000321   0.035393
    17  C   -0.001809  -0.000257   0.006178  -0.004392  -0.000232  -0.229252
    18  O    0.000296  -0.000006  -0.005583  -0.002200   0.000515   0.019595
    19  H   -0.000059   0.000000  -0.007292   0.007099  -0.000164  -0.000978
    20  C    0.001391  -0.000093   0.002772  -0.001767  -0.000053  -0.031530
    21  O    0.000000   0.000000  -0.000139  -0.000016  -0.000001   0.001252
    22  H    0.000000   0.000000   0.000000  -0.000001   0.000000  -0.000233
    23  C   -0.002637   0.000317  -0.001249   0.000062   0.000000   0.007647
    24  O    0.000379  -0.000002  -0.000003   0.000000   0.000000  -0.000260
    25  H    0.000008   0.000000   0.000001   0.000000   0.000000   0.000007
    26  C    0.000628  -0.000174   0.009203   0.000432  -0.000016  -0.043178
    27  O   -0.000020   0.000001  -0.000091   0.000002   0.000000  -0.000409
    28  C    0.000028   0.000005  -0.001743   0.000202   0.000002   0.012865
    29  O   -0.000001   0.000000  -0.000002   0.000000   0.000000   0.000110
    30  H    0.000000   0.000000   0.000000   0.000000   0.000000  -0.000001
    31  H    0.000002   0.000000  -0.000005   0.000001   0.000000   0.000151
    32  H    0.000016   0.000000  -0.000200  -0.000004   0.000000   0.000726
    33  H   -0.000002   0.000000  -0.000695   0.000025   0.000000  -0.001635
    34  H   -0.001193  -0.000005  -0.000638   0.000000   0.000000  -0.001656
    35  H   -0.000084   0.000000   0.000064   0.000001   0.000000   0.000859
    36  H   -0.000767  -0.000003   0.000009   0.000000   0.000000   0.000918
    37  H   -0.001244  -0.000003   0.000056   0.000000   0.000000   0.001175
    38  H   -0.000017   0.000000   0.006824  -0.000047  -0.000004   0.004218
    39  H    0.000000   0.000000   0.586379  -0.040453  -0.001384  -0.328996
    40  H   -0.000004   0.000000   0.395016  -0.027415  -0.009838   0.000493
    41  H    0.000322   0.000000   0.075113   0.002288  -0.000064   0.014819
    42  H    0.000681  -0.000003  -0.027895   0.000448   0.000004   0.006484
    43  H    0.006945  -0.000573   0.006306   0.000021   0.000000   0.047682
    44  H   -0.028101  -0.004181   0.014284  -0.000021   0.000000   0.065262
    45  H    0.001138  -0.000425   0.021957  -0.000274   0.000000   0.066241
             13         14         15         16         17         18
     1  O    0.005252   0.006686  -0.000153   0.001989  -0.000919   0.000062
     2  C   -0.023837   0.600815  -0.009451   0.187351  -0.066544  -0.003889
     3  C   -0.005645  -0.472404   0.016579  -0.127220  -0.002187  -0.001181
     4  O   -0.004055  -0.053344   0.000297  -0.002363   0.000096  -0.000012
     5  H    0.000106   0.010411   0.000007   0.000443   0.000051   0.000000
     6  C   -0.008829  -2.303486  -0.088400  -0.208917  -0.009407   0.028258
     7  O    0.004387   0.051533  -0.005486  -0.005127  -0.001809   0.000296
     8  H   -0.000688  -0.001158   0.001434  -0.003015  -0.000257  -0.000006
     9  C   -0.028867  -0.504631  -0.001675  -0.070364   0.006178  -0.005583
    10  O    0.006524   0.000830  -0.000767   0.012801  -0.004392  -0.002200
    11  H    0.000318   0.000112   0.000012  -0.000321  -0.000232   0.000515
    12  C    0.138118  -0.857550  -0.034425   0.035393  -0.229252   0.019595
    13  O    7.867518   0.229834  -0.034228  -0.012414   0.008054  -0.026090
    14  C    0.229834   9.866712   0.248450  -0.479502  -0.020557   0.063284
    15  O   -0.034228   0.248450   7.838338   0.153122  -0.018797  -0.015458
    16  C   -0.012414  -0.479502   0.153122  13.941686  -2.432724  -0.095995
    17  C    0.008054  -0.020557  -0.018797  -2.432724   8.680249   0.180380
    18  O   -0.026090   0.063284  -0.015458  -0.095995   0.180380   8.116900
    19  H    0.021846  -0.018992   0.003916  -0.028272   0.039722   0.253536
    20  C   -0.012924  -0.200519  -0.010460  -1.490529   0.213895  -0.019993
    21  O    0.000105  -0.002890   0.000193   0.002353  -0.145620   0.004537
    22  H   -0.000011   0.003314   0.000047  -0.016663  -0.011724   0.001436
    23  C    0.004055   0.199687  -0.080543   0.436883  -0.348768   0.010918
    24  O   -0.000074  -0.006918   0.000277  -0.062214   0.008163   0.000024
    25  H   -0.000001   0.000721  -0.000490   0.069065   0.003487   0.000007
    26  C   -0.027645  -0.985162   0.128442  -5.134559   0.544226  -0.024834
    27  O   -0.000006  -0.011307   0.003097  -0.056783   0.003536  -0.001736
    28  C    0.001556   0.045896   0.008986   0.885148  -0.374009  -0.008785
    29  O    0.000021   0.001750  -0.000020   0.009271   0.008785   0.000478
    30  H    0.000000   0.000309   0.000008   0.009920  -0.000453  -0.000010
    31  H    0.000037  -0.000238   0.000489   0.045014  -0.053017   0.003016
    32  H   -0.000052  -0.018756   0.000850   0.115596  -0.241014   0.007991
    33  H   -0.000886   0.004057  -0.002031  -0.103825   0.253707  -0.008298
    34  H   -0.003230  -0.034480  -0.030331   0.115601   0.024092   0.001510
    35  H   -0.000141   0.040595  -0.004443   0.154197  -0.031152   0.000324
    36  H    0.000203   0.027072  -0.005225  -0.049595  -0.005562  -0.000062
    37  H    0.000172   0.048490  -0.005860   0.208853  -0.014859   0.000271
    38  H   -0.000752   0.000112   0.000009   0.000085  -0.000006  -0.000001
    39  H    0.003450   0.009513   0.000227  -0.001524   0.001507   0.000014
    40  H    0.000038   0.001994  -0.000097   0.000270   0.000069  -0.000241
    41  H   -0.022594   0.140705   0.000570   0.009798   0.009491  -0.001014
    42  H    0.000630   0.058241  -0.000894  -0.004168   0.001500  -0.000025
    43  H    0.001613   0.058028  -0.000013  -0.007588   0.001192   0.000040
    44  H    0.007504  -0.072155  -0.007494  -0.023228  -0.001991   0.000093
    45  H   -0.022775   0.219009  -0.020172   0.034776  -0.002931  -0.001442
             19         20         21         22         23         24
     1  O   -0.000057   0.000104   0.000000   0.000000   0.000016   0.000000
     2  C    0.002663   0.011752   0.000047  -0.000019   0.009357  -0.000100
     3  C    0.001279  -0.005867   0.000002   0.000018  -0.010581   0.000066
     4  O    0.000006  -0.000071   0.000000   0.000000  -0.000177   0.000001
     5  H    0.000000   0.000002   0.000000   0.000000  -0.000011   0.000000
     6  C   -0.013793   0.061789  -0.000170   0.000121  -0.062406   0.004596
     7  O   -0.000059   0.001391   0.000000   0.000000  -0.002637   0.000379
     8  H    0.000000  -0.000093   0.000000   0.000000   0.000317  -0.000002
     9  C   -0.007292   0.002772  -0.000139   0.000000  -0.001249  -0.000003
    10  O    0.007099  -0.001767  -0.000016  -0.000001   0.000062   0.000000
    11  H   -0.000164  -0.000053  -0.000001   0.000000   0.000000   0.000000
    12  C   -0.000978  -0.031530   0.001252  -0.000233   0.007647  -0.000260
    13  O    0.021846  -0.012924   0.000105  -0.000011   0.004055  -0.000074
    14  C   -0.018992  -0.200519  -0.002890   0.003314   0.199687  -0.006918
    15  O    0.003916  -0.010460   0.000193   0.000047  -0.080543   0.000277
    16  C   -0.028272  -1.490529   0.002353  -0.016663   0.436883  -0.062214
    17  C    0.039722   0.213895  -0.145620  -0.011724  -0.348768   0.008163
    18  O    0.253536  -0.019993   0.004537   0.001436   0.010918   0.000024
    19  H    0.346206  -0.006702   0.000470  -0.000083  -0.002227   0.000001
    20  C   -0.006702   6.774009   0.375988   0.016480  -0.042352   0.002930
    21  O    0.000470   0.375988   8.035600   0.251135   0.002419  -0.000106
    22  H   -0.000083   0.016480   0.251135   0.411529  -0.000487   0.000001
    23  C   -0.002227  -0.042352   0.002419  -0.000487   6.013846   0.162213
    24  O    0.000001   0.002930  -0.000106   0.000001   0.162213   8.025258
    25  H    0.000000  -0.004309   0.000001   0.000000  -0.011931   0.259422
    26  C    0.006911   0.819899   0.027208  -0.004020  -1.000296   0.104498
    27  O    0.000068   0.017824  -0.001539   0.000107  -0.063371  -0.011568
    28  C    0.005000  -0.443409  -0.117383   0.010766   0.043216  -0.012992
    29  O   -0.000001  -0.108044  -0.013093  -0.000118   0.007346  -0.000074
    30  H    0.000000   0.027957  -0.001253   0.000020  -0.001858   0.000062
    31  H    0.000007  -0.148894   0.006571  -0.000231   0.017157  -0.000433
    32  H   -0.000080   0.335609  -0.015323  -0.009926   0.018552  -0.000208
    33  H   -0.005166   0.063652  -0.000252  -0.000034   0.005623   0.000101
    34  H   -0.000061   0.056518  -0.000215   0.000022  -0.050532   0.002043
    35  H    0.000015  -0.040620   0.000121   0.000000   0.025638  -0.002637
    36  H    0.000000   0.002018  -0.000006   0.000000   0.389383  -0.034456
    37  H   -0.000001  -0.010399   0.000015   0.000000   0.546053  -0.038557
    38  H    0.000000  -0.000001   0.000000   0.000000  -0.000001   0.000000
    39  H   -0.000017   0.000079   0.000000   0.000000  -0.000014   0.000000
    40  H    0.000091  -0.000062   0.000000   0.000000   0.000002   0.000000
    41  H   -0.000158   0.000709  -0.000001   0.000000   0.000037   0.000000
    42  H   -0.000003   0.000003   0.000000   0.000000   0.000151   0.000000
    43  H   -0.000001  -0.000007   0.000000   0.000000   0.000519   0.000000
    44  H   -0.000006   0.000383   0.000000   0.000000   0.002094  -0.000008
    45  H   -0.000127   0.011225   0.000031   0.000000  -0.003688   0.000020
             25         26         27         28         29         30
     1  O    0.000000   0.000179   0.000000  -0.000007   0.000000   0.000000
     2  C   -0.000005   0.002002   0.000194  -0.001679  -0.000002   0.000000
     3  C    0.000004  -0.002531   0.000008  -0.000106   0.000007   0.000000
     4  O    0.000000   0.001057   0.000001   0.000008   0.000000   0.000000
     5  H    0.000000  -0.000005   0.000000   0.000000   0.000000   0.000000
     6  C    0.001081  -0.302754  -0.002655  -0.014340  -0.000145   0.000013
     7  O    0.000008   0.000628  -0.000020   0.000028  -0.000001   0.000000
     8  H    0.000000  -0.000174   0.000001   0.000005   0.000000   0.000000
     9  C    0.000001   0.009203  -0.000091  -0.001743  -0.000002   0.000000
    10  O    0.000000   0.000432   0.000002   0.000202   0.000000   0.000000
    11  H    0.000000  -0.000016   0.000000   0.000002   0.000000   0.000000
    12  C    0.000007  -0.043178  -0.000409   0.012865   0.000110  -0.000001
    13  O   -0.000001  -0.027645  -0.000006   0.001556   0.000021   0.000000
    14  C    0.000721  -0.985162  -0.011307   0.045896   0.001750   0.000309
    15  O   -0.000490   0.128442   0.003097   0.008986  -0.000020   0.000008
    16  C    0.069065  -5.134559  -0.056783   0.885148   0.009271   0.009920
    17  C    0.003487   0.544226   0.003536  -0.374009   0.008785  -0.000453
    18  O    0.000007  -0.024834  -0.001736  -0.008785   0.000478  -0.000010
    19  H    0.000000   0.006911   0.000068   0.005000  -0.000001   0.000000
    20  C   -0.004309   0.819899   0.017824  -0.443409  -0.108044   0.027957
    21  O    0.000001   0.027208  -0.001539  -0.117383  -0.013093  -0.001253
    22  H    0.000000  -0.004020   0.000107   0.010766  -0.000118   0.000020
    23  C   -0.011931  -1.000296  -0.063371   0.043216   0.007346  -0.001858
    24  O    0.259422   0.104498  -0.011568  -0.012992  -0.000074   0.000062
    25  H    0.437188  -0.076272  -0.004936  -0.002213   0.000202   0.000000
    26  C   -0.076272  12.781354   0.243804  -0.763302  -0.024060  -0.014062
    27  O   -0.004936   0.243804   7.902711   0.125808  -0.030328   0.003685
    28  C   -0.002213  -0.763302   0.125808   5.715300   0.356298  -0.033137
    29  O    0.000202  -0.024060  -0.030328   0.356298   7.990707   0.261093
    30  H    0.000000  -0.014062   0.003685  -0.033137   0.261093   0.421995
    31  H    0.000012   0.031904  -0.058135   0.424507  -0.022926  -0.008800
    32  H    0.000000   0.028878  -0.004656   0.021239   0.000471  -0.000110
    33  H   -0.000004   0.054851   0.003006  -0.030351   0.000249   0.000009
    34  H   -0.000009   0.149092   0.001046  -0.005664  -0.000539   0.000003
    35  H    0.002859   0.087489  -0.039208   0.047449   0.000093  -0.000006
    36  H   -0.004508   0.019753   0.001730   0.001821  -0.000006   0.000000
    37  H    0.006004  -0.432046   0.005107   0.005874   0.000097   0.000000
    38  H    0.000000   0.000001   0.000000   0.000000   0.000000   0.000000
    39  H    0.000000   0.000132   0.000000  -0.000010   0.000000   0.000000
    40  H    0.000000  -0.000006   0.000000   0.000000   0.000000   0.000000
    41  H    0.000000   0.001871   0.000002  -0.000133   0.000000   0.000000
    42  H    0.000000  -0.000343   0.000000  -0.000004   0.000000   0.000000
    43  H    0.000000  -0.000804   0.000000   0.000002   0.000000   0.000000
    44  H    0.000000  -0.001896   0.000002  -0.000007   0.000000   0.000000
    45  H    0.000000   0.034244   0.000261   0.000183  -0.000003   0.000000
             31         32         33         34         35         36
     1  O    0.000000   0.000000   0.000000   0.000000   0.000000   0.000000
     2  C    0.000007   0.000327   0.000348  -0.001554  -0.000186   0.000095
     3  C    0.000000  -0.000218   0.000217   0.005378   0.000314   0.000826
     4  O    0.000000   0.000000   0.000000   0.000007   0.000000  -0.000002
     5  H    0.000000   0.000000   0.000000   0.000000   0.000000   0.000000
     6  C   -0.000088   0.001061   0.010522   0.013202  -0.001757  -0.020367
     7  O    0.000002   0.000016  -0.000002  -0.001193  -0.000084  -0.000767
     8  H    0.000000   0.000000   0.000000  -0.000005   0.000000  -0.000003
     9  C   -0.000005  -0.000200  -0.000695  -0.000638   0.000064   0.000009
    10  O    0.000001  -0.000004   0.000025   0.000000   0.000001   0.000000
    11  H    0.000000   0.000000   0.000000   0.000000   0.000000   0.000000
    12  C    0.000151   0.000726  -0.001635  -0.001656   0.000859   0.000918
    13  O    0.000037  -0.000052  -0.000886  -0.003230  -0.000141   0.000203
    14  C   -0.000238  -0.018756   0.004057  -0.034480   0.040595   0.027072
    15  O    0.000489   0.000850  -0.002031  -0.030331  -0.004443  -0.005225
    16  C    0.045014   0.115596  -0.103825   0.115601   0.154197  -0.049595
    17  C   -0.053017  -0.241014   0.253707   0.024092  -0.031152  -0.005562
    18  O    0.003016   0.007991  -0.008298   0.001510   0.000324  -0.000062
    19  H    0.000007  -0.000080  -0.005166  -0.000061   0.000015   0.000000
    20  C   -0.148894   0.335609   0.063652   0.056518  -0.040620   0.002018
    21  O    0.006571  -0.015323  -0.000252  -0.000215   0.000121  -0.000006
    22  H   -0.000231  -0.009926  -0.000034   0.000022   0.000000   0.000000
    23  C    0.017157   0.018552   0.005623  -0.050532   0.025638   0.389383
    24  O   -0.000433  -0.000208   0.000101   0.002043  -0.002637  -0.034456
    25  H    0.000012   0.000000  -0.000004  -0.000009   0.002859  -0.004508
    26  C    0.031904   0.028878   0.054851   0.149092   0.087489   0.019753
    27  O   -0.058135  -0.004656   0.003006   0.001046  -0.039208   0.001730
    28  C    0.424507   0.021239  -0.030351  -0.005664   0.047449   0.001821
    29  O   -0.022926   0.000471   0.000249  -0.000539   0.000093  -0.000006
    30  H   -0.008800  -0.000110   0.000009   0.000003  -0.000006   0.000000
    31  H    0.644951   0.006749   0.002943  -0.000032   0.003796   0.000003
    32  H    0.006749   0.617330   0.006191   0.002562  -0.000097  -0.000001
    33  H    0.002943   0.006191   0.614100   0.006340   0.001598  -0.000013
    34  H   -0.000032   0.002562   0.006340   0.623174   0.005761   0.000195
    35  H    0.003796  -0.000097   0.001598   0.005761   0.625631  -0.004944
    36  H    0.000003  -0.000001  -0.000013   0.000195  -0.004944   0.556734
    37  H    0.000000  -0.000055  -0.000012   0.004615   0.005847  -0.039353
    38  H    0.000000   0.000000   0.000000   0.000000   0.000000   0.000000
    39  H    0.000000   0.000000   0.000000   0.000000   0.000000   0.000000
    40  H    0.000000   0.000000   0.000000   0.000000   0.000000   0.000000
    41  H    0.000000   0.000000  -0.000003  -0.000024   0.000000   0.000000
    42  H    0.000000   0.000000   0.000000   0.000000   0.000000   0.000000
    43  H    0.000000   0.000000   0.000000  -0.000003   0.000000   0.000000
    44  H    0.000000   0.000000  -0.000001  -0.000002  -0.000001   0.000016
    45  H    0.000000   0.000002  -0.000024   0.005855   0.000000  -0.000010
             37         38         39         40         41         42
[...]
 2761,-0.00008135,-0.00004320,-0.00000027,-0.01579540,0.00575234,0.0044
 8039,0.00241295,-0.00011113,-0.00129307,-0.00009470,-0.00006111,0.0000
 4189,0.00006686,-0.00001078,-0.00000697,-0.00003061,0.00002530,0.00001
 715,0.00000578,0.00000016,-0.00000474,0.00006270,-0.00001604,-0.000039
 32,-0.00007903,0.00000621,0.00004760,-0.00001335,0.00000222,0.00000388
 ,0.00001169,-0.00000084,-0.00000700,-0.00000750,0.00000396,-0.00000015
 ,-0.00000396,0.00000570,0.00000390,0.00000065,-0.00000460,-0.00000747,
 -0.00000016,0.00000053,0.00000168,-0.00000662,0.00000243,0.00000413,0.
 00001034,-0.00000095,-0.00001031,-0.00000683,-0.00000014,0.00000778,0.
 00000437,-0.00000285,-0.00000857,-0.00000045,0.00000079,0.00000128,0.0
 0000301,-0.00000057,0.00000098,0.00000283,-0.00000331,-0.00000227,0.00
 000688,-0.00000084,0.00001050,0.00000500,-0.00000645,-0.00000395,0.000
 00336,-0.00000154,0.00000300,0.00000330,0.00000096,-0.00000074,0.00000
 087,-0.00000030,0.00000001,0.00070824,-0.00037567,-0.00007265,0.000716
 70,-0.00117611,-0.00026777,0.00019352,0.00009186,0.00002897,-0.0003138
 1,-0.00139405,0.00178115,0.31666104,-0.00805635,0.00404993,-0.00197578
 ,0.12085424,-0.10018558,-0.02159163,0.03118353,-0.01965019,-0.00853292
 ,-0.00042438,0.00517121,0.00059503,0.00025639,-0.00062111,0.00022250,0
 .00148743,0.00026760,0.00126983,-0.00094763,-0.00011875,-0.00038731,0.
 00024306,-0.00000746,-0.00003344,-0.00186168,0.00081475,0.00063113,0.0
 0039845,0.00001246,-0.00025322,-0.00005028,-0.00000267,-0.00003062,-0.
 01548722,0.00662780,0.00476304,0.00004850,0.00031754,-0.00190362,-0.00
 001964,-0.00044446,0.00009537,0.00002770,0.00005803,-0.00014726,-0.000
 04255,0.00001647,0.00003470,0.00000066,-0.00002265,-0.00001407,0.00004
 523,0.00000004,0.00000019,-0.00005876,0.00001821,0.00000322,-0.0000031
 5,0.00000105,0.00000990,0.00000853,0.00000754,-0.00000834,-0.00000271,
 -0.00000017,0.00000003,0.00001600,0.00000498,0.00001666,-0.00001225,-0
 .00000646,-0.00001649,0.00000386,0.00000157,-0.00000079,0.00001276,0.0
 0000215,0.00000635,-0.00000026,0.00000659,-0.00001857,-0.00000401,-0.0
 0001151,0.00001566,0.00000262,0.00000188,-0.00001088,0.00000053,-0.000
 00124,0.00000283,-0.00000075,0.00000200,-0.00000042,-0.00000152,-0.000
 00024,-0.00000140,0.00000297,0.00000430,0.00000307,-0.00000354,-0.0000
 0226,0.00000538,-0.00000348,0.00000350,-0.00000429,0.00000675,-0.00000
 276,0.00000129,-0.00000795,0.00000227,0.00000520,-0.00033087,0.0013417
 7,0.00082933,0.00010491,0.00002502,0.00009799,-0.00008294,-0.00008461,
 -0.00010247,-0.00144858,-0.00127620,0.00223223,-0.12373510,0.10910750,
 -0.03980621,0.00795741,-0.01083391,0.05144082,-0.02426092,-0.05155149,
 0.00860575,-0.00242155,0.00088873,-0.00126056,0.00050729,0.00052202,-0
 .00022990,0.00005438,-0.00009494,0.00054320,0.00026671,0.00032188,-0.0
 0021043,0.00014822,0.00002018,0.00005198,-0.00000011,0.00005006,-0.000
 07475,-0.00182412,0.00037807,-0.00033674,0.00003542,0.00009461,-0.0000
 3718,0.00001420,0.00001030,0.02510456,-0.00957846,-0.00612249,-0.00059
 228,0.00002128,0.00246212,0.00027565,-0.00046994,-0.00016344,-0.000034
 93,0.00004394,-0.00013792,-0.00002237,-0.00002911,0.00000141,0.0000481
 9,0.00002703,0.00004767,-0.00011067,0.00001763,-0.00007111,0.00013132,
 -0.00005088,0.00001937,-0.00000849,-0.00000904,0.00000537,0.00000377,0
 .00000977,-0.00001262,-0.00000341,-0.00000536,0.00000946,0.00001528,0.
 00000879,0.00000377,-0.00001212,-0.00001104,-0.00000965,0.00000437,0.0
 0000207,-0.00000104,0.00002121,-0.00000308,0.00001174,-0.00001036,0.00
 000116,-0.00001493,0.00000969,-0.00000050,0.00002079,-0.00000118,-0.00
 000103,-0.00001855,0.00000141,-0.00000195,0.00000282,-0.00000346,0.000
 00055,-0.00000302,-0.00000493,0.00000498,0.00000459,-0.00001740,-0.000
 00044,-0.00002185,-0.00000556,0.00000931,0.00001208,-0.00000686,0.0000
 0221,-0.00000670,-0.00000010,-0.00000206,0.00000025,-0.00000334,0.0000
 0281,0.00000208,-0.00207365,0.00126686,0.00341819,-0.00031659,0.000621
 85,0.00036842,0.00002228,0.00029188,-0.00004779,0.00139232,0.00262201,
 -0.00368186,-0.04145698,0.02622315,0.06420035,0.00100035,0.00034013,0.
 00095940,0.00335732,-0.00253420,-0.00144270,-0.26915022,0.13654363,-0.
 02122055,-0.02751297,0.00092651,0.00995521,0.00023728,-0.00046443,-0.0
 0055470,-0.01132725,0.00779528,-0.00300512,0.00213651,-0.00070537,0.00
 132519,-0.00077754,-0.00004403,0.00000116,0.00035953,-0.00002974,-0.00
 032521,-0.00003700,0.00007616,0.00009823,0.00001572,0.00003060,-0.0000
 1780,0.00019715,0.00102321,-0.00005758,0.00029926,-0.00016706,0.000245
 63,-0.00107343,-0.00051822,0.00038818,0.00036807,-0.00005813,-0.000328
 74,-0.00005673,0.00009782,-0.00003025,-0.00000367,-0.00002735,-0.00006
 286,0.00002779,-0.00000585,0.00005011,-0.00001245,0.00001327,-0.000016
 17,-0.00000897,0.00001972,0.00000263,0.00000881,-0.00000204,0.00000120
 ,-0.00000144,0.00000379,-0.00000515,-0.00003786,0.00000975,-0.00000112
 ,0.00002009,-0.00000071,0.00000497,-0.00000533,-0.00000268,0.00000551,
 0.00000375,0.00000716,0.00000117,0.00001325,-0.00000406,-0.00000779,-0
 .00001109,-0.00000227,-0.00000578,0.00000375,-0.00000084,0.00000631,-0
 .00000106,0.00000143,-0.00000137,0.00000342,-0.00000103,0.00000186,0.0
 0000481,-0.00000359,-0.00000237,0.00000526,-0.00000477,0.00000687,0.00
 001412,-0.00000750,-0.00002372,0.00000513,-0.00000648,0.00000809,0.000
 00152,0.00000510,0.00000047,0.00001059,-0.00000275,-0.00000737,0.00002
 942,-0.00008965,-0.00006501,-0.00012791,-0.00014985,0.00003461,0.00000
 354,0.00001169,0.00000366,0.00032303,0.00001077,-0.00019950,0.00038511
 ,-0.00142889,-0.00072317,0.30085624,-0.00147784,0.00385615,0.00066211,
 0.03035111,-0.01967844,0.00288636,0.13899752,-0.12392259,0.01155178,-0
 .02238430,0.00761204,0.00362371,0.00037918,0.00060745,-0.00111087,-0.0
 0271986,0.00167876,-0.00212276,-0.00040723,0.00120198,0.00095337,-0.00
 034210,0.00003219,0.00006142,-0.00002534,-0.00004494,0.00001154,-0.000
 27587,-0.00016920,0.00008399,0.00002094,-0.00001550,0.00001106,0.00181
 907,0.00101678,-0.00132581,-0.00051410,0.00003973,0.00033490,0.0006774
 8,-0.00044687,-0.00021189,-0.00011156,0.00005444,-0.00004290,0.0000265
 0,-0.00000028,0.00000535,-0.00001092,-0.00001487,-0.00001688,-0.000028
 23,0.00002921,0.00003496,0.00004160,-0.00000323,-0.00005739,0.00001142
 ,-0.00000060,0.00000138,-0.00000705,0.00000300,0.00000297,0.00000588,-
 0.00000357,-0.00000120,-0.00000367,0.00000033,-0.00000791,0.00000037,-
 0.00000162,0.00000871,0.00000065,-0.00000002,-0.00000083,0.00000385,0.
 00000731,0.00000109,-0.00000850,-0.00000425,0.00000328,0.00000389,0.00
 000092,-0.00000346,-0.00000271,0.00000127,0.00000675,0.00000008,0.0000
 0009,-0.00000100,-0.00000218,0.00000007,-0.00000104,-0.00000237,0.0000
 0274,0.00000189,-0.00000221,0.00000288,-0.00000364,-0.00000161,0.00000
 713,0.00000571,-0.00000320,-0.00000155,-0.00000229,-0.00000560,0.00000
 234,-0.00000125,0.00000750,0.00000190,-0.00000458,0.00001550,0.0001897
 8,0.00025469,-0.00023534,0.00023044,0.00016059,-0.00005035,-0.00002265
 ,-0.00003047,-0.00086667,-0.00017244,0.00063628,-0.00114402,-0.0054816
 2,-0.00151754,-0.14076636,0.13316963,0.00075972,0.00174365,0.00100446,
 0.00631792,-0.00815275,0.00232922,-0.02456535,0.01109535,-0.04438490,0
 .02981109,-0.00356154,-0.00431693,0.00085775,-0.00089464,0.00119688,-0
 .03018905,0.01687946,-0.00325853,0.00317299,0.00021640,0.00315005,-0.0
 0044935,-0.00031690,-0.00019657,-0.00002479,-0.00003145,0.00019915,-0.
 00006038,-0.00009644,-0.00002414,-0.00000410,-0.00001981,0.00001846,-0
 .00054980,-0.00019672,-0.00051919,0.00037615,0.00039676,-0.00043271,-0
 .00154189,-0.00045394,0.00176329,0.00043697,-0.00012623,-0.00049649,-0
 .00001607,0.00008211,0.00008370,0.00002079,-0.00003046,-0.00005946,0.0
 0003938,0.00000956,0.00000074,-0.00004218,-0.00002698,0.00001930,-0.00
 002201,0.00001634,0.00001331,0.00002218,0.00001184,-0.00001541,-0.0000
 0577,0.00000109,-0.00000081,-0.00003635,0.00003374,0.00002269,0.000005
 24,-0.00002733,-0.00001900,0.00000289,0.00000352,0.00000751,0.00001616
 ,0.00001007,0.00003185,0.00001115,-0.00000270,-0.00003928,-0.00000913,
 -0.00001078,0.00002325,0.00000682,-0.00000183,-0.00001724,-0.00000038,
 -0.00000006,0.00000288,0.00000187,0.00000010,0.00000018,0.00000283,-0.
 00000071,-0.00000163,0.00000127,-0.00000357,0.00000490,0.00003123,-0.0
 0000608,-0.00004847,0.00000046,-0.00000865,0.00000692,0.00000722,0.000
 01514,0.00000255,0.00001447,0.00000026,-0.00001084,0.00013139,0.000043
 54,-0.00000168,-0.00001129,0.00004424,0.00001609,-0.00001737,0.0000036
 5,-0.00001037,-0.00002540,0.00020372,0.00009589,0.00013966,-0.00155802
 ,-0.00011169,0.01683745,-0.01454880,0.04965624,0.00031087,-0.00034732,
 -0.00018077,-0.00045504,0.00136240,0.00016406,-0.01658256,0.00281637,-
 0.00085875,0.00194488,-0.00065906,0.00229167,0.00062312,-0.00019548,0.
 00048022,-0.33471121,0.08093162,0.00895844,0.00660656,0.00394805,0.001
 37242,0.00046406,0.00048178,0.00035424,-0.00003040,0.00003411,0.000100
 33,0.00003702,-0.00000786,-0.00003155,-0.00001417,-0.00000763,0.000005
 39,-0.00031026,-0.00008139,-0.00026123,0.00212910,-0.00002921,-0.00068
 114,-0.01810239,0.00421980,0.00174053,0.00153920,-0.00002281,-0.001338
 16,0.00012785,0.00017636,0.00014309,0.00006620,-0.00002196,-0.00015774
 ,0.00006915,-0.00009862,-0.00001003,-0.00007262,-0.00000702,0.00008727
 ,-0.00002314,0.00005031,0.00002334,0.00002571,0.00000159,-0.00002322,-
 0.00000683,0.00000518,-0.00000220,-0.00004819,0.00002875,-0.00000102,0
 .00000878,-0.00003095,0.00000157,0.00000413,0.00000553,0.00000425,0.00
 001092,0.00000756,0.00004622,-0.00000003,-0.00002200,-0.00002751,-0.00
 000321,0.00000751,0.00001362,0.00000364,-0.00000770,-0.00000882,-0.000
 00026,0.00000270,0.00000059,0.00000434,-0.00000213,0.00000199,0.000008
 91,-0.00000596,-0.00000288,0.00000373,-0.00001501,0.00002056,0.0000890
 1,-0.00002834,-0.00020027,0.00000738,-0.00001039,0.00001741,0.00000857
 ,0.00002545,-0.00000758,0.00002293,-0.00000670,-0.00001728,-0.00006268
 ,-0.00005249,-0.00005762,0.00001834,-0.00005378,-0.00002424,0.00001571
 ,0.00001778,0.00000339,0.00022107,0.00006983,0.00004425,0.00027477,-0.
 00060422,-0.00012264,-0.00009746,-0.00080259,-0.00201325,0.35600688,0.
 00013744,0.00017944,0.00013776,-0.00013932,-0.00023126,0.00063027,-0.0
 0180824,0.00397828,0.00104372,0.00052313,0.00001429,0.00008231,-0.0002
 1125,0.00002356,-0.00012916,0.07900901,-0.06084124,0.00146728,0.032210
 15,-0.03155727,-0.01340359,0.00117630,0.00049322,-0.00083837,-0.000029
 28,0.00007321,0.00003668,-0.00000054,-0.00004238,-0.00000749,0.0000010
 2,-0.00000083,0.00000421,-0.00024850,-0.00005895,-0.00021414,0.0004703
 0,0.00160670,-0.00003822,-0.02146856,0.00489101,0.00150729,0.00101493,
 0.00037180,-0.00133064,-0.00004242,0.00025262,-0.00007783,-0.00003963,
 -0.00005647,-0.00021395,0.00005735,-0.00015720,0.00018567,-0.00005048,
 0.00009642,0.00003437,0.00000328,0.00001873,-0.00000259,0.00000302,0.0
 0000542,0.00001513,0.00000872,0.00000209,-0.00001261,0.00012946,-0.000
 06581,0.00001098,-0.00003321,0.00005499,-0.00001241,-0.00000369,-0.000
 00436,-0.00001615,-0.00001404,-0.00002637,-0.00002643,0.00001137,0.000
 02928,0.00000158,-0.00001747,-0.00003141,-0.00001295,0.00000354,0.0000
 1282,0.00001599,-0.00000097,-0.00000285,0.00000019,0.00000037,0.000004
 47,0.00000188,0.00000584,-0.00000522,-0.00000755,0.00001709,-0.0000058
 7,0.00002310,0.00007759,-0.00009382,0.00000737,0.00001261,0.00002860,0
 .00000482,0.00001314,-0.00002090,-0.00000312,-0.00007323,-0.00000921,0
 .00006430,0.00003566,0.00004028,-0.00000814,0.00001522,-0.00003533,-0.
 00001338,0.00000416,-0.00001378,-0.00000312,0.00016867,0.00000633,0.00
 003151,-0.00012823,0.00010143,-0.00011472,-0.00006924,0.00022226,-0.00
 095679,-0.08955737,0.08310375,0.00040267,-0.00046949,-0.00045051,-0.00
 032887,0.00145262,0.00103471,-0.03317139,0.00738704,-0.00461102,-0.000
 11036,-0.00053900,0.00241103,-0.00003828,-0.00010820,0.00074500,0.0096
 6234,0.00158532,-0.04129291,0.01178934,-0.01419172,-0.00064300,-0.0004
 6447,0.00061688,-0.00027231,-0.00008072,0.00004768,0.00008667,-0.00001
 507,-0.00007083,0.00001438,-0.00000181,0.00000122,0.00000961,-0.000220
 64,-0.00019788,-0.00053842,-0.00175549,-0.00114814,0.00049335,0.026507
 63,-0.00437054,-0.00227639,-0.00094330,-0.00061785,0.00238568,0.000228
 96,-0.00038712,-0.00030219,-0.00002196,0.00008489,0.00029548,-0.000080
 25,0.00013704,-0.00014332,0.00005595,-0.00005787,-0.00004166,0.0000260
 2,-0.00005176,-0.00002888,-0.00004485,-0.00002525,0.00002291,0.0000033
 9,-0.00000397,0.00000805,0.00014718,-0.00007986,-0.00011654,-0.0000336
 1,0.00005634,0.00008158,0.00000002,-0.00000135,-0.00002677,-0.00004475
 ,0.00003147,-0.00005036,-0.00005700,-0.00002113,0.00010025,0.00004442,
 0.00005123,-0.00004131,-0.00002087,-0.00000530,0.00002946,0.00000166,0
 .00000100,-0.00000788,-0.00000447,-0.00000306,-0.00000212,-0.00001174,
 0.00000515,0.00000962,-0.00001553,0.00002567,-0.00002664,-0.00022547,0
 .00011224,0.00006437,-0.00002343,0.00001691,-0.00004589,-0.00004873,-0
 .00005834,-0.00003623,-0.00003796,0.00000411,0.00003582,-0.00006130,-0
 .00012856,-0.00008337,0.00000897,-0.00000849,0.00000472,0.00001204,0.0
 0001616,-0.00001030,0.00000478,-0.00000692,-0.00013737,0.00015550,-0.0
 0050936,-0.00009679,-0.00151412,-0.00052392,-0.00524785,-0.01127972,0.
 00954094,0.05125431,0.00011571,0.00003952,0.00012662,-0.00017397,0.000
 07542,0.00004671,-0.00066435,0.00004871,-0.00047606,0.00041931,-0.0002
 2090,0.00015924,0.00000870,-0.00003384,0.00017911,-0.01342041,0.006037
 01,0.00331619,0.00148210,-0.00003360,-0.00089278,0.00027393,-0.0000380
 1,-0.00013576,0.00079873,-0.00020770,-0.00005818,-0.00002114,-0.000029
 80,0.00005199,0.00000855,0.00000423,0.00001211,0.00142021,-0.00162369,
 -0.00037780,0.00326780,0.00311998,-0.00010940,-0.32712972,0.07962746,0
 .05090874,-0.01721109,0.00578714,-0.00748560,0.00004677,-0.00060380,0.
 00353564,0.00014715,-0.00011234,-0.00052021,0.00023704,-0.00063408,0.0
 0034466,-0.00027306,0.00006956,0.00017032,-0.00002780,0.00011548,0.000
 08128,0.00008632,0.00005059,-0.00005898,-0.00000859,0.00000298,-0.0000
 1616,-0.00022446,0.00016205,0.00002995,0.00005659,-0.00008927,-0.00004
 744,0.00001104,0.00000972,0.00002760,0.00043098,-0.00022510,0.00010487
 ,0.00000226,-0.00002898,-0.00024983,-0.00006948,-0.00007916,0.00007447
 ,0.00003144,0.00000720,-0.00004509,-0.00000168,-0.00000068,0.00001097,
 0.00000998,0.00000437,0.00000220,0.00003088,-0.00001048,-0.00001852,-0
 .00003108,-0.00012969,0.00011950,0.00128557,-0.00036319,-0.00132841,0.
 00009341,0.00002441,0.00022914,0.00007582,0.00004813,-0.00001317,0.000
 05437,-0.00005918,-0.00005439,0.00000927,-0.00000282,-0.00000072,-0.00
 012136,-0.00026939,-0.00014758,-0.00002009,0.00011648,0.00003933,0.000
 76397,0.00010351,0.00067140,0.00000819,-0.00008542,-0.00018554,0.00055
 156,-0.00016075,0.00055888,-0.00013239,-0.00117370,0.00160532,0.347803
 00,0.00005713,0.00026328,-0.00035981,-0.00058868,-0.00040001,-0.000035
 75,-0.00036290,0.00025733,-0.00087445,0.00018939,-0.00008526,0.0003762
 7,0.00012984,-0.00009581,0.00014279,-0.01864902,0.00687473,0.00453220,
 0.00129197,0.00215050,-0.00062335,0.00024917,0.00043633,-0.00004797,-0
 .00017521,0.00008954,-0.00011854,-0.00008635,-0.00006044,0.00007077,-0
 .00000014,0.00003036,-0.00000838,0.00507524,0.00016373,0.00417924,0.02
 857725,-0.02565379,-0.01456151,0.07423280,-0.06365119,-0.01145136,0.00
 241799,0.00352211,0.00136102,-0.00029150,0.00004293,-0.00008077,0.0003
 1546,0.00001557,0.00051800,-0.00046171,0.00057641,-0.00042444,0.000616
 11,-0.00039634,-0.00055374,-0.00000726,-0.00003517,0.00004282,0.000017
 45,0.00002410,-0.00005153,-0.00002307,-0.00001864,0.00002984,-0.000022
 53,0.00007599,-0.00004623,-0.00001422,-0.00005475,-0.00000748,0.000014
 07,0.00001020,0.00000513,-0.00014547,0.00003294,0.00002893,0.00001083,
 -0.00001026,0.00000370,0.00003041,0.00004207,0.00005109,-0.00000282,-0
 .00001713,-0.00005047,0.00000296,-0.00000079,0.00000511,-0.00000747,-0
 .00000535,-0.00000860,-0.00002073,0.00002221,0.00002251,-0.00007299,-0
 .00001480,-0.00008761,-0.00003067,0.00009528,0.00033659,-0.00001310,-0
 .00002745,-0.00005476,0.00000091,-0.00001282,0.00001874,0.00000937,-0.
 00000170,-0.00001219,-0.00002579,-0.00000591,-0.00004120,-0.00013119,0
 .00020794,0.00011034,-0.00014288,-0.00012444,-0.00001143,-0.00127290,0
 .00052631,-0.00050415,-0.00011780,-0.00004765,0.00014096,0.00018108,0.
 00001339,0.00022262,-0.00151466,-0.00235044,0.00241202,-0.08923838,0.0
 7759688,-0.00011472,-0.00009348,-0.00020957,-0.00005954,0.00034044,-0.
 00018818,0.00066886,-0.00068507,0.00107479,-0.00035682,0.00013559,-0.0
 0001347,-0.00013287,-0.00000023,-0.00008010,0.02289081,-0.00502924,-0.
 00077353,-0.00165944,-0.00015682,0.00080317,-0.00021806,-0.00011233,0.
 00006037,-0.00006611,-0.00002487,-0.00007799,-0.00002887,-0.00000616,0
 .00002151,0.00000752,0.00000957,-0.00001270,0.00328462,-0.00163378,0.0
 0186517,0.00647079,-0.00871845,-0.00195585,0.05628850,-0.01273520,-0.0
 5432351,-0.03366544,0.01002144,-0.01058029,-0.00536631,0.00135248,0.00
 486666,-0.00003790,0.00004689,-0.00072171,0.00015252,0.00000389,0.0004
 0092,0.00000122,0.00011780,-0.00016568,-0.00002868,0.00010433,0.000039
 17,0.00008184,0.00004289,-0.00002103,0.00000760,0.00000920,-0.00002394
 ,-0.00012103,0.00011860,0.00016404,0.00002206,-0.00005652,-0.00012044,
 0.00001145,0.00000696,0.00001861,0.00008586,-0.00020688,-0.00000655,0.
 00015358,-0.00001298,-0.00022406,-0.00009909,-0.00012485,0.00005753,0.
 00003970,0.00002201,-0.00003875,-0.00000243,-0.00000381,0.00001359,0.0
 0000793,0.00000938,0.00000940,0.00005075,-0.00001379,-0.00005350,0.000
 06725,-0.00015666,0.00005152,0.00122454,-0.00084287,-0.00004913,0.0002
 0887,-0.00001850,0.00012078,0.00011033,0.00005167,-0.00004693,0.000036
 58,-0.00002453,0.00002254,-0.00001785,0.00001310,0.00000258,-0.0001093
 2,0.00009258,-0.00000629,-0.00003281,-0.00004657,-0.00001788,-0.000569
 44,-0.00006566,-0.00020545,-0.00011476,0.00003684,0.00012548,-0.000319
 77,0.00023257,-0.00043632,0.00143275,0.00259599,-0.00255698,-0.0501846
 4,0.01540501,0.06319197\\-0.00221653,-0.01924496,0.00268211,0.01146414
 ,0.00786435,-0.00576992,-0.01825919,-0.01723867,0.01314563,0.01353607,
 -0.00109419,0.04160269,-0.01027795,-0.00238904,-0.02975812,0.01293710,
 0.01000426,-0.03697157,-0.00732893,-0.01078207,0.04952500,0.01134234,0
 .00747549,-0.02630701,0.00278045,-0.00088782,-0.01307768,0.00511982,0.
 01675971,0.02592698,-0.00120192,-0.01731112,-0.03233533,-0.01505414,0.
 02644428,-0.00338017,0.02505655,-0.00815312,0.02411834,-0.04452139,0.0
 3844280,-0.03806876,-0.00254296,-0.02229660,-0.00016529,0.00608257,0.0
 2473072,0.00445389,0.03348968,0.01917196,0.02759372,-0.00852129,0.0066
 8811,0.02102068,0.00502817,-0.01116822,-0.02891498,0.01410747,-0.00863
 862,-0.02916406,0.01110582,-0.00028598,0.02450552,-0.03132969,-0.00265
 501,-0.01362606,-0.01936430,0.00439846,-0.04189991,-0.02312273,0.00270
 957,-0.00542087,0.02424184,-0.01633936,0.01476101,0.01528755,-0.030315
 79,0.01610826,0.00680957,0.01498446,0.01963297,-0.00719876,-0.01314079
 ,-0.04082200,0.00980451,0.00474207,0.03109544,-0.00438005,-0.00088206,
 0.00253728,-0.01838002,0.01544748,-0.00352245,0.01348846,-0.01356098,0
 .00605225,-0.01580982,0.01238419,-0.00173655,0.01508023,-0.01124725,0.
 00036189,-0.01621276,0.01259787,-0.00505433,-0.00966833,0.00009355,0.0
 1483723,0.01000798,-0.01281510,0.00084092,-0.00069308,-0.00085024,0.00
 177165,-0.02010599,0.00577071,0.00588416,0.00831694,-0.00358199,0.0136
 7262,0.01857878,-0.00743502,-0.00486982,-0.01719206,0.00697394,0.00025
 535,0.01865043,-0.00902488,0.00153096,-0.01677176,0.00837266,0.0014072
 5,0.01783720,-0.00471775,-0.00445889\\\@


 IF YOU GIVE A BOY AND A PIG EVERYTHING THEY WANT,
 YOU'LL GET A BAD BOY AND A GOOD PIG.
 Job cpu time:  3 days 21 hours 44 minutes  3.4 seconds.
 File lengths (MBytes):  RWF=   2340 Int=      0 D2E=      0 Chk=     43 Scr=      1
 Normal termination of Gaussian 09 at Tue Feb 16 08:59:42 2016.
Gaussian '09 finished on node017 at Tue Feb 16 08:59:42 EST 2016.
