Gaussian '09 started on node029 at Wed Jan 20 15:58:13 EST 2016.
 Entering Gaussian System, Link 0=/usr/local/gaussian/g09/g09
 Initial command:
 /usr/local/gaussian/g09/l1.exe /home/srmcgrat/thesis/gaussian/cellobiose/280/6000/gaussian10729/Gau-10765.inp -scrdir=/home/srmcgrat/thesis/gaussian/cellobiose/280/6000/gaussian10729/
 Entering Link 1 = /usr/local/gaussian/g09/l1.exe PID=     10767.
  
 Copyright (c) 1988,1990,1992,1993,1995,1998,2003,2009,2010,
            Gaussian, Inc.  All Rights Reserved.
  
 This is part of the Gaussian(R) 09 program.  It is based on
 the Gaussian(R) 03 system (copyright 2003, Gaussian, Inc.),
 the Gaussian(R) 98 system (copyright 1998, Gaussian, Inc.),
 the Gaussian(R) 94 system (copyright 1995, Gaussian, Inc.),
 the Gaussian 92(TM) system (copyright 1992, Gaussian, Inc.),
 the Gaussian 90(TM) system (copyright 1990, Gaussian, Inc.),
 the Gaussian 88(TM) system (copyright 1988, Gaussian, Inc.),
 the Gaussian 86(TM) system (copyright 1986, Carnegie Mellon
 University), and the Gaussian 82(TM) system (copyright 1983,
 Carnegie Mellon University). Gaussian is a federally registered
 trademark of Gaussian, Inc.
  
 This software contains proprietary and confidential information,
 including trade secrets, belonging to Gaussian, Inc.
  
 This software is provided under written license and may be
 used, copied, transmitted, or stored only in accord with that
 written license.
  
 The following legend is applicable only to US Government
 contracts under FAR:
  
                    RESTRICTED RIGHTS LEGEND
  
 Use, reproduction and disclosure by the US Government is
 subject to restrictions as set forth in subparagraphs (a)
 and (c) of the Commercial Computer Software - Restricted
 Rights clause in FAR 52.227-19.
  
 Gaussian, Inc.
 340 Quinnipiac St., Bldg. 40, Wallingford CT 06492
  
  
 ---------------------------------------------------------------
 Warning -- This program may not be used in any manner that
 competes with the business of Gaussian, Inc. or will provide
 assistance to any competitor of Gaussian, Inc.  The licensee
 of this program is prohibited from giving any competitor of
 Gaussian, Inc. access to this program.  By using this program,
 the user acknowledges that Gaussian, Inc. is engaged in the
 business of creating and licensing software in the field of
 computational chemistry and represents and warrants to the
 licensee that it is not a competitor of Gaussian, Inc. and that
 it will not use this program in any manner prohibited above.
 ---------------------------------------------------------------
  

 Cite this work as:
 Gaussian 09, Revision B.01,
 M. J. Frisch, G. W. Trucks, H. B. Schlegel, G. E. Scuseria, 
 M. A. Robb, J. R. Cheeseman, G. Scalmani, V. Barone, B. Mennucci, 
 G. A. Petersson, H. Nakatsuji, M. Caricato, X. Li, H. P. Hratchian, 
 A. F. Izmaylov, J. Bloino, G. Zheng, J. L. Sonnenberg, M. Hada, 
 M. Ehara, K. Toyota, R. Fukuda, J. Hasegawa, M. Ishida, T. Nakajima, 
 Y. Honda, O. Kitao, H. Nakai, T. Vreven, J. A. Montgomery, Jr., 
 J. E. Peralta, F. Ogliaro, M. Bearpark, J. J. Heyd, E. Brothers, 
 K. N. Kudin, V. N. Staroverov, T. Keith, R. Kobayashi, J. Normand, 
 K. Raghavachari, A. Rendell, J. C. Burant, S. S. Iyengar, J. Tomasi, 
 M. Cossi, N. Rega, J. M. Millam, M. Klene, J. E. Knox, J. B. Cross, 
 V. Bakken, C. Adamo, J. Jaramillo, R. Gomperts, R. E. Stratmann, 
 O. Yazyev, A. J. Austin, R. Cammi, C. Pomelli, J. W. Ochterski, 
 R. L. Martin, K. Morokuma, V. G. Zakrzewski, G. A. Voth, 
 P. Salvador, J. J. Dannenberg, S. Dapprich, A. D. Daniels, 
 O. Farkas, J. B. Foresman, J. V. Ortiz, J. Cioslowski, 
 and D. J. Fox, Gaussian, Inc., Wallingford CT, 2010.
 
 ******************************************
 Gaussian 09:  EM64L-G09RevB.01 12-Aug-2010
                20-Jan-2016 
 ******************************************
 ------------------------------------------------
 # freq=raman b3lyp/6-31+g(d,p) geom=connectivity
 ------------------------------------------------
 1/10=4,30=1,38=1,57=2/1,3;
 2/12=2,17=6,18=5,40=1/2;
 3/5=1,6=6,7=111,11=2,16=1,25=1,30=1,71=2,74=-5/1,2,3;
 4//1;
 5/5=2,38=5,98=1/2;
 8/6=4,10=90,11=11/1;
 10/13=10,15=4/2;
 11/6=3,8=1,9=11,15=111,16=1/1,2,10;
 10/6=1/2;
 6/7=2,8=2,9=2,10=2,18=1,28=1/1;
 7/8=1,10=1,25=1/1,2,3,16;
 1/10=4,30=1/3;
 99//99;
 ------------
 280 6000.com
 ------------
 Symbolic Z-matrix:
 Charge =  0 Multiplicity = 1
 O                     7.38776   7.57431   12.49069 
 C                     8.115     7.966     13.658 
 C                     7.587     9.295     14.172 
 O                     7.781     10.308    13.174 
 H                     7.527     9.965     12.269 
 C                     8.17      9.733     15.506 
 O                     7.582     10.93     16.035 
 H                     7.98      11.144    16.927 
 C                     8.217     5.462     14.517 
 O                     7.503     5.004     13.36 
 H                     7.696     4.025     13.286 
 C                     7.92      6.934     14.757 
 O                     8.651     7.349     15.92 
 C                     8.054     8.543     16.445 
 O                     8.847     8.752     17.623 
 C                     8.322     8.418     18.916 
 C                     8.74      7.039     19.402 
 O                     8.551     6.042     18.387 
 H                     8.789     6.399     17.484 
 C                     8.193     6.762     20.793 
 O                     8.607     5.499     21.334 
 H                     8.112     5.195     22.148 
 C                     8.08      10.751    19.51 
 O                     8.599     11.486    18.392 
 H                     8.425     12.47     18.435 
 C                     8.714     9.446     19.964 
 O                     8.104     9.172     21.234 
 C                     8.514     7.897     21.75 
 O                     7.639     7.818     22.885 
 H                     8.16138   7.76207   23.68849 
 H                     9.5432    7.89833   22.04267 
 H                     7.12742   6.72461   20.70329 
 H                     9.80041   7.09799   19.53222 
 H                     7.25466   8.42371   18.84084 
 H                     9.77675   9.5368    20.04898 
 H                     8.09626   11.4127   20.35071 
 H                     7.05427   10.53818   19.29207 
 H                     7.0317    8.36751   16.70768 
 H                     9.21159   9.92647   15.35578 
 H                     6.53188   9.18338   14.31046 
 H                     9.15541   8.05496   13.42447 
 H                     8.00434   7.34023   11.7931 
 H                     6.88399   6.98248   15.02011 
 H                     9.26755   5.33224   14.36078 
 H                     7.91181   4.89401   15.3709 
 

 GradGradGradGradGradGradGradGradGradGradGradGradGradGradGradGradGradGrad
 Berny optimization.
 Initialization pass.
 Trust Radius=3.00D-01 FncErr=1.00D-07 GrdErr=1.00D-07
 Number of steps in this run=      2 maximum allowed number of steps=      2.
 GradGradGradGradGradGradGradGradGradGradGradGradGradGradGradGradGradGrad

                          Input orientation:                          
 ---------------------------------------------------------------------
 Center     Atomic      Atomic             Coordinates (Angstroms)
 Number     Number       Type             X           Y           Z
 ---------------------------------------------------------------------
      1          8           0        7.387765    7.574308   12.490693
      2          6           0        8.115000    7.966000   13.658000
      3          6           0        7.587000    9.295000   14.172000
      4          8           0        7.781000   10.308000   13.174000
      5          1           0        7.527000    9.965000   12.269000
      6          6           0        8.170000    9.733000   15.506000
      7          8           0        7.582000   10.930000   16.035000
      8          1           0        7.980000   11.144000   16.927000
      9          6           0        8.217000    5.462000   14.517000
     10          8           0        7.503000    5.004000   13.360000
     11          1           0        7.696000    4.025000   13.286000
     12          6           0        7.920000    6.934000   14.757000
     13          8           0        8.651000    7.349000   15.920000
     14          6           0        8.054000    8.543000   16.445000
     15          8           0        8.847000    8.752000   17.623000
     16          6           0        8.322000    8.418000   18.916000
     17          6           0        8.740000    7.039000   19.402000
     18          8           0        8.551000    6.042000   18.387000
     19          1           0        8.789000    6.399000   17.484000
     20          6           0        8.193000    6.762000   20.793000
     21          8           0        8.607000    5.499000   21.334000
     22          1           0        8.112000    5.195000   22.148000
     23          6           0        8.080000   10.751000   19.510000
     24          8           0        8.599000   11.486000   18.392000
     25          1           0        8.425000   12.470000   18.435000
     26          6           0        8.714000    9.446000   19.964000
     27          8           0        8.104000    9.172000   21.234000
     28          6           0        8.514000    7.897000   21.750000
     29          8           0        7.639000    7.818000   22.885000
     30          1           0        8.161378    7.762074   23.688488
     31          1           0        9.543195    7.898331   22.042670
     32          1           0        7.127423    6.724612   20.703294
     33          1           0        9.800408    7.097985   19.532216
     34          1           0        7.254659    8.423707   18.840836
     35          1           0        9.776749    9.536797   20.048978
     36          1           0        8.096263   11.412700   20.350708
     37          1           0        7.054274   10.538183   19.292065
     38          1           0        7.031696    8.367513   16.707676
     39          1           0        9.211586    9.926473   15.355776
     40          1           0        6.531884    9.183382   14.310460
     41          1           0        9.155408    8.054960   13.424468
     42          1           0        8.004341    7.340229   11.793097
     43          1           0        6.883986    6.982481   15.020106
     44          1           0        9.267551    5.332244   14.360777
     45          1           0        7.911810    4.894007   15.370899
 ---------------------------------------------------------------------
                    Distance matrix (angstroms):
                    1          2          3          4          5
     1  O    0.000000
     2  C    1.430000   0.000000
     3  C    2.413974   1.519612   0.000000
     4  O    2.845103   2.414700   1.435203   0.000000
     5  H    2.404983   2.504210   2.018393   1.000595   0.000000
     6  C    3.789976   2.557424   1.520292   2.433140   3.308390
     7  O    4.884722   3.836602   2.478713   2.934588   3.888059
     8  H    5.724881   4.561170   3.341149   3.850131   4.826201
     9  C    3.042269   2.649208   3.899720   5.047520   5.080021
    10  O    2.715780   3.039209   4.367961   5.314536   5.079604
    11  H    3.650358   3.980631   5.345070   6.284573   6.028802
    12  C    2.414419   1.520148   2.455084   3.729489   3.941009
    13  O    3.661513   2.405126   2.823919   4.129540   4.629971
    14  C    4.125382   2.846756   2.439287   3.726821   4.442836
    15  O    5.464147   4.107900   3.713738   4.832297   5.646157
    16  C    6.547457   5.281450   4.880050   6.069213   6.870796
    17  C    7.062667   5.851794   5.811355   7.098875   7.804648
    18  O    6.202219   5.123994   5.410871   6.779899   7.339511
    19  H    5.317700   4.189038   4.560807   5.905290   6.442455
    20  C    8.380725   7.236292   7.114841   8.413859   9.130243
    21  O    9.165016   8.077693   8.169716   9.507595  10.162961
    22  H    9.972423   8.930764   8.983440  10.333683  10.985889
    23  C    7.735712   6.480999   5.554928   6.358502   7.304498
    24  O    7.182886   5.919072   4.861381   5.411500   6.399512
    25  H    7.770357   6.572811   5.381081   5.724255   6.715727
    26  C    7.817446   6.504986   5.902558   6.907795   7.803291
    27  O    8.916896   7.671397   7.081967   8.146068   9.018481
    28  C    9.333130   8.102125   7.761431   8.938567   9.753981
    29  O   10.400199   9.240455   8.837454  10.026155  10.831510
    30  H   11.226057  10.032668   9.656258  10.825012  11.647319
    31  H    9.797507   8.505704   8.229510   9.357625  10.191211
    32  H    8.260544   7.221670   7.033911   8.364096   9.044174
    33  H    7.458605   6.172557   6.201449   7.403318   8.132802
    34  H    6.408082   5.273658   4.761053   5.995050   6.755648
    35  H    8.166167   6.787740   6.276331   7.200214   8.110042
    36  H    8.775822   7.528109   6.551368   7.268073   8.230060
    37  H    7.426603   6.283626   5.295693   6.165374   7.062255
    38  H    4.305684   3.261179   2.756492   4.100465   4.743326
    39  H    4.131308   2.815741   2.106979   2.636718   3.516745
    40  H    2.575501   2.100947   1.070000   2.028940   2.401821
    41  H    2.056095   1.070000   2.134574   2.651023   2.763164
    42  H    0.960000   1.970203   3.107167   3.280921   2.709938
    43  H    2.646127   2.082796   2.561495   3.907918   4.108220
    44  H    3.472415   2.959551   4.308518   5.326952   5.372846
    45  H    3.969159   3.523131   4.572920   5.844210   5.956914
                    6          7          8          9         10
     6  C    0.000000
     7  O    1.434710   0.000000
     8  H    2.011532   0.999932   0.000000
     9  C    4.384264   5.710217   6.176519   0.000000
    10  O    5.235804   6.502257   7.116925   1.434646   0.000000
    11  H    6.142828   7.432969   8.001106   1.962593   1.000583
    12  C    2.908247   4.208984   4.736729   1.520721   2.418760
    13  O    2.467025   3.738923   3.983254   2.391137   3.656573
    14  C    1.520288   2.467520   2.646318   3.638175   4.727087
    15  O    2.429481   2.977525   2.637758   4.568176   5.833267
    16  C    3.657927   3.893315   3.391778   5.300959   6.572313
    17  C    4.770886   5.274233   4.853272   5.159814   6.494394
    18  O    4.697744   5.510300   5.337419   3.927449   5.238939
    19  H    3.925710   4.907791   4.845591   3.163581   4.539515
    20  C    6.064630   6.354849   5.847499   6.409271   7.669169
    21  O    7.216877   7.656748   7.188936   6.828247   8.065266
    22  H    8.044437   8.398803   7.916241   7.636391   8.811147
    23  C    4.132365   3.515063   2.614639   7.274774   8.437028
    24  O    3.403828   2.626571   1.626761   7.172874   8.278802
    25  H    4.016869   2.973592   2.056785   8.031566   9.074517
    26  C    4.500230   4.349796   3.556027   6.766762   8.050509
    27  O    5.755785   5.512953   4.738608   7.674305   8.929351
    28  C    6.517420   6.536738   5.838621   7.637652   8.932171
    29  O    7.641913   7.523981   6.832007   8.712534   9.932911
    30  H    8.416516   8.303452   7.562278   9.455667  10.710654
    31  H    6.926740   7.009237   6.256838   8.020611   9.377009
    32  H    6.095017   6.299595   5.875225   6.407152   7.551525
    33  H    5.080546   5.642357   5.145024   5.507815   6.910797
    34  H    3.697733   3.776423   3.404245   5.328542   6.464954
    35  H    4.822736   4.782254   3.944383   7.045535   8.393962
    36  H    5.128159   4.372962   3.436203   8.334119   9.502283
    37  H    4.028331   3.322723   2.611037   7.065466   8.125142
    38  H    2.145767   2.705858   2.942153   3.827011   4.768887
    39  H    1.070000   2.030754   2.338358   4.650190   5.579707
    40  H    2.101147   2.669730   3.575940   4.090349   4.394732
    41  H    2.849495   4.190029   4.815753   2.966088   3.470298
    42  H    4.420232   5.573022   6.389541   3.315512   2.857358
    43  H    3.074944   4.135231   4.706987   2.083724   2.655846
    44  H    4.677907   6.081034   6.482268   1.070000   2.054979
    45  H    4.847759   6.081366   6.441158   1.070000   2.054979
                   11         12         13         14         15
    11  H    0.000000
    12  C    3.267460   0.000000
    13  O    4.347293   1.434976   0.000000
    14  C    5.524470   2.335847   1.434458   0.000000
    15  O    6.517584   3.518296   2.215183   1.435345   0.000000
    16  C    7.168488   4.434089   3.197971   2.488632   1.434932
    17  C    6.897796   4.717992   3.496905   3.387693   2.471975
    18  O    5.551533   3.790874   2.793625   3.205210   2.831150
    19  H    4.945071   2.911686   1.835113   2.493287   2.357816
    20  C    8.005825   6.044618   4.929550   4.700679   3.799568
    21  O    8.232430   6.766692   5.721524   5.785678   4.940762
    22  H    8.948575   7.595253   6.611976   6.613371   5.802422
    23  C    9.171952   6.098041   4.978729   3.777587   2.853955
    24  O    9.085877   5.864722   4.819570   3.570586   2.850898
    25  H    9.917745   6.665584   5.709723   4.418039   3.828962
    26  C    8.661365   5.835532   4.555800   3.692475   2.445323
    27  O    9.477804   6.855219   5.644567   4.830389   3.710495
    28  C    9.343490   7.083943   5.857301   5.363948   4.227770
    29  O   10.321381   8.180758   7.053746   6.493955   5.479075
    30  H   11.063185   8.973040   7.794855   7.286254   6.183864
    31  H    9.751620   7.526332   6.211671   5.828139   4.554879
    32  H    7.913750   6.002536   5.058760   4.722092   4.068840
    33  H    7.272344   5.134736   3.798980   3.830001   2.699974
    34  H    7.099268   4.397683   3.411165   2.528479   2.031367
    35  H    8.969241   6.182806   4.806477   4.116327   2.713984
    36  H   10.229780   7.167941   6.037595   4.846804   3.883725
    37  H    8.882915   5.857169   4.908283   3.617456   3.031516
    38  H    5.568356   2.578601   2.068804   1.070000   2.069052
    39  H    6.434933   3.313853   2.697401   2.107229   2.579267
    40  H    5.386426   2.680668   3.232063   2.698738   4.064329
    41  H    4.288312   2.135047   2.642061   3.251906   4.267159
    42  H    3.648915   2.992801   4.177269   4.805136   6.057305
    43  H    3.523235   1.070000   2.016552   2.415466   3.709404
    44  H    2.309503   2.130378   2.622712   4.015675   4.744860
    45  H    2.269042   2.130378   2.622004   3.806450   4.564061
                   16         17         18         19         20
    16  C    0.000000
    17  C    1.520711   0.000000
    18  O    2.444925   1.435254   0.000000
    19  H    2.518943   2.022554   0.999751   0.000000
    20  C    2.506413   1.520138   2.536809   3.381784   0.000000
    21  O    3.801120   2.474250   2.997131   3.957982   1.435007
    22  H    4.569207   3.366784   3.880110   4.864241   2.073180
    23  C    2.419564   3.771765   4.863913   4.852552   4.191775
    24  O    3.124729   4.562432   5.444214   5.170893   5.314679
    25  H    4.081749   5.525403   6.429414   6.155805   6.180231
    26  C    1.519458   2.471876   3.755092   3.929406   2.857016
    27  O    2.447277   2.882778   4.254658   4.713943   2.451633
    28  C    2.887882   2.510049   3.840854   4.529722   1.518919
    29  O    4.071787   3.735014   4.921171   5.701479   2.408011
    30  H    4.820029   4.385387   5.587149   6.383381   3.063495
    31  H    3.396680   2.890797   4.218333   4.857805   2.162394
    32  H    2.736603   2.095856   2.803168   3.637405   1.070000
    33  H    2.075536   1.070000   1.996909   2.388873   2.070319
    34  H    1.070000   2.106788   2.749363   2.880042   2.729963
    35  H    2.156766   2.780722   4.059339   4.171394   3.280446
    36  H    3.328298   4.521470   5.736493   5.816793   4.672685
    37  H    2.498745   3.885619   4.824416   4.838513   4.220078
    38  H    2.558149   3.455811   3.245986   2.750607   4.540503
    39  H    3.967625   4.993178   4.971300   4.141375   6.372975
    40  H    5.000132   5.949616   5.528407   4.787349   7.116581
    41  H    5.566263   6.077468   5.389252   4.399574   7.542760
    42  H    7.210981   7.650317   6.742685   5.821339   9.020433
    43  H    4.393926   4.759094   3.872907   3.168643   5.923549
    44  H    5.582653   5.348389   4.150623   3.334892   6.676253
    45  H    5.015429   4.640762   3.289881   2.738551   5.741746
                   21         22         23         24         25
    21  O    0.000000
    22  H    1.000018   0.000000
    23  C    5.584640   6.150545   0.000000
    24  O    6.670802   7.343118   1.435099   0.000000
    25  H    7.551964   8.173736   2.056602   1.000190   0.000000
    26  C    4.179373   4.816976   1.520229   2.577985   3.400873
    27  O    3.708630   4.080685   2.337946   3.698187   4.337539
    28  C    2.435592   2.760582   3.653939   4.915721   5.648847
    29  O    2.953030   2.765326   4.493061   5.879020   6.485476
    30  H    3.296013   2.994230   5.138099   6.489370   7.059263
    31  H    2.671229   3.060623   4.085716   5.204831   5.930076
    32  H    2.022143   2.322990   4.306176   5.493490   6.311763
    33  H    2.688383   3.648890   4.037922   4.690218   5.652802
    34  H    4.074138   4.700736   2.558371   3.374366   4.231654
    35  H    4.395839   5.101812   2.154935   2.816391   3.610517
    36  H    6.016607   6.472271   1.070000   2.023525   2.212665
    37  H    5.654539   6.150183   1.070000   2.023525   2.519001
    38  H    5.666818   6.389759   3.825306   3.875351   4.664262
    39  H    7.463726   8.350463   4.383824   3.467858   4.070610
    40  H    8.198225   8.934819   5.647062   5.121913   5.603354
    41  H    8.330328   9.239485   6.742316   6.062837   6.717998
    42  H    9.735613  10.575331   8.437398   7.815789   8.402761
    43  H    6.710793   7.450501   5.982585   5.881549   6.644478
    44  H    7.006424   7.873689   7.568864   7.386910   8.261764
    45  H    6.033894   6.786735   7.173898   7.283794   8.188269
                   26         27         28         29         30
    26  C    0.000000
    27  O    1.435296   0.000000
    28  C    2.372593   1.435263   0.000000
    29  O    3.512585   2.185256   1.435302   0.000000
    30  H    4.124659   2.831200   1.974914   0.960000   0.000000
    31  H    2.720976   2.085057   1.070000   2.083730   2.153300
    32  H    3.235697   2.687947   2.095873   2.493401   3.325173
    33  H    2.622955   3.174178   2.685486   4.053549   4.516861
    34  H    2.106243   2.647368   3.213502   4.107294   4.975905
    35  H    1.070000   2.082172   2.678982   3.945536   4.359484
    36  H    2.097391   2.408527   3.806924   4.421944   4.946927
    37  H    2.097391   2.596053   3.892055   4.544280   5.316107
    38  H    3.820592   4.720661   5.276707   6.231381   7.097498
    39  H    4.659847   6.029054   6.744738   7.975456   8.673042
    40  H    6.065733   7.099795   7.805787   8.752869   9.624073
    41  H    6.700396   7.958770   8.351696   9.584222  10.316200
    42  H    8.467677   9.617483   9.985473  11.108198  11.903905
    43  H    5.818931   6.700366   6.984609   7.945105   8.796610
    44  H    6.973200   7.958566   7.857890   9.027378   9.702263
    45  H    6.516189   7.260449   7.076265   8.067582   8.801726
                   31         32         33         34         35
    31  H    0.000000
    32  H    3.001250   0.000000
    33  H    2.647468   2.942054   0.000000
    34  H    3.970537   2.524255   2.952352   0.000000
    35  H    2.591124   3.918602   2.493071   3.009903   0.000000
    36  H    4.160185   4.800118   4.710711   3.452838   2.536550
    37  H    4.552952   4.066969   4.408387   2.171352   2.997925
    38  H    5.915227   4.321255   4.153973   2.145516   4.479602
    39  H    6.995561   6.572032   5.078357   4.270072   4.743143
    40  H    8.396810   6.875212   6.503758   4.650141   6.601866
    41  H    8.628343   7.672278   6.215819   5.752031   6.816600
    42  H   10.379465   8.974385   7.948491   7.169838   8.725017
    43  H    7.564824   5.694241   5.373825   4.100305   6.338939
    44  H    8.103843   6.837131   5.490498   5.803431   7.091768
    45  H    7.496660   5.692171   5.073547   4.993104   6.849665
                   36         37         38         39         40
    36  H    0.000000
    37  H    1.723730   0.000000
    38  H    4.866019   3.375112   0.000000
    39  H    5.329367   4.530183   3.001651   0.000000
    40  H    6.625838   5.188908   2.581104   2.970803   0.000000
    41  H    7.769749   6.708938   3.922665   2.689920   2.990183
    42  H    9.477667   8.207562   5.114142   4.564952   3.449995
    43  H    7.036459   5.560723   2.188155   3.767955   2.339132
    44  H    8.615285   7.504532   4.440703   4.701074   4.724158
    45  H    8.205234   6.925867   3.824502   5.197630   4.628981
                   41         42         43         44         45
    41  H    0.000000
    42  H    2.120653   0.000000
    43  H    2.975841   3.434643   0.000000
    44  H    2.881394   3.495809   2.973109   0.000000
    45  H    3.914939   4.335116   2.353975   1.746549   0.000000
 Stoichiometry    C12H22O11
 Framework group  C1[X(C12H22O11)]
 Deg. of freedom   129
 Full point group                 C1      NOp   1
 Largest Abelian subgroup         C1      NOp   1
 Largest concise Abelian subgroup C1      NOp   1
                         Standard orientation:                         
 ---------------------------------------------------------------------
 Center     Atomic      Atomic             Coordinates (Angstroms)
 Number     Number       Type             X           Y           Z
 ---------------------------------------------------------------------
      1          8           0        4.949880   -0.469583   -0.454179
      2          6           0        3.727596   -0.119989    0.200577
      3          6           0        3.217291    1.207129   -0.335677
      4          8           0        4.175021    2.238932   -0.056489
      5          1           0        5.103040    1.922304   -0.255780
      6          6           0        1.837171    1.602056    0.164912
      7          8           0        1.319130    2.798105   -0.434667
      8          1           0        0.397687    2.983175   -0.093266
      9          6           0        2.925495   -2.644851    0.198105
     10          8           0        4.138248   -3.061230   -0.445377
     11          1           0        4.223300   -4.041956   -0.266191
     12          6           0        2.669653   -1.173112   -0.086716
     13          8           0        1.450843   -0.800197    0.572520
     14          6           0        0.937463    0.393129   -0.035827
     15          8           0       -0.295365    0.558535    0.680406
     16          6           0       -1.542059    0.205259    0.063983
     17          6           0       -2.020714   -1.192870    0.422710
     18          8           0       -0.971219   -2.161945    0.283396
     19          1           0       -0.095056   -1.788933    0.587866
     20          6           0       -3.365103   -1.491007   -0.221147
     21          8           0       -3.901203   -2.774391    0.132081
     22          1           0       -4.672829   -3.087145   -0.421829
     23          6           0       -2.175817    2.528236   -0.173547
     24          8           0       -1.113136    3.278371    0.432684
     25          1           0       -1.168650    4.264431    0.274618
     26          6           0       -2.638711    1.200434    0.404181
     27          8           0       -3.858294    0.909389   -0.294378
     28          6           0       -4.368897   -0.385326    0.056306
     29          8           0       -5.441016   -0.472948   -0.893943
     30          1           0       -6.275796   -0.558138   -0.427591
     31          1           0       -4.729195   -0.411681    1.063476
     32          1           0       -3.203958   -1.504676   -1.278854
     33          1           0       -2.222455   -1.158452    1.472956
     34          1           0       -1.396361    0.234362   -0.995651
     35          1           0       -2.796264    1.267654    1.460381
     36          1           0       -3.031751    3.169729   -0.201166
     37          1           0       -1.885101    2.341396   -1.186205
     38          1           0        0.747630    0.232350   -1.076506
     39          1           0        1.913113    1.777805    1.217645
     40          1           0        3.151972    1.113744   -1.399591
     41          1           0        3.889282   -0.046741    1.255752
     42          1           0        5.610541   -0.699826    0.203176
     43          1           0        2.474799   -1.109761   -1.136915
     44          1           0        3.014767   -2.792219    1.254141
     45          1           0        2.107955   -3.226250   -0.174054
 ---------------------------------------------------------------------
 Rotational constants (GHZ):      0.4121625      0.1474173      0.1118741
 Standard basis: 6-31+G(d,p) (6D, 7F)
 There are   547 symmetry adapted basis functions of A   symmetry.
 Integral buffers will be    131072 words long.
 Raffenetti 2 integral format.
 Two-electron integral symmetry is turned on.
   547 basis functions,   890 primitive gaussians,   547 cartesian basis functions
    91 alpha electrons       91 beta electrons
       nuclear repulsion energy      2295.4076704694 Hartrees.
 NAtoms=   45 NActive=   45 NUniq=   45 SFac= 1.00D+00 NAtFMM=   50 NAOKFM=F Big=F
 One-electron integrals computed using PRISM.
 NBasis=   547 RedAO= T  NBF=   547
 NBsUse=   547 1.00D-06 NBFU=   547
 Harris functional with IExCor=  402 diagonalized for initial guess.
 ExpMin= 4.38D-02 ExpMax= 5.48D+03 ExpMxC= 8.25D+02 IAcc=2 IRadAn=         0 AccDes= 0.00D+00
 HarFok:  IExCor=  402 AccDes= 0.00D+00 IRadAn=         0 IDoV= 1
 ScaDFX=  1.000000  1.000000  1.000000  1.000000
 FoFCou: FMM=F IPFlag=           0 FMFlag=      100000 FMFlg1=           0
         NFxFlg=           0 DoJE=T BraDBF=F KetDBF=T FulRan=T
         Omega=  0.000000  0.000000  1.000000  0.000000  0.000000 ICntrl=     500 IOpCl=  0
         NMat0=    1 NMatS0=    1 NMatT0=    0 NMatD0=    1 NMtDS0=    0 NMtDT0=    0
         I1Cent=           4 NGrid=           0.
 Petite list used in FoFCou.
 Initial guess orbital symmetries:
       Occupied  (A) (A) (A) (A) (A) (A) (A) (A) (A) (A) (A) (A)
                 (A) (A) (A) (A) (A) (A) (A) (A) (A) (A) (A) (A)
                 (A) (A) (A) (A) (A) (A) (A) (A) (A) (A) (A) (A)
                 (A) (A) (A) (A) (A) (A) (A) (A) (A) (A) (A) (A)
                 (A) (A) (A) (A) (A) (A) (A) (A) (A) (A) (A) (A)
                 (A) (A) (A) (A) (A) (A) (A) (A) (A) (A) (A) (A)
                 (A) (A) (A) (A) (A) (A) (A) (A) (A) (A) (A) (A)
                 (A) (A) (A) (A) (A) (A) (A)
       Virtual   (A) (A) (A) (A) (A) (A) (A) (A) (A) (A) (A) (A)
                 (A) (A) (A) (A) (A) (A) (A) (A) (A) (A) (A) (A)
                 (A) (A) (A) (A) (A) (A) (A) (A) (A) (A) (A) (A)
                 (A) (A) (A) (A) (A) (A) (A) (A) (A) (A) (A) (A)
                 (A) (A) (A) (A) (A) (A) (A) (A) (A) (A) (A) (A)
                 (A) (A) (A) (A) (A) (A) (A) (A) (A) (A) (A) (A)
                 (A) (A) (A) (A) (A) (A) (A) (A) (A) (A) (A) (A)
                 (A) (A) (A) (A) (A) (A) (A) (A) (A) (A) (A) (A)
                 (A) (A) (A) (A) (A) (A) (A) (A) (A) (A) (A) (A)
                 (A) (A) (A) (A) (A) (A) (A) (A) (A) (A) (A) (A)
                 (A) (A) (A) (A) (A) (A) (A) (A) (A) (A) (A) (A)
                 (A) (A) (A) (A) (A) (A) (A) (A) (A) (A) (A) (A)
                 (A) (A) (A) (A) (A) (A) (A) (A) (A) (A) (A) (A)
                 (A) (A) (A) (A) (A) (A) (A) (A) (A) (A) (A) (A)
                 (A) (A) (A) (A) (A) (A) (A) (A) (A) (A) (A) (A)
                 (A) (A) (A) (A) (A) (A) (A) (A) (A) (A) (A) (A)
                 (A) (A) (A) (A) (A) (A) (A) (A) (A) (A) (A) (A)
                 (A) (A) (A) (A) (A) (A) (A) (A) (A) (A) (A) (A)
                 (A) (A) (A) (A) (A) (A) (A) (A) (A) (A) (A) (A)
                 (A) (A) (A) (A) (A) (A) (A) (A) (A) (A) (A) (A)
                 (A) (A) (A) (A) (A) (A) (A) (A) (A) (A) (A) (A)
                 (A) (A) (A) (A) (A) (A) (A) (A) (A) (A) (A) (A)
                 (A) (A) (A) (A) (A) (A) (A) (A) (A) (A) (A) (A)
                 (A) (A) (A) (A) (A) (A) (A) (A) (A) (A) (A) (A)
                 (A) (A) (A) (A) (A) (A) (A) (A) (A) (A) (A) (A)
                 (A) (A) (A) (A) (A) (A) (A) (A) (A) (A) (A) (A)
                 (A) (A) (A) (A) (A) (A) (A) (A) (A) (A) (A) (A)
                 (A) (A) (A) (A) (A) (A) (A) (A) (A) (A) (A) (A)
                 (A) (A) (A) (A) (A) (A) (A) (A) (A) (A) (A) (A)
                 (A) (A) (A) (A) (A) (A) (A) (A) (A) (A) (A) (A)
                 (A) (A) (A) (A) (A) (A) (A) (A) (A) (A) (A) (A)
                 (A) (A) (A) (A) (A) (A) (A) (A) (A) (A) (A) (A)
                 (A) (A) (A) (A) (A) (A) (A) (A) (A) (A) (A) (A)
                 (A) (A) (A) (A) (A) (A) (A) (A) (A) (A) (A) (A)
                 (A) (A) (A) (A) (A) (A) (A) (A) (A) (A) (A) (A)
                 (A) (A) (A) (A) (A) (A) (A) (A) (A) (A) (A) (A)
                 (A) (A) (A) (A) (A) (A) (A) (A) (A) (A) (A) (A)
                 (A) (A) (A) (A) (A) (A) (A) (A) (A) (A) (A) (A)
 The electronic state of the initial guess is 1-A.
 Requested convergence on RMS density matrix=1.00D-08 within 128 cycles.
 Requested convergence on MAX density matrix=1.00D-06.
 Requested convergence on             energy=1.00D-06.
 No special actions if energy rises.
 SCF Done:  E(RB3LYP) =  -1297.94377125     A.U. after   13 cycles
             Convg  =    0.6572D-08             -V/T =  2.0087
 Range of M.O.s used for correlation:     1   547
 NBasis=   547 NAE=    91 NBE=    91 NFC=     0 NFV=     0
 NROrb=    547 NOA=    91 NOB=    91 NVA=   456 NVB=   456

 **** Warning!!: The largest alpha MO coefficient is  0.66504914D+02

          Differentiating once with respect to electric field.
                with respect to dipole field.
          Electric field/nuclear overlap derivatives assumed to be zero.
          There are     3 degrees of freedom in the 1st order CPHF.  IDoFFX=0.
      3 vectors produced by pass  0 Test12= 1.38D-12 3.33D-08 XBig12= 1.21D+02 1.03D+00.
 AX will form     3 AO Fock derivatives at one time.
      3 vectors produced by pass  1 Test12= 1.38D-12 3.33D-08 XBig12= 2.29D+01 3.82D-01.
      3 vectors produced by pass  2 Test12= 1.38D-12 3.33D-08 XBig12= 9.77D+00 1.99D-01.
      3 vectors produced by pass  3 Test12= 1.38D-12 3.33D-08 XBig12= 8.86D-01 7.07D-02.
      3 vectors produced by pass  4 Test12= 1.38D-12 3.33D-08 XBig12= 2.64D-01 4.83D-02.
      3 vectors produced by pass  5 Test12= 1.38D-12 3.33D-08 XBig12= 5.01D-02 1.41D-02.
      3 vectors produced by pass  6 Test12= 1.38D-12 3.33D-08 XBig12= 1.59D-02 1.23D-02.
      3 vectors produced by pass  7 Test12= 1.38D-12 3.33D-08 XBig12= 2.40D-03 4.71D-03.
      3 vectors produced by pass  8 Test12= 1.38D-12 3.33D-08 XBig12= 3.50D-04 1.41D-03.
      3 vectors produced by pass  9 Test12= 1.38D-12 3.33D-08 XBig12= 1.32D-04 1.02D-03.
      3 vectors produced by pass 10 Test12= 1.38D-12 3.33D-08 XBig12= 2.81D-05 4.16D-04.
      3 vectors produced by pass 11 Test12= 1.38D-12 3.33D-08 XBig12= 6.55D-06 2.20D-04.
      3 vectors produced by pass 12 Test12= 1.38D-12 3.33D-08 XBig12= 5.38D-07 8.02D-05.
      3 vectors produced by pass 13 Test12= 1.38D-12 3.33D-08 XBig12= 1.75D-07 4.75D-05.
      3 vectors produced by pass 14 Test12= 1.38D-12 3.33D-08 XBig12= 2.85D-08 1.88D-05.
      3 vectors produced by pass 15 Test12= 1.38D-12 3.33D-08 XBig12= 9.53D-09 9.42D-06.
      3 vectors produced by pass 16 Test12= 1.38D-12 3.33D-08 XBig12= 9.12D-10 3.02D-06.
      3 vectors produced by pass 17 Test12= 1.38D-12 3.33D-08 XBig12= 1.44D-10 8.70D-07.
      3 vectors produced by pass 18 Test12= 1.38D-12 3.33D-08 XBig12= 3.53D-11 3.14D-07.
      3 vectors produced by pass 19 Test12= 1.38D-12 3.33D-08 XBig12= 9.45D-12 2.16D-07.
      3 vectors produced by pass 20 Test12= 1.38D-12 3.33D-08 XBig12= 1.82D-12 9.03D-08.
      1 vectors produced by pass 21 Test12= 1.38D-12 3.33D-08 XBig12= 1.67D-13 4.04D-08.
 Inverted reduced A of dimension    64 with in-core refinement.
 End of Minotr Frequency-dependent properties file   721 does not exist.
 End of Minotr Frequency-dependent properties file   722 does not exist.
 Symmetrizing basis deriv contribution to polar:
 IMax=3 JMax=2 DiffMx= 0.00D+00
 G2DrvN: will do    23 centers at a time, making    2 passes doing MaxLOS=2.
 Calling FoFCou, ICntrl=  3107 FMM=F I1Cent=   0 AccDes= 0.00D+00.
 Calling FoFCou, ICntrl=  3107 FMM=F I1Cent=   0 AccDes= 0.00D+00.
 FoFDir/FoFCou used for L=0 through L=2.
 End of G2Drv Frequency-dependent properties file   721 does not exist.
 End of G2Drv Frequency-dependent properties file   722 does not exist.
          IDoAtm=111111111111111111111111111111111111111111111
          Differentiating once with respect to electric field.
                with respect to dipole field.
          Differentiating once with respect to nuclear coordinates.
          There are   138 degrees of freedom in the 1st order CPHF.  IDoFFX=5.
 Will reuse    3 saved solutions.
    135 vectors produced by pass  0 Test12= 4.15D-14 1.00D-09 XBig12= 2.22D-01 7.87D-02.
 AX will form    68 AO Fock derivatives at one time.
    135 vectors produced by pass  1 Test12= 4.15D-14 1.00D-09 XBig12= 4.05D-02 1.68D-02.
    132 vectors produced by pass  2 Test12= 4.15D-14 1.00D-09 XBig12= 2.33D-04 1.34D-03.
    132 vectors produced by pass  3 Test12= 4.15D-14 1.00D-09 XBig12= 6.62D-07 9.15D-05.
    132 vectors produced by pass  4 Test12= 4.15D-14 1.00D-09 XBig12= 1.30D-09 3.12D-06.
    132 vectors produced by pass  5 Test12= 4.15D-14 1.00D-09 XBig12= 4.04D-12 1.55D-07.
     77 vectors produced by pass  6 Test12= 4.15D-14 1.00D-09 XBig12= 1.33D-13 2.77D-08.
 Inverted reduced A of dimension   875 with in-core refinement.
 Isotropic polarizability for W=    0.000000      188.02 Bohr**3.
 End of Minotr Frequency-dependent properties file   721 does not exist.
 End of Minotr Frequency-dependent properties file   722 does not exist.

 **********************************************************************

            Population analysis using the SCF density.

 **********************************************************************

 Orbital symmetries:
       Occupied  (A) (A) (A) (A) (A) (A) (A) (A) (A) (A) (A) (A)
                 (A) (A) (A) (A) (A) (A) (A) (A) (A) (A) (A) (A)
                 (A) (A) (A) (A) (A) (A) (A) (A) (A) (A) (A) (A)
                 (A) (A) (A) (A) (A) (A) (A) (A) (A) (A) (A) (A)
                 (A) (A) (A) (A) (A) (A) (A) (A) (A) (A) (A) (A)
                 (A) (A) (A) (A) (A) (A) (A) (A) (A) (A) (A) (A)
                 (A) (A) (A) (A) (A) (A) (A) (A) (A) (A) (A) (A)
                 (A) (A) (A) (A) (A) (A) (A)
       Virtual   (A) (A) (A) (A) (A) (A) (A) (A) (A) (A) (A) (A)
                 (A) (A) (A) (A) (A) (A) (A) (A) (A) (A) (A) (A)
                 (A) (A) (A) (A) (A) (A) (A) (A) (A) (A) (A) (A)
                 (A) (A) (A) (A) (A) (A) (A) (A) (A) (A) (A) (A)
                 (A) (A) (A) (A) (A) (A) (A) (A) (A) (A) (A) (A)
                 (A) (A) (A) (A) (A) (A) (A) (A) (A) (A) (A) (A)
                 (A) (A) (A) (A) (A) (A) (A) (A) (A) (A) (A) (A)
                 (A) (A) (A) (A) (A) (A) (A) (A) (A) (A) (A) (A)
                 (A) (A) (A) (A) (A) (A) (A) (A) (A) (A) (A) (A)
                 (A) (A) (A) (A) (A) (A) (A) (A) (A) (A) (A) (A)
                 (A) (A) (A) (A) (A) (A) (A) (A) (A) (A) (A) (A)
                 (A) (A) (A) (A) (A) (A) (A) (A) (A) (A) (A) (A)
                 (A) (A) (A) (A) (A) (A) (A) (A) (A) (A) (A) (A)
                 (A) (A) (A) (A) (A) (A) (A) (A) (A) (A) (A) (A)
                 (A) (A) (A) (A) (A) (A) (A) (A) (A) (A) (A) (A)
                 (A) (A) (A) (A) (A) (A) (A) (A) (A) (A) (A) (A)
                 (A) (A) (A) (A) (A) (A) (A) (A) (A) (A) (A) (A)
                 (A) (A) (A) (A) (A) (A) (A) (A) (A) (A) (A) (A)
                 (A) (A) (A) (A) (A) (A) (A) (A) (A) (A) (A) (A)
                 (A) (A) (A) (A) (A) (A) (A) (A) (A) (A) (A) (A)
                 (A) (A) (A) (A) (A) (A) (A) (A) (A) (A) (A) (A)
                 (A) (A) (A) (A) (A) (A) (A) (A) (A) (A) (A) (A)
                 (A) (A) (A) (A) (A) (A) (A) (A) (A) (A) (A) (A)
                 (A) (A) (A) (A) (A) (A) (A) (A) (A) (A) (A) (A)
                 (A) (A) (A) (A) (A) (A) (A) (A) (A) (A) (A) (A)
                 (A) (A) (A) (A) (A) (A) (A) (A) (A) (A) (A) (A)
                 (A) (A) (A) (A) (A) (A) (A) (A) (A) (A) (A) (A)
                 (A) (A) (A) (A) (A) (A) (A) (A) (A) (A) (A) (A)
                 (A) (A) (A) (A) (A) (A) (A) (A) (A) (A) (A) (A)
                 (A) (A) (A) (A) (A) (A) (A) (A) (A) (A) (A) (A)
                 (A) (A) (A) (A) (A) (A) (A) (A) (A) (A) (A) (A)
                 (A) (A) (A) (A) (A) (A) (A) (A) (A) (A) (A) (A)
                 (A) (A) (A) (A) (A) (A) (A) (A) (A) (A) (A) (A)
                 (A) (A) (A) (A) (A) (A) (A) (A) (A) (A) (A) (A)
                 (A) (A) (A) (A) (A) (A) (A) (A) (A) (A) (A) (A)
                 (A) (A) (A) (A) (A) (A) (A) (A) (A) (A) (A) (A)
                 (A) (A) (A) (A) (A) (A) (A) (A) (A) (A) (A) (A)
                 (A) (A) (A) (A) (A) (A) (A) (A) (A) (A) (A) (A)
 The electronic state is 1-A.
 Alpha  occ. eigenvalues --  -19.19857 -19.19455 -19.19237 -19.18700 -19.18496
 Alpha  occ. eigenvalues --  -19.17199 -19.17090 -19.17046 -19.15351 -19.14453
 Alpha  occ. eigenvalues --  -19.13787 -10.31393 -10.30924 -10.26513 -10.25865
 Alpha  occ. eigenvalues --  -10.25751 -10.25567 -10.25389 -10.25340 -10.24654
 Alpha  occ. eigenvalues --  -10.24558 -10.24485 -10.24368  -1.10211  -1.09608
 Alpha  occ. eigenvalues --   -1.05752  -1.05059  -1.03807  -1.03312  -1.02813
 Alpha  occ. eigenvalues --   -1.02448  -1.01390  -1.00316  -0.99556  -0.82541
 Alpha  occ. eigenvalues --   -0.80221  -0.79889  -0.78297  -0.71915  -0.70211
 Alpha  occ. eigenvalues --   -0.67539  -0.64740  -0.63731  -0.62337  -0.61571
 Alpha  occ. eigenvalues --   -0.60424  -0.56767  -0.55980  -0.55350  -0.54723
 Alpha  occ. eigenvalues --   -0.53946  -0.53913  -0.52930  -0.51689  -0.51123
 Alpha  occ. eigenvalues --   -0.50760  -0.50012  -0.49380  -0.48971  -0.46524
 Alpha  occ. eigenvalues --   -0.46020  -0.45350  -0.44420  -0.43960  -0.43314
 Alpha  occ. eigenvalues --   -0.42303  -0.41658  -0.40845  -0.40177  -0.39312
 Alpha  occ. eigenvalues --   -0.38962  -0.37916  -0.37134  -0.36501  -0.35465
 Alpha  occ. eigenvalues --   -0.34713  -0.34546  -0.33849  -0.33570  -0.33140
 Alpha  occ. eigenvalues --   -0.32881  -0.31696  -0.31197  -0.30402  -0.29664
 Alpha  occ. eigenvalues --   -0.29338  -0.28552  -0.28348  -0.27204  -0.26362
 Alpha  occ. eigenvalues --   -0.26325
 Alpha virt. eigenvalues --   -0.01906  -0.01780  -0.01743  -0.00155   0.00135
 Alpha virt. eigenvalues --    0.00999   0.01969   0.02280   0.02697   0.03483
 Alpha virt. eigenvalues --    0.03844   0.04426   0.04916   0.05367   0.05685
 Alpha virt. eigenvalues --    0.06116   0.06551   0.07636   0.08025   0.08129
 Alpha virt. eigenvalues --    0.08711   0.08905   0.09101   0.09516   0.10237
 Alpha virt. eigenvalues --    0.10700   0.11073   0.12007   0.12061   0.12185
 Alpha virt. eigenvalues --    0.12859   0.12899   0.13316   0.13752   0.13898
 Alpha virt. eigenvalues --    0.14122   0.14371   0.14971   0.15147   0.15395
 Alpha virt. eigenvalues --    0.15939   0.16652   0.17033   0.17191   0.17412
 Alpha virt. eigenvalues --    0.17700   0.17820   0.17866   0.18080   0.18542
 Alpha virt. eigenvalues --    0.19120   0.19297   0.19573   0.19948   0.20122
 Alpha virt. eigenvalues --    0.20787   0.21042   0.21270   0.21502   0.21712
 Alpha virt. eigenvalues --    0.21986   0.22646   0.22955   0.23250   0.23289
 Alpha virt. eigenvalues --    0.23726   0.24118   0.24222   0.24546   0.24964
 Alpha virt. eigenvalues --    0.25233   0.25550   0.25842   0.26071   0.26335
 Alpha virt. eigenvalues --    0.26688   0.26801   0.27099   0.27213   0.27471
 Alpha virt. eigenvalues --    0.27866   0.28217   0.28623   0.28777   0.28919
 Alpha virt. eigenvalues --    0.29377   0.29530   0.30040   0.30192   0.30805
 Alpha virt. eigenvalues --    0.31129   0.31359   0.31875   0.32024   0.32291
 Alpha virt. eigenvalues --    0.33084   0.33165   0.33629   0.33892   0.33913
 Alpha virt. eigenvalues --    0.34601   0.35019   0.35346   0.35800   0.36040
 Alpha virt. eigenvalues --    0.36429   0.36503   0.37330   0.37790   0.37960
 Alpha virt. eigenvalues --    0.38537   0.38666   0.39242   0.39490   0.39899
 Alpha virt. eigenvalues --    0.40057   0.40804   0.41013   0.41336   0.41903
 Alpha virt. eigenvalues --    0.42384   0.42774   0.43100   0.43455   0.44478
 Alpha virt. eigenvalues --    0.44808   0.45317   0.46164   0.46662   0.47763
 Alpha virt. eigenvalues --    0.48390   0.48608   0.49340   0.49357   0.50631
 Alpha virt. eigenvalues --    0.51281   0.52359   0.54120   0.63474   0.64706
 Alpha virt. eigenvalues --    0.65200   0.65889   0.68255   0.68881   0.69565
 Alpha virt. eigenvalues --    0.70419   0.70674   0.72415   0.73785   0.74012
 Alpha virt. eigenvalues --    0.75708   0.76409   0.76674   0.78186   0.79221
 Alpha virt. eigenvalues --    0.80568   0.80876   0.82046   0.82679   0.82865
 Alpha virt. eigenvalues --    0.84027   0.86120   0.87990   0.88954   0.89990
 Alpha virt. eigenvalues --    0.90954   0.92000   0.93196   0.94188   0.94863
 Alpha virt. eigenvalues --    0.96051   0.97660   0.98263   0.99723   1.01003
 Alpha virt. eigenvalues --    1.01913   1.02388   1.02839   1.03280   1.04902
 Alpha virt. eigenvalues --    1.05015   1.05569   1.06632   1.07538   1.07739
 Alpha virt. eigenvalues --    1.08506   1.09031   1.09211   1.09535   1.11418
 Alpha virt. eigenvalues --    1.12050   1.12290   1.13072   1.13282   1.15941
 Alpha virt. eigenvalues --    1.16694   1.18667   1.20683   1.20901   1.22188
 Alpha virt. eigenvalues --    1.22691   1.22934   1.23658   1.24572   1.24738
 Alpha virt. eigenvalues --    1.25182   1.27104   1.28036   1.28811   1.29001
 Alpha virt. eigenvalues --    1.29307   1.29729   1.30069   1.31091   1.31634
 Alpha virt. eigenvalues --    1.32964   1.33260   1.34127   1.34272   1.34984
 Alpha virt. eigenvalues --    1.35200   1.35798   1.37048   1.37928   1.38811
 Alpha virt. eigenvalues --    1.39270   1.39621   1.42042   1.42870   1.43670
 Alpha virt. eigenvalues --    1.44301   1.44759   1.46161   1.47113   1.48331
 Alpha virt. eigenvalues --    1.49501   1.50762   1.51287   1.52547   1.53204
 Alpha virt. eigenvalues --    1.54307   1.56519   1.57339   1.57422   1.58026
 Alpha virt. eigenvalues --    1.58505   1.58849   1.59959   1.61267   1.62247
 Alpha virt. eigenvalues --    1.63725   1.63845   1.63911   1.64825   1.65439
 Alpha virt. eigenvalues --    1.66980   1.68028   1.68845   1.69472   1.70348
 Alpha virt. eigenvalues --    1.70838   1.72704   1.72835   1.73267   1.74274
 Alpha virt. eigenvalues --    1.74897   1.75081   1.76599   1.77194   1.77529
 Alpha virt. eigenvalues --    1.77770   1.79208   1.80030   1.81050   1.81883
 Alpha virt. eigenvalues --    1.83062   1.84323   1.85633   1.86473   1.87180
 Alpha virt. eigenvalues --    1.88789   1.89649   1.89772   1.90463   1.91017
 Alpha virt. eigenvalues --    1.91305   1.92755   1.92855   1.93881   1.95335
 Alpha virt. eigenvalues --    1.95948   1.96343   1.96966   1.97364   1.98372
 Alpha virt. eigenvalues --    1.99702   2.00522   2.01496   2.02142   2.02949
 Alpha virt. eigenvalues --    2.03968   2.04358   2.04729   2.05949   2.06273
 Alpha virt. eigenvalues --    2.07045   2.07798   2.09302   2.10292   2.10901
 Alpha virt. eigenvalues --    2.12014   2.12666   2.14096   2.14594   2.15960
 Alpha virt. eigenvalues --    2.16107   2.17806   2.19159   2.20064   2.20749
 Alpha virt. eigenvalues --    2.22417   2.23624   2.23669   2.25786   2.27503
 Alpha virt. eigenvalues --    2.29422   2.30705   2.32604   2.33761   2.33966
 Alpha virt. eigenvalues --    2.36078   2.37380   2.37811   2.38099   2.38938
 Alpha virt. eigenvalues --    2.40210   2.41354   2.43185   2.44248   2.45347
 Alpha virt. eigenvalues --    2.45730   2.46237   2.47521   2.48081   2.48678
 Alpha virt. eigenvalues --    2.51463   2.52065   2.53204   2.54488   2.55982
 Alpha virt. eigenvalues --    2.56539   2.57910   2.58998   2.59977   2.61581
 Alpha virt. eigenvalues --    2.62207   2.63056   2.63822   2.64303   2.65030
 Alpha virt. eigenvalues --    2.65713   2.66698   2.67910   2.68812   2.70171
 Alpha virt. eigenvalues --    2.71441   2.72205   2.73055   2.74319   2.75595
 Alpha virt. eigenvalues --    2.76223   2.77229   2.77873   2.79831   2.81198
 Alpha virt. eigenvalues --    2.81698   2.82218   2.82714   2.83962   2.85646
 Alpha virt. eigenvalues --    2.86385   2.86496   2.88603   2.89838   2.89954
 Alpha virt. eigenvalues --    2.90497   2.91680   2.92743   2.93304   2.94103
 Alpha virt. eigenvalues --    2.95312   2.95651   2.97337   2.97850   3.00342
 Alpha virt. eigenvalues --    3.01145   3.03111   3.04064   3.05748   3.06229
 Alpha virt. eigenvalues --    3.08043   3.08782   3.10285   3.11418   3.16296
 Alpha virt. eigenvalues --    3.18072   3.19917   3.20743   3.25070   3.31363
 Alpha virt. eigenvalues --    3.33219   3.36771   3.37831   3.38948   3.40196
 Alpha virt. eigenvalues --    3.42617   3.44385   3.45549   3.46656   3.47509
 Alpha virt. eigenvalues --    3.50074   3.50599   3.52453   3.53037   3.54004
 Alpha virt. eigenvalues --    3.56553   3.57105   3.60904   3.62538   3.65785
 Alpha virt. eigenvalues --    3.66217   3.69014   3.73563   4.30811   4.31729
 Alpha virt. eigenvalues --    4.35478   4.35724   4.43271   4.44419   4.46523
 Alpha virt. eigenvalues --    4.47505   4.50221   4.51630   4.55088   4.55345
 Alpha virt. eigenvalues --    4.57922   4.60539   4.63212   4.65430   4.70916
 Alpha virt. eigenvalues --    4.79673   4.81599   4.85963   4.86483   4.89106
 Alpha virt. eigenvalues --    4.90728
          Condensed to atoms (all electrons):
              1          2          3          4          5          6
     1  O    8.334896   0.177908  -0.088708  -0.017207   0.030081   0.093309
     2  C    0.177908   8.958384  -0.906903   0.003476  -0.104111  -2.463073
     3  C   -0.088708  -0.906903   8.418640   0.200382   0.050459   0.029899
     4  O   -0.017207   0.003476   0.200382   8.242117   0.196049  -0.094543
     5  H    0.030081  -0.104111   0.050459   0.196049   0.425403   0.024321
     6  C    0.093309  -2.463073   0.029899  -0.094543   0.024321  12.603719
     7  O   -0.001150   0.040589  -0.162475   0.008465  -0.000779   0.371304
     8  H    0.000021  -0.009639   0.018509  -0.000612   0.000010   0.048474
     9  C   -0.110567   0.086768  -0.320741   0.003482  -0.005026   0.356733
    10  O   -0.066530   0.021608  -0.008107   0.000249  -0.000012  -0.009749
    11  H    0.001762   0.000073  -0.002727   0.000001   0.000000   0.000110
    12  C   -0.075641  -1.602627  -0.673686   0.021785   0.020374   1.026807
    13  O    0.007650  -0.021142   0.012147  -0.000407  -0.000080  -0.062642
    14  C    0.040113   1.056879  -0.246053  -0.010566   0.011493  -4.389578
    15  O    0.000736  -0.032382  -0.013013  -0.000402   0.000060   0.193546
    16  C    0.005237   0.143520  -0.240700  -0.002327   0.001244  -0.836179
    17  C    0.000015  -0.010258  -0.032510   0.001078   0.000062  -0.078719
    18  O    0.000044   0.003488  -0.000712  -0.000010   0.000000   0.005618
    19  H   -0.000046  -0.000215   0.005997  -0.000005   0.000000   0.011309
    20  C    0.000104   0.011678  -0.014453  -0.000038   0.000002   0.085550
    21  O    0.000000  -0.000013  -0.000073   0.000000   0.000000  -0.000537
    22  H    0.000000   0.000000   0.000002   0.000000   0.000000  -0.000065
    23  C    0.000103   0.022128  -0.034428   0.000703  -0.000021  -0.281404
    24  O    0.000009   0.002253  -0.006140   0.000007  -0.000005  -0.061885
    25  H    0.000000   0.000006   0.001703   0.000001   0.000000  -0.002340
    26  C   -0.000237  -0.014658  -0.013493  -0.000326   0.000009  -0.208130
    27  O    0.000000  -0.000121   0.001144   0.000001   0.000000   0.006554
    28  C    0.000001  -0.000487   0.002706   0.000008   0.000000  -0.002847
    29  O    0.000000  -0.000010   0.000042   0.000000   0.000000  -0.000200
    30  H    0.000000   0.000000   0.000000   0.000000   0.000000   0.000008
    31  H    0.000000  -0.000001   0.000011   0.000000   0.000000   0.000314
    32  H    0.000000   0.000048   0.000087   0.000000   0.000000   0.001256
    33  H    0.000000  -0.000390   0.000549   0.000000   0.000000   0.006235
    34  H   -0.000004  -0.000568   0.005125   0.000004   0.000000   0.013944
    35  H    0.000000  -0.000002   0.000612   0.000000   0.000000   0.001439
    36  H    0.000000   0.000015   0.000116   0.000000   0.000000   0.001047
    37  H    0.000000   0.000101   0.000210   0.000003   0.000000  -0.000148
    38  H   -0.000023   0.034437  -0.040019  -0.000167   0.000004  -0.160642
    39  H   -0.000725   0.078893  -0.195101   0.006832  -0.000062   0.263392
    40  H   -0.006016   0.101006   0.251961  -0.041330  -0.004017  -0.296485
    41  H   -0.046202   0.427444  -0.075331   0.001168  -0.000884  -0.041284
    42  H    0.225249   0.109096  -0.032731   0.000847  -0.002833  -0.003649
    43  H    0.008963   0.020458  -0.041282   0.000395  -0.000004  -0.059448
    44  H    0.005313  -0.044260   0.012074  -0.000045   0.000000   0.011380
    45  H   -0.002268  -0.000609  -0.010130   0.000030   0.000000  -0.001574
              7          8          9         10         11         12
     1  O   -0.001150   0.000021  -0.110567  -0.066530   0.001762  -0.075641
     2  C    0.040589  -0.009639   0.086768   0.021608   0.000073  -1.602627
     3  C   -0.162475   0.018509  -0.320741  -0.008107  -0.002727  -0.673686
     4  O    0.008465  -0.000612   0.003482   0.000249   0.000001   0.021785
     5  H   -0.000779   0.000010  -0.005026  -0.000012   0.000000   0.020374
     6  C    0.371304   0.048474   0.356733  -0.009749   0.000110   1.026807
     7  O    8.263066   0.206070   0.006083   0.000051   0.000000   0.029783
     8  H    0.206070   0.337202   0.000323   0.000000   0.000000   0.000529
     9  C    0.006083   0.000323   8.596070  -0.207360   0.061111  -1.682928
    10  O    0.000051   0.000000  -0.207360   8.391830   0.176202   0.311654
    11  H    0.000000   0.000000   0.061111   0.176202   0.452752  -0.027417
    12  C    0.029783   0.000529  -1.682928   0.311654  -0.027417  11.480296
    13  O    0.007294   0.000324  -0.093537  -0.001868  -0.000056  -0.182673
    14  C   -0.150145  -0.068546  -1.529062   0.018546  -0.007513  -1.811624
    15  O   -0.001794   0.016739   0.003769   0.000131   0.000014   0.028987
    16  C    0.041166   0.013726  -0.277668  -0.004461   0.000022  -0.317858
    17  C   -0.000314  -0.000050  -0.036670   0.000059   0.000048  -0.210009
    18  O    0.000030  -0.000027  -0.001928  -0.000200   0.000021  -0.010938
    19  H   -0.000090  -0.000004  -0.001942   0.000075  -0.000003   0.002749
    20  C    0.003599   0.000999   0.006187   0.000042  -0.000009  -0.058005
    21  O   -0.000005   0.000000   0.000320   0.000000   0.000000  -0.000567
    22  H    0.000000   0.000000  -0.000003   0.000000   0.000000   0.000075
    23  C    0.022017   0.008282  -0.006206  -0.000049  -0.000001  -0.038709
    24  O   -0.034937  -0.009377  -0.000601  -0.000001   0.000000   0.000102
    25  H    0.002747  -0.003826  -0.000027   0.000000   0.000000  -0.000709
    26  C   -0.046386  -0.021081   0.005390  -0.000076   0.000007   0.128560
    27  O    0.000291   0.000077  -0.000218   0.000000   0.000000  -0.001174
    28  C    0.000032  -0.000068  -0.003253  -0.000003  -0.000001   0.005793
    29  O   -0.000002  -0.000001  -0.000018   0.000000   0.000000   0.000090
    30  H    0.000000   0.000000   0.000000   0.000000   0.000000  -0.000004
    31  H    0.000000   0.000000   0.000008   0.000000   0.000000   0.000005
    32  H    0.000001   0.000000   0.000013   0.000000   0.000000   0.000412
    33  H   -0.000002   0.000002   0.000676   0.000000   0.000000   0.002373
    34  H   -0.000785   0.000121   0.000191   0.000002   0.000000   0.006165
    35  H    0.000033   0.000014   0.000119   0.000000   0.000000   0.000825
    36  H   -0.000898   0.000542  -0.000009   0.000000   0.000000  -0.000079
    37  H    0.002720   0.000986   0.000123   0.000000   0.000000   0.001601
    38  H    0.004893  -0.000693   0.008240   0.000085   0.000001  -0.019062
    39  H   -0.045313  -0.006116   0.013833   0.000011   0.000000   0.009599
    40  H    0.007822  -0.000127   0.022669  -0.000137   0.000000  -0.020630
    41  H    0.000062   0.000003  -0.023886  -0.000828   0.000005  -0.112182
    42  H   -0.000003   0.000000  -0.003732   0.006386  -0.000084  -0.050183
    43  H    0.000036   0.000004  -0.051423   0.003702  -0.000216   0.178107
    44  H   -0.000005   0.000000   0.486752  -0.057744  -0.006662  -0.139403
    45  H   -0.000002   0.000000   0.439060  -0.045291  -0.006634  -0.040416
             13         14         15         16         17         18
     1  O    0.007650   0.040113   0.000736   0.005237   0.000015   0.000044
     2  C   -0.021142   1.056879  -0.032382   0.143520  -0.010258   0.003488
     3  C    0.012147  -0.246053  -0.013013  -0.240700  -0.032510  -0.000712
     4  O   -0.000407  -0.010566  -0.000402  -0.002327   0.001078  -0.000010
     5  H   -0.000080   0.011493   0.000060   0.001244   0.000062   0.000000
     6  C   -0.062642  -4.389578   0.193546  -0.836179  -0.078719   0.005618
     7  O    0.007294  -0.150145  -0.001794   0.041166  -0.000314   0.000030
     8  H    0.000324  -0.068546   0.016739   0.013726  -0.000050  -0.000027
     9  C   -0.093537  -1.529062   0.003769  -0.277668  -0.036670  -0.001928
    10  O   -0.001868   0.018546   0.000131  -0.004461   0.000059  -0.000200
    11  H   -0.000056  -0.007513   0.000014   0.000022   0.000048   0.000021
    12  C   -0.182673  -1.811624   0.028987  -0.317858  -0.210009  -0.010938
    13  O    8.469045   0.353838  -0.031409   0.070636  -0.013695   0.018314
    14  C    0.353838  13.409915   0.012047  -0.859612  -0.186848  -0.038024
    15  O   -0.031409   0.012047   8.359347   0.011037  -0.034278  -0.002652
    16  C    0.070636  -0.859612   0.011037  14.741989  -2.774964  -0.121448
    17  C   -0.013695  -0.186848  -0.034278  -2.774964   9.230293   0.427005
    18  O    0.018314  -0.038024  -0.002652  -0.121448   0.427005   8.218539
    19  H    0.018287  -0.001638   0.025332  -0.125010   0.050996   0.186839
    20  C   -0.018177  -0.353973   0.045620  -1.190058  -0.535152  -0.132014
    21  O   -0.000082  -0.002515  -0.000217  -0.044891  -0.143825   0.010556
    22  H    0.000000  -0.000035   0.000037  -0.003287   0.032319  -0.000558
    23  C    0.023457  -0.096524  -0.002802   0.579924  -0.455949   0.001322
    24  O   -0.002598   0.144368  -0.038177  -0.028722   0.005845   0.000188
    25  H    0.000047  -0.010705   0.002202  -0.002363  -0.000265   0.000002
    26  C   -0.048972  -0.601531  -0.078892  -4.248662   0.654015   0.025742
    27  O    0.000323  -0.001083   0.012152  -0.079851  -0.016841   0.000459
    28  C    0.003738   0.018215   0.011538   0.620944   0.056927   0.000554
    29  O    0.000012   0.002050   0.000306   0.029247   0.005610  -0.000388
    30  H    0.000000   0.000072  -0.000003  -0.006918   0.009968  -0.000029
    31  H    0.000000   0.005458   0.000053   0.107596  -0.022747  -0.000679
    32  H    0.000257   0.008795  -0.001267   0.112786  -0.169214   0.002600
    33  H    0.001540   0.066970  -0.012528   0.083959   0.322964  -0.057599
    34  H    0.002020   0.040225  -0.066405   0.375771  -0.025249  -0.001682
    35  H   -0.000211   0.054828   0.007739   0.036201  -0.042437  -0.000667
    36  H    0.000010   0.000457   0.000761   0.032821  -0.002797   0.000043
    37  H    0.000211   0.023678   0.006276  -0.018328  -0.014447  -0.000074
    38  H   -0.069972   0.386837  -0.060911   0.086619   0.019450  -0.000884
    39  H    0.010235   0.059676  -0.011818   0.039467   0.005585   0.000145
    40  H    0.005088   0.181539  -0.000927   0.010645   0.002267   0.000068
    41  H    0.008396   0.106400  -0.000238   0.000122   0.001401   0.000056
    42  H   -0.000642   0.001576  -0.000012   0.000364  -0.000076   0.000000
    43  H   -0.054370   0.201987   0.001491   0.014196   0.007857   0.000181
    44  H    0.004504   0.024104  -0.000081  -0.003918   0.000524   0.000263
    45  H    0.000781  -0.011589  -0.000528   0.005555   0.000507  -0.001252
             19         20         21         22         23         24
     1  O   -0.000046   0.000104   0.000000   0.000000   0.000103   0.000009
     2  C   -0.000215   0.011678  -0.000013   0.000000   0.022128   0.002253
     3  C    0.005997  -0.014453  -0.000073   0.000002  -0.034428  -0.006140
     4  O   -0.000005  -0.000038   0.000000   0.000000   0.000703   0.000007
     5  H    0.000000   0.000002   0.000000   0.000000  -0.000021  -0.000005
     6  C    0.011309   0.085550  -0.000537  -0.000065  -0.281404  -0.061885
     7  O   -0.000090   0.003599  -0.000005   0.000000   0.022017  -0.034937
     8  H   -0.000004   0.000999   0.000000   0.000000   0.008282  -0.009377
     9  C   -0.001942   0.006187   0.000320  -0.000003  -0.006206  -0.000601
    10  O    0.000075   0.000042   0.000000   0.000000  -0.000049  -0.000001
    11  H   -0.000003  -0.000009   0.000000   0.000000  -0.000001   0.000000
    12  C    0.002749  -0.058005  -0.000567   0.000075  -0.038709   0.000102
    13  O    0.018287  -0.018177  -0.000082   0.000000   0.023457  -0.002598
    14  C   -0.001638  -0.353973  -0.002515  -0.000035  -0.096524   0.144368
    15  O    0.025332   0.045620  -0.000217   0.000037  -0.002802  -0.038177
    16  C   -0.125010  -1.190058  -0.044891  -0.003287   0.579924  -0.028722
    17  C    0.050996  -0.535152  -0.143825   0.032319  -0.455949   0.005845
    18  O    0.186839  -0.132014   0.010556  -0.000558   0.001322   0.000188
    19  H    0.366281   0.037304  -0.000798   0.000010  -0.006200   0.000017
    20  C    0.037304   8.687943   0.340597  -0.010813   0.120938  -0.008054
    21  O   -0.000798   0.340597   8.233670   0.216458   0.003609   0.000023
    22  H    0.000010  -0.010813   0.216458   0.415403  -0.000381   0.000000
    23  C   -0.006200   0.120938   0.003609  -0.000381   6.479368  -0.151600
    24  O    0.000017  -0.008054   0.000023   0.000000  -0.151600   8.614620
    25  H    0.000000   0.000262   0.000000   0.000000   0.019415   0.203458
    26  C    0.020252   0.180555   0.036771  -0.000103  -1.113193   0.139499
    27  O    0.000067  -0.195896   0.007685  -0.000532  -0.094007   0.000761
    28  C   -0.002691  -1.021021  -0.096985  -0.010790  -0.076553   0.005643
    29  O    0.000021  -0.153940   0.005498   0.012470  -0.004357   0.000019
    30  H    0.000000  -0.006828  -0.003162  -0.000972   0.000841  -0.000001
    31  H    0.000003  -0.120477   0.004052  -0.000392   0.000827   0.000069
    32  H   -0.000024   0.372175  -0.045146  -0.008107   0.012033   0.000012
    33  H   -0.004172  -0.149703   0.000077  -0.000173   0.010430   0.000072
    34  H   -0.000175  -0.008583  -0.000426   0.000006  -0.012295   0.000267
    35  H    0.000019  -0.017730   0.000007   0.000002   0.024976   0.006108
    36  H    0.000000   0.001395  -0.000013   0.000000   0.438875  -0.039351
    37  H    0.000003  -0.000252   0.000000   0.000000   0.568958  -0.087985
    38  H   -0.000070   0.009558   0.000015   0.000000   0.010459   0.001015
    39  H   -0.000030   0.000605   0.000000   0.000000   0.009245   0.002023
    40  H   -0.000005   0.000044   0.000000   0.000000   0.001164   0.000132
    41  H   -0.000009   0.000031   0.000000   0.000000   0.000148   0.000011
    42  H    0.000000   0.000001   0.000000   0.000000   0.000007   0.000000
    43  H    0.000369   0.001212   0.000000   0.000000   0.000733   0.000016
    44  H    0.000013   0.000170   0.000000   0.000000   0.000010   0.000000
    45  H    0.000631  -0.000618  -0.000002   0.000000   0.000019   0.000000
             25         26         27         28         29         30
     1  O    0.000000  -0.000237   0.000000   0.000001   0.000000   0.000000
     2  C    0.000006  -0.014658  -0.000121  -0.000487  -0.000010   0.000000
     3  C    0.001703  -0.013493   0.001144   0.002706   0.000042   0.000000
     4  O    0.000001  -0.000326   0.000001   0.000008   0.000000   0.000000
     5  H    0.000000   0.000009   0.000000   0.000000   0.000000   0.000000
     6  C   -0.002340  -0.208130   0.006554  -0.002847  -0.000200   0.000008
     7  O    0.002747  -0.046386   0.000291   0.000032  -0.000002   0.000000
     8  H   -0.003826  -0.021081   0.000077  -0.000068  -0.000001   0.000000
     9  C   -0.000027   0.005390  -0.000218  -0.003253  -0.000018   0.000000
    10  O    0.000000  -0.000076   0.000000  -0.000003   0.000000   0.000000
    11  H    0.000000   0.000007   0.000000  -0.000001   0.000000   0.000000
    12  C   -0.000709   0.128560  -0.001174   0.005793   0.000090  -0.000004
    13  O    0.000047  -0.048972   0.000323   0.003738   0.000012   0.000000
    14  C   -0.010705  -0.601531  -0.001083   0.018215   0.002050   0.000072
    15  O    0.002202  -0.078892   0.012152   0.011538   0.000306  -0.000003
    16  C   -0.002363  -4.248662  -0.079851   0.620944   0.029247  -0.006918
    17  C   -0.000265   0.654015  -0.016841   0.056927   0.005610   0.009968
    18  O    0.000002   0.025742   0.000459   0.000554  -0.000388  -0.000029
    19  H    0.000000   0.020252   0.000067  -0.002691   0.000021   0.000000
    20  C    0.000262   0.180555  -0.195896  -1.021021  -0.153940  -0.006828
    21  O    0.000000   0.036771   0.007685  -0.096985   0.005498  -0.003162
    22  H    0.000000  -0.000103  -0.000532  -0.010790   0.012470  -0.000972
    23  C    0.019415  -1.113193  -0.094007  -0.076553  -0.004357   0.000841
    24  O    0.203458   0.139499   0.000761   0.005643   0.000019  -0.000001
    25  H    0.396156   0.007727  -0.000153  -0.000778  -0.000001   0.000000
    26  C    0.007727  12.094107   0.299936  -0.593363  -0.079630   0.004889
    27  O   -0.000153   0.299936   8.386777   0.124372  -0.105840  -0.001302
    28  C   -0.000778  -0.593363   0.124372   5.809795   0.425408   0.010247
    29  O   -0.000001  -0.079630  -0.105840   0.425408   8.247018   0.232821
    30  H    0.000000   0.004889  -0.001302   0.010247   0.232821   0.409172
    31  H    0.000000  -0.073917  -0.051310   0.443801  -0.052793  -0.007146
    32  H    0.000000  -0.020239   0.005740  -0.032788  -0.008500   0.000353
    33  H    0.000000  -0.075937   0.002270   0.007084  -0.000421   0.000013
    34  H   -0.000016  -0.141414   0.007942   0.019226  -0.000875   0.000003
    35  H   -0.000092   0.179008  -0.033290   0.029615  -0.001189   0.000025
    36  H   -0.011677  -0.094019  -0.005967  -0.000789  -0.000373  -0.000002
    37  H    0.000748  -0.219251   0.010607   0.006122  -0.000038  -0.000001
    38  H    0.000015   0.002558   0.000183  -0.000558  -0.000002   0.000000
    39  H   -0.000013  -0.009219   0.000002  -0.000085   0.000000   0.000000
    40  H    0.000000  -0.000747   0.000000  -0.000013   0.000000   0.000000
    41  H    0.000000  -0.000242   0.000000  -0.000005   0.000000   0.000000
    42  H    0.000000  -0.000005   0.000000   0.000000   0.000000   0.000000
    43  H    0.000000  -0.001507   0.000000  -0.000091   0.000000   0.000000
    44  H    0.000000  -0.000308   0.000000  -0.000005   0.000000   0.000000
    45  H    0.000000   0.000368   0.000000   0.000055   0.000000   0.000000
             31         32         33         34         35         36
     1  O    0.000000   0.000000   0.000000  -0.000004   0.000000   0.000000
     2  C   -0.000001   0.000048  -0.000390  -0.000568  -0.000002   0.000015
     3  C    0.000011   0.000087   0.000549   0.005125   0.000612   0.000116
     4  O    0.000000   0.000000   0.000000   0.000004   0.000000   0.000000
     5  H    0.000000   0.000000   0.000000   0.000000   0.000000   0.000000
     6  C    0.000314   0.001256   0.006235   0.013944   0.001439   0.001047
     7  O    0.000000   0.000001  -0.000002  -0.000785   0.000033  -0.000898
     8  H    0.000000   0.000000   0.000002   0.000121   0.000014   0.000542
     9  C    0.000008   0.000013   0.000676   0.000191   0.000119  -0.000009
    10  O    0.000000   0.000000   0.000000   0.000002   0.000000   0.000000
    11  H    0.000000   0.000000   0.000000   0.000000   0.000000   0.000000
    12  C    0.000005   0.000412   0.002373   0.006165   0.000825  -0.000079
    13  O    0.000000   0.000257   0.001540   0.002020  -0.000211   0.000010
    14  C    0.005458   0.008795   0.066970   0.040225   0.054828   0.000457
    15  O    0.000053  -0.001267  -0.012528  -0.066405   0.007739   0.000761
    16  C    0.107596   0.112786   0.083959   0.375771   0.036201   0.032821
    17  C   -0.022747  -0.169214   0.322964  -0.025249  -0.042437  -0.002797
    18  O   -0.000679   0.002600  -0.057599  -0.001682  -0.000667   0.000043
    19  H    0.000003  -0.000024  -0.004172  -0.000175   0.000019   0.000000
    20  C   -0.120477   0.372175  -0.149703  -0.008583  -0.017730   0.001395
    21  O    0.004052  -0.045146   0.000077  -0.000426   0.000007  -0.000013
    22  H   -0.000392  -0.008107  -0.000173   0.000006   0.000002   0.000000
    23  C    0.000827   0.012033   0.010430  -0.012295   0.024976   0.438875
    24  O    0.000069   0.000012   0.000072   0.000267   0.006108  -0.039351
    25  H    0.000000   0.000000   0.000000  -0.000016  -0.000092  -0.011677
    26  C   -0.073917  -0.020239  -0.075937  -0.141414   0.179008  -0.094019
    27  O   -0.051310   0.005740   0.002270   0.007942  -0.033290  -0.005967
    28  C    0.443801  -0.032788   0.007084   0.019226   0.029615  -0.000789
    29  O   -0.052793  -0.008500  -0.000421  -0.000875  -0.001189  -0.000373
    30  H   -0.007146   0.000353   0.000013   0.000003   0.000025  -0.000002
    31  H    0.618809   0.005550   0.003534   0.000029   0.004570  -0.000035
    32  H    0.005550   0.605108   0.008022   0.004416   0.000016   0.000002
    33  H    0.003534   0.008022   0.647415   0.007690   0.003417   0.000005
    34  H    0.000029   0.004416   0.007690   0.631889   0.005925   0.000360
    35  H    0.004570   0.000016   0.003417   0.005925   0.589371  -0.004213
    36  H   -0.000035   0.000002   0.000005   0.000360  -0.004213   0.586451
    37  H   -0.000008  -0.000021   0.000008   0.007591   0.005966  -0.040586
    38  H    0.000000  -0.000027  -0.000049   0.010564  -0.000007   0.000002
    39  H    0.000000   0.000000  -0.000003   0.000006  -0.000006   0.000001
    40  H    0.000000   0.000000   0.000000  -0.000003   0.000000   0.000000
    41  H    0.000000   0.000000   0.000000   0.000000   0.000000   0.000000
    42  H    0.000000   0.000000   0.000000   0.000000   0.000000   0.000000
    43  H    0.000000   0.000000  -0.000001  -0.000030   0.000000   0.000000
    44  H    0.000000   0.000000   0.000000   0.000000   0.000000   0.000000
    45  H    0.000000   0.000000   0.000000   0.000001   0.000000   0.000000
             37         38         39         40         41         42
     1  O    0.000000  -0.000023  -0.000725  -0.006016  -0.046202   0.225249
     2  C    0.000101   0.034437   0.078893   0.101006   0.427444   0.109096
     3  C    0.000210  -0.040019  -0.195101   0.251961  -0.075331  -0.032731
     4  O    0.000003  -0.000167   0.006832  -0.041330   0.001168   0.000847
     5  H    0.000000   0.000004  -0.000062  -0.004017  -0.000884  -0.002833
     6  C   -0.000148  -0.160642   0.263392  -0.296485  -0.041284  -0.003649
     7  O    0.002720   0.004893  -0.045313   0.007822   0.000062  -0.000003
     8  H    0.000986  -0.000693  -0.006116  -0.000127   0.000003   0.000000
     9  C    0.000123   0.008240   0.013833   0.022669  -0.023886  -0.003732
    10  O    0.000000   0.000085   0.000011  -0.000137  -0.000828   0.006386
    11  H    0.000000   0.000001   0.000000   0.000000   0.000005  -0.000084
    12  C    0.001601  -0.019062   0.009599  -0.020630  -0.112182  -0.050183
    13  O    0.000211  -0.069972   0.010235   0.005088   0.008396  -0.000642
    14  C    0.023678   0.386837   0.059676   0.181539   0.106400   0.001576
    15  O    0.006276  -0.060911  -0.011818  -0.000927  -0.000238  -0.000012
    16  C   -0.018328   0.086619   0.039467   0.010645   0.000122   0.000364
    17  C   -0.014447   0.019450   0.005585   0.002267   0.001401  -0.000076
    18  O   -0.000074  -0.000884   0.000145   0.000068   0.000056   0.000000
    19  H    0.000003  -0.000070  -0.000030  -0.000005  -0.000009   0.000000
    20  C   -0.000252   0.009558   0.000605   0.000044   0.000031   0.000001
    21  O    0.000000   0.000015   0.000000   0.000000   0.000000   0.000000
    22  H    0.000000   0.000000   0.000000   0.000000   0.000000   0.000000
    23  C    0.568958   0.010459   0.009245   0.001164   0.000148   0.000007
    24  O   -0.087985   0.001015   0.002023   0.000132   0.000011   0.000000
    25  H    0.000748   0.000015  -0.000013   0.000000   0.000000   0.000000
    26  C   -0.219251   0.002558  -0.009219  -0.000747  -0.000242  -0.000005
    27  O    0.010607   0.000183   0.000002   0.000000   0.000000   0.000000
    28  C    0.006122  -0.000558  -0.000085  -0.000013  -0.000005   0.000000
    29  O   -0.000038  -0.000002   0.000000   0.000000   0.000000   0.000000
    30  H   -0.000001   0.000000   0.000000   0.000000   0.000000   0.000000
    31  H   -0.000008   0.000000   0.000000   0.000000   0.000000   0.000000
    32  H   -0.000021  -0.000027   0.000000   0.000000   0.000000   0.000000
    33  H    0.000008  -0.000049  -0.000003   0.000000   0.000000   0.000000
    34  H    0.007591   0.010564   0.000006  -0.000003   0.000000   0.000000
    35  H    0.005966  -0.000007  -0.000006   0.000000   0.000000   0.000000
    36  H   -0.040586   0.000002   0.000001   0.000000   0.000000   0.000000
    37  H    0.602993  -0.000128  -0.000022  -0.000001   0.000000   0.000000
    38  H   -0.000128   0.635159   0.005983   0.003457   0.000018   0.000004
    39  H   -0.000022   0.005983   0.608910   0.007431   0.002769   0.000014
    40  H   -0.000001   0.003457   0.007431   0.626742   0.006261   0.000108
    41  H    0.000000   0.000018   0.002769   0.006261   0.611180  -0.011037
    42  H    0.000000   0.000004   0.000014   0.000108  -0.011037   0.398637
    43  H    0.000000   0.008576   0.000111   0.005083   0.006673  -0.000115
    44  H    0.000000  -0.000016  -0.000006   0.000001   0.002669  -0.000195
    45  H    0.000000   0.000019   0.000001   0.000000  -0.000103   0.000015
             43         44         45
     1  O    0.008963   0.005313  -0.002268
     2  C    0.020458  -0.044260  -0.000609
     3  C   -0.041282   0.012074  -0.010130
     4  O    0.000395  -0.000045   0.000030
     5  H   -0.000004   0.000000   0.000000
     6  C   -0.059448   0.011380  -0.001574
     7  O    0.000036  -0.000005  -0.000002
     8  H    0.000004   0.000000   0.000000
     9  C   -0.051423   0.486752   0.439060
    10  O    0.003702  -0.057744  -0.045291
    11  H   -0.000216  -0.006662  -0.006634
    12  C    0.178107  -0.139403  -0.040416
    13  O   -0.054370   0.004504   0.000781
    14  C    0.201987   0.024104  -0.011589
    15  O    0.001491  -0.000081  -0.000528
    16  C    0.014196  -0.003918   0.005555
    17  C    0.007857   0.000524   0.000507
    18  O    0.000181   0.000263  -0.001252
    19  H    0.000369   0.000013   0.000631
    20  C    0.001212   0.000170  -0.000618
    21  O    0.000000   0.000000  -0.000002
    22  H    0.000000   0.000000   0.000000
    23  C    0.000733   0.000010   0.000019
    24  O    0.000016   0.000000   0.000000
    25  H    0.000000   0.000000   0.000000
    26  C   -0.001507  -0.000308   0.000368
    27  O    0.000000   0.000000   0.000000
    28  C   -0.000091  -0.000005   0.000055
    29  O    0.000000   0.000000   0.000000
    30  H    0.000000   0.000000   0.000000
    31  H    0.000000   0.000000   0.000000
    32  H    0.000000   0.000000   0.000000
    33  H   -0.000001   0.000000   0.000000
    34  H   -0.000030   0.000000   0.000001
    35  H    0.000000   0.000000   0.000000
    36  H    0.000000   0.000000   0.000000
    37  H    0.000000   0.000000   0.000000
    38  H    0.008576  -0.000016   0.000019
    39  H    0.000111  -0.000006   0.000001
    40  H    0.005083   0.000001   0.000000
    41  H    0.006673   0.002669  -0.000103
    42  H   -0.000115  -0.000195   0.000015
    43  H    0.623534   0.007016  -0.011197
    44  H    0.007016   0.616743  -0.053496
    45  H   -0.011197  -0.053496   0.588705
 Mulliken atomic charges:
              1
     1  O   -0.516191
     2  C   -0.088787
     3  C    0.147139
     4  O   -0.519098
     5  H    0.358262
     6  C   -0.101145
     7  O   -0.573067
     8  H    0.467208
     9  C    0.258881
    10  O   -0.528218
    11  H    0.359193
    12  C   -0.180145
    13  O   -0.415623
    14  C    0.147098
    15  O   -0.349186
    16  C    0.022431
    17  C   -0.027485
    18  O   -0.530314
    19  H    0.416552
    20  C    0.089224
    21  O   -0.520079
    22  H    0.359429
    23  C    0.014687
    24  O   -0.657100
    25  H    0.398475
    26  C   -0.073855
    27  O   -0.279758
    28  C    0.241351
    29  O   -0.552034
    30  H    0.357955
    31  H    0.134814
    32  H    0.145652
    33  H    0.125674
    34  H    0.119028
    35  H    0.149010
    36  H    0.137901
    37  H    0.142384
    38  H    0.125078
    39  H    0.143750
    40  H    0.136949
    41  H    0.137414
    42  H    0.362991
    43  H    0.128985
    44  H    0.134608
    45  H    0.149961
 Sum of Mulliken atomic charges =   0.00000
 Mulliken charges with hydrogens summed into heavy atoms:
              1
     1  O   -0.153201
     2  C    0.048628
     3  C    0.284087
     4  O   -0.160836
     6  C    0.042605
     7  O   -0.105859
     9  C    0.543451
    10  O   -0.169025
    12  C   -0.051159
    13  O   -0.415623
    14  C    0.272176
    15  O   -0.349186
    16  C    0.141459
    17  C    0.098189
    18  O   -0.113762
    20  C    0.234877
    21  O   -0.160650
    23  C    0.294972
    24  O   -0.258625
    26  C    0.075155
    27  O   -0.279758
    28  C    0.376164
    29  O   -0.194079
 Sum of Mulliken charges with hydrogens summed into heavy atoms =   0.00000
 APT atomic charges:
              1
     1  O   -0.634434
     2  C    0.416701
     3  C    0.423926
     4  O   -0.648897
     5  H    0.267184
     6  C    0.383439
     7  O   -0.778672
     8  H    0.511947
     9  C    0.472815
    10  O   -0.583812
    11  H    0.234391
    12  C    0.417948
    13  O   -0.849368
    14  C    0.907025
    15  O   -0.877823
    16  C    0.458051
    17  C    0.382092
    18  O   -0.736061
    19  H    0.418195
    20  C    0.413616
    21  O   -0.642665
    22  H    0.264945
    23  C    0.461234
    24  O   -0.702209
    25  H    0.271000
    26  C    0.410936
    27  O   -0.743517
    28  C    0.890171
    29  O   -0.658295
    30  H    0.262090
    31  H   -0.074657
    32  H   -0.042469
    33  H   -0.068552
    34  H   -0.042906
    35  H   -0.045840
    36  H   -0.038167
    37  H   -0.026061
    38  H   -0.055287
    39  H   -0.036141
    40  H   -0.053980
    41  H   -0.047313
    42  H    0.265673
    43  H   -0.044316
    44  H   -0.057888
    45  H   -0.044052
 Sum of APT charges=   0.00000
 APT Atomic charges with hydrogens summed into heavy atoms:
              1
     1  O   -0.368762
     2  C    0.369388
     3  C    0.369946
     4  O   -0.381714
[...]
 0.00008531,0.00012484,-0.00000617,-0.00001033,0.00000769,-0.00000324,0
 .00001189,-0.00001127,0.00000042,-0.00000086,0.00000179,-0.00000540,-0
 .00001066,0.00001197,-0.00004418,-0.00000619,-0.00007657,0.00001441,0.
 00000853,0.00000570,0.00001464,0.00000651,0.00001001,-0.00000787,0.000
 00695,-0.00002023,0.00001026,-0.00000772,0.00001660,0.00000166,0.00000
 120,-0.00001295,0.00000166,-0.00000020,0.00000179,-0.00000263,0.000000
 47,-0.00000190,-0.00000176,0.00000043,0.00000078,-0.00000728,-0.000004
 97,-0.00000595,-0.00000009,0.00000129,-0.00000151,-0.00000366,-0.00000
 072,-0.00000285,0.00000205,-0.00000001,-0.00000491,-0.00000187,0.00000
 167,0.00000448,0.00000824,-0.00000693,-0.00002789,-0.00002649,0.000015
 06,0.00010152,0.00037443,0.00006180,-0.00008847,0.00091540,-0.00111159
 ,-0.00248800,0.25139160,0.07103588,-0.02504131,-0.09882861,0.00844237,
 -0.00748033,-0.00653148,-0.00205296,-0.00105495,-0.00648696,-0.0008773
 0,0.00035087,0.00097298,0.00139183,-0.00175294,-0.00055068,0.00056812,
 -0.00108765,0.00051248,-0.00021338,-0.00029273,-0.00039807,0.00007615,
 -0.00010254,-0.00004683,0.00068473,0.00100146,0.00215370,0.00038669,-0
 .00011537,-0.00211322,-0.00007299,-0.00009117,-0.00011421,0.00020356,0
 .00125886,0.00199345,0.00058526,-0.00084374,0.00135777,0.00005091,-0.0
 0012020,-0.00006927,0.00001492,-0.00000716,0.00017442,0.00002845,0.000
 03204,-0.00010695,-0.00000501,0.00003776,0.00005962,-0.00000356,-0.000
 13707,0.00001523,-0.00000062,0.00018635,-0.00010014,0.00000281,0.00002
 610,-0.00002218,-0.00000390,-0.00005019,0.00001152,0.00000574,0.000009
 97,0.00000503,0.00000980,0.00002177,-0.00004541,-0.00001902,-0.0000270
 9,0.00003248,0.00000106,0.00000652,-0.00001545,0.00000698,-0.00000054,
 -0.00001594,0.00000335,-0.00004455,0.00004137,-0.00000702,0.00005265,-
 0.00002715,-0.00000762,-0.00001780,0.00001647,0.00000005,0.00000505,-0
 .00000167,0.00000176,-0.00000356,0.00000116,0.00000138,0.00000065,0.00
 000227,-0.00000596,-0.00000478,-0.00000682,-0.00000445,-0.00000003,0.0
 0000453,-0.00000066,0.00000145,0.00000111,0.00000063,-0.00000072,0.000
 00467,-0.00000165,-0.00000306,0.00000057,-0.00000252,0.00001610,-0.000
 00080,-0.00015506,-0.00000624,-0.00012332,-0.00041145,0.00031360,0.000
 34788,0.00025314,0.00135635,0.00080442,-0.07986042,0.03402692,0.212876
 53,-0.10101426,-0.29076634,0.02447185,-0.00501099,-0.02208426,-0.00215
 486,-0.00025397,-0.00251115,0.00014512,0.00096089,0.00015603,-0.000070
 34,-0.00048348,0.00063009,0.00034981,-0.00044964,0.00020438,-0.0000929
 1,0.00019241,0.00008122,-0.00001526,-0.00006945,-0.00008656,-0.0000917
 2,0.00031895,-0.00108821,-0.00029567,-0.00082450,0.00036247,-0.0000302
 5,-0.00016317,0.00048816,-0.00174058,-0.00219025,-0.00273633,-0.000337
 96,0.00093512,-0.00041989,-0.00000216,-0.00010930,-0.00016601,0.000058
 93,-0.00000059,0.00029843,0.00004857,0.00005058,-0.00013443,-0.0000301
 0,-0.00006259,-0.00006791,0.00002452,0.00004349,0.00015770,-0.00003396
 ,-0.00001599,-0.00012178,0.00001505,0.00003630,-0.00003663,0.00000664,
 -0.00003662,0.00005104,-0.00000041,0.00000543,-0.00001056,0.00000515,-
 0.00000620,-0.00002110,0.00003077,0.00002897,0.00006780,-0.00001220,-0
 .00001617,-0.00000540,-0.00001065,-0.00001988,-0.00005091,0.00000536,-
 0.00001042,0.00007258,-0.00000461,0.00000814,-0.00008246,-0.00002596,0
 .00000327,0.00007086,0.00000060,-0.00000133,-0.00001389,0.00000356,-0.
 00000089,0.00000583,0.00000201,-0.00000314,-0.00000162,0.00001441,0.00
 001182,0.00000920,-0.00000496,-0.00000588,0.00000345,0.00000235,0.0000
 0226,0.00000459,0.00000105,0.00000961,0.00001092,0.00000392,-0.0000057
 1,-0.00000857,0.00000059,0.00000875,0.00000222,-0.00009103,-0.00001902
 ,-0.00006365,-0.00026261,0.00043531,0.00011982,-0.00035243,0.00016482,
 0.00355855,-0.23223192,0.10769618,0.31352359,0.00143910,0.00015678,0.0
 0093065,-0.00823182,-0.00108491,0.00373366,-0.00032802,0.00157312,-0.0
 0037818,0.00067096,0.00031371,-0.00014756,-0.00011856,0.00006585,0.000
 05920,0.00007085,-0.00008385,-0.00014234,0.00015181,-0.00023081,-0.000
 02776,-0.00000173,0.00001753,0.00002495,-0.00857552,0.00237428,0.00282
 336,0.00109640,0.00003746,0.00050650,0.00022146,-0.00001044,0.00006608
 ,-0.32671564,0.01484995,0.08292441,-0.02484392,-0.00570633,-0.01210863
 ,-0.00092375,0.00304810,0.00183883,0.00114098,0.00018409,-0.00013624,-
 0.00015759,-0.00004812,0.00001603,0.00001379,0.00012808,0.00005240,0.0
 0028480,0.00006120,-0.00043428,-0.00032553,-0.00042924,0.00085627,-0.0
 0005671,-0.00004054,0.00000572,0.00002625,0.00001709,-0.00001096,-0.00
 001006,-0.00000515,-0.00000712,-0.00003471,-0.00000823,0.00001743,0.00
 001439,-0.00000391,-0.00002753,-0.00000609,0.00000010,-0.00000120,0.00
 002741,0.00000173,0.00000290,0.00001153,0.00000080,-0.00003827,-0.0000
 0318,0.00000976,0.00002136,0.00001920,-0.00000266,-0.00003296,-0.00000
 067,-0.00000107,0.00000312,0.00000355,0.00000225,0.00000161,0.00001700
 ,0.00000019,-0.00001076,0.00001629,0.00000156,0.00002631,0.00003988,-0
 .00001507,-0.00005502,0.00000755,0.00000285,0.00001050,0.00000286,-0.0
 0000359,-0.00000321,0.00000671,0.00000241,0.00000216,0.00119374,-0.001
 27721,-0.00090618,0.00007278,0.00022717,0.00007755,0.00112598,-0.00044
 988,-0.00049841,0.00062993,-0.00075596,0.00032978,0.00019110,0.0000714
 3,-0.00004253,0.36025681,0.00123197,0.00026694,-0.00109853,-0.02380523
 ,-0.00172385,0.01067897,-0.00230095,-0.00037764,0.00140866,0.00061423,
 0.00010515,-0.00058216,-0.00010765,0.00011105,-0.00000621,0.00010081,-
 0.00029084,-0.00021041,0.00013933,0.00001214,0.00006769,-0.00003024,-0
 .00000939,-0.00008529,0.03693207,-0.00800480,-0.00910806,-0.00167742,0
 .00203345,0.00121733,-0.00002651,0.00038481,0.00037067,0.01846889,-0.0
 4565555,-0.00311662,-0.01294323,-0.00023948,-0.00438751,-0.00465571,0.
 00035327,-0.00054067,0.00030390,-0.00024241,0.00007262,0.00008118,0.00
 003465,-0.00004729,-0.00000517,0.00012213,0.00012273,-0.00010882,-0.00
 002614,-0.00020462,0.00014960,-0.00014079,0.00017081,0.00001181,-0.000
 01488,-0.00000513,-0.00001557,-0.00001322,-0.00000910,0.00000729,0.000
 00162,0.00000681,-0.00000325,0.00001631,-0.00003082,0.00001799,-0.0000
 1160,0.00006113,-0.00000601,-0.00000475,-0.00000622,0.00001518,-0.0000
 0404,-0.00000173,-0.00000060,-0.00002681,0.00002115,-0.00000305,0.0000
 4515,-0.00000737,-0.00000238,-0.00001239,-0.00000324,0.00000093,0.0000
 0064,0.00000091,-0.00000068,-0.00000496,-0.00000167,-0.00000514,0.0000
 0540,0.00000466,-0.00001720,-0.00003249,-0.00002242,0.00001160,0.00001
 971,-0.00004102,0.00000037,0.00000166,0.00000573,0.00000275,-0.0000029
 3,0.00000602,0.00000257,-0.00000322,-0.00000597,0.00030250,0.00023684,
 -0.00035348,0.00015567,0.00017844,0.00004648,0.00055580,-0.00030974,0.
 00032918,-0.00040123,-0.00262703,0.00294078,0.00003122,0.00003594,-0.0
 0026301,-0.01419282,0.06074573,-0.00146034,-0.00050604,0.00217041,0.02
 950263,0.00340410,-0.00793920,0.00136625,-0.00115762,0.00026405,-0.000
 89589,-0.00006762,0.00021789,0.00023678,-0.00009092,-0.00001372,0.0003
 8732,0.00000388,-0.00040599,0.00004117,-0.00017394,0.00025070,-0.00002
 069,0.00005464,-0.00000547,0.00773902,-0.00001668,0.00003873,-0.000305
 55,0.00035671,0.00047005,-0.00008193,0.00015434,0.00003911,0.08937785,
 -0.00387450,-0.06710745,-0.04086580,-0.00614329,-0.00594366,-0.0056076
 5,0.00167043,0.00130861,0.00037454,-0.00010717,-0.00032611,0.00001160,
 -0.00005697,0.00020751,0.00001587,-0.00000170,-0.00003469,0.00022085,0
 .00007937,-0.00004888,-0.00034167,-0.00035928,0.00051470,-0.00001884,-
 0.00002479,0.00001731,0.00000716,0.00002677,-0.00001293,-0.00000325,-0
 .00000161,-0.00000278,-0.00000681,0.00001855,0.00000560,0.00000163,-0.
 00002064,0.00000920,0.00000546,0.00000100,-0.00000469,0.00001226,0.000
 01654,0.00002136,-0.00000214,0.00000813,-0.00003732,0.00000997,-0.0000
 1592,0.00002020,0.00000534,0.00000401,-0.00001708,0.00000081,-0.000000
 99,0.00000184,-0.00000144,0.00000289,-0.00000007,0.00000530,-0.0000000
 7,-0.00000816,0.00001822,0.00001277,0.00003112,0.00003842,0.00000336,-
 0.00008390,0.00000203,0.00000173,0.00000562,0.00000054,-0.00000419,-0.
 00000072,-0.00000057,0.00000039,0.00000038,0.00081906,0.00009146,-0.00
 036694,-0.00004541,0.00002911,-0.00020438,-0.00088723,0.00066353,0.000
 25168,0.00002317,0.00374176,-0.00364340,0.00003777,-0.00015758,0.00057
 406,-0.07840911,0.00387632,0.07881297,0.00017468,0.00027524,-0.0000239
 1,0.00039677,-0.00033352,0.00008604,0.00021803,-0.00001844,-0.00012398
 ,0.00003873,0.00017952,-0.00001406,-0.00002672,-0.00004369,0.00002621,
 -0.00004295,-0.00004812,-0.00008314,0.00003462,0.00001421,0.00006106,-
 0.00002420,-0.00000875,-0.00003526,-0.34013670,0.03920669,0.05933006,-
 0.01805112,-0.00463141,-0.01323495,0.00001870,0.00021921,-0.00043228,-
 0.00784559,0.00142756,0.00185851,0.00116156,0.00026265,0.00066837,0.00
 035427,0.00005294,0.00008080,0.00006533,0.00009980,0.00020913,-0.00002
 151,0.00004367,-0.00005049,0.00000267,0.00003255,0.00002330,0.00018943
 ,-0.00010127,0.00001259,-0.00030441,0.00015660,0.00002977,-0.00002113,
 0.00000123,-0.00000809,0.00002184,-0.00001243,0.00000900,-0.00000610,-
 0.00000164,-0.00000501,-0.00000784,0.00000062,-0.00001153,0.00002283,0
 .00000324,0.00002668,-0.00000952,-0.00000195,-0.00000346,-0.00001408,-
 0.00001508,0.00000292,0.00001602,-0.00001145,0.00001715,-0.00001652,0.
 00002247,-0.00000661,0.00000878,-0.00000643,-0.00000270,-0.00000274,0.
 00000123,0.00000025,0.00000553,0.00000047,0.00000332,0.00001120,-0.000
 00280,-0.00000519,0.00001346,0.00001759,0.00002523,0.00001319,-0.00000
 819,0.00000189,0.00000655,0.00000290,0.00000558,0.00000002,-0.00000057
 ,0.00000228,0.00000419,-0.00000062,-0.00000067,0.00005783,-0.00020468,
 -0.00014349,0.00002568,0.00003034,0.00000876,0.00007521,-0.00015796,-0
 .00003300,0.00007642,0.00072938,-0.00043050,-0.00019461,-0.00003650,-0
 .00006422,0.00076048,0.00119816,-0.00030585,0.37130483,-0.00006018,0.0
 0016899,0.00050814,0.00039950,0.00245757,-0.00086536,0.00008627,-0.000
 04277,-0.00011636,-0.00020004,-0.00015064,0.00014654,0.00003204,-0.000
 03665,-0.00003193,0.00002502,0.00015074,0.00006068,-0.00004019,-0.0000
 0633,-0.00001461,0.00001670,0.00001535,0.00002649,0.04003862,-0.053722
 29,-0.00201564,-0.01580684,0.00256756,-0.00575661,-0.00122511,0.000629
 83,0.00037861,0.03707167,-0.00648559,-0.00721905,-0.00141327,0.0024077
 8,0.00140105,0.00042106,0.00015984,0.00005918,-0.00023297,-0.00008333,
 -0.00020173,-0.00001286,-0.00003391,0.00010463,0.00003041,-0.00004498,
 -0.00004694,0.00003806,0.00007839,0.00005204,-0.00005769,-0.00009118,-
 0.00001508,-0.00000790,0.00000049,0.00000672,0.00000493,0.00001488,-0.
 00000469,-0.00000304,-0.00000129,-0.00000254,0.00000510,0.00000514,0.0
 0000956,-0.00001688,-0.00000874,-0.00001804,0.00000708,0.00000360,0.00
 000178,0.00000442,0.00001384,0.00000968,-0.00000366,0.00000877,-0.0000
 2520,0.00000498,-0.00002321,0.00001572,0.00000353,0.00000522,-0.000007
 74,-0.00000040,0.00000003,0.00000110,-0.00000089,0.00000226,-0.0000008
 0,-0.00000039,-0.00000343,-0.00000040,0.00000337,0.00001638,0.00000823
 ,0.00000314,0.00000132,0.00000700,-0.00000221,-0.00000151,-0.00000370,
 -0.00000136,-0.00000190,-0.00000293,-0.00000331,0.00000263,0.00000272,
 -0.00030887,0.00001383,0.00007941,-0.00003439,-0.00005296,-0.00001093,
 -0.00029637,0.00011965,0.00010525,-0.00066030,-0.00035492,0.00045899,0
 .00008209,-0.00022771,0.00016776,0.00108702,-0.00650422,-0.00164192,-0
 .04082860,0.05441576,0.00028907,0.00017772,0.00016469,-0.00091517,-0.0
 0014940,-0.00014292,-0.00001187,0.00015111,0.00007991,0.00000922,-0.00
 015406,0.00005058,-0.00002640,0.00001547,-0.00002866,0.00000912,0.0000
 9178,0.00009449,-0.00001795,-0.00003567,-0.00007666,0.00002493,0.00001
 324,0.00004813,0.06116994,-0.00342793,-0.05539472,-0.04118828,-0.00237
 542,-0.00645041,-0.00008121,0.00126342,0.00094977,0.00525952,-0.000416
 21,0.00049614,-0.00019008,0.00034773,0.00058372,0.00018603,0.00020813,
 0.00000900,-0.00012214,-0.00000748,-0.00016440,0.00001767,-0.00003730,
 0.00005343,-0.00002111,-0.00001091,0.00000795,-0.00021289,0.00006329,-
 0.00007267,0.00038201,-0.00011774,-0.00007549,0.00001624,-0.00000821,0
 .00001570,-0.00002135,0.00001975,-0.00002066,0.00000498,-0.00000031,0.
 00000687,0.00000296,-0.00000229,0.00001302,-0.00001974,-0.00000568,-0.
 00003630,0.00000676,0.00000421,0.00000484,0.00000715,0.00001037,0.0000
 1521,-0.00001076,0.00001244,-0.00002590,0.00000804,-0.00001573,0.00002
 458,0.00000113,0.00000356,-0.00001372,0.00000098,-0.00000084,0.0000021
 1,-0.00000388,-0.00000134,-0.00000415,-0.00000957,0.00000434,0.0000063
 9,-0.00001635,-0.00002929,-0.00003510,-0.00001076,0.00000819,0.0000015
 5,-0.00000473,-0.00000391,-0.00000568,-0.00000051,-0.00000192,-0.00000
 379,-0.00000309,0.00000319,0.00000235,-0.00011297,0.00000549,0.0000128
 4,-0.00000502,-0.00001907,0.00000470,-0.00002612,0.00003786,-0.0000245
 2,0.00005454,-0.00013345,0.00023033,-0.00014042,-0.00004190,-0.0000638
 6,-0.00054350,-0.00162755,0.00031332,-0.05017652,0.01015197,0.06106625
 ,-0.00001553,0.00005394,0.00018306,0.00020588,0.00124292,0.00061087,0.
 00039061,0.00016922,-0.00025188,-0.00008121,0.00018398,-0.00001070,-0.
 00000926,-0.00001039,0.00001075,-0.00004625,0.00003106,0.00002466,0.00
 000110,-0.00000779,-0.00003177,0.00001018,0.00000752,0.00003254,-0.080
 22021,-0.05458207,0.08309390,0.00541439,0.00758814,-0.02569238,0.00060
 928,0.00102549,0.00082448,0.00210671,0.00814415,-0.00680345,0.00008998
 ,-0.00091474,-0.00031722,0.00004440,0.00007244,-0.00000934,-0.00007962
 ,0.00000181,-0.00018822,0.00004234,-0.00005046,0.00015726,-0.00008546,
 -0.00018375,-0.00020530,-0.00014368,0.00040793,0.00034663,0.00008691,-
 0.00063630,-0.00026104,0.00005926,0.00004059,0.00000939,-0.00001398,0.
 00002077,0.00001626,0.00000320,0.00000198,-0.00000180,0.00000295,-0.00
 000851,0.00003891,-0.00000240,0.00001438,-0.00003471,0.00000170,-0.000
 00156,0.00000250,-0.00001644,0.00002452,-0.00002503,-0.00000831,0.0000
 3364,-0.00002071,-0.00000078,-0.00007188,-0.00000965,-0.00001306,0.000
 02051,0.00003131,-0.00000016,-0.00000169,-0.00000450,-0.00000241,0.000
 00327,0.00000020,-0.00001199,0.00000091,-0.00000037,0.00002401,0.00001
 782,0.00001984,-0.00000830,0.00000692,-0.00000605,-0.00000205,-0.00000
 238,-0.00000100,-0.00000252,0.00000803,-0.00000315,-0.00000116,0.00000
 196,-0.00000060,-0.00003960,-0.00000791,-0.00000779,0.00000617,0.00000
 098,0.00000734,-0.00001687,-0.00007541,-0.00002294,0.00011661,0.000377
 23,-0.00016351,-0.00016334,-0.00008494,-0.00006748,0.00081993,-0.00002
 694,-0.00100082,-0.00835314,-0.01814731,0.02644209,0.07930210,0.000162
 07,0.00099933,0.00024127,0.00192670,-0.00452359,-0.00533131,-0.0008393
 7,0.00021096,0.00176806,0.00036486,-0.00131988,0.00021794,-0.00011512,
 0.00009960,-0.00016020,0.00000808,0.00023455,0.00047925,-0.00002335,-0
 .00004353,-0.00036886,0.00006027,-0.00000957,0.00016940,-0.05071536,-0
 .13942395,0.13620164,0.00069339,0.00893314,-0.01704642,0.00054709,0.00
 184009,-0.00071892,-0.01041145,-0.02062874,0.02765334,0.00043592,0.002
 62662,0.00004226,0.00018990,-0.00022399,0.00001031,-0.00000573,0.00007
 694,-0.00031187,-0.00004823,-0.00005974,0.00016951,-0.00001119,-0.0003
 4673,-0.00036392,0.00019171,0.00047565,0.00054603,-0.00048978,-0.00070
 346,-0.00045308,0.00002412,0.00009238,-0.00001768,0.00001490,-0.000006
 91,0.00004759,-0.00000574,0.00000653,-0.00001262,-0.00002607,-0.000059
 83,0.00009483,-0.00002004,0.00005232,-0.00014980,0.00000510,-0.0000030
 2,0.00001608,-0.00000597,0.00000521,-0.00004963,-0.00000254,0.00005996
 ,-0.00002125,0.00000188,-0.00011645,-0.00003126,-0.00001695,0.00003199
 ,0.00005861,-0.00000122,-0.00000063,-0.00000931,0.00000056,0.00001001,
 0.00000512,0.00000114,-0.00000983,-0.00000927,0.00006145,0.00008131,0.
 00007723,0.00001311,-0.00001286,-0.00001421,0.00000039,0.00000206,0.00
 000442,0.00000042,0.00001940,-0.00001034,0.00000674,0.00000239,-0.0000
 0010,0.00002541,-0.00004869,0.00000064,-0.00000408,-0.00001598,-0.0000
 2757,0.00012799,-0.00005985,-0.00008737,-0.00006935,0.00011817,-0.0000
 4105,0.00002530,-0.00022698,-0.00004361,0.00011529,0.00157213,0.000201
 69,0.00249583,0.00461769,-0.00396963,0.05531192,0.14567577,0.00011655,
 0.00076013,0.00018658,-0.00030839,-0.00188679,-0.00078553,-0.00003056,
 -0.00000617,0.00033697,0.00007430,-0.00024565,0.00012916,-0.00001602,-
 0.00005788,-0.00004150,0.00000308,0.00002369,-0.00003871,0.00000483,-0
 .00002353,0.00002976,-0.00000078,0.00001044,-0.00000775,0.08032813,0.1
 3442534,-0.23436442,-0.00449264,0.00466623,-0.03691000,-0.00028961,0.0
 0082706,0.00006713,-0.00117911,-0.00380972,0.00517584,0.00024901,-0.00
 017659,0.00126288,-0.00001733,0.00009076,0.00023156,0.00000863,0.00000
 011,0.00005481,0.00001730,0.00002906,-0.00000759,0.00003235,0.00006615
 ,-0.00001864,-0.00001899,-0.00017636,-0.00016397,-0.00003546,0.0001151
 3,0.00012354,-0.00001300,-0.00001537,-0.00001041,-0.00000540,-0.000015
 69,-0.00001047,0.00000404,0.00000386,0.00000762,0.00000381,0.00001198,
 -0.00001410,-0.00000302,-0.00001358,0.00001485,0.00000096,0.00000364,-
 0.00000217,-0.00000069,0.00000237,0.00000889,-0.00000024,-0.00001818,0
 .00000296,-0.00000028,0.00003100,0.00001118,0.00000588,-0.00001214,-0.
 00001919,0.00000015,0.00000237,0.00000421,-0.00000031,-0.00000214,-0.0
 0000157,-0.00000031,0.00000149,0.00000290,-0.00000811,0.00000096,-0.00
 000347,-0.00000419,-0.00000031,-0.00000108,-0.00000071,-0.00000036,-0.
 00000120,-0.00000063,-0.00000414,-0.00000022,-0.00000165,0.00000006,0.
 00000117,0.00000365,0.00000760,-0.00001455,-0.00000985,0.00000372,0.00
 000693,0.00001609,-0.00002058,-0.00001724,0.00001881,-0.00003378,0.000
 06451,-0.00007665,-0.00040466,0.00008854,-0.00036904,0.00035747,0.0006
 6113,0.00270605,0.00423898,-0.00161824,-0.07671062,-0.13875598,0.26557
 893\\0.00491175,-0.01691896,-0.00176414,0.00188326,0.01595208,-0.00240
 202,0.00529963,-0.02182086,0.02554869,-0.00215551,0.00281242,0.0169315
 1,-0.00341922,-0.00357106,-0.03098779,-0.00605369,-0.01137910,-0.00383
 000,0.00722234,0.01768687,0.00480569,-0.00024390,0.01010361,0.01387454
 ,0.00303784,-0.00806189,0.02081600,-0.00705518,0.03164532,0.00042840,0
 .00761513,-0.02943971,-0.00103888,0.00363251,0.00991211,-0.00467664,0.
 00772559,-0.00564472,0.01322287,-0.03788122,0.00456480,-0.03389558,0.0
 0181486,-0.01128265,-0.00364943,0.00330945,0.01940119,-0.00118939,-0.0
 3071428,0.01140205,0.02726647,0.01368205,0.00061812,-0.00356310,0.0037
 3769,0.00169283,-0.02289542,0.02053378,0.02249068,-0.00230567,-0.00727
 105,0.00650271,-0.01016591,-0.00754375,-0.02098507,0.02738545,0.008792
 54,-0.03100507,-0.01247505,-0.01512691,-0.01797264,0.00639356,-0.00321
 951,0.03190033,-0.00984200,0.01339303,-0.01807622,0.02663549,-0.017613
 66,0.00633616,0.02204814,0.04484944,-0.01901988,-0.01597677,-0.0127358
 4,0.01614432,0.00787838,-0.00273831,-0.00143824,-0.00480661,-0.0191590
 8,-0.00088444,-0.00484605,0.02196265,-0.00317502,-0.00079264,-0.025928
 30,-0.00190960,-0.00325158,0.02082614,-0.00144184,-0.00010945,-0.01998
 840,-0.00033680,-0.00224873,0.00098721,-0.00946812,-0.01631728,0.01857
 534,0.00393254,0.00091590,0.01936472,0.00516843,-0.00574607,-0.0213889
 8,-0.00052141,0.00237703,0.02260988,0.00384918,-0.00260230,-0.01915347
 ,-0.00289633,0.00326112,-0.00150189,0.00481516,0.00103606,0.02291562,0
 .00176340,-0.00220772,-0.02105800,0.00268293,0.00039985,0.00326772,0.0
 0587237,-0.01763893\\\@


      TO SUSPECT YOUR OWN MORTALITY IS TO KNOW THE BEGINNING OF TERROR.
      TO LEARN IRREFUTABLY THAT YOU ARE MORTAL IS TO KNOW THE END
      OF TERROR.

                                                  -- JESSICA
                                                     CHILDREN OF DUNE
                                                     BY FRANK HERBERT
 Job cpu time:  0 days 13 hours  5 minutes  0.3 seconds.
 File lengths (MBytes):  RWF=   1323 Int=      0 D2E=      0 Chk=     19 Scr=      1
 Normal termination of Gaussian 09 at Thu Jan 21 05:04:14 2016.
Gaussian '09 finished on node029 at Thu Jan 21 05:04:14 EST 2016.
