Gaussian '09 started on node008 at Fri Mar 25 20:22:26 EDT 2016.
 Entering Gaussian System, Link 0=/usr/local/gaussian/g09/g09
 Initial command:
 /usr/local/gaussian/g09/l1.exe /home/srmcgrat/thesis/gaussian/cellobiose/400K/8947ps/1/2dp/gaussian22386/Gau-22422.inp -scrdir=/home/srmcgrat/thesis/gaussian/cellobiose/400K/8947ps/1/2dp/gaussian22386/
 Entering Link 1 = /usr/local/gaussian/g09/l1.exe PID=     22424.
  
 Copyright (c) 1988,1990,1992,1993,1995,1998,2003,2009,2010,
            Gaussian, Inc.  All Rights Reserved.
  
 This is part of the Gaussian(R) 09 program.  It is based on
 the Gaussian(R) 03 system (copyright 2003, Gaussian, Inc.),
 the Gaussian(R) 98 system (copyright 1998, Gaussian, Inc.),
 the Gaussian(R) 94 system (copyright 1995, Gaussian, Inc.),
 the Gaussian 92(TM) system (copyright 1992, Gaussian, Inc.),
 the Gaussian 90(TM) system (copyright 1990, Gaussian, Inc.),
 the Gaussian 88(TM) system (copyright 1988, Gaussian, Inc.),
 the Gaussian 86(TM) system (copyright 1986, Carnegie Mellon
 University), and the Gaussian 82(TM) system (copyright 1983,
 Carnegie Mellon University). Gaussian is a federally registered
 trademark of Gaussian, Inc.
  
 This software contains proprietary and confidential information,
 including trade secrets, belonging to Gaussian, Inc.
  
 This software is provided under written license and may be
 used, copied, transmitted, or stored only in accord with that
 written license.
  
 The following legend is applicable only to US Government
 contracts under FAR:
  
                    RESTRICTED RIGHTS LEGEND
  
 Use, reproduction and disclosure by the US Government is
 subject to restrictions as set forth in subparagraphs (a)
 and (c) of the Commercial Computer Software - Restricted
 Rights clause in FAR 52.227-19.
  
 Gaussian, Inc.
 340 Quinnipiac St., Bldg. 40, Wallingford CT 06492
  
  
 ---------------------------------------------------------------
 Warning -- This program may not be used in any manner that
 competes with the business of Gaussian, Inc. or will provide
 assistance to any competitor of Gaussian, Inc.  The licensee
 of this program is prohibited from giving any competitor of
 Gaussian, Inc. access to this program.  By using this program,
 the user acknowledges that Gaussian, Inc. is engaged in the
 business of creating and licensing software in the field of
 computational chemistry and represents and warrants to the
 licensee that it is not a competitor of Gaussian, Inc. and that
 it will not use this program in any manner prohibited above.
 ---------------------------------------------------------------
  

 Cite this work as:
 Gaussian 09, Revision B.01,
 M. J. Frisch, G. W. Trucks, H. B. Schlegel, G. E. Scuseria, 
 M. A. Robb, J. R. Cheeseman, G. Scalmani, V. Barone, B. Mennucci, 
 G. A. Petersson, H. Nakatsuji, M. Caricato, X. Li, H. P. Hratchian, 
 A. F. Izmaylov, J. Bloino, G. Zheng, J. L. Sonnenberg, M. Hada, 
 M. Ehara, K. Toyota, R. Fukuda, J. Hasegawa, M. Ishida, T. Nakajima, 
 Y. Honda, O. Kitao, H. Nakai, T. Vreven, J. A. Montgomery, Jr., 
 J. E. Peralta, F. Ogliaro, M. Bearpark, J. J. Heyd, E. Brothers, 
 K. N. Kudin, V. N. Staroverov, T. Keith, R. Kobayashi, J. Normand, 
 K. Raghavachari, A. Rendell, J. C. Burant, S. S. Iyengar, J. Tomasi, 
 M. Cossi, N. Rega, J. M. Millam, M. Klene, J. E. Knox, J. B. Cross, 
 V. Bakken, C. Adamo, J. Jaramillo, R. Gomperts, R. E. Stratmann, 
 O. Yazyev, A. J. Austin, R. Cammi, C. Pomelli, J. W. Ochterski, 
 R. L. Martin, K. Morokuma, V. G. Zakrzewski, G. A. Voth, 
 P. Salvador, J. J. Dannenberg, S. Dapprich, A. D. Daniels, 
 O. Farkas, J. B. Foresman, J. V. Ortiz, J. Cioslowski, 
 and D. J. Fox, Gaussian, Inc., Wallingford CT, 2010.
 
 ******************************************
 Gaussian 09:  EM64L-G09RevB.01 12-Aug-2010
                25-Mar-2016 
 ******************************************
 -------------------------------------------------
 # freq=raman b3lyp/6-31+g(2d,p) geom=connectivity
 -------------------------------------------------
 1/10=4,30=1,38=1,57=2/1,3;
 2/12=2,17=6,18=5,40=1/2;
 3/5=1,6=6,7=112,11=2,16=1,25=1,30=1,71=2,74=-5/1,2,3;
 4//1;
 5/5=2,38=5,98=1/2;
 8/6=4,10=90,11=11/1;
 10/13=10,15=4/2;
 11/6=3,8=1,9=11,15=111,16=1/1,2,10;
 10/6=1/2;
 6/7=2,8=2,9=2,10=2,18=1,28=1/1;
 7/8=1,10=1,25=1/1,2,3,16;
 1/10=4,30=1/3;
 99//99;
 -----------------
 400 8947/8947.com
 -----------------
 Symbolic Z-matrix:
 Charge =  0 Multiplicity = 1
 O                     9.623     7.843     11.796 
 C                     10.237    7.909     13.091 
 C                     10.364    9.352     13.551 
 O                     10.769    10.223    12.485 
 H                     10.644    9.832     11.573 
 C                     10.875    9.446     14.979 
 O                     10.776    10.814    15.401 
 H                     11.127    10.89     16.334 
 C                     9.392     5.498     13.666 
 O                     8.916     4.853     12.476 
 H                     9.052     3.872     12.613 
 C                     9.612     6.943     14.084 
 O                     10.244    7.106     15.362 
 C                     10.177    8.442     15.882 
 O                     10.949    8.488     17.09 
 C                     10.168    8.312     18.282 
 C                     10.277    6.866     18.736 
 O                     9.496     6.171     17.753 
 H                     9.659     6.408     16.795 
 C                     9.735     6.527     20.115 
 O                     10.146    5.197     20.462 
 H                     9.919     5.134     21.434 
 C                     10.385    10.687    19.062 
 O                     11.325    11.207    18.111 
 H                     11.471    12.175    18.316 
 C                     10.655    9.228     19.393 
 O                     9.923     8.836     20.562 
 C                     10.278    7.552     21.097 
 O                     9.485     7.655     22.288 
 H                     10.30408   7.80856   11.12031 
 H                     10.35239   5.05136   13.81787 
 H                     8.73901   5.12128   14.42533 
 H                     8.62131   7.32104   14.22726 
 H                     11.24038   7.56416   12.95241 
 H                     9.34166   9.6414    13.6774 
 H                     11.91415   9.19132   14.96488 
 H                     9.16368   8.73231   16.06586 
 H                     10.06235   7.72108   23.05214 
 H                     10.44533   11.26401   19.96107 
 H                     9.39798   10.77462   18.65825 
 H                     11.70239   9.07931   19.55349 
 H                     9.14408   8.5358    18.06658 
 H                     11.29668   6.5489    18.66809 
 H                     8.66631   6.57786   20.1007 
 H                     11.32597   7.45475   21.28989 
 

 GradGradGradGradGradGradGradGradGradGradGradGradGradGradGradGradGradGrad
 Berny optimization.
 Initialization pass.
 Trust Radius=3.00D-01 FncErr=1.00D-07 GrdErr=1.00D-07
 Number of steps in this run=      2 maximum allowed number of steps=      2.
 GradGradGradGradGradGradGradGradGradGradGradGradGradGradGradGradGradGrad

                          Input orientation:                          
 ---------------------------------------------------------------------
 Center     Atomic      Atomic             Coordinates (Angstroms)
 Number     Number       Type             X           Y           Z
 ---------------------------------------------------------------------
      1          8           0        9.623000    7.843000   11.796000
      2          6           0       10.237000    7.909000   13.091000
      3          6           0       10.364000    9.352000   13.551000
      4          8           0       10.769000   10.223000   12.485000
      5          1           0       10.644000    9.832000   11.573000
      6          6           0       10.875000    9.446000   14.979000
      7          8           0       10.776000   10.814000   15.401000
      8          1           0       11.127000   10.890000   16.334000
      9          6           0        9.392000    5.498000   13.666000
     10          8           0        8.916000    4.853000   12.476000
     11          1           0        9.052000    3.872000   12.613000
     12          6           0        9.612000    6.943000   14.084000
     13          8           0       10.244000    7.106000   15.362000
     14          6           0       10.177000    8.442000   15.882000
     15          8           0       10.949000    8.488000   17.090000
     16          6           0       10.168000    8.312000   18.282000
     17          6           0       10.277000    6.866000   18.736000
     18          8           0        9.496000    6.171000   17.753000
     19          1           0        9.659000    6.408000   16.795000
     20          6           0        9.735000    6.527000   20.115000
     21          8           0       10.146000    5.197000   20.462000
     22          1           0        9.919000    5.134000   21.434000
     23          6           0       10.385000   10.687000   19.062000
     24          8           0       11.325000   11.207000   18.111000
     25          1           0       11.471000   12.175000   18.316000
     26          6           0       10.655000    9.228000   19.393000
     27          8           0        9.923000    8.836000   20.562000
     28          6           0       10.278000    7.552000   21.097000
     29          8           0        9.485000    7.655000   22.288000
     30          1           0       10.304075    7.808564   11.120315
     31          1           0       10.352391    5.051364   13.817872
     32          1           0        8.739008    5.121278   14.425331
     33          1           0        8.621314    7.321042   14.227263
     34          1           0       11.240384    7.564163   12.952409
     35          1           0        9.341663    9.641395   13.677402
     36          1           0       11.914152    9.191317   14.964882
     37          1           0        9.163681    8.732312   16.065857
     38          1           0       10.062347    7.721084   23.052136
     39          1           0       10.445326   11.264005   19.961069
     40          1           0        9.397982   10.774617   18.658245
     41          1           0       11.702394    9.079311   19.553494
     42          1           0        9.144081    8.535797   18.066582
     43          1           0       11.296675    6.548902   18.668094
     44          1           0        8.666305    6.577859   20.100700
     45          1           0       11.325968    7.454753   21.289887
 ---------------------------------------------------------------------
                    Distance matrix (angstroms):
                    1          2          3          4          5
     1  O    0.000000
     2  C    1.434704   0.000000
     3  C    2.430265   1.519861   0.000000
     4  O    2.729915   2.450481   1.434929   0.000000
     5  H    2.246840   2.483526   2.054576   1.000125   0.000000
     6  C    3.777380   2.516735   1.519586   2.614383   3.435578
     7  O    4.811681   3.750419   2.393677   2.975296   3.954154
     8  H    5.669186   4.493941   3.269970   3.922736   4.900997
     9  C    3.008203   2.618696   3.976346   5.061276   4.973099
    10  O    3.146800   3.385617   4.846992   5.680721   5.347133
    11  H    4.094187   4.234392   5.712406   6.580249   6.256010
    12  C    2.458671   1.519812   2.579317   3.828035   3.964400
    13  O    3.693936   2.408796   2.887670   4.274160   4.684826
    14  C    4.166667   2.842071   2.509309   3.880984   4.551667
    15  O    5.495520   4.102948   3.689613   4.924292   5.686532
    16  C    6.525732   5.207077   4.847925   6.133378   6.895481
    17  C    7.038881   5.740686   5.750825   7.112420   7.761470
    18  O    6.188502   5.030305   5.341254   6.766909   7.274148
    19  H    5.201012   4.038156   4.437082   5.861947   6.321652
    20  C    8.423192   7.176246   7.173727   8.540871   9.204079
    21  O    9.076034   7.854608   8.066813   9.448880  10.037208
    22  H   10.015854   8.798147   8.951605  10.329812  10.946970
    23  C    7.839881   6.587263   5.670431   6.604520   7.542097
    24  O    7.354762   6.104175   5.015790   5.738403   6.715641
    25  H    8.043117   6.857269   5.648009   6.188996   7.186211
    26  C    7.790870   6.452107   5.850557   6.980221   7.843299
    27  O    8.827163   7.534837   7.043782   8.238775   9.072705
    28  C    9.328575   8.014061   7.758190   9.030053   9.799946
    29  O   10.494592   9.231188   8.943580  10.214798  10.995173
    30  H    0.960000   1.974383   2.879934   2.812121   2.101135
    31  H    3.523239   2.950889   4.308924   5.356858   5.289515
    32  H    3.886205   3.434503   4.615632   5.823514   5.827150
    33  H    2.680831   2.060881   2.760268   4.008665   4.176276
    34  H    2.007726   1.070000   2.079115   2.740454   2.720575
    35  H    2.617833   2.036342   1.070000   1.948686   2.482120
    36  H    4.136321   2.822873   2.104247   2.919856   3.678128
    37  H    4.385604   3.267970   2.854695   4.197825   4.856585
    38  H   11.265367   9.964439   9.644815  10.882247  11.686096
    39  H    8.890886   7.648354   6.689646   7.555135   8.511746
    40  H    7.465616   6.317431   5.388969   6.347671   7.255466
    41  H    8.125949   6.729103   6.155939   7.221001   8.085482
    42  H    6.326889   5.132617   4.748144   6.053187   6.789441
    43  H    7.190379   5.837529   5.908628   7.211663   7.845067
    44  H    8.454814   7.305813   7.312769   8.700992   9.339292
    45  H    9.653224   8.283353   8.025914   9.246590  10.026678
                    6          7          8          9         10
     6  C    0.000000
     7  O    1.435029   0.000000
     8  H    1.996163   0.999733   0.000000
     9  C    4.417008   5.760689   6.261159   0.000000
    10  O    5.585547   6.895560   7.497870   1.434817   0.000000
    11  H    6.323825   7.677010   8.209981   1.966796   0.999813
    12  C    2.942992   4.251356   4.789210   1.520246   2.727303
    13  O    2.453661   3.746173   4.005387   2.487566   3.894687
    14  C    1.520075   2.493300   2.664490   3.767495   5.106063
    15  O    2.319388   2.879744   2.524445   4.805010   6.215731
    16  C    3.563091   3.863914   3.370529   5.461522   6.873269
    17  C    4.596635   5.192103   4.762844   5.325368   6.715064
    18  O    4.508031   5.359828   5.190634   4.143346   5.469941
    19  H    3.742453   4.754341   4.738762   3.269561   4.650144
    20  C    6.016532   6.456303   5.938804   6.539579   7.863037
    21  O    6.974864   7.586917   7.100211   6.844321   8.087486
    22  H    7.821400   8.330302   7.784652   7.794360   9.018355
    23  C    4.295471   3.684010   2.834388   7.551727   8.920141
    24  O    3.621194   2.792839   1.815881   7.489138   8.827787
    25  H    4.351807   3.291287   2.387024   8.398040   9.708002
    26  C    4.424853   4.297220   3.513191   6.950295   8.367176
    27  O    5.696340   5.592496   4.852269   7.679780   9.069825
    28  C    6.432229   6.582785   5.877858   7.760391   9.135715
    29  O    7.652533   7.686139   6.972195   8.888205  10.220093
    30  H    4.230438   5.251631   6.111871   3.556838   3.535533
    31  H    4.575387   5.991136   6.404732   1.070000   1.975649
    32  H    4.855124   6.124406   6.528681   1.070000   1.975649
    33  H    3.187421   4.268616   4.842960   2.057294   3.040559
    34  H    2.789603   4.095447   4.744386   2.862651   3.602796
    35  H    2.020757   2.530438   3.435689   4.143717   4.955127
    36  H    1.070000   2.029455   2.319400   4.657139   5.831333
    37  H    2.149238   2.715701   2.929529   4.033883   5.291264
    38  H    8.295256   8.283436   7.503923   9.669075  11.017925
    39  H    5.320787   4.594136   3.709473   8.601407   9.973269
    40  H    4.181346   3.536967   2.899127   7.263968   8.574264
    41  H    4.663157   4.594623   3.738290   7.268170   8.701529
    42  H    3.654820   3.867647   3.532149   5.353017   6.698479
    43  H    4.709607   5.397783   4.931725   5.454642   6.847315
    44  H    6.271872   6.669549   6.231983   6.564913   7.821351
    45  H    6.632928   6.801911   6.033351   8.105108   9.500614
                   11         12         13         14         15
    11  H    0.000000
    12  C    3.450867   0.000000
    13  O    4.408698   1.435018   0.000000
    14  C    5.730348   2.408118   1.435195   0.000000
    15  O    6.704446   3.634643   2.322269   1.434351   0.000000
    16  C    7.286743   4.450450   3.160160   2.403535   1.435897
    17  C    6.925012   4.699921   3.382686   3.261762   2.406613
    18  O    5.648198   3.751133   2.674062   3.020239   2.814119
    19  H    4.928374   2.763685   1.697916   2.288897   2.465264
    20  C    7.987210   6.046581   4.815115   4.666999   3.803938
    21  O    8.034878   6.634196   5.446456   5.613144   4.779736
    22  H    8.952898   7.575568   6.392464   6.467931   5.583955
    23  C    9.476852   6.276587   5.151062   3.898165   3.007072
    24  O    9.444404   6.110057   5.054084   3.732502   2.928614
    25  H   10.359323   6.981370   5.993864   4.640483   3.920399
    26  C    8.787761   5.873207   4.573922   3.629518   2.436769
    27  O    9.412042   6.756083   5.489621   4.703419   3.637109
    28  C    9.328651   7.070828   5.752417   5.291363   4.169219
    29  O   10.397317   8.235817   6.989060   6.491153   5.464100
    30  H    4.392304   3.164111   4.299895   4.805314   6.042740
    31  H    2.129233   2.048729   2.572471   3.973386   4.782597
    32  H    2.223331   2.048729   2.661103   3.900884   4.829010
    33  H    3.832392   1.070000   1.991728   2.532757   3.869777
    34  H    4.305380   2.077974   2.647418   3.237883   4.249475
    35  H    5.873907   2.742215   3.174951   2.645107   3.944576
    36  H    6.482160   3.336284   2.701048   2.102446   2.437683
    37  H    5.962996   2.707468   2.075426   1.070000   2.072661
    38  H   11.171920   9.013084   7.716833   7.207199   6.076296
    39  H   10.515570   7.342034   6.203304   4.967345   4.025287
    40  H    9.182092   5.970830   5.003971   3.708842   3.177053
    41  H    9.072548   6.232891   4.856901   4.026519   2.643114
    42  H    7.176422   4.314732   3.250985   2.418288   2.052737
    43  H    6.990603   4.899730   3.514077   3.549621   2.524155
    44  H    7.970952   6.101503   5.022283   4.853313   4.233633
    45  H    9.658955   7.424580   6.035903   5.616051   4.341515
                   16         17         18         19         20
    16  C    0.000000
    17  C    1.519511   0.000000
    18  O    2.305495   1.435017   0.000000
    19  H    2.468900   2.087862   1.000251   0.000000
    20  C    2.594919   1.519976   2.400604   3.323001   0.000000
    21  O    3.802119   2.404537   2.951247   3.892374   1.434653
    22  H    4.482944   3.226018   3.847604   4.817779   1.927191
    23  C    2.509206   3.836402   4.785192   4.896550   4.340151
    24  O    3.122325   4.509236   5.369795   5.247648   5.333528
    25  H    4.076976   5.457794   6.345519   6.233384   6.176569
    26  C    1.520048   2.480640   3.657613   3.961568   2.943312
    27  O    2.352233   2.709334   3.895515   4.489451   2.359372
    28  C    2.917863   2.458641   3.701489   4.494341   1.519802
    29  O    4.116573   3.723773   4.771646   5.635453   2.461059
    30  H    7.180648   7.673840   6.879471   5.880455   9.103330
    31  H    5.531201   5.242763   4.179978   3.344330   6.497114
    32  H    5.205441   4.898096   3.570481   2.849100   5.944778
    33  H    4.451418   4.824631   3.810314   2.916112   6.044522
    34  H    5.487605   5.904699   5.294285   4.313119   7.392198
    35  H    4.863379   5.845262   5.355181   4.502773   7.162182
    36  H    3.850392   4.723208   4.769002   4.022673   6.194433
    37  H    2.469131   3.442712   3.084997   2.485843   4.646005
    38  H    4.807758   4.405255   5.550167   6.406140   3.187438
    39  H    3.407421   4.568542   5.631651   5.850050   4.792439
    40  H    2.607483   4.006994   4.692799   4.754698   4.503106
    41  H    2.135375   2.756590   4.070408   4.349787   3.271119
    42  H    1.070000   2.125993   2.411316   2.531715   2.929243
    43  H    2.128730   1.070000   2.054906   2.492050   2.129049
    44  H    2.927457   2.130673   2.523018   3.455712   1.070000
    45  H    3.335138   2.822995   4.184062   4.906983   2.184552
                   21         22         23         24         25
    21  O    0.000000
    22  H    1.000141   0.000000
    23  C    5.670734   6.056348   0.000000
    24  O    6.560285   7.064028   1.434713   0.000000
    25  H    7.419800   7.855336   1.987475   1.000182   0.000000
    26  C    4.201286   4.633380   1.520244   2.451299   3.242005
    27  O    3.647198   3.803315   2.426859   3.687092   4.311582
    28  C    2.442678   2.467625   3.739104   4.834401   5.525336
    29  O    3.132565   2.696871   4.517754   5.783566   6.336512
    30  H    9.701151  10.661786   8.447622   7.839728   8.497374
    31  H    6.648928   7.628896   7.698203   7.567613   8.498861
    32  H    6.198930   7.107319   7.428677   7.570173   8.506237
    33  H    6.760782   7.642264   6.149385   6.123234   6.956967
    34  H    7.949534   8.921274   6.914542   6.315733   7.076800
    35  H    8.150484   8.989702   5.583524   5.103091   5.698230
    36  H    7.021341   7.892524   4.621877   3.782609   4.508740
    37  H    5.726208   6.506559   3.780119   3.870141   4.715821
    38  H    3.617568   3.054818   4.982163   6.177437   6.652267
    39  H    6.095004   6.326413   1.070000   2.049349   2.142002
    40  H    5.909558   6.308156   1.070000   2.049349   2.524997
    41  H    4.280197   4.720410   2.135827   2.598129   3.341889
    42  H    4.229590   4.848941   2.675521   3.448725   4.326726
    43  H    2.523845   3.398555   4.255604   4.691378   5.639799
    44  H    2.055920   2.330593   4.573604   5.697062   6.509951
    45  H    2.678651   2.717761   4.036870   4.917792   5.580839
                   26         27         28         29         30
    26  C    0.000000
    27  O    1.433893   0.000000
    28  C    2.419653   1.435586   0.000000
    29  O    3.496320   2.136745   1.434552   0.000000
    30  H    8.400909   9.505065   9.980018  11.198735   0.000000
    31  H    6.972654   7.745393   7.697039   8.903614   3.857629
    32  H    6.724130   7.270468   7.265540   8.294445   4.538068
    33  H    5.870026   6.642166   7.070448   8.113751   3.566860
    34  H    6.677742   7.826809   8.201262   9.499625   2.071950
    35  H    5.879100   6.955883   7.764840   8.837914   3.290016
    36  H    4.603807   5.951358   6.554939   7.866963   4.391476
    37  H    3.679622   4.560989   5.286515   6.322888   5.158701
    38  H    4.001413   2.731892   1.974247   0.960000  11.934590
    39  H    2.124143   2.555220   3.885527   4.400199   9.493102
    40  H    2.124143   2.767338   4.136087   4.786930   8.151005
    41  H    1.070000   2.059739   2.596919   3.797765   8.642257
    42  H    2.126360   2.631340   3.381873   4.325783   7.079907
    43  H    2.848649   3.271801   2.818420   4.196349   7.716280
    44  H    3.388067   2.625125   2.130523   2.571921   9.211093
    45  H    2.681936   2.099043   1.070000   2.103686  10.226908
                   31         32         33         34         35
    31  H    0.000000
    32  H    1.725369   0.000000
    33  H    2.883690   2.211797   0.000000
    34  H    2.802092   3.793951   2.922994   0.000000
    35  H    4.702095   4.621044   2.491042   2.906140   0.000000
    36  H    4.570990   5.190171   3.858082   2.674255   2.911680
    37  H    4.473907   3.988889   2.380393   3.920564   2.561802
    38  H    9.616816   9.106700   8.950698  10.169409   9.596490
    39  H    8.737529   8.443282   7.193783   7.965065   6.582964
    40  H    7.556172   7.093099   5.671331   6.801325   5.108441
    41  H    7.137522   7.123604   6.399476   6.788479   6.357472
    42  H    5.626084   5.008166   4.060700   5.611891   4.530595
    43  H    5.163230   5.155658   5.241635   5.805426   6.188101
    44  H    6.681840   5.859755   5.920439   7.661380   7.148435
    45  H    7.909180   7.698026   7.563973   8.338635   8.165097
                   36         37         38         39         40
    36  H    0.000000
    37  H    2.997987   0.000000
    38  H    8.425820   7.116058   0.000000
    39  H    5.604942   4.819208   4.717378   0.000000
    40  H    4.741190   3.308532   5.391819   1.741776   0.000000
    41  H    4.594860   4.327711   4.095733   2.553277   2.997640
    42  H    4.209934   2.010448   5.134464   3.567274   2.329559
    43  H    4.591014   4.011057   4.702915   4.962739   4.632688
    44  H    6.614779   4.600979   3.459317   5.014417   4.497644
    45  H    6.585385   5.796390   2.184764   4.129369   4.654478
                   41         42         43         44         45
    41  H    0.000000
    42  H    3.008534   0.000000
    43  H    2.711367   2.990523   0.000000
    44  H    3.971716   2.863464   2.995337   0.000000
    45  H    2.407477   4.039676   2.774027   3.042519   0.000000
 Stoichiometry    C12H22O11
 Framework group  C1[X(C12H22O11)]
 Deg. of freedom   129
 Full point group                 C1      NOp   1
 Largest Abelian subgroup         C1      NOp   1
 Largest concise Abelian subgroup C1      NOp   1
                         Standard orientation:                         
 ---------------------------------------------------------------------
 Center     Atomic      Atomic             Coordinates (Angstroms)
 Number     Number       Type             X           Y           Z
 ---------------------------------------------------------------------
      1          8           0        4.971787   -0.250391   -0.391208
      2          6           0        3.664159   -0.052798    0.165069
      3          6           0        3.184303    1.367452   -0.085144
      4          8           0        4.231443    2.330309    0.103073
      5          1           0        5.150407    1.935717    0.095947
      6          6           0        1.745416    1.563832    0.362268
      7          8           0        1.308940    2.854965   -0.086922
      8          1           0        0.368310    3.001716    0.218275
      9          6           0        3.135249   -2.608441   -0.050601
     10          8           0        4.342174   -3.332921   -0.328382
     11          1           0        4.214384   -4.249699    0.049523
     12          6           0        2.695513   -1.162014   -0.210691
     13          8           0        1.403350   -0.865753    0.338692
     14          6           0        0.868653    0.400887   -0.073019
     15          8           0       -0.354890    0.620583    0.642550
     16          6           0       -1.528947    0.232710   -0.087480
     17          6           0       -1.967490   -1.145996    0.377023
     18          8           0       -0.960854   -1.999505   -0.186433
     19          1           0       -0.009214   -1.712972   -0.073380
     20          6           0       -3.331265   -1.634170   -0.083553
     21          8           0       -3.670230   -2.822437    0.645387
     22          1           0       -4.636702   -2.957097    0.426116
     23          6           0       -2.341780    2.571901   -0.491957
     24          8           0       -1.415973    3.328736    0.300813
     25          1           0       -1.635527    4.298599    0.193446
     26          6           0       -2.660391    1.223431    0.133547
     27          8           0       -3.809813    0.639411   -0.493987
     28          6           0       -4.336173   -0.521681    0.166101
     29          8           0       -5.512369   -0.642701   -0.646215
     30          1           0        5.634197   -0.100002    0.287169
     31          1           0        2.969773   -2.799913    0.989042
     32          1           0        2.393634   -3.150830   -0.598982
     33          1           0        2.567364   -1.049498   -1.267014
     34          1           0        3.786983   -0.130058    1.225184
     35          1           0        3.074712    1.386491   -1.149347
     36          1           0        1.742000    1.580748    1.432129
     37          1           0        0.701432    0.422134   -1.129658
     38          1           0       -6.288550   -0.445424   -0.116853
     39          1           0       -3.248785    3.130261   -0.594309
     40          1           0       -1.919617    2.413571   -1.462323
     41          1           0       -2.839818    1.342038    1.181707
     42          1           0       -1.295986    0.193614   -1.131080
     43          1           0       -1.915990   -1.193484    1.444727
     44          1           0       -3.296386   -1.855246   -1.129884
     45          1           0       -4.548618   -0.353711    1.201259
 ---------------------------------------------------------------------
 Rotational constants (GHZ):      0.3998376      0.1464160      0.1099545
 Standard basis: 6-31+G(2d,p) (6D, 7F)
 There are   685 symmetry adapted basis functions of A   symmetry.
 Integral buffers will be    131072 words long.
 Raffenetti 2 integral format.
 Two-electron integral symmetry is turned on.
   685 basis functions,  1028 primitive gaussians,   685 cartesian basis functions
    91 alpha electrons       91 beta electrons
       nuclear repulsion energy      2285.9466915864 Hartrees.
 NAtoms=   45 NActive=   45 NUniq=   45 SFac= 1.00D+00 NAtFMM=   50 NAOKFM=F Big=F
 One-electron integrals computed using PRISM.
 NBasis=   685 RedAO= T  NBF=   685
 NBsUse=   685 1.00D-06 NBFU=   685
 Harris functional with IExCor=  402 diagonalized for initial guess.
 ExpMin= 4.38D-02 ExpMax= 5.48D+03 ExpMxC= 8.25D+02 IAcc=2 IRadAn=         0 AccDes= 0.00D+00
 HarFok:  IExCor=  402 AccDes= 0.00D+00 IRadAn=         0 IDoV= 1
 ScaDFX=  1.000000  1.000000  1.000000  1.000000
 FoFCou: FMM=F IPFlag=           0 FMFlag=      100000 FMFlg1=           0
         NFxFlg=           0 DoJE=T BraDBF=F KetDBF=T FulRan=T
         Omega=  0.000000  0.000000  1.000000  0.000000  0.000000 ICntrl=     500 IOpCl=  0
         NMat0=    1 NMatS0=    1 NMatT0=    0 NMatD0=    1 NMtDS0=    0 NMtDT0=    0
         I1Cent=           4 NGrid=           0.
 Petite list used in FoFCou.
 Initial guess orbital symmetries:
       Occupied  (A) (A) (A) (A) (A) (A) (A) (A) (A) (A) (A) (A)
                 (A) (A) (A) (A) (A) (A) (A) (A) (A) (A) (A) (A)
                 (A) (A) (A) (A) (A) (A) (A) (A) (A) (A) (A) (A)
                 (A) (A) (A) (A) (A) (A) (A) (A) (A) (A) (A) (A)
                 (A) (A) (A) (A) (A) (A) (A) (A) (A) (A) (A) (A)
                 (A) (A) (A) (A) (A) (A) (A) (A) (A) (A) (A) (A)
                 (A) (A) (A) (A) (A) (A) (A) (A) (A) (A) (A) (A)
                 (A) (A) (A) (A) (A) (A) (A)
       Virtual   (A) (A) (A) (A) (A) (A) (A) (A) (A) (A) (A) (A)
                 (A) (A) (A) (A) (A) (A) (A) (A) (A) (A) (A) (A)
                 (A) (A) (A) (A) (A) (A) (A) (A) (A) (A) (A) (A)
                 (A) (A) (A) (A) (A) (A) (A) (A) (A) (A) (A) (A)
                 (A) (A) (A) (A) (A) (A) (A) (A) (A) (A) (A) (A)
                 (A) (A) (A) (A) (A) (A) (A) (A) (A) (A) (A) (A)
                 (A) (A) (A) (A) (A) (A) (A) (A) (A) (A) (A) (A)
                 (A) (A) (A) (A) (A) (A) (A) (A) (A) (A) (A) (A)
                 (A) (A) (A) (A) (A) (A) (A) (A) (A) (A) (A) (A)
                 (A) (A) (A) (A) (A) (A) (A) (A) (A) (A) (A) (A)
                 (A) (A) (A) (A) (A) (A) (A) (A) (A) (A) (A) (A)
                 (A) (A) (A) (A) (A) (A) (A) (A) (A) (A) (A) (A)
                 (A) (A) (A) (A) (A) (A) (A) (A) (A) (A) (A) (A)
                 (A) (A) (A) (A) (A) (A) (A) (A) (A) (A) (A) (A)
                 (A) (A) (A) (A) (A) (A) (A) (A) (A) (A) (A) (A)
                 (A) (A) (A) (A) (A) (A) (A) (A) (A) (A) (A) (A)
                 (A) (A) (A) (A) (A) (A) (A) (A) (A) (A) (A) (A)
                 (A) (A) (A) (A) (A) (A) (A) (A) (A) (A) (A) (A)
                 (A) (A) (A) (A) (A) (A) (A) (A) (A) (A) (A) (A)
                 (A) (A) (A) (A) (A) (A) (A) (A) (A) (A) (A) (A)
                 (A) (A) (A) (A) (A) (A) (A) (A) (A) (A) (A) (A)
                 (A) (A) (A) (A) (A) (A) (A) (A) (A) (A) (A) (A)
                 (A) (A) (A) (A) (A) (A) (A) (A) (A) (A) (A) (A)
                 (A) (A) (A) (A) (A) (A) (A) (A) (A) (A) (A) (A)
                 (A) (A) (A) (A) (A) (A) (A) (A) (A) (A) (A) (A)
                 (A) (A) (A) (A) (A) (A) (A) (A) (A) (A) (A) (A)
                 (A) (A) (A) (A) (A) (A) (A) (A) (A) (A) (A) (A)
                 (A) (A) (A) (A) (A) (A) (A) (A) (A) (A) (A) (A)
                 (A) (A) (A) (A) (A) (A) (A) (A) (A) (A) (A) (A)
                 (A) (A) (A) (A) (A) (A) (A) (A) (A) (A) (A) (A)
                 (A) (A) (A) (A) (A) (A) (A) (A) (A) (A) (A) (A)
                 (A) (A) (A) (A) (A) (A) (A) (A) (A) (A) (A) (A)
                 (A) (A) (A) (A) (A) (A) (A) (A) (A) (A) (A) (A)
                 (A) (A) (A) (A) (A) (A) (A) (A) (A) (A) (A) (A)
                 (A) (A) (A) (A) (A) (A) (A) (A) (A) (A) (A) (A)
                 (A) (A) (A) (A) (A) (A) (A) (A) (A) (A) (A) (A)
                 (A) (A) (A) (A) (A) (A) (A) (A) (A) (A) (A) (A)
                 (A) (A) (A) (A) (A) (A) (A) (A) (A) (A) (A) (A)
                 (A) (A) (A) (A) (A) (A) (A) (A) (A) (A) (A) (A)
                 (A) (A) (A) (A) (A) (A) (A) (A) (A) (A) (A) (A)
                 (A) (A) (A) (A) (A) (A) (A) (A) (A) (A) (A) (A)
                 (A) (A) (A) (A) (A) (A) (A) (A) (A) (A) (A) (A)
                 (A) (A) (A) (A) (A) (A) (A) (A) (A) (A) (A) (A)
                 (A) (A) (A) (A) (A) (A) (A) (A) (A) (A) (A) (A)
                 (A) (A) (A) (A) (A) (A) (A) (A) (A) (A) (A) (A)
                 (A) (A) (A) (A) (A) (A) (A) (A) (A) (A) (A) (A)
                 (A) (A) (A) (A) (A) (A) (A) (A) (A) (A) (A) (A)
                 (A) (A) (A) (A) (A) (A) (A) (A) (A) (A) (A) (A)
                 (A) (A) (A) (A) (A) (A) (A) (A) (A) (A) (A) (A)
                 (A) (A) (A) (A) (A) (A)
 The electronic state of the initial guess is 1-A.
 Requested convergence on RMS density matrix=1.00D-08 within 128 cycles.
 Requested convergence on MAX density matrix=1.00D-06.
 Requested convergence on             energy=1.00D-06.
 No special actions if energy rises.
 SCF Done:  E(RB3LYP) =  -1297.94421804     A.U. after   13 cycles
             Convg  =    0.6465D-08             -V/T =  2.0063
 Range of M.O.s used for correlation:     1   685
 NBasis=   685 NAE=    91 NBE=    91 NFC=     0 NFV=     0
 NROrb=    685 NOA=    91 NOB=    91 NVA=   594 NVB=   594

 **** Warning!!: The largest alpha MO coefficient is  0.80726846D+02

          Differentiating once with respect to electric field.
                with respect to dipole field.
          Electric field/nuclear overlap derivatives assumed to be zero.
          There are     3 degrees of freedom in the 1st order CPHF.  IDoFFX=0.
      3 vectors produced by pass  0 Test12= 1.80D-12 3.33D-08 XBig12= 1.25D+02 1.11D+00.
 AX will form     3 AO Fock derivatives at one time.
      3 vectors produced by pass  1 Test12= 1.80D-12 3.33D-08 XBig12= 2.61D+01 4.63D-01.
      3 vectors produced by pass  2 Test12= 1.80D-12 3.33D-08 XBig12= 1.13D+01 2.17D-01.
      3 vectors produced by pass  3 Test12= 1.80D-12 3.33D-08 XBig12= 1.21D+00 1.14D-01.
      3 vectors produced by pass  4 Test12= 1.80D-12 3.33D-08 XBig12= 3.55D-01 5.52D-02.
      3 vectors produced by pass  5 Test12= 1.80D-12 3.33D-08 XBig12= 6.19D-02 2.71D-02.
      3 vectors produced by pass  6 Test12= 1.80D-12 3.33D-08 XBig12= 2.24D-02 1.88D-02.
      3 vectors produced by pass  7 Test12= 1.80D-12 3.33D-08 XBig12= 3.40D-03 1.21D-02.
      3 vectors produced by pass  8 Test12= 1.80D-12 3.33D-08 XBig12= 6.06D-04 2.84D-03.
      3 vectors produced by pass  9 Test12= 1.80D-12 3.33D-08 XBig12= 1.52D-04 1.39D-03.
      3 vectors produced by pass 10 Test12= 1.80D-12 3.33D-08 XBig12= 2.74D-05 4.16D-04.
      3 vectors produced by pass 11 Test12= 1.80D-12 3.33D-08 XBig12= 6.84D-06 2.38D-04.
      3 vectors produced by pass 12 Test12= 1.80D-12 3.33D-08 XBig12= 1.25D-06 1.18D-04.
      3 vectors produced by pass 13 Test12= 1.80D-12 3.33D-08 XBig12= 4.10D-07 7.20D-05.
      3 vectors produced by pass 14 Test12= 1.80D-12 3.33D-08 XBig12= 5.73D-08 2.13D-05.
      3 vectors produced by pass 15 Test12= 1.80D-12 3.33D-08 XBig12= 9.05D-09 1.02D-05.
      3 vectors produced by pass 16 Test12= 1.80D-12 3.33D-08 XBig12= 2.24D-09 6.20D-06.
      3 vectors produced by pass 17 Test12= 1.80D-12 3.33D-08 XBig12= 2.27D-10 1.75D-06.
      3 vectors produced by pass 18 Test12= 1.80D-12 3.33D-08 XBig12= 5.50D-11 7.99D-07.
      3 vectors produced by pass 19 Test12= 1.80D-12 3.33D-08 XBig12= 1.46D-11 2.75D-07.
      3 vectors produced by pass 20 Test12= 1.80D-12 3.33D-08 XBig12= 8.38D-12 2.55D-07.
      2 vectors produced by pass 21 Test12= 1.80D-12 3.33D-08 XBig12= 1.40D-12 6.88D-08.
      1 vectors produced by pass 22 Test12= 1.80D-12 3.33D-08 XBig12= 1.72D-13 3.52D-08.
 Inverted reduced A of dimension    66 with in-core refinement.
 End of Minotr Frequency-dependent properties file   721 does not exist.
 End of Minotr Frequency-dependent properties file   722 does not exist.
 Symmetrizing basis deriv contribution to polar:
 IMax=3 JMax=2 DiffMx= 0.00D+00
 G2DrvN: will do    16 centers at a time, making    3 passes doing MaxLOS=2.
 Calling FoFCou, ICntrl=  3107 FMM=F I1Cent=   0 AccDes= 0.00D+00.
 Calling FoFCou, ICntrl=  3107 FMM=F I1Cent=   0 AccDes= 0.00D+00.
 Calling FoFCou, ICntrl=  3107 FMM=F I1Cent=   0 AccDes= 0.00D+00.
 FoFDir/FoFCou used for L=0 through L=2.
 End of G2Drv Frequency-dependent properties file   721 does not exist.
 End of G2Drv Frequency-dependent properties file   722 does not exist.
          IDoAtm=111111111111111111111111111111111111111111111
          Differentiating once with respect to electric field.
                with respect to dipole field.
          Differentiating once with respect to nuclear coordinates.
          There are   138 degrees of freedom in the 1st order CPHF.  IDoFFX=5.
 Will reuse    3 saved solutions.
    135 vectors produced by pass  0 Test12= 5.41D-14 1.00D-09 XBig12= 1.58D-01 6.55D-02.
 AX will form    45 AO Fock derivatives at one time.
    135 vectors produced by pass  1 Test12= 5.41D-14 1.00D-09 XBig12= 1.80D-02 1.19D-02.
    132 vectors produced by pass  2 Test12= 5.41D-14 1.00D-09 XBig12= 1.40D-04 1.66D-03.
    132 vectors produced by pass  3 Test12= 5.41D-14 1.00D-09 XBig12= 4.26D-07 7.55D-05.
    132 vectors produced by pass  4 Test12= 5.41D-14 1.00D-09 XBig12= 9.30D-10 2.07D-06.
    132 vectors produced by pass  5 Test12= 5.41D-14 1.00D-09 XBig12= 2.44D-12 1.04D-07.
     83 vectors produced by pass  6 Test12= 5.41D-14 1.00D-09 XBig12= 1.42D-13 2.08D-08.
 Inverted reduced A of dimension   881 with in-core refinement.
 Isotropic polarizability for W=    0.000000      192.72 Bohr**3.
 End of Minotr Frequency-dependent properties file   721 does not exist.
 End of Minotr Frequency-dependent properties file   722 does not exist.

 **********************************************************************

            Population analysis using the SCF density.

 **********************************************************************

 Orbital symmetries:
       Occupied  (A) (A) (A) (A) (A) (A) (A) (A) (A) (A) (A) (A)
                 (A) (A) (A) (A) (A) (A) (A) (A) (A) (A) (A) (A)
                 (A) (A) (A) (A) (A) (A) (A) (A) (A) (A) (A) (A)
                 (A) (A) (A) (A) (A) (A) (A) (A) (A) (A) (A) (A)
                 (A) (A) (A) (A) (A) (A) (A) (A) (A) (A) (A) (A)
                 (A) (A) (A) (A) (A) (A) (A) (A) (A) (A) (A) (A)
                 (A) (A) (A) (A) (A) (A) (A) (A) (A) (A) (A) (A)
                 (A) (A) (A) (A) (A) (A) (A)
       Virtual   (A) (A) (A) (A) (A) (A) (A) (A) (A) (A) (A) (A)
                 (A) (A) (A) (A) (A) (A) (A) (A) (A) (A) (A) (A)
                 (A) (A) (A) (A) (A) (A) (A) (A) (A) (A) (A) (A)
                 (A) (A) (A) (A) (A) (A) (A) (A) (A) (A) (A) (A)
                 (A) (A) (A) (A) (A) (A) (A) (A) (A) (A) (A) (A)
                 (A) (A) (A) (A) (A) (A) (A) (A) (A) (A) (A) (A)
                 (A) (A) (A) (A) (A) (A) (A) (A) (A) (A) (A) (A)
                 (A) (A) (A) (A) (A) (A) (A) (A) (A) (A) (A) (A)
                 (A) (A) (A) (A) (A) (A) (A) (A) (A) (A) (A) (A)
                 (A) (A) (A) (A) (A) (A) (A) (A) (A) (A) (A) (A)
                 (A) (A) (A) (A) (A) (A) (A) (A) (A) (A) (A) (A)
                 (A) (A) (A) (A) (A) (A) (A) (A) (A) (A) (A) (A)
                 (A) (A) (A) (A) (A) (A) (A) (A) (A) (A) (A) (A)
                 (A) (A) (A) (A) (A) (A) (A) (A) (A) (A) (A) (A)
                 (A) (A) (A) (A) (A) (A) (A) (A) (A) (A) (A) (A)
                 (A) (A) (A) (A) (A) (A) (A) (A) (A) (A) (A) (A)
                 (A) (A) (A) (A) (A) (A) (A) (A) (A) (A) (A) (A)
                 (A) (A) (A) (A) (A) (A) (A) (A) (A) (A) (A) (A)
                 (A) (A) (A) (A) (A) (A) (A) (A) (A) (A) (A) (A)
                 (A) (A) (A) (A) (A) (A) (A) (A) (A) (A) (A) (A)
                 (A) (A) (A) (A) (A) (A) (A) (A) (A) (A) (A) (A)
                 (A) (A) (A) (A) (A) (A) (A) (A) (A) (A) (A) (A)
                 (A) (A) (A) (A) (A) (A) (A) (A) (A) (A) (A) (A)
                 (A) (A) (A) (A) (A) (A) (A) (A) (A) (A) (A) (A)
                 (A) (A) (A) (A) (A) (A) (A) (A) (A) (A) (A) (A)
                 (A) (A) (A) (A) (A) (A) (A) (A) (A) (A) (A) (A)
                 (A) (A) (A) (A) (A) (A) (A) (A) (A) (A) (A) (A)
                 (A) (A) (A) (A) (A) (A) (A) (A) (A) (A) (A) (A)
                 (A) (A) (A) (A) (A) (A) (A) (A) (A) (A) (A) (A)
                 (A) (A) (A) (A) (A) (A) (A) (A) (A) (A) (A) (A)
                 (A) (A) (A) (A) (A) (A) (A) (A) (A) (A) (A) (A)
                 (A) (A) (A) (A) (A) (A) (A) (A) (A) (A) (A) (A)
                 (A) (A) (A) (A) (A) (A) (A) (A) (A) (A) (A) (A)
                 (A) (A) (A) (A) (A) (A) (A) (A) (A) (A) (A) (A)
                 (A) (A) (A) (A) (A) (A) (A) (A) (A) (A) (A) (A)
                 (A) (A) (A) (A) (A) (A) (A) (A) (A) (A) (A) (A)
                 (A) (A) (A) (A) (A) (A) (A) (A) (A) (A) (A) (A)
                 (A) (A) (A) (A) (A) (A) (A) (A) (A) (A) (A) (A)
                 (A) (A) (A) (A) (A) (A) (A) (A) (A) (A) (A) (A)
                 (A) (A) (A) (A) (A) (A) (A) (A) (A) (A) (A) (A)
                 (A) (A) (A) (A) (A) (A) (A) (A) (A) (A) (A) (A)
                 (A) (A) (A) (A) (A) (A) (A) (A) (A) (A) (A) (A)
                 (A) (A) (A) (A) (A) (A) (A) (A) (A) (A) (A) (A)
                 (A) (A) (A) (A) (A) (A) (A) (A) (A) (A) (A) (A)
                 (A) (A) (A) (A) (A) (A) (A) (A) (A) (A) (A) (A)
                 (A) (A) (A) (A) (A) (A) (A) (A) (A) (A) (A) (A)
                 (A) (A) (A) (A) (A) (A) (A) (A) (A) (A) (A) (A)
                 (A) (A) (A) (A) (A) (A) (A) (A) (A) (A) (A) (A)
                 (A) (A) (A) (A) (A) (A) (A) (A) (A) (A) (A) (A)
                 (A) (A) (A) (A) (A) (A)
 The electronic state is 1-A.
 Alpha  occ. eigenvalues --  -19.20080 -19.18820 -19.18610 -19.17943 -19.17150
 Alpha  occ. eigenvalues --  -19.17098 -19.16530 -19.16253 -19.15294 -19.13949
 Alpha  occ. eigenvalues --  -19.12593 -10.31413 -10.30758 -10.27006 -10.25336
 Alpha  occ. eigenvalues --  -10.25306 -10.25254 -10.24841 -10.24762 -10.24621
 Alpha  occ. eigenvalues --  -10.24604 -10.24060 -10.23916  -1.10913  -1.09455
 Alpha  occ. eigenvalues --   -1.05901  -1.05400  -1.04833  -1.03275  -1.03013
 Alpha  occ. eigenvalues --   -1.02437  -1.01703  -1.00373  -0.99799  -0.82061
 Alpha  occ. eigenvalues --   -0.80783  -0.79270  -0.78334  -0.72256  -0.70339
 Alpha  occ. eigenvalues --   -0.67520  -0.65384  -0.63306  -0.63227  -0.61473
 Alpha  occ. eigenvalues --   -0.60303  -0.56837  -0.56272  -0.55107  -0.54812
 Alpha  occ. eigenvalues --   -0.53935  -0.53347  -0.53124  -0.52034  -0.51380
 Alpha  occ. eigenvalues --   -0.50753  -0.50627  -0.49940  -0.48837  -0.46803
 Alpha  occ. eigenvalues --   -0.46424  -0.45495  -0.44734  -0.44343  -0.43467
 Alpha  occ. eigenvalues --   -0.42434  -0.41701  -0.40834  -0.40023  -0.39302
 Alpha  occ. eigenvalues --   -0.38955  -0.38241  -0.37835  -0.36568  -0.35664
 Alpha  occ. eigenvalues --   -0.35157  -0.34941  -0.34185  -0.33526  -0.33031
 Alpha  occ. eigenvalues --   -0.32651  -0.31367  -0.30996  -0.30463  -0.29953
 Alpha  occ. eigenvalues --   -0.29642  -0.28374  -0.28128  -0.27403  -0.26784
 Alpha  occ. eigenvalues --   -0.25851
 Alpha virt. eigenvalues --   -0.02527  -0.02057  -0.01916  -0.01017   0.00240
 Alpha virt. eigenvalues --    0.00735   0.02012   0.02298   0.02925   0.03419
 Alpha virt. eigenvalues --    0.03660   0.04184   0.04804   0.05446   0.05779
 Alpha virt. eigenvalues --    0.06249   0.06406   0.06830   0.07405   0.08066
 Alpha virt. eigenvalues --    0.08308   0.08498   0.08953   0.09241   0.09866
 Alpha virt. eigenvalues --    0.10290   0.10677   0.11230   0.11794   0.11941
 Alpha virt. eigenvalues --    0.12276   0.12778   0.12988   0.13321   0.13647
 Alpha virt. eigenvalues --    0.14040   0.14330   0.14555   0.14664   0.14936
 Alpha virt. eigenvalues --    0.15449   0.16034   0.16470   0.16905   0.17090
 Alpha virt. eigenvalues --    0.17189   0.17441   0.17564   0.17871   0.18428
 Alpha virt. eigenvalues --    0.18581   0.19066   0.19435   0.19658   0.19932
 Alpha virt. eigenvalues --    0.20441   0.20757   0.21092   0.21324   0.21512
 Alpha virt. eigenvalues --    0.21614   0.22087   0.22401   0.23215   0.23301
 Alpha virt. eigenvalues --    0.23441   0.23908   0.24277   0.24570   0.24820
 Alpha virt. eigenvalues --    0.24862   0.25088   0.25529   0.25860   0.26006
 Alpha virt. eigenvalues --    0.26037   0.26660   0.26897   0.26947   0.27191
 Alpha virt. eigenvalues --    0.27392   0.27605   0.28176   0.28412   0.28654
 Alpha virt. eigenvalues --    0.28874   0.29045   0.29757   0.29897   0.30839
 Alpha virt. eigenvalues --    0.30978   0.31465   0.31760   0.32046   0.32189
 Alpha virt. eigenvalues --    0.32727   0.32969   0.33268   0.33475   0.33722
 Alpha virt. eigenvalues --    0.34031   0.34423   0.35215   0.35502   0.35965
 Alpha virt. eigenvalues --    0.36167   0.36533   0.36615   0.36914   0.37440
 Alpha virt. eigenvalues --    0.37841   0.38005   0.38085   0.38709   0.39155
 Alpha virt. eigenvalues --    0.39592   0.40240   0.40596   0.41153   0.41476
 Alpha virt. eigenvalues --    0.41690   0.42424   0.42779   0.43197   0.43804
 Alpha virt. eigenvalues --    0.44354   0.44925   0.45263   0.45466   0.45839
 Alpha virt. eigenvalues --    0.46475   0.47160   0.47967   0.48166   0.49705
 Alpha virt. eigenvalues --    0.50654   0.51169   0.54006   0.57672   0.58890
 Alpha virt. eigenvalues --    0.59369   0.59977   0.61485   0.61640   0.62774
 Alpha virt. eigenvalues --    0.63477   0.63790   0.64732   0.64780   0.66061
 Alpha virt. eigenvalues --    0.67020   0.67702   0.68927   0.69662   0.69815
 Alpha virt. eigenvalues --    0.70761   0.71615   0.72133   0.72926   0.74189
 Alpha virt. eigenvalues --    0.74480   0.75180   0.75502   0.77561   0.78190
 Alpha virt. eigenvalues --    0.78690   0.79216   0.80361   0.81037   0.81813
 Alpha virt. eigenvalues --    0.82256   0.83241   0.84470   0.84859   0.85523
 Alpha virt. eigenvalues --    0.86469   0.86858   0.87736   0.88359   0.89125
 Alpha virt. eigenvalues --    0.89601   0.90449   0.90766   0.90950   0.91996
 Alpha virt. eigenvalues --    0.92259   0.92747   0.93128   0.93543   0.93677
 Alpha virt. eigenvalues --    0.94217   0.94941   0.95949   0.96315   0.96404
 Alpha virt. eigenvalues --    0.97193   0.97511   0.98241   0.98555   0.99136
 Alpha virt. eigenvalues --    0.99515   1.00380   1.01204   1.02306   1.02757
 Alpha virt. eigenvalues --    1.03329   1.04291   1.04778   1.05401   1.06245
 Alpha virt. eigenvalues --    1.06671   1.06971   1.07359   1.07617   1.08192
 Alpha virt. eigenvalues --    1.09178   1.09639   1.09764   1.10497   1.10825
 Alpha virt. eigenvalues --    1.12151   1.12594   1.13488   1.13766   1.14584
 Alpha virt. eigenvalues --    1.15063   1.15735   1.15823   1.16857   1.16951
 Alpha virt. eigenvalues --    1.17701   1.17941   1.18655   1.19043   1.19730
 Alpha virt. eigenvalues --    1.20441   1.20873   1.21002   1.22016   1.22386
 Alpha virt. eigenvalues --    1.22406   1.23505   1.24202   1.24321   1.25071
 Alpha virt. eigenvalues --    1.26300   1.26691   1.27067   1.27292   1.28272
 Alpha virt. eigenvalues --    1.28444   1.28617   1.29343   1.30764   1.31663
 Alpha virt. eigenvalues --    1.31696   1.31843   1.33344   1.33743   1.34506
 Alpha virt. eigenvalues --    1.35211   1.35484   1.36182   1.36306   1.37285
 Alpha virt. eigenvalues --    1.38077   1.38667   1.38785   1.39560   1.40726
 Alpha virt. eigenvalues --    1.41765   1.42068   1.42465   1.42632   1.43434
 Alpha virt. eigenvalues --    1.45229   1.46072   1.46294   1.47197   1.47860
 Alpha virt. eigenvalues --    1.48117   1.49804   1.50630   1.51751   1.52105
 Alpha virt. eigenvalues --    1.53706   1.54517   1.54725   1.55760   1.57101
 Alpha virt. eigenvalues --    1.57609   1.57856   1.59097   1.60238   1.60962
 Alpha virt. eigenvalues --    1.61366   1.62473   1.62959   1.63337   1.65043
 Alpha virt. eigenvalues --    1.66042   1.67117   1.67838   1.68667   1.69770
 Alpha virt. eigenvalues --    1.70723   1.71704   1.72450   1.73216   1.73896
 Alpha virt. eigenvalues --    1.74702   1.75252   1.76442   1.77709   1.79670
 Alpha virt. eigenvalues --    1.80730   1.81960   1.83431   1.84822   1.85154
 Alpha virt. eigenvalues --    1.86071   1.87132   1.87313   1.87802   1.88516
 Alpha virt. eigenvalues --    1.89164   1.91113   1.92823   1.93033   1.94682
 Alpha virt. eigenvalues --    1.95044   1.95532   1.97015   1.99352   2.00618
 Alpha virt. eigenvalues --    2.01351   2.03063   2.03501   2.04573   2.04909
 Alpha virt. eigenvalues --    2.06536   2.06607   2.08931   2.09577   2.10060
 Alpha virt. eigenvalues --    2.10279   2.13145   2.13337   2.17133   2.18164
 Alpha virt. eigenvalues --    2.19757   2.20800   2.22301   2.23302   2.24583
 Alpha virt. eigenvalues --    2.26218   2.27678   2.30670   2.31933   2.32485
 Alpha virt. eigenvalues --    2.33285   2.34002   2.36351   2.38330   2.39459
 Alpha virt. eigenvalues --    2.39706   2.42839   2.43751   2.48914   2.51550
 Alpha virt. eigenvalues --    2.53177   2.53353   2.54946   2.56422   2.56673
 Alpha virt. eigenvalues --    2.59493   2.61823   2.63781   2.65268   2.67367
 Alpha virt. eigenvalues --    2.68441   2.70529   2.70963   2.71285   2.71792
 Alpha virt. eigenvalues --    2.73814   2.75545   2.76347   2.77568   2.79332
 Alpha virt. eigenvalues --    2.80313   2.80809   2.82828   2.83114   2.85958
 Alpha virt. eigenvalues --    2.87457   2.88619   2.89109   2.90193   2.91168
 Alpha virt. eigenvalues --    2.92794   2.93984   2.95798   2.96386   2.97362
 Alpha virt. eigenvalues --    2.98056   2.99318   2.99645   3.00721   3.01870
 Alpha virt. eigenvalues --    3.02348   3.02736   3.03535   3.03866   3.05012
 Alpha virt. eigenvalues --    3.05446   3.06473   3.07292   3.07512   3.08003
 Alpha virt. eigenvalues --    3.08578   3.11081   3.11452   3.12955   3.14188
 Alpha virt. eigenvalues --    3.15522   3.17349   3.19919   3.21140   3.24035
 Alpha virt. eigenvalues --    3.26532   3.28826   3.35406   3.66975   3.83889
 Alpha virt. eigenvalues --    3.94143   4.00110   4.07274   4.08610   4.11165
 Alpha virt. eigenvalues --    4.12247   4.14567   4.14801   4.16165   4.16210
 Alpha virt. eigenvalues --    4.18110   4.18873   4.20659   4.22123   4.22175
 Alpha virt. eigenvalues --    4.23544   4.24324   4.24939   4.25413   4.26889
 Alpha virt. eigenvalues --    4.27122   4.27857   4.28928   4.30031   4.30116
 Alpha virt. eigenvalues --    4.30580   4.31190   4.31378   4.32151   4.32553
 Alpha virt. eigenvalues --    4.33486   4.33827   4.34290   4.35335   4.35761
 Alpha virt. eigenvalues --    4.36787   4.37011   4.37427   4.37966   4.38846
 Alpha virt. eigenvalues --    4.39470   4.40163   4.41201   4.41893   4.42921
 Alpha virt. eigenvalues --    4.42971   4.45215   4.46706   4.47398   4.47851
 Alpha virt. eigenvalues --    4.48788   4.50159   4.52444   4.53412   4.55159
 Alpha virt. eigenvalues --    4.55840   4.57125   4.57259   4.58524   4.60938
 Alpha virt. eigenvalues --    4.61283   4.62413   4.63155   4.63355   4.64906
 Alpha virt. eigenvalues --    4.65749   4.65800   4.66071   4.66318   4.67152
 Alpha virt. eigenvalues --    4.68666   4.69024   4.70343   4.71135   4.71458
 Alpha virt. eigenvalues --    4.71917   4.72486   4.73605   4.73763   4.74865
 Alpha virt. eigenvalues --    4.75164   4.75276   4.75831   4.76358   4.77134
 Alpha virt. eigenvalues --    4.78364   4.78883   4.79406   4.80465   4.81028
 Alpha virt. eigenvalues --    4.81511   4.82633   4.84418   4.86201   4.87057
 Alpha virt. eigenvalues --    4.87676   4.87977   4.89275   4.90284   4.91589
 Alpha virt. eigenvalues --    4.92705   4.94303   4.95325   4.96514   4.96726
 Alpha virt. eigenvalues --    4.98422   4.99221   5.00552   5.03434   5.06143
 Alpha virt. eigenvalues --    5.07694   5.08110   5.09531   5.12612   5.15521
 Alpha virt. eigenvalues --    5.20438   5.24631   5.26149   5.30432   5.38165
 Alpha virt. eigenvalues --    5.44238   5.71928   6.09405   6.19325   6.58943
 Alpha virt. eigenvalues --    6.69729   6.75524   6.78083   6.81047   6.84246
 Alpha virt. eigenvalues --    6.85635   6.91843   6.96506   7.01387   7.04332
 Alpha virt. eigenvalues --    7.12758  11.76208  11.99228  12.02791  12.12044
 Alpha virt. eigenvalues --   12.28837  12.35695  12.61377  12.76984  12.87236
 Alpha virt. eigenvalues --   12.91009  13.08929  13.14249  13.23424  13.25579
 Alpha virt. eigenvalues --   13.28020  13.33020  13.38990  13.40536  13.50932
 Alpha virt. eigenvalues --   13.66508  13.71505  13.76618  13.81574
          Condensed to atoms (all electrons):
              1          2          3          4          5          6
     1  O    8.198642   0.190796   0.026025  -0.034620   0.028123   0.075149
     2  C    0.190796   8.376194  -0.915889   0.063133  -0.025128  -1.994146
     3  C    0.026025  -0.915889   6.847605   0.241504  -0.036557   0.327565
     4  O   -0.034620   0.063133   0.241504   8.243834   0.221211  -0.146570
     5  H    0.028123  -0.025128  -0.036557   0.221211   0.446964   0.010682
     6  C    0.075149  -1.994146   0.327565  -0.146570   0.010682   9.185687
     7  O   -0.000652   0.031698  -0.114742   0.011839  -0.000683   0.228799
     8  H    0.000012  -0.005973   0.006291  -0.000081   0.000009   0.057827
     9  C   -0.028372  -0.246079  -0.098514   0.001927  -0.002683   0.244876
    10  O   -0.016398  -0.016369  -0.001769  -0.000053   0.000031  -0.002881
    11  H    0.000613   0.000632  -0.001518   0.000001   0.000000   0.000052
    12  C   -0.141919  -1.493260   0.283070  -0.011542   0.022627   0.528247
    13  O    0.004203   0.009422  -0.030124  -0.002038  -0.000119   0.000009
    14  C   -0.025767   1.387399  -0.460775   0.012430   0.008754  -2.238907
    15  O   -0.000127  -0.002627  -0.007920   0.000700  -0.000013  -0.010569
    16  C    0.000359   0.250767  -0.168614   0.001472   0.000555  -0.331197
    17  C   -0.000384  -0.043421  -0.022485   0.000796   0.000042   0.067057
    18  O    0.000008   0.003192   0.005227  -0.000024   0.000000  -0.013755
    19  H   -0.000046  -0.003394   0.005111   0.000003   0.000000   0.006889
    20  C    0.000016   0.006532  -0.017357   0.000052   0.000001   0.023377
    21  O    0.000000  -0.000041   0.000016   0.000000   0.000000  -0.000230
    22  H    0.000000   0.000002   0.000000   0.000000   0.000000  -0.000017
    23  C   -0.000042   0.004612   0.030534  -0.000119  -0.000011  -0.101351
    24  O   -0.000004   0.003355  -0.016192  -0.000065  -0.000002  -0.005227
    25  H    0.000000  -0.000053   0.001620   0.000001   0.000000   0.001317
    26  C    0.000053   0.006269  -0.072757   0.000160   0.000026   0.011345
    27  O    0.000000   0.000302  -0.000454   0.000001   0.000000   0.002174
    28  C    0.000001   0.002434  -0.002285   0.000002   0.000000  -0.004515
    29  O    0.000000  -0.000002   0.000033   0.000000   0.000000  -0.000202
    30  H    0.256007   0.043182  -0.062591   0.001892   0.000021  -0.008119
    31  H    0.000944  -0.013037  -0.003694   0.000020   0.000000   0.008437
    32  H    0.000316  -0.003692  -0.005828   0.000011   0.000000  -0.002151
    33  H    0.000412   0.117836  -0.082027   0.000536   0.000000  -0.045068
    34  H   -0.022442   0.389003  -0.079808  -0.002216   0.000797  -0.057407
    35  H   -0.006106   0.003779   0.380263  -0.049042   0.002541  -0.335480
    36  H   -0.000313  -0.006854  -0.055246   0.001401  -0.000118   0.300068
    37  H    0.000089  -0.023261  -0.027830  -0.000127  -0.000002   0.018437
    38  H    0.000000   0.000000   0.000000   0.000000   0.000000  -0.000002
    39  H    0.000000  -0.000013  -0.000071   0.000000   0.000000   0.001517
    40  H    0.000000  -0.000028   0.000895   0.000001   0.000000  -0.005785
    41  H    0.000000   0.000017   0.000744   0.000000   0.000000  -0.003117
    42  H   -0.000002  -0.003119   0.004390   0.000004   0.000000   0.007977
    43  H    0.000000  -0.001440   0.001665   0.000000   0.000000   0.005719
    44  H    0.000000   0.000137  -0.000058   0.000000   0.000000  -0.000009
    45  H    0.000000   0.000018  -0.000009   0.000000   0.000000  -0.000210
              7          8          9         10         11         12
     1  O   -0.000652   0.000012  -0.028372  -0.016398   0.000613  -0.141919
     2  C    0.031698  -0.005973  -0.246079  -0.016369   0.000632  -1.493260
     3  C   -0.114742   0.006291  -0.098514  -0.001769  -0.001518   0.283070
     4  O    0.011839  -0.000081   0.001927  -0.000053   0.000001  -0.011542
     5  H   -0.000683   0.000009  -0.002683   0.000031   0.000000   0.022627
     6  C    0.228799   0.057827   0.244876  -0.002881   0.000052   0.528247
     7  O    8.234408   0.243053  -0.001122   0.000001   0.000000   0.008508
     8  H    0.243053   0.351914  -0.000006   0.000000   0.000000  -0.002047
     9  C   -0.001122  -0.000006   7.026330   0.159364  -0.044797  -0.988925
    10  O    0.000001   0.000000   0.159364   8.201847   0.244553   0.022049
    11  H    0.000000   0.000000  -0.044797   0.244553   0.440482   0.041366
    12  C    0.008508  -0.002047  -0.988925   0.022049   0.041366   9.230804
    13  O    0.003435  -0.000439  -0.037821  -0.000661  -0.000349   0.025409
    14  C    0.002998  -0.076522  -0.670837   0.009234  -0.003235  -1.385303
    15  O    0.003035   0.008091  -0.004441   0.000023   0.000000  -0.004220
    16  C   -0.003233   0.019474  -0.130577  -0.001004   0.000099  -0.213402
    17  C   -0.001863   0.000412   0.052950   0.000098  -0.000129  -0.126556
    18  O    0.000152  -0.000042  -0.006557  -0.000119   0.000005   0.002611
    19  H   -0.000079  -0.000003  -0.004751   0.000055  -0.000002   0.004078
    20  C    0.000529   0.000489   0.010200  -0.000025  -0.000006  -0.022625
    21  O    0.000001   0.000000   0.000195   0.000000   0.000000  -0.000073
    22  H    0.000000   0.000000  -0.000003   0.000000   0.000000   0.000021
    23  C    0.020557   0.001456  -0.000962  -0.000004   0.000000  -0.001562
    24  O   -0.040334   0.010053   0.000149   0.000000   0.000000   0.004150
    25  H    0.002675  -0.002467  -0.000013   0.000000   0.000000  -0.000442
    26  C   -0.035758  -0.012661   0.016918  -0.000057   0.000002   0.018857
    27  O   -0.000004  -0.000048   0.000096   0.000000   0.000000   0.000396
    28  C    0.000322   0.000000  -0.003074   0.000004   0.000000   0.002379
    29  O   -0.000001   0.000000  -0.000006   0.000000   0.000000   0.000085
    30  H   -0.000019   0.000000   0.013123   0.000244  -0.000003   0.009043
    31  H    0.000001   0.000000   0.607150  -0.049070  -0.009658  -0.251922
    32  H   -0.000006   0.000000   0.486512  -0.050673  -0.004224  -0.108555
    33  H    0.000425   0.000001   0.017365  -0.001404  -0.000156   0.103496
    34  H    0.000899   0.000002  -0.067480  -0.001204  -0.000011  -0.029601
    35  H    0.007521  -0.000226   0.007612  -0.000084   0.000000   0.080635
    36  H   -0.028332  -0.005593   0.017399   0.000007   0.000000   0.103313
    37  H    0.000079  -0.000112   0.030229   0.000040   0.000000   0.100063
    38  H    0.000000   0.000000   0.000000   0.000000   0.000000  -0.000001
    39  H   -0.000443   0.000271   0.000000   0.000000   0.000000   0.000032
    40  H    0.001625  -0.000249  -0.000003   0.000000   0.000000   0.000274
    41  H   -0.000131   0.000014   0.000076   0.000000   0.000000   0.000951
    42  H   -0.001397   0.000038   0.000911   0.000000   0.000000   0.004793
    43  H   -0.000017   0.000000  -0.000302   0.000000   0.000000   0.001230
    44  H    0.000001   0.000000  -0.000276   0.000000   0.000000   0.000816
    45  H    0.000000   0.000000  -0.000011   0.000000   0.000000   0.000063
             13         14         15         16         17         18
     1  O    0.004203  -0.025767  -0.000127   0.000359  -0.000384   0.000008
     2  C    0.009422   1.387399  -0.002627   0.250767  -0.043421   0.003192
     3  C   -0.030124  -0.460775  -0.007920  -0.168614  -0.022485   0.005227
     4  O   -0.002038   0.012430   0.000700   0.001472   0.000796  -0.000024
     5  H   -0.000119   0.008754  -0.000013   0.000555   0.000042   0.000000
     6  C    0.000009  -2.238907  -0.010569  -0.331197   0.067057  -0.013755
     7  O    0.003435   0.002998   0.003035  -0.003233  -0.001863   0.000152
     8  H   -0.000439  -0.076522   0.008091   0.019474   0.000412  -0.000042
     9  C   -0.037821  -0.670837  -0.004441  -0.130577   0.052950  -0.006557
    10  O   -0.000661   0.009234   0.000023  -0.001004   0.000098  -0.000119
    11  H   -0.000349  -0.003235   0.000000   0.000099  -0.000129   0.000005
    12  C    0.025409  -1.385303  -0.004220  -0.213402  -0.126556   0.002611
    13  O    8.168034   0.270740   0.008296  -0.085730   0.048847  -0.026967
    14  C    0.270740  10.098252   0.101587  -1.007657   0.208094   0.043370
    15  O    0.008296   0.101587   8.050037   0.345484  -0.129554  -0.000522
    16  C   -0.085730  -1.007657   0.345484  10.581773  -2.471277   0.005589
    17  C    0.048847   0.208094  -0.129554  -2.471277   8.799996   0.105336
    18  O   -0.026967   0.043370  -0.000522   0.005589   0.105336   8.267584
    19  H    0.023907  -0.004874   0.001667  -0.032934   0.016314   0.238981
    20  C    0.006911  -0.503443   0.014030  -0.733493  -0.248795  -0.008234
    21  O    0.000085   0.002690   0.000101   0.090454  -0.017322   0.010001
    22  H    0.000000  -0.000596  -0.000020  -0.012857  -0.020609  -0.000251
    23  C    0.003637   0.068773   0.029207   0.269503  -0.378957   0.013495
    24  O    0.000106   0.089307  -0.020593   0.016339  -0.006719  -0.000002
    25  H   -0.000020  -0.012572   0.002131  -0.008754  -0.000550   0.000001
    26  C   -0.026707  -0.546897  -0.081574  -1.737311   0.229294   0.014053
    27  O    0.000277   0.002191  -0.000681   0.088221  -0.089531  -0.003387
    28  C    0.000606   0.017179  -0.001335   0.643464  -0.329173  -0.013865
    29  O    0.000004   0.003900   0.000022   0.011361  -0.028200   0.000651
    30  H   -0.000452   0.001981   0.000009   0.000253   0.000006  -0.000001
    31  H   -0.002932   0.008704  -0.000144  -0.003995   0.002717  -0.000052
    32  H    0.004405  -0.006617   0.000005   0.005932   0.000536  -0.000108
    33  H   -0.046581   0.165104  -0.001376   0.000543   0.005612   0.000220
    34  H    0.002381   0.113326  -0.000390  -0.005309   0.002029   0.000057
    35  H    0.002864   0.117770   0.000874  -0.010004   0.003197   0.000104
    36  H    0.006700  -0.036344  -0.012132  -0.049987   0.004953   0.000214
    37  H   -0.035114   0.225992  -0.039645  -0.020296   0.005821  -0.002873
    38  H    0.000000   0.000059   0.000003  -0.004598   0.013486  -0.000014
    39  H    0.000026   0.003774  -0.000016   0.020492   0.008568   0.000008
    40  H   -0.000018   0.004131   0.003045   0.053288  -0.002822  -0.000047
    41  H   -0.000009   0.041394   0.000567  -0.034180  -0.045210  -0.000284
    42  H    0.001369  -0.010003  -0.045842   0.142043   0.077190  -0.007113
    43  H   -0.000933   0.041500  -0.005608  -0.031297   0.340053  -0.028038
    44  H    0.000225  -0.011745   0.000041   0.136722  -0.242179   0.006897
    45  H    0.000025  -0.000820   0.000173   0.071947  -0.049109   0.000508
             19         20         21         22         23         24
     1  O   -0.000046   0.000016   0.000000   0.000000  -0.000042  -0.000004
     2  C   -0.003394   0.006532  -0.000041   0.000002   0.004612   0.003355
     3  C    0.005111  -0.017357   0.000016   0.000000   0.030534  -0.016192
     4  O    0.000003   0.000052   0.000000   0.000000  -0.000119  -0.000065
     5  H    0.000000   0.000001   0.000000   0.000000  -0.000011  -0.000002
     6  C    0.006889   0.023377  -0.000230  -0.000017  -0.101351  -0.005227
     7  O   -0.000079   0.000529   0.000001   0.000000   0.020557  -0.040334
     8  H   -0.000003   0.000489   0.000000   0.000000   0.001456   0.010053
     9  C   -0.004751   0.010200   0.000195  -0.000003  -0.000962   0.000149
    10  O    0.000055  -0.000025   0.000000   0.000000  -0.000004   0.000000
    11  H   -0.000002  -0.000006   0.000000   0.000000   0.000000   0.000000
    12  C    0.004078  -0.022625  -0.000073   0.000021  -0.001562   0.004150
    13  O    0.023907   0.006911   0.000085   0.000000   0.003637   0.000106
    14  C   -0.004874  -0.503443   0.002690  -0.000596   0.068773   0.089307
    15  O    0.001667   0.014030   0.000101  -0.000020   0.029207  -0.020593
    16  C   -0.032934  -0.733493   0.090454  -0.012857   0.269503   0.016339
    17  C    0.016314  -0.248795  -0.017322  -0.020609  -0.378957  -0.006719
    18  O    0.238981  -0.008234   0.010001  -0.000251   0.013495  -0.000002
    19  H    0.352619  -0.005814  -0.000415   0.000014  -0.004323  -0.000022
    20  C   -0.005814   6.900145  -0.013567   0.035245   0.085782  -0.007059
    21  O   -0.000415  -0.013567   8.247784   0.222270   0.001362   0.000007
    22  H    0.000014   0.035245   0.222270   0.447994  -0.000027   0.000000
    23  C   -0.004323   0.085782   0.001362  -0.000027   6.281209  -0.050444
    24  O   -0.000022  -0.007059   0.000007   0.000000  -0.050444   8.323849
    25  H    0.000000   0.000881   0.000000   0.000000   0.007677   0.238227
    26  C    0.000347   0.619421  -0.023549   0.004794  -0.986137   0.062565
    27  O    0.000070  -0.093120   0.001569  -0.000218  -0.042346   0.004112
    28  C    0.002978  -0.273489   0.044117  -0.008310  -0.068216   0.007458
    29  O    0.000002   0.007432  -0.009412   0.009071   0.014188   0.000058
    30  H    0.000000   0.000001   0.000000   0.000000   0.000001   0.000000
    31  H   -0.000270   0.000293   0.000000   0.000000  -0.000012   0.000000
    32  H    0.000575  -0.000038   0.000001   0.000000   0.000002   0.000000
    33  H   -0.001142   0.000690  -0.000001   0.000000   0.000028   0.000001
    34  H   -0.000037   0.000039   0.000000   0.000000   0.000052   0.000004
    35  H   -0.000002   0.000091   0.000000   0.000000   0.000625   0.000038
    36  H   -0.000032   0.000475   0.000000   0.000000   0.002095   0.000487
    37  H   -0.001447   0.011559   0.000008   0.000000   0.004506   0.000058
    38  H    0.000000  -0.021557   0.000322  -0.000944  -0.000994  -0.000006
    39  H    0.000000  -0.002370  -0.000010   0.000000   0.367424  -0.015150
    40  H    0.000002  -0.000520   0.000002   0.000000   0.573215  -0.053780
    41  H    0.000012  -0.020436   0.000074   0.000004   0.074575   0.002194
    42  H   -0.000673   0.026917  -0.000355   0.000007  -0.023998   0.000512
    43  H   -0.002077  -0.062016   0.000142  -0.000211   0.007921   0.000027
    44  H   -0.000141   0.355499  -0.023715  -0.003783   0.008278   0.000015
    45  H    0.000003  -0.121074   0.006235  -0.000099   0.003034   0.000019
             25         26         27         28         29         30
     1  O    0.000000   0.000053   0.000000   0.000001   0.000000   0.256007
     2  C   -0.000053   0.006269   0.000302   0.002434  -0.000002   0.043182
     3  C    0.001620  -0.072757  -0.000454  -0.002285   0.000033  -0.062591
     4  O    0.000001   0.000160   0.000001   0.000002   0.000000   0.001892
     5  H    0.000000   0.000026   0.000000   0.000000   0.000000   0.000021
     6  C    0.001317   0.011345   0.002174  -0.004515  -0.000202  -0.008119
     7  O    0.002675  -0.035758  -0.000004   0.000322  -0.000001  -0.000019
     8  H   -0.002467  -0.012661  -0.000048   0.000000   0.000000   0.000000
     9  C   -0.000013   0.016918   0.000096  -0.003074  -0.000006   0.013123
    10  O    0.000000  -0.000057   0.000000   0.000004   0.000000   0.000244
    11  H    0.000000   0.000002   0.000000   0.000000   0.000000  -0.000003
    12  C   -0.000442   0.018857   0.000396   0.002379   0.000085   0.009043
    13  O   -0.000020  -0.026707   0.000277   0.000606   0.000004  -0.000452
    14  C   -0.012572  -0.546897   0.002191   0.017179   0.003900   0.001981
    15  O    0.002131  -0.081574  -0.000681  -0.001335   0.000022   0.000009
    16  C   -0.008754  -1.737311   0.088221   0.643464   0.011361   0.000253
    17  C   -0.000550   0.229294  -0.089531  -0.329173  -0.028200   0.000006
    18  O    0.000001   0.014053  -0.003387  -0.013865   0.000651  -0.000001
    19  H    0.000000   0.000347   0.000070   0.002978   0.000002   0.000000
    20  C    0.000881   0.619421  -0.093120  -0.273489   0.007432   0.000001
    21  O    0.000000  -0.023549   0.001569   0.044117  -0.009412   0.000000
    22  H    0.000000   0.004794  -0.000218  -0.008310   0.009071   0.000000
    23  C    0.007677  -0.986137  -0.042346  -0.068216   0.014188   0.000001
    24  O    0.238227   0.062565   0.004112   0.007458   0.000058   0.000000
    25  H    0.418643   0.008797  -0.000800  -0.001245  -0.000005   0.000000
    26  C    0.008797   9.321391   0.038430  -0.647051  -0.043018   0.000004
    27  O   -0.000800   0.038430   8.232938   0.218618  -0.101398   0.000000
    28  C   -0.001245  -0.647051   0.218618   5.551970   0.271058   0.000000
    29  O   -0.000005  -0.043018  -0.101398   0.271058   8.130692   0.000000
    30  H    0.000000   0.000004   0.000000   0.000000   0.000000   0.431351
    31  H    0.000000  -0.000029   0.000000  -0.000018   0.000000  -0.000051
    32  H    0.000000   0.000544   0.000000   0.000012   0.000000   0.000013
    33  H    0.000000  -0.000752   0.000000  -0.000019   0.000000  -0.000228
    34  H    0.000000  -0.000413   0.000000  -0.000005   0.000000  -0.014382
    35  H    0.000000  -0.000702   0.000000  -0.000016   0.000000   0.000242
    36  H   -0.000002  -0.004668  -0.000001  -0.000038   0.000000   0.000021
    37  H    0.000005   0.012588   0.000336  -0.000978  -0.000003   0.000001
    38  H    0.000000  -0.002994   0.002352   0.008235   0.260656   0.000000
    39  H   -0.013432  -0.041803  -0.001667   0.001625  -0.000207   0.000000
    40  H    0.000906  -0.271714   0.001552   0.004923  -0.000070   0.000000
    41  H   -0.000284   0.214347  -0.018973   0.042534  -0.000180   0.000000
    42  H   -0.000029   0.077973   0.002934  -0.001998  -0.000357   0.000000
    43  H    0.000000   0.006875   0.000786  -0.014423   0.000246   0.000000
    44  H    0.000000   0.008932   0.001630   0.029757  -0.001908   0.000000
    45  H    0.000000  -0.003072  -0.036767   0.426205  -0.018437   0.000000
             31         32         33         34         35         36
     1  O    0.000944   0.000316   0.000412  -0.022442  -0.006106  -0.000313
     2  C   -0.013037  -0.003692   0.117836   0.389003   0.003779  -0.006854
     3  C   -0.003694  -0.005828  -0.082027  -0.079808   0.380263  -0.055246
     4  O    0.000020   0.000011   0.000536  -0.002216  -0.049042   0.001401
     5  H    0.000000   0.000000   0.000000   0.000797   0.002541  -0.000118
     6  C    0.008437  -0.002151  -0.045068  -0.057407  -0.335480   0.300068
     7  O    0.000001  -0.000006   0.000425   0.000899   0.007521  -0.028332
     8  H    0.000000   0.000000   0.000001   0.000002  -0.000226  -0.005593
     9  C    0.607150   0.486512   0.017365  -0.067480   0.007612   0.017399
    10  O   -0.049070  -0.050673  -0.001404  -0.001204  -0.000084   0.000007
    11  H   -0.009658  -0.004224  -0.000156  -0.000011   0.000000   0.000000
    12  C   -0.251922  -0.108555   0.103496  -0.029601   0.080635   0.103313
    13  O   -0.002932   0.004405  -0.046581   0.002381   0.002864   0.006700
    14  C    0.008704  -0.006617   0.165104   0.113326   0.117770  -0.036344
    15  O   -0.000144   0.000005  -0.001376  -0.000390   0.000874  -0.012132
    16  C   -0.003995   0.005932   0.000543  -0.005309  -0.010004  -0.049987
    17  C    0.002717   0.000536   0.005612   0.002029   0.003197   0.004953
    18  O   -0.000052  -0.000108   0.000220   0.000057   0.000104   0.000214
    19  H   -0.000270   0.000575  -0.001142  -0.000037  -0.000002  -0.000032
    20  C    0.000293  -0.000038   0.000690   0.000039   0.000091   0.000475
    21  O    0.000000   0.000001  -0.000001   0.000000   0.000000   0.000000
    22  H    0.000000   0.000000   0.000000   0.000000   0.000000   0.000000
    23  C   -0.000012   0.000002   0.000028   0.000052   0.000625   0.002095
    24  O    0.000000   0.000000   0.000001   0.000004   0.000038   0.000487
    25  H    0.000000   0.000000   0.000000   0.000000   0.000000  -0.000002
    26  C   -0.000029   0.000544  -0.000752  -0.000413  -0.000702  -0.004668
    27  O    0.000000   0.000000   0.000000   0.000000   0.000000  -0.000001
    28  C   -0.000018   0.000012  -0.000019  -0.000005  -0.000016  -0.000038
    29  O    0.000000   0.000000   0.000000   0.000000   0.000000   0.000000
    30  H   -0.000051   0.000013  -0.000228  -0.014382   0.000242   0.000021
    31  H    0.602882  -0.044824   0.008219   0.002222  -0.000009  -0.000016
    32  H   -0.044824   0.588603  -0.012476  -0.000066   0.000003   0.000001
    33  H    0.008219  -0.012476   0.645038   0.007720   0.003070  -0.000043
    34  H    0.002222  -0.000066   0.007720   0.640312   0.008214   0.002378
    35  H   -0.000009   0.000003   0.003070   0.008214   0.665145   0.008650
    36  H   -0.000016   0.000001  -0.000043   0.002378   0.008650   0.623177
    37  H   -0.000008   0.000010   0.003676  -0.000022   0.003067   0.005399
    38  H    0.000000   0.000000   0.000000   0.000000   0.000000   0.000000
    39  H    0.000000   0.000000   0.000000   0.000000   0.000000   0.000000
    40  H    0.000000   0.000000   0.000000   0.000000   0.000001   0.000000
    41  H    0.000000   0.000000   0.000000   0.000000   0.000000  -0.000002
    42  H    0.000000  -0.000001  -0.000011   0.000000   0.000001  -0.000018
    43  H    0.000000   0.000000  -0.000001   0.000000   0.000000  -0.000010
    44  H    0.000000   0.000000   0.000000   0.000000   0.000000   0.000000
    45  H    0.000000   0.000000   0.000000   0.000000   0.000000   0.000000
             37         38         39         40         41         42
     1  O    0.000089   0.000000   0.000000   0.000000   0.000000  -0.000002
     2  C   -0.023261   0.000000  -0.000013  -0.000028   0.000017  -0.003119
     3  C   -0.027830   0.000000  -0.000071   0.000895   0.000744   0.004390
     4  O   -0.000127   0.000000   0.000000   0.000001   0.000000   0.000004
     5  H   -0.000002   0.000000   0.000000   0.000000   0.000000   0.000000
     6  C    0.018437  -0.000002   0.001517  -0.005785  -0.003117   0.007977
     7  O    0.000079   0.000000  -0.000443   0.001625  -0.000131  -0.001397
     8  H   -0.000112   0.000000   0.000271  -0.000249   0.000014   0.000038
     9  C    0.030229   0.000000   0.000000  -0.000003   0.000076   0.000911
    10  O    0.000040   0.000000   0.000000   0.000000   0.000000   0.000000
    11  H    0.000000   0.000000   0.000000   0.000000   0.000000   0.000000
    12  C    0.100063  -0.000001   0.000032   0.000274   0.000951   0.004793
    13  O   -0.035114   0.000000   0.000026  -0.000018  -0.000009   0.001369
    14  C    0.225992   0.000059   0.003774   0.004131   0.041394  -0.010003
    15  O   -0.039645   0.000003  -0.000016   0.003045   0.000567  -0.045842
    16  C   -0.020296  -0.004598   0.020492   0.053288  -0.034180   0.142043
    17  C    0.005821   0.013486   0.008568  -0.002822  -0.045210   0.077190
    18  O   -0.002873  -0.000014   0.000008  -0.000047  -0.000284  -0.007113
    19  H   -0.001447   0.000000   0.000000   0.000002   0.000012  -0.000673
    20  C    0.011559  -0.021557  -0.002370  -0.000520  -0.020436   0.026917
    21  O    0.000008   0.000322  -0.000010   0.000002   0.000074  -0.000355
    22  H    0.000000  -0.000944   0.000000   0.000000   0.000004   0.000007
    23  C    0.004506  -0.000994   0.367424   0.573215   0.074575  -0.023998
    24  O    0.000058  -0.000006  -0.015150  -0.053780   0.002194   0.000512
    25  H    0.000005   0.000000  -0.013432   0.000906  -0.000284  -0.000029
    26  C    0.012588  -0.002994  -0.041803  -0.271714   0.214347   0.077973
    27  O    0.000336   0.002352  -0.001667   0.001552  -0.018973   0.002934
    28  C   -0.000978   0.008235   0.001625   0.004923   0.042534  -0.001998
    29  O   -0.000003   0.260656  -0.000207  -0.000070  -0.000180  -0.000357
    30  H    0.000001   0.000000   0.000000   0.000000   0.000000   0.000000
    31  H   -0.000008   0.000000   0.000000   0.000000   0.000000   0.000000
    32  H    0.000010   0.000000   0.000000   0.000000   0.000000  -0.000001
    33  H    0.003676   0.000000   0.000000   0.000000   0.000000  -0.000011
    34  H   -0.000022   0.000000   0.000000   0.000000   0.000000   0.000000
    35  H    0.003067   0.000000   0.000000   0.000001   0.000000   0.000001
    36  H    0.005399   0.000000   0.000000   0.000000  -0.000002  -0.000018
    37  H    0.586671   0.000000  -0.000001   0.000075  -0.000001   0.007782
    38  H    0.000000   0.428827   0.000001   0.000000   0.000015   0.000002
    39  H   -0.000001   0.000001   0.571530  -0.041494  -0.002035   0.000131
    40  H    0.000075   0.000000  -0.041494   0.569050   0.005670   0.004332
    41  H   -0.000001   0.000015  -0.002035   0.005670   0.611014   0.005988
    42  H    0.007782   0.000002   0.000131   0.004332   0.005988   0.611079
    43  H   -0.000062   0.000008   0.000005  -0.000003   0.001512   0.005335
    44  H   -0.000006  -0.000027   0.000000  -0.000009  -0.000052   0.000274
    45  H    0.000000  -0.008811  -0.000037  -0.000008   0.003177  -0.000064
             43         44         45
     1  O    0.000000   0.000000   0.000000
     2  C   -0.001440   0.000137   0.000018
     3  C    0.001665  -0.000058  -0.000009
     4  O    0.000000   0.000000   0.000000
     5  H    0.000000   0.000000   0.000000
     6  C    0.005719  -0.000009  -0.000210
     7  O   -0.000017   0.000001   0.000000
     8  H    0.000000   0.000000   0.000000
     9  C   -0.000302  -0.000276  -0.000011
    10  O    0.000000   0.000000   0.000000
    11  H    0.000000   0.000000   0.000000
    12  C    0.001230   0.000816   0.000063
    13  O   -0.000933   0.000225   0.000025
    14  C    0.041500  -0.011745  -0.000820
    15  O   -0.005608   0.000041   0.000173
    16  C   -0.031297   0.136722   0.071947
    17  C    0.340053  -0.242179  -0.049109
    18  O   -0.028038   0.006897   0.000508
    19  H   -0.002077  -0.000141   0.000003
    20  C   -0.062016   0.355499  -0.121074
    21  O    0.000142  -0.023715   0.006235
    22  H   -0.000211  -0.003783  -0.000099
    23  C    0.007921   0.008278   0.003034
    24  O    0.000027   0.000015   0.000019
[...]
 ,-0.00000329,-0.00000259,0.00000595,-0.00004227,0.00012711,0.00002391,
 0.00038588,0.00012079,0.00019854,-0.00018458,-0.00006093,-0.00551042,-
 0.02339420,0.00229893,0.00912066,-0.32544874,0.06519479,-0.06370163,-0
 .00273402,0.00003405,-0.00253502,0.00221575,-0.00230695,0.00069551,-0.
 00031384,0.00033083,0.00029694,-0.00035809,0.00050183,0.00043509,0.000
 18339,-0.00011409,-0.00016761,-0.00002124,0.00007648,-0.00002768,-0.00
 000298,0.00119238,0.00042668,0.00035233,0.00012757,-0.00020762,0.00006
 122,-0.00006183,-0.00002257,-0.01125068,0.00173126,-0.00326164,0.00199
 337,0.00016223,0.00016368,0.00000647,0.00000863,0.00004106,0.00004042,
 -0.00000341,-0.00002361,-0.00000053,-0.00000110,-0.00000323,0.00000439
 ,-0.00000601,-0.00000092,0.00000750,0.00000529,-0.00000581,0.00003617,
 0.00000276,0.00002258,0.00000792,-0.00000477,-0.00000911,0.00002666,-0
 .00000452,0.00004125,0.00021564,0.00019005,-0.00032685,0.00188965,-0.0
 0020842,0.00073875,-0.00000617,0.00000690,0.00000023,0.00048499,0.0000
 5589,0.00017506,0.00070959,-0.00116954,0.00033053,0.00020768,-0.000935
 21,-0.00095784,0.35369129,-0.00000803,-0.00002388,0.00002475,0.0000129
 8,0.00003360,-0.00001263,0.00002952,0.00003613,-0.00001955,-0.00000924
 ,-0.00003137,-0.00000631,0.00000191,0.00001127,-0.00000574,-0.00025546
 ,0.00017509,0.00001602,0.00008080,-0.00012228,-0.00014889,-0.00011044,
 0.00000577,0.00009348,0.00002030,-0.00001896,-0.00003262,-0.00000884,0
 .00002453,0.00003543,0.00000971,-0.00000822,-0.00000470,-0.00000705,-0
 .00000698,-0.00006245,0.00009535,-0.00018655,0.00025961,-0.00042279,0.
 00131235,0.00020587,-0.00484043,0.00244272,0.00057422,0.06488722,-0.05
 616618,0.01391424,0.03110831,-0.01200582,0.00820358,0.00017585,0.00383
 355,0.00120456,0.00059333,-0.00063618,-0.00076343,0.00098958,0.0004927
 7,-0.00097710,-0.00048280,-0.00024532,0.00031708,-0.00013621,-0.000080
 97,0.00009572,-0.00255659,0.00162293,-0.00025542,0.00044245,-0.0001354
 9,-0.00006348,-0.00004649,-0.00004045,-0.00000490,-0.02244493,0.002230
 43,-0.00762039,0.00088256,0.00032057,0.00190819,0.00009143,-0.00061202
 ,-0.00000172,0.00003208,0.00011829,0.00008634,0.00000272,0.00000080,-0
 .00000140,-0.00001232,0.00000364,0.00000314,-0.00001092,-0.00002066,0.
 00000368,-0.00001850,0.00002479,-0.00001037,-0.00000649,-0.00000715,0.
 00000563,0.00000585,0.00000739,0.00000769,0.00001836,-0.00006734,0.000
 05714,0.00021288,0.00032507,-0.00008413,-0.00003278,0.00001928,0.00001
 178,0.00023798,0.00021108,0.00015348,0.00052109,-0.00024980,0.00011201
 ,-0.00121278,-0.00205087,-0.00328851,-0.06686965,0.06456254,-0.0000119
 1,-0.00001556,-0.00002963,0.00000327,0.00002505,0.00001542,-0.00001787
 ,0.00003326,0.00006068,-0.00000817,-0.00000373,-0.00001964,-0.00000438
 ,0.00000389,0.00000172,0.00049747,0.00001292,-0.00026385,-0.00017166,0
 .00010404,0.00000784,0.00004792,-0.00020703,-0.00007221,-0.00003173,0.
 00004191,-0.00003479,-0.00000161,-0.00002253,0.00000233,-0.00000198,0.
 00000111,-0.00000383,0.00001521,-0.00011700,-0.00010081,-0.00090864,-0
 .00014115,-0.00031465,0.00859640,-0.00114364,0.00214739,0.03453868,-0.
 00289106,-0.01171534,-0.07246980,0.01711437,-0.05747973,-0.01223451,0.
 00169688,-0.00113868,0.00133267,-0.00279402,0.00051449,0.00043143,-0.0
 0006827,0.00008382,-0.00058713,-0.00038659,0.00038898,0.00026435,0.000
 04835,-0.00003317,0.00001829,-0.00001680,-0.00000989,-0.00058731,0.001
 79887,0.00045382,0.00026799,-0.00008008,0.00011516,-0.00001937,0.00001
 603,0.00003290,-0.02367474,0.00255005,-0.00573583,0.00087151,0.0001963
 7,0.00209055,-0.00024030,0.00031930,-0.00006325,0.00003898,-0.00002057
 ,-0.00017072,0.00000006,0.00000386,0.00000455,0.00000330,0.00000822,0.
 00000007,-0.00000430,-0.00000813,0.00000083,-0.00004471,-0.00001065,-0
 .00005762,-0.00000371,0.00000494,0.00001149,-0.00007035,0.00000799,-0.
 00007068,-0.00033013,0.00010485,-0.00009806,-0.00090117,0.00045465,-0.
 00132616,0.00001280,0.00000878,0.00001103,0.00022708,0.00013738,0.0000
 3961,0.00069114,-0.00061556,0.00054196,-0.00070982,-0.00260025,-0.0033
 1892,0.06448073,-0.01548383,0.07579704,0.00002025,0.00003528,-0.000051
 88,-0.00004269,-0.00004250,0.00001707,-0.00002322,-0.00004588,0.000010
 85,0.00002357,0.00004647,-0.00000784,-0.00000869,-0.00001620,0.0000070
 5,0.00001576,-0.00004233,-0.00000935,0.00004526,0.00007400,0.00006920,
 -0.00002238,0.00000465,-0.00006819,-0.00006818,0.00000091,0.00012545,0
 .00001816,-0.00003701,-0.00010491,-0.00001935,0.00001985,0.00001973,0.
 00005407,0.00007323,0.00010614,0.00031572,0.00068229,-0.00054152,-0.00
 004230,-0.00069996,-0.00041210,0.00152571,-0.00070619,0.00015578,-0.00
 188507,0.00038791,0.00150227,-0.31941062,0.09506949,0.02900891,-0.0207
 0895,-0.00420616,-0.01387269,-0.00072134,-0.00060409,0.00178066,-0.012
 23198,0.00569101,0.00270364,0.00171810,-0.00000768,-0.00118133,0.00035
 784,0.00004803,-0.00028354,0.00031883,0.00020913,0.00029603,0.00002228
 ,-0.00002138,0.00001274,-0.00000408,0.00000495,-0.00000832,-0.00046344
 ,0.00049901,-0.00012898,0.00028113,0.00018809,0.00000532,-0.00122555,-
 0.00070900,-0.00046256,0.00044398,0.00007221,0.00041240,-0.00000789,0.
 00000177,0.00000163,0.00001337,-0.00000598,-0.00000547,0.00005314,0.00
 004646,-0.00000905,0.00001313,-0.00003208,0.00002830,0.00001286,0.0000
 0210,-0.00001182,0.00000922,-0.00000315,-0.00000036,0.00001448,0.00001
 737,-0.00002744,0.00000786,-0.00002816,0.00026281,-0.00004955,0.000123
 49,0.00014355,-0.00001832,0.00009283,-0.00002252,-0.00001158,-0.000196
 77,-0.00000222,0.00048380,0.00019874,0.00025185,0.00033885,-0.00051949
 ,0.00040039,0.35021694,0.00000197,0.00001292,-0.00004289,-0.00001955,-
 0.00002352,0.00001680,0.00002566,0.00001678,-0.00001428,-0.00000340,0.
 00001538,-0.00002941,0.00000043,-0.00000286,0.00000051,-0.00012126,-0.
 00004794,-0.00004976,-0.00004752,0.00006395,0.00004994,0.00004781,-0.0
 0005234,-0.00006554,-0.00003594,0.00002016,0.00004953,0.00000644,-0.00
 003262,-0.00004097,-0.00001080,0.00001090,0.00000112,0.00007181,0.0000
 5219,0.00008318,0.00010436,0.00010417,-0.00023566,0.00026548,0.0000943
 9,0.00035488,-0.00094492,0.00312408,-0.00227713,0.03336338,-0.01306304
 ,-0.00127832,0.09639332,-0.07379351,-0.00590898,-0.02415256,0.00420913
 ,-0.00618148,-0.00044207,0.00050287,0.00109388,-0.00679660,0.00285886,
 0.00328678,-0.00064701,0.00092907,-0.00080931,-0.00001647,0.00007266,-
 0.00018248,0.00002641,-0.00024522,-0.00010970,-0.00012626,-0.00003359,
 0.00009603,-0.00000156,0.00002295,0.00000816,0.00116245,0.00181088,0.0
 0097748,-0.00041249,-0.00036692,-0.00060553,0.00051406,-0.00059931,0.0
 0008795,-0.00002972,0.00008032,0.00021736,-0.00000254,0.00000414,0.000
 00202,0.00001824,-0.00000042,-0.00001157,0.00001277,0.00002320,0.00000
 035,-0.00001090,-0.00001696,-0.00000114,0.00000075,0.00000424,-0.00000
 079,-0.00000630,0.00000198,-0.00000546,-0.00003073,-0.00002450,0.00005
 047,-0.00027972,0.00002940,-0.00016232,0.00001657,0.00006117,0.0000214
 2,-0.00014177,-0.00009803,-0.00002848,-0.00026823,0.00014669,-0.000118
 46,-0.00062502,-0.00035289,-0.00053281,-0.00010922,-0.00503435,0.00202
 506,-0.09590127,0.07956757,0.00001351,0.00000872,-0.00000728,-0.000024
 95,-0.00000380,0.00000364,-0.00000369,-0.00001991,-0.00000069,0.000012
 09,0.00001081,0.00000219,-0.00000360,-0.00000390,0.00000243,-0.0000398
 5,0.00001319,0.00001246,0.00003817,-0.00001461,-0.00000096,-0.00002007
 ,0.00002707,0.00001272,-0.00007953,-0.00000462,0.00007048,0.00003275,-
 0.00000814,-0.00004370,-0.00001714,0.00000533,0.00001023,-0.00001418,0
 .00000957,0.00000264,0.00040914,0.00020315,-0.00029832,-0.00061879,0.0
 0001239,-0.00052594,-0.00074900,-0.00072998,0.00106811,-0.00686632,0.0
 0583961,0.00107797,0.03071585,-0.00620259,-0.04341497,-0.03129991,-0.0
 0145841,-0.00751763,-0.00163920,0.00048283,0.00134347,0.03226052,-0.00
 843259,-0.00419379,-0.00180379,-0.00105746,0.00258495,-0.00013764,-0.0
 0044414,0.00039917,0.00000045,0.00014827,0.00015840,0.00000615,-0.0000
 2813,-0.00000883,-0.00000054,-0.00001410,-0.00000009,0.00048483,0.0001
 2219,-0.00046853,-0.00031987,-0.00064649,-0.00041705,0.00128872,0.0008
 0453,0.00162553,-0.00043983,0.00000378,-0.00038995,-0.00000361,0.00000
 114,-0.00000177,0.00002603,-0.00001386,-0.00001586,0.00003081,0.000033
 59,-0.00000407,0.00003717,-0.00002813,0.00004354,0.00001468,-0.0000000
 9,-0.00001448,0.00001253,-0.00000550,0.00000972,0.00004163,0.00002636,
 -0.00003100,0.00019649,-0.00006799,-0.00004282,-0.00005534,-0.00015201
 ,-0.00008459,0.00003483,0.00009577,0.00000478,0.00003997,-0.00004943,0
 .00000650,0.00002640,-0.00010234,0.00012047,-0.00042844,0.00114555,-0.
 00027476,-0.02202320,0.00926622,0.05470233,0.00000322,-0.00000095,-0.0
 0001484,-0.00001101,-0.00000185,0.00000316,-0.00001299,-0.00001258,0.0
 0001115,0.00000824,0.00000426,-0.00000673,-0.00000253,-0.00000095,0.00
 000205,0.00000717,0.00001569,0.00002108,0.00001527,-0.00000760,-0.0000
 1723,-0.00000859,0.00001038,0.00002226,-0.00001056,0.00000879,0.000011
 78,0.00000527,-0.00001083,-0.00001029,-0.00000503,0.00000401,0.0000002
 0,0.00001221,0.00003010,0.00002029,0.00004251,0.00006486,-0.00016279,-
 0.00009539,-0.00007051,-0.00002841,0.00028761,-0.00025683,0.00019099,-
 0.00063438,0.00083915,0.00007961,-0.01295667,-0.00107900,0.00066991,0.
 00178263,-0.00000709,-0.00166558,0.00037105,-0.00010838,0.00001710,-0.
 36032086,0.00339904,-0.00078358,-0.00432621,0.01047326,-0.00355569,-0.
 00007442,0.00061543,0.00012313,-0.00004158,-0.00004841,-0.00000446,0.0
 0006217,0.00004166,-0.00004973,-0.00000864,-0.00000518,-0.00000518,-0.
 00009244,-0.00005040,0.00016855,0.00194692,-0.00028088,0.00053117,-0.0
 1350414,0.00069037,0.00037541,0.00153353,0.00024061,0.00061951,-0.0000
 0180,0.00000308,0.00000069,0.00000607,-0.00000281,-0.00000208,0.000002
 17,0.00000401,-0.00000123,0.00000385,-0.00000473,0.00000109,0.00000450
 ,-0.00000112,-0.00000326,0.00000543,-0.00000126,-0.00000018,0.00000820
 ,0.00000312,-0.00000760,0.00001982,-0.00000770,0.00002816,0.00036590,0
 .00032875,0.00031877,-0.00000080,-0.00001608,0.00000692,0.00001731,-0.
 00002506,0.00001764,0.00013135,0.00008861,-0.00006491,0.00026329,-0.00
 038580,0.00010978,0.00009641,-0.00077000,0.00131131,0.38489696,0.00000
 063,-0.00000278,0.00001820,0.00000485,0.00000145,-0.00001094,-0.000002
 74,0.00000804,-0.00001008,-0.00000231,-0.00000918,0.00001363,0.0000009
 6,0.00000209,-0.00000232,0.00000160,0.00001228,-0.00000480,0.00000330,
 -0.00001390,0.00000452,-0.00000178,0.00000455,-0.00000920,0.00001039,-
 0.00000578,-0.00002133,-0.00000261,0.00001209,0.00002125,0.00000575,-0
 .00000508,-0.00000416,-0.00001330,-0.00000732,-0.00002818,0.00000024,-
 0.00001696,0.00005886,-0.00001758,0.00004188,-0.00004337,0.00018307,0.
 00000637,0.00002524,-0.00023577,0.00019938,-0.00045180,-0.00797887,0.0
 0230544,-0.00045265,0.00076696,-0.00015076,-0.00046500,-0.00000032,-0.
 00007809,-0.00008916,0.00230318,-0.03819436,-0.00078988,0.03990539,-0.
 02053751,0.00670825,0.00069730,0.00044140,-0.00093664,-0.00005515,0.00
 006269,-0.00006010,0.00001961,-0.00002187,0.00000213,-0.00000024,0.000
 00516,0.00000297,-0.00025565,-0.00011301,0.00015892,0.00063707,0.00158
 308,0.00019181,-0.02393530,0.00017588,-0.00105625,0.00135056,0.0010003
 8,0.00138265,0.00000121,-0.00000132,-0.00000243,-0.00000314,-0.0000009
 3,0.00000131,-0.00000601,-0.00000527,0.00000176,0.00000324,0.00000262,
 0.00000158,-0.00000108,-0.00000066,0.00000098,-0.00000012,0.00000019,0
 .00000066,0.00000167,-0.00000074,-0.00000147,0.00000838,0.00000202,0.0
 0001112,0.00002799,0.00012033,0.00033314,-0.00000031,-0.00002231,0.000
 00228,0.00001913,-0.00003063,0.00002300,0.00017115,0.00003781,-0.00002
 435,0.00002032,0.00001920,0.00000150,-0.00007692,-0.00010838,0.0015887
 5,-0.01274221,0.05611033,-0.00000890,-0.00001375,0.00000182,0.00001369
 ,0.00001576,0.00000440,0.00002312,0.00002378,0.00000951,-0.00000767,-0
 .00001039,-0.00002137,0.00000195,0.00000755,-0.00000271,-0.00002858,-0
 .00002213,-0.00004427,-0.00001327,0.00000149,-0.00001332,0.00000067,-0
 .00002333,0.00000311,0.00002289,0.00001081,-0.00003787,-0.00001093,-0.
 00000113,0.00002657,0.00000656,-0.00000319,-0.00000865,0.00000595,-0.0
 0002099,0.00000521,-0.00013627,-0.00026716,0.00016151,0.00023611,0.000
 30701,0.00028140,-0.00053347,0.00042518,-0.00072852,0.00045978,-0.0011
 3783,0.00064230,0.03363413,0.00025706,-0.00216650,-0.00101615,0.000240
 43,0.00358485,-0.00007992,0.00013832,-0.00013057,-0.00029057,-0.001797
 80,-0.04373228,-0.00929345,0.00674731,0.00228737,-0.00103197,0.0000526
 2,0.00005003,0.00006015,0.00002049,0.00008170,-0.00000628,0.00000486,0
 .00000393,-0.00000657,0.00000271,0.00000135,0.00028130,0.00019854,-0.0
 0039027,0.00147650,0.00102216,0.00012738,-0.02696338,-0.00323944,-0.00
 208659,0.00081985,0.00145670,0.00237632,0.00000144,0.00000164,0.000001
 60,-0.00000396,0.00000267,0.00000212,-0.00001519,-0.00001282,0.0000041
 3,-0.00000821,0.00001040,-0.00001094,-0.00000454,-0.00000093,0.0000040
 3,-0.00000456,0.00000175,-0.00000129,-0.00001034,-0.00000737,0.0000116
 8,-0.00003310,0.00000986,-0.00004812,0.00003075,0.00032524,0.00043764,
 -0.00000592,0.00003700,0.00000191,0.00000192,0.00000567,-0.00000104,-0
 .00000958,0.00001884,-0.00010988,-0.00022210,0.00040567,-0.00008452,0.
 00149359,0.00113997,-0.00510881,0.00255552,-0.00344573,0.04726171,0.00
 000163,-0.00000252,-0.00001851,-0.00000861,0.00000357,0.00001142,-0.00
 000140,-0.00000458,0.00001584,0.00000857,0.00000604,-0.00002098,-0.000
 00342,0.00000025,0.00000220,-0.00002224,0.00000089,-0.00000055,0.00001
 630,0.00000101,-0.00002715,-0.00001248,-0.00000137,0.00002918,-0.00000
 869,0.00001123,0.00000904,0.00000423,-0.00001324,-0.00001250,-0.000005
 27,0.00000424,0.00000161,0.00000691,0.00000664,0.00002951,0.00001975,-
 0.00001043,-0.00009282,0.00002920,0.00002215,0.00007203,0.00009642,-0.
 00000009,-0.00025604,-0.00010864,0.00015077,0.00007298,-0.00077492,-0.
 00012333,0.00044011,0.00037525,-0.00012625,-0.00025828,-0.00001584,-0.
 00004257,-0.00000167,-0.01017719,0.00404184,-0.00197489,0.00227582,-0.
 00055763,0.00140166,-0.00069936,-0.00031098,-0.00001008,0.00052005,-0.
 00016533,-0.00001790,0.00005641,0.00020074,-0.00011044,-0.00001825,0.0
 0000918,-0.00003093,0.00109192,-0.00049114,0.00056701,-0.00241378,0.00
 741256,-0.00340774,-0.34798775,0.01626904,-0.05952925,-0.01392649,0.00
 101861,0.00430150,-0.00000261,0.00000302,0.00000269,0.00000478,-0.0000
 0222,-0.00000137,0.00000217,0.00000306,-0.00000156,0.00000206,-0.00000
 285,-0.00000134,0.00000440,-0.00000138,-0.00000304,0.00000443,-0.00000
 135,0.00000051,0.00000487,-0.00000165,-0.00000326,0.00000515,-0.000004
 28,0.00000376,0.00055954,-0.00001513,0.00038901,-0.00000700,-0.0000320
 6,0.00000339,-0.00000839,-0.00017212,0.00009007,0.00036922,0.00060394,
 -0.00113097,0.00002341,-0.00005422,0.00018581,0.00054447,-0.00007808,-
 0.00044551,0.00020898,-0.00081253,-0.00138098,0.36996638,0.00000649,0.
 00001330,0.00000346,-0.00000979,-0.00001589,-0.00000497,-0.00000185,-0
 .00000128,-0.00001186,-0.00000042,0.00000755,0.00001380,0.,-0.00000403
 ,-0.00000078,0.00000548,-0.00004109,-0.00000703,0.00000362,0.00004546,
 0.00006620,-0.00000194,-0.00001934,-0.00009233,-0.00000808,-0.00000868
 ,0.00001844,0.00000372,0.00000394,-0.00001256,-0.00000278,0.00000070,0
 .00000425,0.00001182,0.00001977,0.00001555,0.00006121,0.00015044,-0.00
 006123,-0.00010387,-0.00009953,-0.00011582,0.00005348,0.00032307,0.000
 35721,-0.00041141,-0.00060936,0.00003824,-0.00067464,-0.00001543,0.001
 22358,0.00020394,0.00001592,-0.00077175,0.00008110,-0.00016284,0.00012
 741,-0.02217890,0.00404679,-0.00480146,0.00153779,0.00293823,0.0010359
 8,-0.00050017,-0.00012285,0.00023581,-0.00002382,0.00021634,-0.0001087
 2,-0.00019925,-0.00020753,0.00014453,0.00000509,0.00002291,0.00003318,
 0.00423308,0.00197746,-0.00400673,0.03215311,-0.01533879,0.01461207,0.
 01394395,-0.04478107,0.00095109,0.00042867,0.00350206,-0.00100286,-0.0
 0000071,-0.00000229,-0.00000241,-0.00000083,0.00000087,0.00000138,0.00
 000872,0.00000591,-0.00000209,-0.00000208,-0.00000325,0.00000088,-0.00
 000009,0.00000129,0.00000031,-0.00000074,-0.00000050,0.00000028,-0.000
 00033,0.00000480,-0.00000171,0.00000536,-0.00000035,-0.00000130,0.0003
 9599,0.00000278,-0.00015182,0.00004027,0.00002927,0.00001031,-0.000118
 49,0.00012314,-0.00008073,-0.00146223,0.00044131,-0.00001605,-0.000084
 95,-0.00008296,-0.00009316,0.00031290,0.00005635,-0.00036059,-0.000966
 98,-0.00282785,-0.00288747,-0.02674144,0.05039524,-0.00000096,0.000000
 05,-0.00002685,-0.00000799,0.00000212,0.00001612,0.00000204,-0.0000068
 0,0.00002149,0.00000604,0.00001124,-0.00002700,-0.00000237,-0.00000098
 ,0.00000308,-0.00001908,-0.00001141,-0.00000558,0.00001351,0.00001181,
 -0.00002223,-0.00001221,-0.00000523,0.00002324,-0.00000515,0.00001312,
 0.00001560,-0.00000133,-0.00001726,-0.00002053,-0.00000289,0.00000519,
 0.00000322,0.00001905,0.00000848,0.00004194,0.00000923,-0.00000690,-0.
 00011383,0.00005758,0.00001190,0.00009357,0.00009151,0.00001902,-0.000
 32353,0.00002885,-0.00010398,-0.00013486,-0.00078967,0.00051271,0.0012
 5774,0.00036570,-0.00010727,-0.00020992,0.00009305,0.00000289,0.000079
 37,-0.02217288,0.00197591,0.00016755,0.00213119,0.00031663,0.00110436,
 0.00000200,-0.00026104,-0.00007634,0.00004767,-0.00003895,0.00003878,0
 .00012059,0.00010650,-0.00007410,-0.00000531,-0.00001162,-0.00001383,-
 0.00294795,-0.00049823,0.00283267,-0.01158996,0.00894947,-0.00387406,-
 0.06501742,0.00031982,-0.06018264,0.03633683,-0.00471544,-0.00587916,-
 0.00000213,0.00000241,0.00000374,0.00000138,-0.00000148,-0.00000063,0.
 00000483,0.00000391,-0.00000166,-0.00000031,-0.00000138,-0.00000132,0.
 00000301,-0.00000084,-0.00000293,0.00000245,-0.00000128,0.00000075,0.0
 0000294,0.00000024,-0.00000384,0.00000284,-0.00000572,0.00000940,0.001
 49470,0.00110423,0.00360956,0.00000337,-0.00002835,-0.00000241,0.00008
 544,-0.00009897,0.00002588,0.00085487,-0.00037739,0.00004686,0.0001020
 4,0.00000270,0.00009509,0.00041989,-0.00013661,-0.00039588,-0.00083341
 ,-0.00264468,-0.00264609,0.06110841,-0.00429853,0.06454919\\0.01290124
 ,-0.00166051,-0.00934539,-0.03526129,0.00952865,0.02131771,0.05665043,
 0.00519054,0.01599533,-0.02910911,0.00373467,0.00513735,0.00257718,-0.
 00423174,-0.03753537,-0.02666941,-0.03155584,0.02703942,0.00305844,0.0
 1608053,-0.01779004,0.00835805,0.00292399,0.01809109,-0.02692440,0.046
 77417,-0.03097656,0.00366178,-0.00497178,0.01945450,0.00292385,-0.0348
 2003,0.00041384,0.04220072,-0.04863787,0.03296903,-0.01002057,0.017125
 47,0.00787968,-0.03642092,-0.00860731,-0.00828552,0.02635291,0.0047366
 8,0.01429101,-0.02712347,0.00192684,-0.01961296,0.02757934,0.00646889,
 0.04065588,0.01044225,0.02138395,0.00309276,-0.00995450,0.00422542,-0.
 02847314,-0.01945027,0.00804469,-0.00105263,0.00702211,-0.00760458,-0.
 03224841,-0.00608780,0.00549147,0.02881130,-0.00747808,-0.00035180,-0.
 00370641,-0.01080477,-0.02828533,-0.00968298,0.00506002,0.03217469,0.0
 0791621,0.01163493,0.00387331,0.01101595,-0.02019377,-0.02008825,0.014
 68236,0.05610238,-0.03745005,-0.00628805,-0.01308956,0.03309814,0.0028
 3596,-0.00080290,0.00578106,-0.00045698,-0.02036592,0.00958262,-0.0108
 6408,0.00652534,0.00486247,-0.02063819,0.02355996,-0.01038000,-0.00207
 236,-0.02327785,0.00963872,0.00202879,0.02655751,-0.00758061,-0.004576
 92,-0.02078359,0.00890537,-0.00527786,0.01858215,-0.00153005,-0.003384
 81,-0.00203807,-0.00154927,-0.00270929,0.00071815,-0.00803438,-0.01551
 476,0.01776371,-0.00304543,0.00543259,-0.02044168,0.00023852,-0.002555
 85,0.01642590,-0.00309469,0.00000253,-0.01986423,0.00462040,-0.0011526
 3,0.01749865,-0.00416922,-0.00078034,-0.01799487,0.00123746,-0.0040817
 7\\\@


 A leading authority is anyone who has guessed right more than once.
 -- Frank A. Clark
 Job cpu time:  1 days  7 hours 31 minutes 36.2 seconds.
 File lengths (MBytes):  RWF=   1769 Int=      0 D2E=      0 Chk=     28 Scr=      1
 Normal termination of Gaussian 09 at Sun Mar 27 03:54:32 2016.
Gaussian '09 finished on node008 at Sun Mar 27 03:54:32 EDT 2016.
