Gaussian '09 started on node004 at Mon Feb  8 13:54:05 EST 2016.
 Entering Gaussian System, Link 0=/usr/local/gaussian/g09/g09
 Initial command:
 /usr/local/gaussian/g09/l1.exe /home/srmcgrat/thesis/gaussian/cellobiose/350/7000/1/2dfp/gaussian23507/Gau-23587.inp -scrdir=/home/srmcgrat/thesis/gaussian/cellobiose/350/7000/1/2dfp/gaussian23507/
 Entering Link 1 = /usr/local/gaussian/g09/l1.exe PID=     23589.
  
 Copyright (c) 1988,1990,1992,1993,1995,1998,2003,2009,2010,
            Gaussian, Inc.  All Rights Reserved.
  
 This is part of the Gaussian(R) 09 program.  It is based on
 the Gaussian(R) 03 system (copyright 2003, Gaussian, Inc.),
 the Gaussian(R) 98 system (copyright 1998, Gaussian, Inc.),
 the Gaussian(R) 94 system (copyright 1995, Gaussian, Inc.),
 the Gaussian 92(TM) system (copyright 1992, Gaussian, Inc.),
 the Gaussian 90(TM) system (copyright 1990, Gaussian, Inc.),
 the Gaussian 88(TM) system (copyright 1988, Gaussian, Inc.),
 the Gaussian 86(TM) system (copyright 1986, Carnegie Mellon
 University), and the Gaussian 82(TM) system (copyright 1983,
 Carnegie Mellon University). Gaussian is a federally registered
 trademark of Gaussian, Inc.
  
 This software contains proprietary and confidential information,
 including trade secrets, belonging to Gaussian, Inc.
  
 This software is provided under written license and may be
 used, copied, transmitted, or stored only in accord with that
 written license.
  
 The following legend is applicable only to US Government
 contracts under FAR:
  
                    RESTRICTED RIGHTS LEGEND
  
 Use, reproduction and disclosure by the US Government is
 subject to restrictions as set forth in subparagraphs (a)
 and (c) of the Commercial Computer Software - Restricted
 Rights clause in FAR 52.227-19.
  
 Gaussian, Inc.
 340 Quinnipiac St., Bldg. 40, Wallingford CT 06492
  
  
 ---------------------------------------------------------------
 Warning -- This program may not be used in any manner that
 competes with the business of Gaussian, Inc. or will provide
 assistance to any competitor of Gaussian, Inc.  The licensee
 of this program is prohibited from giving any competitor of
 Gaussian, Inc. access to this program.  By using this program,
 the user acknowledges that Gaussian, Inc. is engaged in the
 business of creating and licensing software in the field of
 computational chemistry and represents and warrants to the
 licensee that it is not a competitor of Gaussian, Inc. and that
 it will not use this program in any manner prohibited above.
 ---------------------------------------------------------------
  

 Cite this work as:
 Gaussian 09, Revision B.01,
 M. J. Frisch, G. W. Trucks, H. B. Schlegel, G. E. Scuseria, 
 M. A. Robb, J. R. Cheeseman, G. Scalmani, V. Barone, B. Mennucci, 
 G. A. Petersson, H. Nakatsuji, M. Caricato, X. Li, H. P. Hratchian, 
 A. F. Izmaylov, J. Bloino, G. Zheng, J. L. Sonnenberg, M. Hada, 
 M. Ehara, K. Toyota, R. Fukuda, J. Hasegawa, M. Ishida, T. Nakajima, 
 Y. Honda, O. Kitao, H. Nakai, T. Vreven, J. A. Montgomery, Jr., 
 J. E. Peralta, F. Ogliaro, M. Bearpark, J. J. Heyd, E. Brothers, 
 K. N. Kudin, V. N. Staroverov, T. Keith, R. Kobayashi, J. Normand, 
 K. Raghavachari, A. Rendell, J. C. Burant, S. S. Iyengar, J. Tomasi, 
 M. Cossi, N. Rega, J. M. Millam, M. Klene, J. E. Knox, J. B. Cross, 
 V. Bakken, C. Adamo, J. Jaramillo, R. Gomperts, R. E. Stratmann, 
 O. Yazyev, A. J. Austin, R. Cammi, C. Pomelli, J. W. Ochterski, 
 R. L. Martin, K. Morokuma, V. G. Zakrzewski, G. A. Voth, 
 P. Salvador, J. J. Dannenberg, S. Dapprich, A. D. Daniels, 
 O. Farkas, J. B. Foresman, J. V. Ortiz, J. Cioslowski, 
 and D. J. Fox, Gaussian, Inc., Wallingford CT, 2010.
 
 ******************************************
 Gaussian 09:  EM64L-G09RevB.01 12-Aug-2010
                 8-Feb-2016 
 ******************************************
 --------------------------------------------------
 # freq=raman b3lyp/6-31+g(2df,p) geom=connectivity
 --------------------------------------------------
 1/10=4,30=1,38=1,57=2/1,3;
 2/12=2,17=6,18=5,40=1/2;
 3/5=1,6=6,7=114,11=2,16=1,25=1,30=1,71=2,74=-5/1,2,3;
 4//1;
 5/5=2,38=5,98=1/2;
 8/6=4,10=90,11=11/1;
 10/13=10,15=4/2;
 11/6=3,8=1,9=11,15=111,16=1/1,2,10;
 10/6=1/2;
 6/7=2,8=2,9=2,10=2,18=1,28=1/1;
 7/8=1,10=1,25=1/1,2,3,16;
 1/10=4,30=1/3;
 99//99;
 ------------
 350 7000.com
 ------------
 Symbolic Z-matrix:
 Charge =  0 Multiplicity = 1
 O                     7.459     7.643     12.169 
 C                     7.993     7.981     13.456 
 C                     7.411     9.262     14.032 
 O                     7.301     10.256    13.004 
 H                     7.3       9.798     12.115 
 C                     7.89      9.818     15.363 
 O                     6.962     10.812    15.822 
 H                     7.412     11.102    16.666 
 C                     8.311     5.51      14.243 
 O                     7.677     4.757     13.199 
 H                     7.861     3.789     13.372 
 C                     7.741     6.897     14.491 
 O                     8.391     7.36      15.684 
 C                     7.77      8.549     16.192 
 O                     8.45      8.715     17.444 
 C                     7.869     8.273     18.679 
 C                     8.57      7.024     19.187 
 O                     8.509     5.906     18.289 
 H                     8.842     6.349     17.457 
 C                     8.093     6.69      20.591 
 O                     8.933     5.694     21.192 
 H                     8.459     5.226     21.938 
 C                     8.063     10.813    19.35 
 O                     8.587     11.465    18.185 
 H                     8.647     12.457    18.299 
 C                     8.224     9.343     19.7 
 O                     7.736     9.174     21.039 
 C                     8.271     7.915     21.473 
 O                     7.753     7.547     22.76 
 H                     8.48161   7.37515   23.36099 
 H                     9.32497   8.05732   21.59048 
 H                     7.07126   6.37241   20.58249 
 H                     9.60575   7.2777    19.27503 
 H                     6.81101   8.1348    18.59869 
 H                     9.28282   9.22789   19.80276 
 H                     8.45372   11.35467   20.18596 
 H                     7.00846   10.99347   19.33375 
 H                     8.1798    7.48194   11.55573 
 H                     8.23508   4.95033   15.15179 
 H                     9.34735   5.61376   13.99783 
 H                     6.68898   6.81862   14.66994 
 H                     9.05051   8.10908   13.35518 
 H                     6.39491   8.99611   14.23638 
 H                     8.89566   10.18019   15.31446 
 H                     6.73528   8.35061   16.37879 
 

 GradGradGradGradGradGradGradGradGradGradGradGradGradGradGradGradGradGrad
 Berny optimization.
 Initialization pass.
 Trust Radius=3.00D-01 FncErr=1.00D-07 GrdErr=1.00D-07
 Number of steps in this run=      2 maximum allowed number of steps=      2.
 GradGradGradGradGradGradGradGradGradGradGradGradGradGradGradGradGradGrad

                          Input orientation:                          
 ---------------------------------------------------------------------
 Center     Atomic      Atomic             Coordinates (Angstroms)
 Number     Number       Type             X           Y           Z
 ---------------------------------------------------------------------
      1          8           0        7.459000    7.643000   12.169000
      2          6           0        7.993000    7.981000   13.456000
      3          6           0        7.411000    9.262000   14.032000
      4          8           0        7.301000   10.256000   13.004000
      5          1           0        7.300000    9.798000   12.115000
      6          6           0        7.890000    9.818000   15.363000
      7          8           0        6.962000   10.812000   15.822000
      8          1           0        7.412000   11.102000   16.666000
      9          6           0        8.311000    5.510000   14.243000
     10          8           0        7.677000    4.757000   13.199000
     11          1           0        7.861000    3.789000   13.372000
     12          6           0        7.741000    6.897000   14.491000
     13          8           0        8.391000    7.360000   15.684000
     14          6           0        7.770000    8.549000   16.192000
     15          8           0        8.450000    8.715000   17.444000
     16          6           0        7.869000    8.273000   18.679000
     17          6           0        8.570000    7.024000   19.187000
     18          8           0        8.509000    5.906000   18.289000
     19          1           0        8.842000    6.349000   17.457000
     20          6           0        8.093000    6.690000   20.591000
     21          8           0        8.933000    5.694000   21.192000
     22          1           0        8.459000    5.226000   21.938000
     23          6           0        8.063000   10.813000   19.350000
     24          8           0        8.587000   11.465000   18.185000
     25          1           0        8.647000   12.457000   18.299000
     26          6           0        8.224000    9.343000   19.700000
     27          8           0        7.736000    9.174000   21.039000
     28          6           0        8.271000    7.915000   21.473000
     29          8           0        7.753000    7.547000   22.760000
     30          1           0        8.481611    7.375154   23.360995
     31          1           0        9.324965    8.057322   21.590483
     32          1           0        7.071256    6.372405   20.582491
     33          1           0        9.605753    7.277704   19.275030
     34          1           0        6.811006    8.134800   18.598695
     35          1           0        9.282816    9.227892   19.802760
     36          1           0        8.453724   11.354672   20.185958
     37          1           0        7.008455   10.993474   19.333750
     38          1           0        8.179801    7.481938   11.555726
     39          1           0        8.235083    4.950327   15.151792
     40          1           0        9.347352    5.613756   13.997826
     41          1           0        6.688984    6.818625   14.669942
     42          1           0        9.050511    8.109084   13.355176
     43          1           0        6.394913    8.996111   14.236379
     44          1           0        8.895663   10.180195   15.314456
     45          1           0        6.735278    8.350609   16.378792
 ---------------------------------------------------------------------
                    Distance matrix (angstroms):
                    1          2          3          4          5
     1  O    0.000000
     2  C    1.433795   0.000000
     3  C    2.468650   1.520349   0.000000
     4  O    2.747719   2.420494   1.434197   0.000000
     5  H    2.161532   2.362206   1.993616   1.000043   0.000000
     6  C    3.888190   2.649873   1.519914   2.470556   3.301213
     7  O    4.861479   3.830859   2.410021   2.892262   3.858016
     8  H    5.673614   4.514676   3.213029   3.760091   4.735458
     9  C    3.094684   2.612725   3.864198   5.007967   4.892591
    10  O    3.072038   3.249628   4.589082   5.515288   5.169997
    11  H    4.057355   4.194919   5.530988   6.501624   6.164645
    12  C    2.455142   1.519798   2.431626   3.699682   3.775667
    13  O    3.647456   2.346919   2.703166   4.093570   4.457789
    14  C    4.135467   2.803221   2.302792   3.646526   4.289852
    15  O    5.473289   4.080655   3.608389   4.838231   5.558204
    16  C    6.553251   5.232625   4.773101   6.038256   6.762801
    17  C    7.132307   5.838933   5.738114   7.091239   7.702023
    18  O    6.447796   5.284862   5.530858   6.950755   7.397812
    19  H    5.616945   4.403661   4.718470   6.121155   6.542960
    20  C    8.499426   7.251545   7.078191   8.420581   9.062620
    21  O    9.348038   8.121556   8.143262   9.514127  10.094624
    22  H   10.113123   8.930370   8.938257  10.317859  10.896687
    23  C    7.872768   6.539446   5.577798   6.415809   7.345585
    24  O    7.216116   5.903773   4.845987   5.473412   6.424964
    25  H    7.884341   6.626986   5.472021   5.890088   6.864878
    26  C    7.758298   6.394993   5.726583   6.820697   7.654608
    27  O    9.005420   7.680572   7.015085   8.119186   8.956408
    28  C    9.343326   8.022090   7.610683   8.839974   9.594826
    29  O   10.595515   9.317208   8.901470  10.135212  10.889823
    30  H   11.241807   9.935528   9.577920  10.814826  11.564549
    31  H    9.613420   8.243165   7.889562   9.091662   9.844553
    32  H    8.517722   7.363699   7.167574   8.518721   9.137036
    33  H    7.432204   6.079203   6.020277   7.314913   7.933122
    34  H    6.480952   5.279022   4.741864   6.003349   6.711457
    35  H    8.007026   6.595432   6.066838   7.155958   7.959788
    36  H    8.890309   7.542298   6.583141   7.356383   8.300281
    37  H    7.922267   6.677745   5.591833   6.379278   7.322876
    38  H    0.960000   1.973575   3.145093   3.250417   2.539878
    39  H    4.092657   3.481278   4.530295   5.799628   5.796242
    40  H    3.320890   2.780591   4.130413   5.169688   5.024399
    41  H    2.743580   2.127259   2.626473   3.868524   3.972121
    42  H    2.038910   1.070000   2.115491   2.791659   2.730341
    43  H    2.690213   2.047760   1.070000   1.981684   2.441814
    44  H    4.288969   3.017469   2.166103   2.808364   3.595655
    45  H    4.329761   3.203309   2.606658   3.916602   4.538036
                    6          7          8          9         10
     6  C    0.000000
     7  O    1.435236   0.000000
     8  H    1.890754   0.999468   0.000000
     9  C    4.471074   5.694229   6.160324   0.000000
    10  O    5.508356   6.637347   7.235284   1.434887   0.000000
    11  H    6.349312   7.492211   8.033182   1.980652   1.000404
    12  C    3.052020   4.207805   4.745618   1.519925   2.500592
    13  O    2.528993   3.738635   3.990655   2.346355   3.668873
    14  C    1.520527   2.431241   2.621192   3.650589   4.831766
    15  O    2.420903   3.040138   2.716707   4.531859   5.855196
    16  C    3.658322   3.928310   3.502036   5.244772   6.513795
    17  C    4.784539   5.315810   4.932189   5.177105   6.464741
    18  O    4.924265   5.705097   5.553013   4.070152   5.283988
    19  H    4.162343   5.111359   5.026091   3.363878   4.692787
    20  C    6.095702   6.404171   5.944336   6.460420   7.651876
    21  O    7.216125   7.675654   7.214193   6.979208   8.145155
    22  H    8.039953   8.417236   7.963515   7.701661   8.786444
    23  C    4.112921   3.695807   2.776901   7.366462   8.640540
    24  O    3.340973   2.941225   1.954419   7.146857   8.407470
    25  H    4.019635   3.417715   2.455186   8.051388   9.286598
    26  C    4.375700   4.334684   3.599803   6.669206   7.974560
    27  O    5.714493   5.522609   4.790124   7.742166   8.998832
    28  C    6.410824   6.483818   5.831132   7.619614   8.876084
    29  O    7.738980   7.708550   7.063366   8.774966   9.960050
    30  H    8.383640   8.423632   7.736692   9.308369  10.524651
    31  H    6.628775   6.815222   6.097544   7.842352   9.166510
    32  H    6.307578   6.510315   6.150128   6.516890   7.582374
    33  H    4.969999   5.603936   5.122971   5.488396   6.855085
    34  H    3.803566   3.860082   3.591766   5.302040   6.427766
    35  H    4.690376   4.872580   4.105057   6.758556   8.134934
    36  H    5.093139   4.643691   3.679557   8.336625   9.641066
    37  H    4.233877   3.516743   2.700281   7.594791   8.773581
    38  H    4.476215   5.547382   6.309458   3.335745   3.221560
    39  H    4.884458   6.035655   6.388535   1.070000   2.040154
    40  H    4.654379   6.003270   6.401997   1.070000   2.040154
    41  H    3.304394   4.165192   4.780617   2.127372   2.718482
    42  H    2.880718   4.213414   4.754348   2.844353   3.625933
    43  H    2.044520   2.476537   3.372283   3.977990   4.548622
    44  H    1.070000   2.096624   2.208541   4.827066   5.947380
    45  H    2.125665   2.533745   2.847910   3.887617   4.889984
                   11         12         13         14         15
    11  H    0.000000
    12  C    3.305484   0.000000
    13  O    4.286990   1.435311   0.000000
    14  C    5.533379   2.371360   1.434373   0.000000
    15  O    6.418223   3.539493   2.221960   1.434385   0.000000
    16  C    6.947702   4.410114   3.174284   2.504226   1.434625
    17  C    6.691945   4.770303   3.523627   3.454801   2.431446
    18  O    5.392447   3.999589   2.985643   3.453835   2.933937
    19  H    4.919673   3.210866   2.090227   2.754888   2.398289
    20  C    7.783546   6.113653   4.961487   4.786587   3.759213
    21  O    8.119767   6.911691   5.779912   5.873976   4.838102
    22  H    8.706258   7.665871   6.608411   6.673347   5.689397
    23  C    9.225718   6.248890   5.046816   3.896731   2.860806
    24  O    9.089171   5.935316   4.810867   3.625272   2.851377
    25  H   10.001367   6.799654   5.734385   4.525599   3.843488
    26  C    8.427471   5.774936   4.482012   3.625275   2.352657
    27  O    9.369991   6.932608   5.691717   4.887248   3.693847
    28  C    9.100449   7.075701   5.816781   5.342464   4.111555
    29  O   10.112802   8.294517   7.107165   6.644014   5.487248
    30  H   10.631353   8.913694   7.677545   7.299232   6.066879
    31  H    9.375779   7.366000   6.020390   5.639440   4.288523
    32  H    7.699926   6.150611   5.168392   4.949971   4.151964
    33  H    7.075379   5.148707   3.791820   3.806739   2.598895
    34  H    6.877994   4.389783   3.404723   2.623626   2.087164
    35  H    8.541532   6.002087   4.609613   3.973297   2.553505
    36  H   10.199056   7.267143   6.019050   4.928588   3.806076
    37  H    9.390088   6.385135   5.332377   4.052900   3.292515
    38  H    4.127745   3.024985   4.135471   4.775101   6.022061
    39  H    2.157841   2.114309   2.472667   3.774756   4.412842
    40  H    2.435289   2.114309   2.609053   3.989749   4.722189
    41  H    3.498128   1.070000   2.053840   2.545477   3.793786
    42  H    4.480886   2.115198   2.533674   3.143375   4.176868
    43  H    5.478190   2.506601   2.959194   2.432124   3.819848
    44  H    6.759514   3.576408   2.888727   2.167486   2.623045
    45  H    5.578201   2.586158   2.050721   1.070000   2.051273
                   16         17         18         19         20
    16  C    0.000000
    17  C    1.519693   0.000000
    18  O    2.482819   1.435287   0.000000
    19  H    2.478263   1.876835   0.999681   0.000000
    20  C    2.492350   1.519967   2.467168   3.240253   0.000000
    21  O    3.754798   2.433248   2.941450   3.793090   1.434858
    22  H    4.500377   3.288332   3.712156   4.635427   2.022785
    23  C    2.634289   3.826243   5.040167   4.910966   4.305823
    24  O    3.308840   4.552667   5.560520   5.173825   5.369683
    25  H    4.272650   5.505630   6.552461   6.168845   6.230447
    26  C    1.520975   2.400135   3.726274   3.791703   2.801687
    27  O    2.529642   2.957695   4.340490   4.694101   2.549198
    28  C    2.845383   2.471655   3.772344   4.348178   1.519945
    29  O    4.146697   3.702343   4.822267   5.544631   2.356822
    30  H    4.806506   4.189672   5.280558   6.003335   2.879814
    31  H    3.262374   2.722950   4.024149   4.498589   2.094343
    32  H    2.805696   2.149001   2.746769   3.592322   1.070000
    33  H    2.088583   1.070000   2.014124   2.179689   2.089401
    34  H    1.070000   2.161953   2.818979   2.935555   2.774930
    35  H    2.042922   2.396749   3.731652   3.739642   2.911680
    36  H    3.479875   4.445915   5.769708   5.714431   4.696099
    37  H    2.927493   4.268101   5.406064   5.334343   4.612679
    38  H    7.173800   7.654953   6.923072   6.045419   9.070329
    39  H    4.859565   4.549197   3.290960   2.763805   5.712411
    40  H    5.583054   5.433285   4.382056   3.572373   6.797179
    41  H    4.424951   4.897368   4.152459   3.552987   6.086602
    42  H    5.455817   5.951342   5.430417   4.468370   7.435575
    43  H    4.736317   5.755769   5.517417   4.834028   6.970140
    44  H    4.001448   5.006417   5.221701   4.389923   6.377118
    45  H    2.565601   3.607233   3.573668   3.099557   4.726916
                   21         22         23         24         25
    21  O    0.000000
    22  H    1.000108   0.000000
    23  C    5.509449   6.170019   0.000000
    24  O    6.516610   7.281931   1.434191   0.000000
    25  H    7.361346   8.097223   2.036760   1.000330   0.000000
    26  C    4.005489   4.691861   1.519645   2.632466   3.440745
    27  O    3.683289   4.113105   2.376125   3.757419   4.372140
    28  C    2.334533   2.735377   3.598444   4.849051   5.553865
    29  O    2.699006   2.561476   4.731908   6.080864   6.693867
    30  H    2.781109   2.577652   5.299255   6.597641   7.174699
    31  H    2.428521   2.981115   3.769096   4.873826   5.536305
    32  H    2.073120   2.253328   4.713965   5.829233   6.687271
    33  H    2.575944   3.551893   3.857982   4.445162   5.356953
    34  H    4.145551   4.725247   3.050362   3.796779   4.705540
    35  H    3.813234   4.610104   2.050734   2.847097   3.618383
    36  H    5.769319   6.374190   1.070000   2.008424   2.193876
    37  H    5.936446   6.492300   1.070000   2.008424   2.428465
    38  H    9.829639  10.628209   8.477047   7.744538   8.392929
    39  H    6.125704   6.795495   7.212871   7.194801   8.150137
    40  H    7.206543   7.999118   7.571490   7.235165   8.112988
    41  H    6.988392   7.648142   6.304435   6.127552   6.985353
    42  H    8.201357   9.073419   6.650132   5.899510   6.596104
    43  H    8.107187   8.819816   5.677387   5.147064   5.792628
    44  H    7.394110   8.282877   4.168859   3.160066   3.762071
    45  H    5.920687   6.605997   4.080967   4.048542   4.919789
                   26         27         28         29         30
    26  C    0.000000
    27  O    1.435140   0.000000
    28  C    2.277042   1.435152   0.000000
    29  O    3.579254   2.368387   1.435311   0.000000
    30  H    4.164333   3.030420   1.974922   0.960000   0.000000
    31  H    2.537522   2.018889   1.070000   2.024666   2.076369
    32  H    3.306364   2.915342   2.147555   2.566319   3.273330
    33  H    2.520969   3.194292   2.649298   3.956037   4.238903
    34  H    2.160827   2.809029   3.231335   4.306892   5.103674
    35  H    1.070000   1.980867   2.353117   3.729746   4.090917
    36  H    2.082247   2.449110   3.677120   4.649202   5.090993
    37  H    2.082247   2.597631   3.955681   4.916474   5.610805
    38  H    8.354322   9.643263   9.927144  11.212589  11.809609
    39  H    6.323124   7.262763   6.981995   8.053567   8.563386
    40  H    6.905358   8.052945   7.895092   9.113456   9.566659
    41  H    5.833543   6.870876   7.070107   8.192173   8.891436
    42  H    6.516323   7.867855   8.157473   9.510530  10.048817
    43  H    5.772092   6.935835   7.553621   8.751939   9.499496
    44  H    4.514977   5.926858   6.591583   7.979694   8.531499
    45  H    3.772474   4.837040   5.338460   6.511633   7.263082
                   31         32         33         34         35
    31  H    0.000000
    32  H    2.989013   0.000000
    33  H    2.459262   2.992106   0.000000
    34  H    3.908554   2.666310   3.000442   0.000000
    35  H    2.137280   3.694967   2.045976   2.958795   0.000000
    36  H    3.688397   5.185696   4.333431   3.947849   2.314612
    37  H    4.368072   4.787230   4.533911   2.958262   2.917185
    38  H   10.116265   9.162009   7.852561   7.204390   8.501680
    39  H    7.231736   5.733175   4.929150   4.904080   6.405217
    40  H    7.976212   7.008136   5.539348   5.827238   6.838377
    41  H    7.508439   5.941672   5.470387   4.145154   6.235250
    42  H    8.240042   7.692047   6.003679   5.701801   6.548056
    43  H    7.971787   6.900319   6.216946   4.465959   6.275213
    44  H    6.639232   6.751289   4.961333   4.394958   4.604523
    45  H    5.827026   4.658031   4.216509   2.231654   4.356964
                   36         37         38         39         40
    36  H    0.000000
    37  H    1.716253   0.000000
    38  H    9.463298   8.613977   0.000000
    39  H    8.149005   7.450706   4.398159   0.000000
    40  H    8.488207   7.929936   3.288941   1.734623   0.000000
    41  H    7.356389   6.267578   3.515802   2.472476   2.995057
    42  H    7.586144   6.945002   2.095105   3.724311   2.593795
    43  H    6.723021   5.509001   3.558714   4.537904   4.496012
    44  H    5.030530   4.514167   4.681997   5.273930   4.773877
    45  H    5.145092   3.973807   5.109129   3.913677   4.470156
                   41         42         43         44         45
    41  H    0.000000
    42  H    2.995113   0.000000
    43  H    2.239621   2.935223   0.000000
    44  H    4.072466   2.855216   2.969521   0.000000
    45  H    2.295492   3.815873   2.263284   3.024476   0.000000
 Stoichiometry    C12H22O11
 Framework group  C1[X(C12H22O11)]
 Deg. of freedom   129
 Full point group                 C1      NOp   1
 Largest Abelian subgroup         C1      NOp   1
 Largest concise Abelian subgroup C1      NOp   1
                         Standard orientation:                         
 ---------------------------------------------------------------------
 Center     Atomic      Atomic             Coordinates (Angstroms)
 Number     Number       Type             X           Y           Z
 ---------------------------------------------------------------------
      1          8           0        5.052509   -0.391726   -0.217295
      2          6           0        3.724465   -0.117007    0.248105
      3          6           0        3.170942    1.205888   -0.256891
      4          8           0        4.187320    2.216168   -0.200059
      5          1           0        5.081620    1.769225   -0.176483
      6          6           0        1.799357    1.702261    0.170319
      7          8           0        1.392588    2.772168   -0.695556
      8          1           0        0.513237    3.011261   -0.285052
      9          6           0        2.958140   -2.614589    0.282271
     10          8           0        4.058160   -3.295883   -0.337967
     11          1           0        3.888544   -4.278350   -0.255527
     12          6           0        2.729033   -1.183908   -0.176895
     13          8           0        1.484154   -0.794361    0.421977
     14          6           0        1.002837    0.441178   -0.125020
     15          8           0       -0.298057    0.531642    0.472434
     16          6           0       -1.479750    0.132048   -0.236139
     17          6           0       -2.016405   -1.180861    0.309513
     18          8           0       -1.097624   -2.279437    0.214534
     19          1           0       -0.299724   -1.860285    0.647001
     20          6           0       -3.376032   -1.484129   -0.298553
     21          8           0       -4.019833   -2.558752    0.401106
     22          1           0       -4.721266   -2.989045   -0.167273
     23          6           0       -2.205849    2.636760    0.136253
     24          8           0       -1.093342    3.249961    0.801999
     25          1           0       -1.228126    4.231123    0.942763
     26          6           0       -2.541825    1.154721    0.137361
     27          8           0       -3.838614    1.017420   -0.461899
     28          6           0       -4.289198   -0.289531   -0.076522
     29          8           0       -5.528589   -0.621722   -0.719699
     30          1           0       -6.178155   -0.865504   -0.056198
     31          1           0       -4.485644   -0.245288    0.974360
     32          1           0       -3.287649   -1.706954   -1.341356
     33          1           0       -2.184030   -1.023743    1.354556
     34          1           0       -1.320153    0.091898   -1.293408
     35          1           0       -2.719602    0.942331    1.170892
     36          1           0       -3.077099    3.131957    0.511224
     37          1           0       -2.115753    2.912971   -0.893548
     38          1           0        5.614191   -0.611725    0.529508
     39          1           0        2.066875   -3.174186    0.088886
     40          1           0        3.125268   -2.603456    1.339080
     41          1           0        2.628665   -1.167664   -1.242054
     42          1           0        3.745695   -0.085048    1.317417
     43          1           0        3.045749    1.031871   -1.305196
     44          1           0        1.768289    1.971546    1.205414
     45          1           0        0.895404    0.336254   -1.184429
 ---------------------------------------------------------------------
 Rotational constants (GHZ):      0.4049173      0.1462444      0.1107237
 Standard basis: 6-31+G(2df,p) (6D, 7F)
 There are   846 symmetry adapted basis functions of A   symmetry.
 Integral buffers will be    131072 words long.
 Raffenetti 2 integral format.
 Two-electron integral symmetry is turned on.
   846 basis functions,  1258 primitive gaussians,   915 cartesian basis functions
    91 alpha electrons       91 beta electrons
       nuclear repulsion energy      2286.2777105084 Hartrees.
 NAtoms=   45 NActive=   45 NUniq=   45 SFac= 1.00D+00 NAtFMM=   50 NAOKFM=F Big=F
 One-electron integrals computed using PRISM.
 NBasis=   846 RedAO= T  NBF=   846
 NBsUse=   846 1.00D-06 NBFU=   846
 Harris functional with IExCor=  402 diagonalized for initial guess.
 ExpMin= 4.38D-02 ExpMax= 5.48D+03 ExpMxC= 8.25D+02 IAcc=2 IRadAn=         0 AccDes= 0.00D+00
 HarFok:  IExCor=  402 AccDes= 0.00D+00 IRadAn=         0 IDoV= 1
 ScaDFX=  1.000000  1.000000  1.000000  1.000000
 FoFCou: FMM=F IPFlag=           0 FMFlag=      100000 FMFlg1=           0
         NFxFlg=           0 DoJE=T BraDBF=F KetDBF=T FulRan=T
         Omega=  0.000000  0.000000  1.000000  0.000000  0.000000 ICntrl=     500 IOpCl=  0
         NMat0=    1 NMatS0=    1 NMatT0=    0 NMatD0=    1 NMtDS0=    0 NMtDT0=    0
         I1Cent=           4 NGrid=           0.
 Petite list used in FoFCou.
 Initial guess orbital symmetries:
       Occupied  (A) (A) (A) (A) (A) (A) (A) (A) (A) (A) (A) (A)
                 (A) (A) (A) (A) (A) (A) (A) (A) (A) (A) (A) (A)
                 (A) (A) (A) (A) (A) (A) (A) (A) (A) (A) (A) (A)
                 (A) (A) (A) (A) (A) (A) (A) (A) (A) (A) (A) (A)
                 (A) (A) (A) (A) (A) (A) (A) (A) (A) (A) (A) (A)
                 (A) (A) (A) (A) (A) (A) (A) (A) (A) (A) (A) (A)
                 (A) (A) (A) (A) (A) (A) (A) (A) (A) (A) (A) (A)
                 (A) (A) (A) (A) (A) (A) (A)
       Virtual   (A) (A) (A) (A) (A) (A) (A) (A) (A) (A) (A) (A)
                 (A) (A) (A) (A) (A) (A) (A) (A) (A) (A) (A) (A)
                 (A) (A) (A) (A) (A) (A) (A) (A) (A) (A) (A) (A)
                 (A) (A) (A) (A) (A) (A) (A) (A) (A) (A) (A) (A)
                 (A) (A) (A) (A) (A) (A) (A) (A) (A) (A) (A) (A)
                 (A) (A) (A) (A) (A) (A) (A) (A) (A) (A) (A) (A)
                 (A) (A) (A) (A) (A) (A) (A) (A) (A) (A) (A) (A)
                 (A) (A) (A) (A) (A) (A) (A) (A) (A) (A) (A) (A)
                 (A) (A) (A) (A) (A) (A) (A) (A) (A) (A) (A) (A)
                 (A) (A) (A) (A) (A) (A) (A) (A) (A) (A) (A) (A)
                 (A) (A) (A) (A) (A) (A) (A) (A) (A) (A) (A) (A)
                 (A) (A) (A) (A) (A) (A) (A) (A) (A) (A) (A) (A)
                 (A) (A) (A) (A) (A) (A) (A) (A) (A) (A) (A) (A)
                 (A) (A) (A) (A) (A) (A) (A) (A) (A) (A) (A) (A)
                 (A) (A) (A) (A) (A) (A) (A) (A) (A) (A) (A) (A)
                 (A) (A) (A) (A) (A) (A) (A) (A) (A) (A) (A) (A)
                 (A) (A) (A) (A) (A) (A) (A) (A) (A) (A) (A) (A)
                 (A) (A) (A) (A) (A) (A) (A) (A) (A) (A) (A) (A)
                 (A) (A) (A) (A) (A) (A) (A) (A) (A) (A) (A) (A)
                 (A) (A) (A) (A) (A) (A) (A) (A) (A) (A) (A) (A)
                 (A) (A) (A) (A) (A) (A) (A) (A) (A) (A) (A) (A)
                 (A) (A) (A) (A) (A) (A) (A) (A) (A) (A) (A) (A)
                 (A) (A) (A) (A) (A) (A) (A) (A) (A) (A) (A) (A)
                 (A) (A) (A) (A) (A) (A) (A) (A) (A) (A) (A) (A)
                 (A) (A) (A) (A) (A) (A) (A) (A) (A) (A) (A) (A)
                 (A) (A) (A) (A) (A) (A) (A) (A) (A) (A) (A) (A)
                 (A) (A) (A) (A) (A) (A) (A) (A) (A) (A) (A) (A)
                 (A) (A) (A) (A) (A) (A) (A) (A) (A) (A) (A) (A)
                 (A) (A) (A) (A) (A) (A) (A) (A) (A) (A) (A) (A)
                 (A) (A) (A) (A) (A) (A) (A) (A) (A) (A) (A) (A)
                 (A) (A) (A) (A) (A) (A) (A) (A) (A) (A) (A) (A)
                 (A) (A) (A) (A) (A) (A) (A) (A) (A) (A) (A) (A)
                 (A) (A) (A) (A) (A) (A) (A) (A) (A) (A) (A) (A)
                 (A) (A) (A) (A) (A) (A) (A) (A) (A) (A) (A) (A)
                 (A) (A) (A) (A) (A) (A) (A) (A) (A) (A) (A) (A)
                 (A) (A) (A) (A) (A) (A) (A) (A) (A) (A) (A) (A)
                 (A) (A) (A) (A) (A) (A) (A) (A) (A) (A) (A) (A)
                 (A) (A) (A) (A) (A) (A) (A) (A) (A) (A) (A) (A)
                 (A) (A) (A) (A) (A) (A) (A) (A) (A) (A) (A) (A)
                 (A) (A) (A) (A) (A) (A) (A) (A) (A) (A) (A) (A)
                 (A) (A) (A) (A) (A) (A) (A) (A) (A) (A) (A) (A)
                 (A) (A) (A) (A) (A) (A) (A) (A) (A) (A) (A) (A)
                 (A) (A) (A) (A) (A) (A) (A) (A) (A) (A) (A) (A)
                 (A) (A) (A) (A) (A) (A) (A) (A) (A) (A) (A) (A)
                 (A) (A) (A) (A) (A) (A) (A) (A) (A) (A) (A) (A)
                 (A) (A) (A) (A) (A) (A) (A) (A) (A) (A) (A) (A)
                 (A) (A) (A) (A) (A) (A) (A) (A) (A) (A) (A) (A)
                 (A) (A) (A) (A) (A) (A) (A) (A) (A) (A) (A) (A)
                 (A) (A) (A) (A) (A) (A) (A) (A) (A) (A) (A) (A)
                 (A) (A) (A) (A) (A) (A) (A) (A) (A) (A) (A) (A)
                 (A) (A) (A) (A) (A) (A) (A) (A) (A) (A) (A) (A)
                 (A) (A) (A) (A) (A) (A) (A) (A) (A) (A) (A) (A)
                 (A) (A) (A) (A) (A) (A) (A) (A) (A) (A) (A) (A)
                 (A) (A) (A) (A) (A) (A) (A) (A) (A) (A) (A) (A)
                 (A) (A) (A) (A) (A) (A) (A) (A) (A) (A) (A) (A)
                 (A) (A) (A) (A) (A) (A) (A) (A) (A) (A) (A) (A)
                 (A) (A) (A) (A) (A) (A) (A) (A) (A) (A) (A) (A)
                 (A) (A) (A) (A) (A) (A) (A) (A) (A) (A) (A) (A)
                 (A) (A) (A) (A) (A) (A) (A) (A) (A) (A) (A) (A)
                 (A) (A) (A) (A) (A) (A) (A) (A) (A) (A) (A) (A)
                 (A) (A) (A) (A) (A) (A) (A) (A) (A) (A) (A) (A)
                 (A) (A) (A) (A) (A) (A) (A) (A) (A) (A) (A) (A)
                 (A) (A) (A) (A) (A) (A) (A) (A) (A) (A) (A)
 The electronic state of the initial guess is 1-A.
 Requested convergence on RMS density matrix=1.00D-08 within 128 cycles.
 Requested convergence on MAX density matrix=1.00D-06.
 Requested convergence on             energy=1.00D-06.
 No special actions if energy rises.
 SCF Done:  E(RB3LYP) =  -1297.99751830     A.U. after   13 cycles
             Convg  =    0.3611D-08             -V/T =  2.0065
 Range of M.O.s used for correlation:     1   846
 NBasis=   846 NAE=    91 NBE=    91 NFC=     0 NFV=     0
 NROrb=    846 NOA=    91 NOB=    91 NVA=   755 NVB=   755

 **** Warning!!: The largest alpha MO coefficient is  0.67738837D+02

          Differentiating once with respect to electric field.
                with respect to dipole field.
          Electric field/nuclear overlap derivatives assumed to be zero.
          There are     3 degrees of freedom in the 1st order CPHF.  IDoFFX=0.
      3 vectors produced by pass  0 Test12= 2.29D-12 3.33D-08 XBig12= 1.21D+02 1.24D+00.
 AX will form     3 AO Fock derivatives at one time.
      3 vectors produced by pass  1 Test12= 2.29D-12 3.33D-08 XBig12= 2.52D+01 3.89D-01.
      3 vectors produced by pass  2 Test12= 2.29D-12 3.33D-08 XBig12= 1.03D+01 2.05D-01.
      3 vectors produced by pass  3 Test12= 2.29D-12 3.33D-08 XBig12= 1.14D+00 8.01D-02.
      3 vectors produced by pass  4 Test12= 2.29D-12 3.33D-08 XBig12= 3.15D-01 4.44D-02.
      3 vectors produced by pass  5 Test12= 2.29D-12 3.33D-08 XBig12= 6.35D-02 1.95D-02.
      3 vectors produced by pass  6 Test12= 2.29D-12 3.33D-08 XBig12= 2.17D-02 1.45D-02.
      3 vectors produced by pass  7 Test12= 2.29D-12 3.33D-08 XBig12= 3.25D-03 7.97D-03.
      3 vectors produced by pass  8 Test12= 2.29D-12 3.33D-08 XBig12= 5.15D-04 1.77D-03.
      3 vectors produced by pass  9 Test12= 2.29D-12 3.33D-08 XBig12= 1.66D-04 1.34D-03.
      3 vectors produced by pass 10 Test12= 2.29D-12 3.33D-08 XBig12= 4.17D-05 5.38D-04.
      3 vectors produced by pass 11 Test12= 2.29D-12 3.33D-08 XBig12= 1.00D-05 3.30D-04.
      3 vectors produced by pass 12 Test12= 2.29D-12 3.33D-08 XBig12= 1.18D-06 1.03D-04.
      3 vectors produced by pass 13 Test12= 2.29D-12 3.33D-08 XBig12= 3.53D-07 5.84D-05.
      3 vectors produced by pass 14 Test12= 2.29D-12 3.33D-08 XBig12= 6.86D-08 2.12D-05.
      3 vectors produced by pass 15 Test12= 2.29D-12 3.33D-08 XBig12= 2.19D-08 1.24D-05.
      3 vectors produced by pass 16 Test12= 2.29D-12 3.33D-08 XBig12= 1.83D-09 5.32D-06.
      3 vectors produced by pass 17 Test12= 2.29D-12 3.33D-08 XBig12= 1.96D-10 1.82D-06.
      3 vectors produced by pass 18 Test12= 2.29D-12 3.33D-08 XBig12= 2.46D-11 4.85D-07.
      3 vectors produced by pass 19 Test12= 2.29D-12 3.33D-08 XBig12= 1.23D-11 2.51D-07.
      3 vectors produced by pass 20 Test12= 2.29D-12 3.33D-08 XBig12= 9.58D-12 2.61D-07.
      2 vectors produced by pass 21 Test12= 2.29D-12 3.33D-08 XBig12= 1.85D-12 8.71D-08.
      2 vectors produced by pass 22 Test12= 2.29D-12 3.33D-08 XBig12= 5.52D-13 4.77D-08.
 Inverted reduced A of dimension    67 with in-core refinement.
 End of Minotr Frequency-dependent properties file   721 does not exist.
 End of Minotr Frequency-dependent properties file   722 does not exist.
 Symmetrizing basis deriv contribution to polar:
 IMax=3 JMax=2 DiffMx= 0.00D+00
 G2DrvN: will do     8 centers at a time, making    6 passes doing MaxLOS=3.
 Calling FoFCou, ICntrl=  3107 FMM=F I1Cent=   0 AccDes= 0.00D+00.
 Calling FoFCou, ICntrl=  3107 FMM=F I1Cent=   0 AccDes= 0.00D+00.
 Calling FoFCou, ICntrl=  3107 FMM=F I1Cent=   0 AccDes= 0.00D+00.
 Calling FoFCou, ICntrl=  3107 FMM=F I1Cent=   0 AccDes= 0.00D+00.
 Calling FoFCou, ICntrl=  3107 FMM=F I1Cent=   0 AccDes= 0.00D+00.
 Calling FoFCou, ICntrl=  3107 FMM=F I1Cent=   0 AccDes= 0.00D+00.
 FoFDir/FoFCou used for L=0 through L=3.
 End of G2Drv Frequency-dependent properties file   721 does not exist.
 End of G2Drv Frequency-dependent properties file   722 does not exist.
          IDoAtm=111111111111111111111111111111111111111111111
          Differentiating once with respect to electric field.
                with respect to dipole field.
          Differentiating once with respect to nuclear coordinates.
          There are   138 degrees of freedom in the 1st order CPHF.  IDoFFX=5.
 Will reuse    3 saved solutions.
    135 vectors produced by pass  0 Test12= 6.87D-14 1.00D-09 XBig12= 1.62D-01 7.47D-02.
 AX will form    27 AO Fock derivatives at one time.
    135 vectors produced by pass  1 Test12= 6.87D-14 1.00D-09 XBig12= 2.17D-02 1.08D-02.
    132 vectors produced by pass  2 Test12= 6.87D-14 1.00D-09 XBig12= 1.47D-04 1.14D-03.
    132 vectors produced by pass  3 Test12= 6.87D-14 1.00D-09 XBig12= 8.77D-07 7.29D-05.
    132 vectors produced by pass  4 Test12= 6.87D-14 1.00D-09 XBig12= 2.33D-09 3.32D-06.
    132 vectors produced by pass  5 Test12= 6.87D-14 1.00D-09 XBig12= 5.64D-12 1.23D-07.
     91 vectors produced by pass  6 Test12= 6.87D-14 1.00D-09 XBig12= 2.24D-13 2.59D-08.
 Inverted reduced A of dimension   889 with in-core refinement.
 Isotropic polarizability for W=    0.000000      190.96 Bohr**3.
 End of Minotr Frequency-dependent properties file   721 does not exist.
 End of Minotr Frequency-dependent properties file   722 does not exist.

 **********************************************************************

            Population analysis using the SCF density.

 **********************************************************************

 Orbital symmetries:
       Occupied  (A) (A) (A) (A) (A) (A) (A) (A) (A) (A) (A) (A)
                 (A) (A) (A) (A) (A) (A) (A) (A) (A) (A) (A) (A)
                 (A) (A) (A) (A) (A) (A) (A) (A) (A) (A) (A) (A)
                 (A) (A) (A) (A) (A) (A) (A) (A) (A) (A) (A) (A)
                 (A) (A) (A) (A) (A) (A) (A) (A) (A) (A) (A) (A)
                 (A) (A) (A) (A) (A) (A) (A) (A) (A) (A) (A) (A)
                 (A) (A) (A) (A) (A) (A) (A) (A) (A) (A) (A) (A)
                 (A) (A) (A) (A) (A) (A) (A)
       Virtual   (A) (A) (A) (A) (A) (A) (A) (A) (A) (A) (A) (A)
                 (A) (A) (A) (A) (A) (A) (A) (A) (A) (A) (A) (A)
                 (A) (A) (A) (A) (A) (A) (A) (A) (A) (A) (A) (A)
                 (A) (A) (A) (A) (A) (A) (A) (A) (A) (A) (A) (A)
                 (A) (A) (A) (A) (A) (A) (A) (A) (A) (A) (A) (A)
                 (A) (A) (A) (A) (A) (A) (A) (A) (A) (A) (A) (A)
                 (A) (A) (A) (A) (A) (A) (A) (A) (A) (A) (A) (A)
                 (A) (A) (A) (A) (A) (A) (A) (A) (A) (A) (A) (A)
                 (A) (A) (A) (A) (A) (A) (A) (A) (A) (A) (A) (A)
                 (A) (A) (A) (A) (A) (A) (A) (A) (A) (A) (A) (A)
                 (A) (A) (A) (A) (A) (A) (A) (A) (A) (A) (A) (A)
                 (A) (A) (A) (A) (A) (A) (A) (A) (A) (A) (A) (A)
                 (A) (A) (A) (A) (A) (A) (A) (A) (A) (A) (A) (A)
                 (A) (A) (A) (A) (A) (A) (A) (A) (A) (A) (A) (A)
                 (A) (A) (A) (A) (A) (A) (A) (A) (A) (A) (A) (A)
                 (A) (A) (A) (A) (A) (A) (A) (A) (A) (A) (A) (A)
                 (A) (A) (A) (A) (A) (A) (A) (A) (A) (A) (A) (A)
                 (A) (A) (A) (A) (A) (A) (A) (A) (A) (A) (A) (A)
                 (A) (A) (A) (A) (A) (A) (A) (A) (A) (A) (A) (A)
                 (A) (A) (A) (A) (A) (A) (A) (A) (A) (A) (A) (A)
                 (A) (A) (A) (A) (A) (A) (A) (A) (A) (A) (A) (A)
                 (A) (A) (A) (A) (A) (A) (A) (A) (A) (A) (A) (A)
                 (A) (A) (A) (A) (A) (A) (A) (A) (A) (A) (A) (A)
                 (A) (A) (A) (A) (A) (A) (A) (A) (A) (A) (A) (A)
                 (A) (A) (A) (A) (A) (A) (A) (A) (A) (A) (A) (A)
                 (A) (A) (A) (A) (A) (A) (A) (A) (A) (A) (A) (A)
                 (A) (A) (A) (A) (A) (A) (A) (A) (A) (A) (A) (A)
                 (A) (A) (A) (A) (A) (A) (A) (A) (A) (A) (A) (A)
                 (A) (A) (A) (A) (A) (A) (A) (A) (A) (A) (A) (A)
                 (A) (A) (A) (A) (A) (A) (A) (A) (A) (A) (A) (A)
                 (A) (A) (A) (A) (A) (A) (A) (A) (A) (A) (A) (A)
                 (A) (A) (A) (A) (A) (A) (A) (A) (A) (A) (A) (A)
                 (A) (A) (A) (A) (A) (A) (A) (A) (A) (A) (A) (A)
                 (A) (A) (A) (A) (A) (A) (A) (A) (A) (A) (A) (A)
                 (A) (A) (A) (A) (A) (A) (A) (A) (A) (A) (A) (A)
                 (A) (A) (A) (A) (A) (A) (A) (A) (A) (A) (A) (A)
                 (A) (A) (A) (A) (A) (A) (A) (A) (A) (A) (A) (A)
                 (A) (A) (A) (A) (A) (A) (A) (A) (A) (A) (A) (A)
                 (A) (A) (A) (A) (A) (A) (A) (A) (A) (A) (A) (A)
                 (A) (A) (A) (A) (A) (A) (A) (A) (A) (A) (A) (A)
                 (A) (A) (A) (A) (A) (A) (A) (A) (A) (A) (A) (A)
                 (A) (A) (A) (A) (A) (A) (A) (A) (A) (A) (A) (A)
                 (A) (A) (A) (A) (A) (A) (A) (A) (A) (A) (A) (A)
                 (A) (A) (A) (A) (A) (A) (A) (A) (A) (A) (A) (A)
                 (A) (A) (A) (A) (A) (A) (A) (A) (A) (A) (A) (A)
                 (A) (A) (A) (A) (A) (A) (A) (A) (A) (A) (A) (A)
                 (A) (A) (A) (A) (A) (A) (A) (A) (A) (A) (A) (A)
                 (A) (A) (A) (A) (A) (A) (A) (A) (A) (A) (A) (A)
                 (A) (A) (A) (A) (A) (A) (A) (A) (A) (A) (A) (A)
                 (A) (A) (A) (A) (A) (A) (A) (A) (A) (A) (A) (A)
                 (A) (A) (A) (A) (A) (A) (A) (A) (A) (A) (A) (A)
                 (A) (A) (A) (A) (A) (A) (A) (A) (A) (A) (A) (A)
                 (A) (A) (A) (A) (A) (A) (A) (A) (A) (A) (A) (A)
                 (A) (A) (A) (A) (A) (A) (A) (A) (A) (A) (A) (A)
                 (A) (A) (A) (A) (A) (A) (A) (A) (A) (A) (A) (A)
                 (A) (A) (A) (A) (A) (A) (A) (A) (A) (A) (A) (A)
                 (A) (A) (A) (A) (A) (A) (A) (A) (A) (A) (A) (A)
                 (A) (A) (A) (A) (A) (A) (A) (A) (A) (A) (A) (A)
                 (A) (A) (A) (A) (A) (A) (A) (A) (A) (A) (A) (A)
                 (A) (A) (A) (A) (A) (A) (A) (A) (A) (A) (A) (A)
                 (A) (A) (A) (A) (A) (A) (A) (A) (A) (A) (A) (A)
                 (A) (A) (A) (A) (A) (A) (A) (A) (A) (A) (A) (A)
                 (A) (A) (A) (A) (A) (A) (A) (A) (A) (A) (A)
 The electronic state is 1-A.
 Alpha  occ. eigenvalues --  -19.18652 -19.18380 -19.18377 -19.17580 -19.17541
 Alpha  occ. eigenvalues --  -19.17397 -19.16686 -19.16285 -19.15374 -19.14949
 Alpha  occ. eigenvalues --  -19.14128 -10.30296 -10.30107 -10.25999 -10.25966
 Alpha  occ. eigenvalues --  -10.25428 -10.25290 -10.25252 -10.25120 -10.24933
 Alpha  occ. eigenvalues --  -10.24351 -10.24131 -10.23828  -1.09893  -1.08949
 Alpha  occ. eigenvalues --   -1.05572  -1.04829  -1.04129  -1.03881  -1.02881
 Alpha  occ. eigenvalues --   -1.02535  -1.02361  -1.01287  -1.00313  -0.82839
 Alpha  occ. eigenvalues --   -0.80418  -0.79268  -0.78396  -0.72051  -0.70399
 Alpha  occ. eigenvalues --   -0.67002  -0.64193  -0.62899  -0.62256  -0.61695
 Alpha  occ. eigenvalues --   -0.60717  -0.56148  -0.55496  -0.55063  -0.54617
 Alpha  occ. eigenvalues --   -0.54026  -0.53337  -0.52798  -0.52081  -0.51241
 Alpha  occ. eigenvalues --   -0.50228  -0.49792  -0.49395  -0.48862  -0.46775
 Alpha  occ. eigenvalues --   -0.45959  -0.44957  -0.44307  -0.43595  -0.43333
 Alpha  occ. eigenvalues --   -0.43065  -0.42507  -0.41236  -0.40675  -0.39523
 Alpha  occ. eigenvalues --   -0.38800  -0.37531  -0.37026  -0.36490  -0.35871
 Alpha  occ. eigenvalues --   -0.35416  -0.35275  -0.34680  -0.34178  -0.33677
 Alpha  occ. eigenvalues --   -0.32431  -0.31894  -0.31330  -0.30412  -0.30028
 Alpha  occ. eigenvalues --   -0.29762  -0.28999  -0.28674  -0.28144  -0.26917
 Alpha  occ. eigenvalues --   -0.26395
 Alpha virt. eigenvalues --   -0.02157  -0.01909  -0.01526  -0.00332   0.00143
 Alpha virt. eigenvalues --    0.00866   0.01648   0.02381   0.03002   0.03330
 Alpha virt. eigenvalues --    0.03729   0.04218   0.05001   0.05078   0.05517
 Alpha virt. eigenvalues --    0.06500   0.06613   0.07314   0.07712   0.07990
 Alpha virt. eigenvalues --    0.08421   0.08861   0.09082   0.09712   0.10431
 Alpha virt. eigenvalues --    0.10876   0.10963   0.11464   0.11686   0.11732
 Alpha virt. eigenvalues --    0.12419   0.12788   0.13050   0.13259   0.13649
 Alpha virt. eigenvalues --    0.13944   0.13994   0.14266   0.14964   0.15218
 Alpha virt. eigenvalues --    0.15765   0.16248   0.16634   0.16961   0.17056
 Alpha virt. eigenvalues --    0.17329   0.17477   0.17785   0.18241   0.18376
 Alpha virt. eigenvalues --    0.18846   0.19126   0.19455   0.19601   0.19759
 Alpha virt. eigenvalues --    0.20450   0.20674   0.21153   0.21194   0.21608
 Alpha virt. eigenvalues --    0.21695   0.21919   0.22351   0.22732   0.22960
 Alpha virt. eigenvalues --    0.23127   0.23726   0.23875   0.24383   0.24648
 Alpha virt. eigenvalues --    0.24867   0.25064   0.25346   0.25662   0.26071
 Alpha virt. eigenvalues --    0.26146   0.26324   0.26614   0.27117   0.27298
 Alpha virt. eigenvalues --    0.27505   0.27618   0.27765   0.28163   0.28594
 Alpha virt. eigenvalues --    0.29138   0.29354   0.29522   0.29926   0.30520
 Alpha virt. eigenvalues --    0.30826   0.31209   0.31611   0.31827   0.32310
 Alpha virt. eigenvalues --    0.32482   0.32658   0.32961   0.33626   0.34000
 Alpha virt. eigenvalues --    0.34141   0.34589   0.34920   0.35271   0.35417
 Alpha virt. eigenvalues --    0.36255   0.36496   0.36764   0.37297   0.37354
 Alpha virt. eigenvalues --    0.37928   0.38316   0.38398   0.38791   0.39728
 Alpha virt. eigenvalues --    0.39765   0.39912   0.40528   0.41143   0.41298
 Alpha virt. eigenvalues --    0.41918   0.42230   0.42846   0.42967   0.43378
 Alpha virt. eigenvalues --    0.43882   0.44737   0.45191   0.45284   0.45677
 Alpha virt. eigenvalues --    0.46311   0.47225   0.47789   0.48523   0.49440
 Alpha virt. eigenvalues --    0.49793   0.50831   0.53587   0.57376   0.58142
 Alpha virt. eigenvalues --    0.58265   0.59791   0.60349   0.61432   0.61671
 Alpha virt. eigenvalues --    0.62314   0.63284   0.64427   0.65754   0.66194
 Alpha virt. eigenvalues --    0.66778   0.67023   0.68350   0.68923   0.69353
 Alpha virt. eigenvalues --    0.70856   0.70943   0.71440   0.71997   0.72913
 Alpha virt. eigenvalues --    0.73582   0.74852   0.75249   0.75984   0.76325
 Alpha virt. eigenvalues --    0.76741   0.77774   0.78465   0.79492   0.80416
 Alpha virt. eigenvalues --    0.80812   0.81815   0.82791   0.84409   0.85163
 Alpha virt. eigenvalues --    0.86146   0.86692   0.87339   0.88484   0.89178
 Alpha virt. eigenvalues --    0.89489   0.89601   0.90030   0.90845   0.91310
 Alpha virt. eigenvalues --    0.92029   0.92390   0.92519   0.92870   0.93123
 Alpha virt. eigenvalues --    0.93696   0.94364   0.94841   0.95770   0.96048
 Alpha virt. eigenvalues --    0.96473   0.96661   0.97485   0.97770   0.98230
 Alpha virt. eigenvalues --    0.98628   1.00254   1.00536   1.00833   1.01864
 Alpha virt. eigenvalues --    1.02435   1.03000   1.03241   1.03478   1.05058
 Alpha virt. eigenvalues --    1.05410   1.06280   1.07004   1.07491   1.07547
 Alpha virt. eigenvalues --    1.08239   1.08680   1.09726   1.10245   1.10753
 Alpha virt. eigenvalues --    1.11414   1.12017   1.12615   1.12959   1.13567
 Alpha virt. eigenvalues --    1.14094   1.14590   1.14971   1.15295   1.15659
 Alpha virt. eigenvalues --    1.16306   1.17562   1.17941   1.17977   1.18772
 Alpha virt. eigenvalues --    1.19048   1.19748   1.19894   1.20264   1.21066
 Alpha virt. eigenvalues --    1.21827   1.22336   1.22959   1.23858   1.24510
 Alpha virt. eigenvalues --    1.24730   1.25260   1.25727   1.26870   1.27470
 Alpha virt. eigenvalues --    1.27625   1.28094   1.28884   1.28914   1.29557
 Alpha virt. eigenvalues --    1.30828   1.31104   1.31515   1.32300   1.33212
 Alpha virt. eigenvalues --    1.33511   1.34327   1.35520   1.36204   1.36455
 Alpha virt. eigenvalues --    1.37365   1.38233   1.38580   1.39679   1.39816
 Alpha virt. eigenvalues --    1.40908   1.41614   1.41691   1.42470   1.42900
 Alpha virt. eigenvalues --    1.43607   1.44365   1.44835   1.45140   1.45787
 Alpha virt. eigenvalues --    1.47690   1.48576   1.48755   1.49042   1.49292
 Alpha virt. eigenvalues --    1.50956   1.51333   1.53001   1.53409   1.53949
 Alpha virt. eigenvalues --    1.54714   1.54942   1.57463   1.57921   1.59472
 Alpha virt. eigenvalues --    1.59656   1.60625   1.61858   1.62608   1.63188
 Alpha virt. eigenvalues --    1.64539   1.64768   1.65386   1.66209   1.67526
 Alpha virt. eigenvalues --    1.68227   1.69335   1.69642   1.70945   1.72521
 Alpha virt. eigenvalues --    1.73047   1.73367   1.75102   1.76062   1.76877
 Alpha virt. eigenvalues --    1.77592   1.78177   1.78946   1.79965   1.81358
 Alpha virt. eigenvalues --    1.82385   1.82662   1.83096   1.83971   1.85613
 Alpha virt. eigenvalues --    1.85776   1.86838   1.87969   1.89256   1.90215
 Alpha virt. eigenvalues --    1.91155   1.92048   1.93235   1.93863   1.94922
 Alpha virt. eigenvalues --    1.95949   1.96524   1.97830   1.97911   1.98980
 Alpha virt. eigenvalues --    2.00425   2.02911   2.03677   2.04280   2.05188
 Alpha virt. eigenvalues --    2.06309   2.07648   2.10529   2.11198   2.12241
 Alpha virt. eigenvalues --    2.13653   2.15741   2.17898   2.18564   2.20055
 Alpha virt. eigenvalues --    2.21199   2.21736   2.22347   2.23349   2.25458
 Alpha virt. eigenvalues --    2.26824   2.28109   2.28856   2.29466   2.31625
 Alpha virt. eigenvalues --    2.33029   2.33855   2.35962   2.37433   2.43225
 Alpha virt. eigenvalues --    2.44236   2.44611   2.46459   2.47251   2.48562
 Alpha virt. eigenvalues --    2.51099   2.52010   2.53500   2.53667   2.54773
 Alpha virt. eigenvalues --    2.55542   2.56353   2.57357   2.59389   2.60494
 Alpha virt. eigenvalues --    2.60671   2.62109   2.62673   2.63704   2.65949
 Alpha virt. eigenvalues --    2.66275   2.68291   2.69231   2.70189   2.72161
 Alpha virt. eigenvalues --    2.73596   2.74081   2.75380   2.76195   2.76464
 Alpha virt. eigenvalues --    2.79163   2.79743   2.80276   2.81065   2.82493
 Alpha virt. eigenvalues --    2.84103   2.86112   2.87165   2.87673   2.88619
 Alpha virt. eigenvalues --    2.89106   2.90434   2.91168   2.91531   2.92352
 Alpha virt. eigenvalues --    2.93232   2.95537   2.96080   2.96669   2.97823
 Alpha virt. eigenvalues --    2.98770   3.00479   3.01405   3.01991   3.02724
 Alpha virt. eigenvalues --    3.03983   3.04207   3.05371   3.05992   3.07161
 Alpha virt. eigenvalues --    3.07788   3.08238   3.09405   3.09860   3.10695
 Alpha virt. eigenvalues --    3.12041   3.13121   3.14114   3.14892   3.16123
 Alpha virt. eigenvalues --    3.18701   3.19009   3.21226   3.22066   3.22467
 Alpha virt. eigenvalues --    3.23893   3.24718   3.25491   3.25972   3.27376
 Alpha virt. eigenvalues --    3.28901   3.29340   3.29962   3.31671   3.32284
 Alpha virt. eigenvalues --    3.34201   3.35700   3.37393   3.37461   3.38869
 Alpha virt. eigenvalues --    3.40035   3.40285   3.42226   3.42955   3.44077
 Alpha virt. eigenvalues --    3.45190   3.45826   3.46831   3.49095   3.49844
 Alpha virt. eigenvalues --    3.54925   3.56461   3.58134   3.59921   3.60714
 Alpha virt. eigenvalues --    3.62698   3.63365   3.64143   3.65585   3.66387
 Alpha virt. eigenvalues --    3.67772   3.68634   3.70746   3.72140   3.72897
 Alpha virt. eigenvalues --    3.73576   3.74901   3.77050   3.77926   3.78871
 Alpha virt. eigenvalues --    3.79709   3.80987   3.83061   3.83313   3.86007
 Alpha virt. eigenvalues --    3.88083   3.88501   3.89494   3.91639   3.92883
 Alpha virt. eigenvalues --    3.93492   3.97091   3.99019   4.00650   4.01650
 Alpha virt. eigenvalues --    4.03101   4.04206   4.06372   4.09352   4.14923
 Alpha virt. eigenvalues --    4.15929   4.16685   4.17623   4.18400   4.18798
 Alpha virt. eigenvalues --    4.19715   4.20837   4.21913   4.23034   4.24081
 Alpha virt. eigenvalues --    4.26119   4.27428   4.28036   4.28394   4.30177
 Alpha virt. eigenvalues --    4.31122   4.31435   4.32604   4.33928   4.34684
 Alpha virt. eigenvalues --    4.35040   4.35449   4.36593   4.37779   4.40133
 Alpha virt. eigenvalues --    4.40829   4.41642   4.42337   4.43381   4.44127
 Alpha virt. eigenvalues --    4.44837   4.45051   4.46424   4.47230   4.47927
 Alpha virt. eigenvalues --    4.48654   4.49049   4.49908   4.50495   4.51858
 Alpha virt. eigenvalues --    4.52340   4.52721   4.52994   4.54181   4.54633
 Alpha virt. eigenvalues --    4.55387   4.55681   4.56862   4.57570   4.57790
 Alpha virt. eigenvalues --    4.58901   4.59336   4.60069   4.60635   4.60919
 Alpha virt. eigenvalues --    4.61160   4.62083   4.63473   4.64603   4.65213
 Alpha virt. eigenvalues --    4.65515   4.66275   4.67161   4.67493   4.68607
 Alpha virt. eigenvalues --    4.69336   4.70100   4.70289   4.71251   4.72425
 Alpha virt. eigenvalues --    4.72848   4.73291   4.74197   4.74711   4.75413
 Alpha virt. eigenvalues --    4.75466   4.76474   4.77399   4.78228   4.78527
 Alpha virt. eigenvalues --    4.79267   4.80029   4.81138   4.81577   4.82151
 Alpha virt. eigenvalues --    4.82794   4.84182   4.84345   4.84768   4.86011
 Alpha virt. eigenvalues --    4.86757   4.87434   4.87731   4.88661   4.89450
 Alpha virt. eigenvalues --    4.90235   4.90728   4.91958   4.93627   4.93685
 Alpha virt. eigenvalues --    4.95711   4.96115   4.97662   4.99501   5.01963
 Alpha virt. eigenvalues --    5.02646   5.04823   5.05612   5.07209   5.10477
 Alpha virt. eigenvalues --    5.10700   5.13929   5.15568   5.16904   5.18121
 Alpha virt. eigenvalues --    5.19297   5.20928   5.22090   5.22523   5.24054
 Alpha virt. eigenvalues --    5.24777   5.26080   5.26840   5.27849   5.28559
 Alpha virt. eigenvalues --    5.30751   5.31276   5.32007   5.33458   5.35243
 Alpha virt. eigenvalues --    5.36165   5.37610   5.38924   5.39259   5.39752
 Alpha virt. eigenvalues --    5.40215   5.41423   5.42295   5.42893   5.43319
 Alpha virt. eigenvalues --    5.43453   5.45823   5.45986   5.46685   5.47207
 Alpha virt. eigenvalues --    5.48196   5.49313   5.51057   5.51501   5.51753
 Alpha virt. eigenvalues --    5.52936   5.53587   5.55402   5.57459   5.57744
 Alpha virt. eigenvalues --    5.58592   5.61096   5.64236   5.65497   5.66368
 Alpha virt. eigenvalues --    5.69582   5.70126   5.72976   5.73479   5.74870
 Alpha virt. eigenvalues --    5.75954   5.79079   5.79512   5.81276   5.81784
 Alpha virt. eigenvalues --    5.82599   5.85944   5.87603   5.88784   5.90147
 Alpha virt. eigenvalues --    5.90801   5.91588   5.92388   5.93069   5.93584
 Alpha virt. eigenvalues --    5.94225   5.95967   5.96322   5.96787   5.99301
 Alpha virt. eigenvalues --    6.00855   6.02007   6.02394   6.03897   6.05165
 Alpha virt. eigenvalues --    6.07580   6.08974   6.11118   6.12549   6.14122
 Alpha virt. eigenvalues --    6.15449   6.16664   6.17448   6.19955   6.21864
 Alpha virt. eigenvalues --    6.23129   6.27776   6.31114   6.35145   6.36722
 Alpha virt. eigenvalues --    6.56612   6.71718   6.99706   7.03754   7.07979
 Alpha virt. eigenvalues --    7.12343   7.13674   7.17880   7.21318   7.23531
 Alpha virt. eigenvalues --    7.28379   7.30961   7.46072   7.72274   7.78455
 Alpha virt. eigenvalues --    7.97066   8.14585  12.10429  12.13823  12.20887
 Alpha virt. eigenvalues --   12.30102  12.42929  12.52561  12.88735  12.94035
 Alpha virt. eigenvalues --   13.02311  13.13509  13.23879  13.35259  13.37038
 Alpha virt. eigenvalues --   13.43092  13.47715  13.52141  13.54049  13.56788
 Alpha virt. eigenvalues --   13.69272  13.79676  13.84582  14.07853  14.27787
          Condensed to atoms (all electrons):
              1          2          3          4          5          6
     1  O    8.067804   0.309929  -0.101367  -0.027408   0.020158   0.059402
     2  C    0.309929   7.011991  -0.178260   0.041487  -0.057760  -1.153667
     3  C   -0.101367  -0.178260   6.898980   0.232862  -0.015326  -0.146577
     4  O   -0.027408   0.041487   0.232862   8.143518   0.247543  -0.140180
     5  H    0.020158  -0.057760  -0.015326   0.247543   0.407361   0.016015
     6  C    0.059402  -1.153667  -0.146577  -0.140180   0.016015   8.788745
     7  O   -0.000312   0.026019  -0.080370   0.005208  -0.000181   0.235088
     8  H    0.000010  -0.007614   0.007376  -0.000163   0.000012   0.013594
     9  C   -0.005876  -0.004416  -0.338243   0.009981  -0.002402   0.241806
    10  O   -0.004892  -0.004999   0.012435  -0.000114  -0.000017   0.000679
    11  H    0.000600  -0.009013  -0.001082   0.000001   0.000000   0.000661
    12  C   -0.120758  -0.442326  -0.249349   0.014597   0.014240   0.016456
    13  O    0.002739  -0.080475  -0.037023  -0.001142  -0.000184   0.021888
    14  C   -0.019405   0.282050   0.032164  -0.015512   0.014936  -1.678230
    15  O   -0.000124  -0.012542  -0.022476   0.000791   0.000026  -0.028342
    16  C   -0.000028   0.067190  -0.134970  -0.000282   0.000409  -0.165620
    17  C   -0.000102  -0.024749   0.031676   0.000253   0.000009  -0.034563
    18  O    0.000016   0.006205  -0.000240  -0.000004   0.000000  -0.009218
    19  H   -0.000016  -0.001989   0.001985   0.000001   0.000000   0.003024
    20  C    0.000018   0.008345  -0.011745  -0.000006   0.000001   0.005987
    21  O    0.000000   0.000056  -0.000059   0.000000   0.000000   0.000210
    22  H    0.000000   0.000000   0.000001   0.000000   0.000000  -0.000027
    23  C    0.000037   0.017163  -0.027023  -0.000141  -0.000019  -0.177922
    24  O    0.000003   0.000524  -0.005454  -0.000010  -0.000001  -0.009670
    25  H    0.000000   0.000008   0.002285   0.000001   0.000000   0.000714
    26  C   -0.000207  -0.019732   0.020517   0.000370   0.000035   0.051536
    27  O    0.000000  -0.000018   0.000232   0.000001   0.000000   0.002382
    28  C    0.000006  -0.002597   0.000097   0.000003   0.000000   0.017912
    29  O    0.000000   0.000001   0.000027   0.000000   0.000000  -0.000250
    30  H    0.000000   0.000000   0.000000   0.000000   0.000000   0.000009
    31  H    0.000000  -0.000001   0.000014   0.000000   0.000000   0.000091
    32  H    0.000000   0.000043   0.000004   0.000000   0.000000   0.000337
    33  H    0.000000   0.000560   0.000568   0.000000   0.000000  -0.000302
    34  H   -0.000002  -0.002180   0.005907   0.000003   0.000000  -0.003342
    35  H    0.000000  -0.000036   0.000918   0.000000   0.000000  -0.008113
    36  H    0.000000   0.000001  -0.000303   0.000000   0.000000   0.001293
    37  H    0.000000   0.000126   0.000493  -0.000002   0.000000  -0.012788
    38  H    0.275772   0.038056  -0.029909   0.001919  -0.002636  -0.001543
    39  H   -0.000299  -0.013761   0.002764   0.000008   0.000000  -0.005048
    40  H    0.001642   0.003207  -0.010600   0.000022  -0.000001   0.015550
    41  H    0.006143   0.029134  -0.064131   0.001204   0.000001   0.022639
    42  H   -0.015337   0.293892  -0.041734   0.002399   0.000439   0.016900
    43  H   -0.004282   0.017070   0.245753  -0.021624   0.001108  -0.207308
    44  H   -0.000437   0.016240  -0.079790   0.004585  -0.000101   0.344514
    45  H    0.000075  -0.035349  -0.036422   0.000361  -0.000002   0.043935
              7          8          9         10         11         12
     1  O   -0.000312   0.000010  -0.005876  -0.004892   0.000600  -0.120758
     2  C    0.026019  -0.007614  -0.004416  -0.004999  -0.009013  -0.442326
     3  C   -0.080370   0.007376  -0.338243   0.012435  -0.001082  -0.249349
     4  O    0.005208  -0.000163   0.009981  -0.000114   0.000001   0.014597
     5  H   -0.000181   0.000012  -0.002402  -0.000017   0.000000   0.014240
     6  C    0.235088   0.013594   0.241806   0.000679   0.000661   0.016456
     7  O    8.046050   0.256122   0.000045   0.000000   0.000000   0.003072
     8  H    0.256122   0.353598  -0.000032   0.000000   0.000000  -0.002015
     9  C    0.000045  -0.000032   7.399605   0.092021  -0.008952  -1.353758
    10  O    0.000000   0.000000   0.092021   8.127978   0.234672   0.034132
    11  H    0.000000   0.000000  -0.008952   0.234672   0.435337   0.020382
    12  C    0.003072  -0.002015  -1.353758   0.034132   0.020382   8.720213
    13  O    0.003098  -0.000520  -0.029239   0.002525  -0.000739   0.030313
    14  C   -0.044798  -0.043946  -0.640882   0.012135  -0.003580  -0.604197
    15  O    0.003490   0.005978   0.002198   0.000118   0.000000   0.000908
    16  C    0.024648   0.017171  -0.030313   0.000461  -0.000253   0.000578
    17  C   -0.002965   0.001729  -0.029016  -0.000680   0.000032  -0.062067
    18  O   -0.000093  -0.000023  -0.005376  -0.000185  -0.000008  -0.000825
    19  H   -0.000033   0.000000   0.003687   0.000015   0.000000  -0.007662
    20  C    0.002565   0.000025   0.002537   0.000068   0.000009  -0.001854
    21  O   -0.000002   0.000000  -0.000015   0.000000   0.000000  -0.000053
    22  H    0.000000   0.000000   0.000002   0.000000   0.000000   0.000013
    23  C    0.059348  -0.001922   0.000832   0.000007   0.000000   0.013800
    24  O   -0.039973   0.022336  -0.000413   0.000000   0.000000  -0.003637
    25  H    0.001900  -0.002489  -0.000013   0.000000   0.000000  -0.000082
    26  C   -0.042985  -0.010544   0.011428   0.000047   0.000003   0.039967
    27  O   -0.000121  -0.000020   0.000047   0.000000   0.000000  -0.000180
    28  C   -0.001706   0.000601   0.000644  -0.000003  -0.000001  -0.006179
    29  O    0.000000   0.000000   0.000008   0.000000   0.000000   0.000104
    30  H    0.000000   0.000000   0.000000   0.000000   0.000000   0.000000
    31  H    0.000001   0.000000   0.000007   0.000000   0.000000   0.000010
    32  H    0.000001   0.000000   0.000080   0.000000   0.000000   0.000431
    33  H   -0.000017  -0.000001  -0.000022   0.000000   0.000000   0.000517
    34  H   -0.001278  -0.000074   0.000070   0.000001   0.000000   0.005449
    35  H   -0.000081  -0.000007   0.000141   0.000000   0.000000   0.000805
    36  H   -0.000579   0.000339  -0.000003   0.000000   0.000000  -0.000037
    37  H    0.001979  -0.000777   0.000019   0.000000   0.000000   0.000394
    38  H   -0.000005   0.000000   0.001296  -0.000357  -0.000020  -0.022563
    39  H   -0.000008   0.000000   0.387721  -0.018082  -0.011068  -0.010374
    40  H    0.000006   0.000000   0.597593  -0.049110  -0.000153  -0.240482
    41  H    0.000153   0.000004   0.057407   0.001427  -0.000266   0.102168
    42  H    0.000343   0.000004  -0.044793  -0.001043  -0.000011  -0.018927
    43  H    0.004193  -0.000147   0.009735  -0.000365   0.000000   0.062361
    44  H   -0.022737  -0.004992   0.008921   0.000006   0.000000   0.053858
    45  H   -0.001899  -0.000232   0.022251   0.000095   0.000000   0.071200
             13         14         15         16         17         18
     1  O    0.002739  -0.019405  -0.000124  -0.000028  -0.000102   0.000016
     2  C   -0.080475   0.282050  -0.012542   0.067190  -0.024749   0.006205
     3  C   -0.037023   0.032164  -0.022476  -0.134970   0.031676  -0.000240
     4  O   -0.001142  -0.015512   0.000791  -0.000282   0.000253  -0.000004
     5  H   -0.000184   0.014936   0.000026   0.000409   0.000009   0.000000
     6  C    0.021888  -1.678230  -0.028342  -0.165620  -0.034563  -0.009218
     7  O    0.003098  -0.044798   0.003490   0.024648  -0.002965  -0.000093
     8  H   -0.000520  -0.043946   0.005978   0.017171   0.001729  -0.000023
     9  C   -0.029239  -0.640882   0.002198  -0.030313  -0.029016  -0.005376
    10  O    0.002525   0.012135   0.000118   0.000461  -0.000680  -0.000185
    11  H   -0.000739  -0.003580   0.000000  -0.000253   0.000032  -0.000008
    12  C    0.030313  -0.604197   0.000908   0.000578  -0.062067  -0.000825
    13  O    7.917633   0.254338  -0.008864   0.053415   0.001640  -0.012668
    14  C    0.254338   8.571255   0.299926  -0.877106   0.358773  -0.019431
    15  O   -0.008864   0.299926   7.845147   0.179484   0.000669  -0.011275
    16  C    0.053415  -0.877106   0.179484   9.970717  -0.524554  -0.093230
    17  C    0.001640   0.358773   0.000669  -0.524554   7.196745   0.306354
    18  O   -0.012668  -0.019431  -0.011275  -0.093230   0.306354   8.079342
    19  H    0.014650   0.007186   0.015327  -0.052698   0.018927   0.242497
    20  C   -0.017373  -0.311706   0.001029  -1.182768  -0.935765  -0.075876
    21  O   -0.000101   0.000569   0.000288   0.053164  -0.021457  -0.000010
    22  H    0.000001   0.000042   0.000002  -0.008717   0.011843  -0.000364
    23  C    0.001888  -0.061799  -0.046658  -0.441703  -0.457145   0.018755
    24  O   -0.001073   0.080477  -0.034189   0.004964  -0.002788   0.000039
    25  H    0.000018  -0.007044   0.002918  -0.010073  -0.000313  -0.000002
    26  C   -0.013015  -0.327168  -0.139181  -1.573789  -0.583486   0.041180
    27  O    0.000025   0.005321   0.000315   0.027124  -0.006175  -0.001762
    28  C   -0.000294   0.090643   0.016020   0.837199   0.518029  -0.011888
    29  O    0.000032  -0.000077  -0.000077  -0.038849   0.025744   0.000793
    30  H    0.000000   0.000093   0.000000   0.009710   0.003496  -0.000032
    31  H    0.000022   0.001900   0.000724   0.013536   0.027555   0.000544
    32  H    0.000006  -0.003234   0.000704   0.041747  -0.062423   0.005175
    33  H   -0.000785  -0.011908  -0.000368  -0.160639   0.269744  -0.021546
    34  H   -0.003686   0.063450  -0.008411   0.066597   0.035830  -0.001094
    35  H   -0.000718   0.062021  -0.000512  -0.162711   0.010358   0.001764
    36  H    0.000002   0.005796   0.000637   0.028470   0.002232   0.000026
    37  H    0.000058   0.004850   0.004053  -0.012019  -0.002460   0.000054
    38  H   -0.000706   0.003743  -0.000003   0.000212  -0.000027   0.000000
    39  H   -0.003133  -0.003349  -0.000275   0.005164  -0.000230   0.000242
    40  H   -0.006252  -0.005152  -0.000523  -0.003994   0.000928  -0.000092
    41  H   -0.020441   0.119400  -0.000497  -0.011514   0.006847  -0.000300
    42  H    0.001010   0.062457  -0.000232  -0.007022   0.001583   0.000017
    43  H   -0.000017   0.104203   0.003269  -0.009808   0.002773   0.000048
    44  H    0.002487  -0.032014  -0.006666  -0.022234   0.003701   0.000052
    45  H   -0.036583   0.245882  -0.018986  -0.033796   0.021104  -0.001953
             19         20         21         22         23         24
     1  O   -0.000016   0.000018   0.000000   0.000000   0.000037   0.000003
     2  C   -0.001989   0.008345   0.000056   0.000000   0.017163   0.000524
     3  C    0.001985  -0.011745  -0.000059   0.000001  -0.027023  -0.005454
     4  O    0.000001  -0.000006   0.000000   0.000000  -0.000141  -0.000010
     5  H    0.000000   0.000001   0.000000   0.000000  -0.000019  -0.000001
     6  C    0.003024   0.005987   0.000210  -0.000027  -0.177922  -0.009670
     7  O   -0.000033   0.002565  -0.000002   0.000000   0.059348  -0.039973
     8  H    0.000000   0.000025   0.000000   0.000000  -0.001922   0.022336
     9  C    0.003687   0.002537  -0.000015   0.000002   0.000832  -0.000413
    10  O    0.000015   0.000068   0.000000   0.000000   0.000007   0.000000
    11  H    0.000000   0.000009   0.000000   0.000000   0.000000   0.000000
    12  C   -0.007662  -0.001854  -0.000053   0.000013   0.013800  -0.003637
    13  O    0.014650  -0.017373  -0.000101   0.000001   0.001888  -0.001073
    14  C    0.007186  -0.311706   0.000569   0.000042  -0.061799   0.080477
    15  O    0.015327   0.001029   0.000288   0.000002  -0.046658  -0.034189
    16  C   -0.052698  -1.182768   0.053164  -0.008717  -0.441703   0.004964
    17  C    0.018927  -0.935765  -0.021457   0.011843  -0.457145  -0.002788
    18  O    0.242497  -0.075876  -0.000010  -0.000364   0.018755   0.000039
    19  H    0.384266   0.009643  -0.000410   0.000015  -0.003200   0.000027
    20  C    0.009643   7.960804   0.102600   0.014747   0.345613  -0.001140
    21  O   -0.000410   0.102600   8.081522   0.251748  -0.006287  -0.000019
    22  H    0.000015   0.014747   0.251748   0.411380   0.000456   0.000000
    23  C   -0.003200   0.345613  -0.006287   0.000456   8.379982  -0.032436
    24  O    0.000027  -0.001140  -0.000019   0.000000  -0.032436   8.226198
    25  H    0.000000   0.001201   0.000000   0.000000  -0.022940   0.254853
    26  C   -0.003844   1.112837  -0.063179   0.009497  -1.508707   0.125412
    27  O    0.000029  -0.080952   0.003852  -0.000538  -0.113495   0.003937
    28  C    0.004268  -1.016756   0.041691  -0.036741  -0.573228   0.005376
    29  O    0.000011  -0.078044   0.022651   0.003426   0.018163   0.000022
    30  H    0.000000  -0.038251  -0.004216  -0.000882  -0.001762   0.000000
    31  H    0.000006  -0.132129  -0.001361  -0.000055  -0.011573   0.000017
    32  H   -0.000078   0.270725  -0.008738  -0.008609   0.001320  -0.000004
    33  H   -0.005601   0.050542  -0.001368  -0.000071   0.031298  -0.000054
    34  H    0.000433   0.022123  -0.000235   0.000010  -0.024903   0.000440
    35  H    0.000068  -0.053861   0.000294   0.000008   0.158431  -0.000840
    36  H    0.000000  -0.004755   0.000011   0.000000   0.350208  -0.022990
    37  H    0.000000   0.000922   0.000002   0.000000   0.738317  -0.071263
    38  H    0.000000   0.000001   0.000000   0.000000   0.000002   0.000000
    39  H    0.000665  -0.000476   0.000001   0.000000   0.000016   0.000000
    40  H    0.000036  -0.000035   0.000000   0.000000  -0.000025   0.000000
    41  H    0.000058  -0.000209  -0.000001   0.000000  -0.000169  -0.000006
    42  H   -0.000009  -0.000096   0.000000   0.000000  -0.000117  -0.000001
    43  H   -0.000003  -0.000112   0.000000   0.000000  -0.000193   0.000041
    44  H   -0.000013   0.000199   0.000000   0.000000   0.004620   0.000984
    45  H    0.000195   0.007934   0.000001   0.000000  -0.005929   0.000107
             25         26         27         28         29         30
     1  O    0.000000  -0.000207   0.000000   0.000006   0.000000   0.000000
     2  C    0.000008  -0.019732  -0.000018  -0.002597   0.000001   0.000000
     3  C    0.002285   0.020517   0.000232   0.000097   0.000027   0.000000
     4  O    0.000001   0.000370   0.000001   0.000003   0.000000   0.000000
     5  H    0.000000   0.000035   0.000000   0.000000   0.000000   0.000000
     6  C    0.000714   0.051536   0.002382   0.017912  -0.000250   0.000009
     7  O    0.001900  -0.042985  -0.000121  -0.001706   0.000000   0.000000
     8  H   -0.002489  -0.010544  -0.000020   0.000601   0.000000   0.000000
     9  C   -0.000013   0.011428   0.000047   0.000644   0.000008   0.000000
    10  O    0.000000   0.000047   0.000000  -0.000003   0.000000   0.000000
    11  H    0.000000   0.000003   0.000000  -0.000001   0.000000   0.000000
    12  C   -0.000082   0.039967  -0.000180  -0.006179   0.000104   0.000000
    13  O    0.000018  -0.013015   0.000025  -0.000294   0.000032   0.000000
    14  C   -0.007044  -0.327168   0.005321   0.090643  -0.000077   0.000093
    15  O    0.002918  -0.139181   0.000315   0.016020  -0.000077   0.000000
    16  C   -0.010073  -1.573789   0.027124   0.837199  -0.038849   0.009710
    17  C   -0.000313  -0.583486  -0.006175   0.518029   0.025744   0.003496
    18  O   -0.000002   0.041180  -0.001762  -0.011888   0.000793  -0.000032
    19  H    0.000000  -0.003844   0.000029   0.004268   0.000011   0.000000
    20  C    0.001201   1.112837  -0.080952  -1.016756  -0.078044  -0.038251
    21  O    0.000000  -0.063179   0.003852   0.041691   0.022651  -0.004216
    22  H    0.000000   0.009497  -0.000538  -0.036741   0.003426  -0.000882
    23  C   -0.022940  -1.508707  -0.113495  -0.573228   0.018163  -0.001762
    24  O    0.254853   0.125412   0.003937   0.005376   0.000022   0.000000
    25  H    0.396080   0.020375  -0.000650  -0.001899  -0.000001   0.000000
    26  C    0.020375   9.584418   0.225068  -1.172990  -0.008777  -0.004182
    27  O   -0.000650   0.225068   7.923007   0.224529  -0.013722   0.003259
    28  C   -0.001899  -1.172990   0.224529   6.357334   0.246551   0.017947
    29  O   -0.000001  -0.008777  -0.013722   0.246551   8.078643   0.267687
    30  H    0.000000  -0.004182   0.003259   0.017947   0.267687   0.400482
    31  H    0.000000  -0.020927  -0.048712   0.450558  -0.021288  -0.010046
    32  H    0.000000   0.009508   0.000933   0.011853   0.001213   0.000007
    33  H    0.000000   0.136698   0.001635  -0.058505   0.000106   0.000022
    34  H    0.000004   0.090802   0.001576   0.004236  -0.000241   0.000002
    35  H   -0.000121   0.226287  -0.046391   0.028261   0.000952   0.000003
    36  H   -0.010140  -0.031814  -0.002439   0.010236  -0.000067  -0.000001
    37  H   -0.000552  -0.351330  -0.000509  -0.009451   0.000095   0.000000
    38  H    0.000000  -0.000007   0.000000   0.000000   0.000000   0.000000
    39  H    0.000000   0.000253   0.000000   0.000025   0.000000   0.000000
    40  H    0.000000  -0.000232   0.000000   0.000015   0.000000   0.000000
    41  H    0.000000  -0.002353   0.000000   0.000127   0.000000   0.000000
    42  H    0.000000  -0.000283   0.000000   0.000012   0.000000   0.000000
    43  H    0.000000   0.000021   0.000000   0.000009   0.000000   0.000000
    44  H    0.000030  -0.005525   0.000004  -0.000157   0.000000   0.000000
    45  H    0.000004   0.017674   0.000213  -0.000280  -0.000002   0.000000
             31         32         33         34         35         36
     1  O    0.000000   0.000000   0.000000  -0.000002   0.000000   0.000000
     2  C   -0.000001   0.000043   0.000560  -0.002180  -0.000036   0.000001
     3  C    0.000014   0.000004   0.000568   0.005907   0.000918  -0.000303
     4  O    0.000000   0.000000   0.000000   0.000003   0.000000   0.000000
     5  H    0.000000   0.000000   0.000000   0.000000   0.000000   0.000000
     6  C    0.000091   0.000337  -0.000302  -0.003342  -0.008113   0.001293
     7  O    0.000001   0.000001  -0.000017  -0.001278  -0.000081  -0.000579
     8  H    0.000000   0.000000  -0.000001  -0.000074  -0.000007   0.000339
     9  C    0.000007   0.000080  -0.000022   0.000070   0.000141  -0.000003
    10  O    0.000000   0.000000   0.000000   0.000001   0.000000   0.000000
    11  H    0.000000   0.000000   0.000000   0.000000   0.000000   0.000000
    12  C    0.000010   0.000431   0.000517   0.005449   0.000805  -0.000037
    13  O    0.000022   0.000006  -0.000785  -0.003686  -0.000718   0.000002
    14  C    0.001900  -0.003234  -0.011908   0.063450   0.062021   0.005796
    15  O    0.000724   0.000704  -0.000368  -0.008411  -0.000512   0.000637
    16  C    0.013536   0.041747  -0.160639   0.066597  -0.162711   0.028470
    17  C    0.027555  -0.062423   0.269744   0.035830   0.010358   0.002232
    18  O    0.000544   0.005175  -0.021546  -0.001094   0.001764   0.000026
    19  H    0.000006  -0.000078  -0.005601   0.000433   0.000068   0.000000
    20  C   -0.132129   0.270725   0.050542   0.022123  -0.053861  -0.004755
    21  O   -0.001361  -0.008738  -0.001368  -0.000235   0.000294   0.000011
    22  H   -0.000055  -0.008609  -0.000071   0.000010   0.000008   0.000000
    23  C   -0.011573   0.001320   0.031298  -0.024903   0.158431   0.350208
    24  O    0.000017  -0.000004  -0.000054   0.000440  -0.000840  -0.022990
    25  H    0.000000   0.000000   0.000000   0.000004  -0.000121  -0.010140
    26  C   -0.020927   0.009508   0.136698   0.090802   0.226287  -0.031814
    27  O   -0.048712   0.000933   0.001635   0.001576  -0.046391  -0.002439
    28  C    0.450558   0.011853  -0.058505   0.004236   0.028261   0.010236
    29  O   -0.021288   0.001213   0.000106  -0.000241   0.000952  -0.000067
    30  H   -0.010046   0.000007   0.000022   0.000002   0.000003  -0.000001
    31  H    0.606741   0.005350   0.001646  -0.000036   0.005981   0.000015
    32  H    0.005350   0.584771   0.006057   0.001314   0.000001   0.000001
    33  H    0.001646   0.006057   0.620530   0.005820   0.003904   0.000013
    34  H   -0.000036   0.001314   0.005820   0.600135   0.006787  -0.000103
    35  H    0.005981   0.000001   0.003904   0.006787   0.650187  -0.007987
    36  H    0.000015   0.000001   0.000013  -0.000103  -0.007987   0.570182
    37  H   -0.000025  -0.000006  -0.000019   0.001272   0.007197  -0.040788
    38  H    0.000000   0.000000   0.000000   0.000000   0.000000   0.000000
    39  H    0.000000   0.000000   0.000001   0.000000   0.000000   0.000000
    40  H    0.000000   0.000000   0.000000   0.000000   0.000000   0.000000
    41  H    0.000000   0.000000  -0.000001  -0.000011   0.000000   0.000000
    42  H    0.000000   0.000000   0.000000   0.000000   0.000000   0.000000
    43  H    0.000000   0.000000   0.000000  -0.000004   0.000000   0.000000
    44  H    0.000000   0.000000  -0.000003  -0.000003   0.000000   0.000001
    45  H    0.000000  -0.000003   0.000001   0.006666  -0.000013   0.000000
             37         38         39         40         41         42
     1  O    0.000000   0.275772  -0.000299   0.001642   0.006143  -0.015337
[...]
 7,0.00002732,-0.00824051,-0.00060071,0.00077990,0.00245084,0.00111232,
 -0.00027960,-0.00042201,0.00027291,0.00007660,0.00012460,-0.00004423,0
 .00018280,0.00000324,0.00000954,-0.00003183,-0.00002623,0.00003098,0.0
 0002672,0.00003253,-0.00002903,-0.00002607,-0.00002967,0.00001418,0.00
 002880,-0.00000642,-0.00000148,-0.00000641,0.00001139,-0.00001031,0.00
 000723,-0.00000158,0.00000030,-0.00000075,-0.00001089,0.00000732,-0.00
 000984,0.00006790,0.00000848,0.00004768,-0.00002129,-0.00000460,0.0000
 0373,-0.00001767,-0.00000585,-0.00000926,0.00001624,-0.00001108,0.0000
 1287,-0.00001603,0.00001788,-0.00001192,0.00000441,-0.00000361,0.00000
 363,-0.00000189,-0.00000006,-0.00000085,0.00000432,0.00000025,0.000001
 56,0.00000397,0.00000204,-0.00000282,0.00000542,-0.00000033,0.00000731
 ,0.00001054,0.00000226,-0.00000739,0.00000978,-0.00000069,0.00000757,0
 .00000064,-0.00000042,0.00000546,0.00000617,-0.00000309,-0.00000619,0.
 00146641,0.00021000,-0.00079702,0.00027986,0.00001011,-0.00002925,0.00
 058383,-0.00088836,-0.00006926,0.00051607,-0.00061735,0.00055987,0.372
 40018,-0.00829332,-0.00004799,-0.00552529,-0.03206106,-0.04768770,0.00
 625086,0.03269622,0.00238395,-0.00676973,-0.00251243,0.00200693,-0.000
 16001,0.00026000,-0.00002070,0.00044885,0.00011293,0.00163957,0.000929
 66,-0.00029040,-0.00032211,0.00003651,-0.00007607,-0.00003145,0.000040
 32,-0.00175742,0.00166424,-0.00071677,0.00039696,-0.00000146,0.0000727
 6,-0.00002078,-0.00005049,0.00000536,-0.02869741,-0.00489089,0.0071901
 9,0.00113211,0.00104936,-0.00267435,0.00035904,-0.00041485,-0.00004233
 ,-0.00000130,0.00009277,-0.00004746,-0.00004982,0.00001600,0.00000275,
 0.00000719,0.00000280,-0.00001387,0.00002919,-0.00000121,-0.00001692,-
 0.00002328,0.00000156,0.00002965,-0.00000849,-0.00000069,0.00000197,0.
 00000371,0.00000335,-0.00000331,-0.00000159,-0.00000054,-0.00000085,-0
 .00000032,-0.00000560,0.00000822,-0.00004118,-0.00000871,-0.00003753,0
 .00001044,0.00000419,-0.00000524,0.00000528,-0.00000339,0.00000399,-0.
 00000084,0.00000379,-0.00000635,0.00000086,-0.00000350,0.00000546,0.00
 000109,0.00000074,-0.00000560,0.00000019,0.00000027,0.00000092,0.00000
 009,0.00000090,0.00000018,0.00000162,-0.00000011,-0.00000197,0.0000021
 9,0.00000283,0.00000256,0.00000574,-0.00000627,0.00000370,0.00000003,0
 .00000216,0.00000052,-0.00000035,0.00000139,-0.00000365,-0.00000105,0.
 00000042,0.00000400,-0.00090438,0.00117022,-0.00018378,0.00037019,0.00
 027662,-0.00012565,0.00094586,-0.00016553,-0.00021773,-0.00060503,-0.0
 0286941,0.00376045,0.03675476,0.05137125,-0.04139152,-0.00948476,-0.01
 683374,0.04146644,0.00598703,-0.04438233,0.01435353,0.00104822,-0.0021
 2251,-0.00089093,-0.00018966,0.00130334,-0.00025404,-0.00064876,-0.000
 15024,0.00037317,0.00068355,0.00076526,-0.00025140,-0.00012387,-0.0000
 7159,0.00001499,0.00002272,0.00003118,0.00020088,-0.00119203,0.0004596
 8,-0.00012411,0.00002255,0.00013263,0.00002051,-0.00001957,0.00004743,
 0.02191361,0.00382512,-0.00389452,-0.00012912,0.00001194,0.00197517,0.
 00069969,-0.00044969,-0.00024785,-0.00009812,0.00006584,-0.00020125,0.
 00000818,-0.00003416,0.00002669,0.00001900,-0.00000415,0.00000357,-0.0
 0005438,0.00000149,-0.00000548,0.00006110,0.00000956,-0.00003027,0.000
 00597,-0.00000741,0.00001279,-0.00001191,0.00001265,-0.00001492,0.0000
 0170,-0.00000104,0.00000254,0.00000765,0.00000335,0.00000113,-0.000042
 33,-0.00001043,-0.00002705,0.00001215,0.00000339,-0.00000021,0.0000162
 4,0.00001680,0.00001678,-0.00001230,0.00000603,-0.00002458,0.00001038,
 -0.00001371,0.00002360,-0.00000067,0.00000269,-0.00001718,0.00000183,0
 .00000072,0.00000367,-0.00000296,-0.00000071,-0.00000213,-0.00000391,-
 0.00000084,0.00000416,-0.00000799,-0.00000474,-0.00001088,-0.00001134,
 0.00000053,0.00001017,-0.00000816,-0.00000114,-0.00000688,-0.00000194,
 -0.00000258,-0.00000349,-0.00000358,0.00000244,0.00000560,-0.00319806,
 0.00060224,0.00322848,-0.00011693,-0.00014980,0.00002355,-0.00060336,0
 .00028817,0.00022219,0.00040784,0.00234076,-0.00306813,-0.03292543,0.0
 0023786,0.06373023,0.00156019,0.00046965,0.00042440,-0.02260770,0.0015
 0178,0.00471467,-0.32008278,-0.06522745,0.04559998,0.00998073,-0.00320
 853,0.00525566,-0.00010664,-0.00072746,-0.00032263,-0.02027866,-0.0051
 3532,-0.00171513,0.00250282,0.00107469,0.00118299,0.00019421,0.0003517
 9,0.00015724,0.00076158,0.00034375,-0.00009061,0.00001339,-0.00001318,
 -0.00005902,-0.00000292,0.00001809,0.00000310,-0.00068159,-0.00233140,
 0.00135010,0.00047574,0.00083096,-0.00066860,-0.00275247,-0.00203116,0
 .00148956,0.00118072,0.00021778,0.00027422,-0.00003141,0.00014856,-0.0
 0028888,-0.00000823,-0.00000065,-0.00004160,0.00005456,-0.00000508,0.0
 0004148,-0.00004160,0.00001564,0.00000396,-0.00001888,0.00001310,-0.00
 002639,0.00001995,-0.00001306,0.00002607,-0.00000316,0.00000141,-0.000
 00605,-0.00004962,-0.00007675,0.00008892,0.00013895,0.00007970,-0.0000
 1199,-0.00002036,-0.00000603,0.00001988,-0.00000411,-0.00005309,-0.000
 03447,0.00001585,0.00002589,0.00003334,-0.00001333,-0.00000529,-0.0000
 3678,0.00000045,0.00000460,0.00003013,-0.00000269,-0.00000234,-0.00000
 705,0.00000473,0.00000131,0.00000307,0.00000708,0.00000206,-0.00000287
 ,0.00001296,0.00000130,0.00001044,0.00001139,0.00000170,-0.00004938,0.
 00001243,0.00000360,0.00001529,0.00000653,0.00001288,-0.00000819,0.000
 01755,0.00000124,-0.00001973,0.00030260,-0.00022872,-0.00026908,-0.000
 00263,0.00009829,-0.00000058,0.00022577,-0.00040236,-0.00002599,0.0012
 8858,0.00071493,-0.00086671,-0.00024049,0.00275247,0.00111691,0.346697
 69,-0.00188411,0.00155690,0.00115986,0.03251890,-0.00083828,-0.0069656
 6,-0.06636830,-0.05050404,0.00310470,-0.02197391,-0.01927652,0.0264767
 1,-0.00136244,-0.00142055,-0.00022666,-0.01742804,-0.00261852,-0.00235
 711,0.00007462,0.00083097,0.00130668,-0.00002561,0.00009042,0.00009803
 ,0.00035561,0.00008889,-0.00012964,-0.00009104,-0.00001720,-0.00002492
 ,0.00000225,0.00001134,-0.00000134,0.00300082,0.00057306,-0.00107251,-
 0.00056799,0.00011494,0.00000410,0.00030098,-0.00036590,0.00210646,0.0
 0050447,-0.00005137,-0.00007867,0.00001438,0.00008698,-0.00011490,0.00
 001018,0.00000492,-0.00001112,-0.00000157,-0.00000422,0.00000143,0.000
 00685,-0.00000098,0.00001404,-0.00001101,0.00000230,-0.00000484,0.0000
 0550,-0.00000203,0.00000074,-0.00000175,0.00000130,-0.00000158,-0.0000
 4916,-0.00002340,0.00002586,0.00014326,0.00002504,0.00001739,-0.000025
 04,-0.00000746,0.00000189,-0.00000259,0.00000103,0.00000023,0.00000965
 ,-0.00000092,-0.00000014,-0.00000579,0.00000501,-0.00000590,0.00000167
 ,-0.00000025,0.00000315,-0.00000059,-0.00000024,-0.00000134,0.00000209
 ,-0.00000088,0.00000081,0.00000154,0.00000165,0.00000072,0.00000023,-0
 .00000282,0.00000220,-0.00000133,0.00000987,-0.00002529,0.00000540,-0.
 00000512,0.00000532,0.00000772,0.00000306,-0.00000558,0.00001658,-0.00
 000084,-0.00001877,0.00002178,0.00017709,0.00043642,-0.00008721,0.0000
 2785,0.00001177,-0.00022818,-0.00010648,0.00008313,0.00005610,-0.00073
 326,0.00014459,0.00253565,-0.00466951,-0.00253059,0.07050358,0.0769833
 2,-0.00096237,0.00058971,0.00145543,0.01684824,-0.00116918,-0.00103445
 ,0.04909813,0.00320856,-0.04552846,0.02282126,0.02560169,-0.02107419,0
 .00191040,0.00145059,-0.00045435,-0.03215395,-0.01047814,-0.00179900,0
 .00092143,0.00162752,0.00230592,-0.00045990,0.00041096,0.00016827,-0.0
 0018282,-0.00012229,-0.00008054,-0.00001720,-0.00001528,0.00000386,-0.
 00000177,-0.00000066,-0.00000352,-0.00065275,0.00214900,0.00024063,0.0
 0043481,-0.00022374,-0.00005657,-0.00273466,-0.00047623,-0.00081606,0.
 00022227,0.00003647,0.00033254,0.00008665,0.00003347,0.00007386,-0.000
 00065,-0.00002273,-0.00000297,0.00000502,0.00001528,0.00001684,-0.0000
 0907,-0.00000524,-0.00002470,-0.00000099,-0.00000466,0.00000619,-0.000
 00347,0.00001047,-0.00000666,0.00000023,-0.00000154,0.00000020,-0.0000
 5165,-0.00004673,0.00004492,0.00015661,0.00000755,-0.00003397,-0.00001
 382,0.00000629,-0.00001916,-0.00000311,-0.00001432,0.00002038,0.000003
 78,0.00002278,-0.00002369,0.00000505,-0.00002165,0.00001677,0.00000170
 ,0.00000607,-0.00001250,0.00000074,0.00000010,0.00000246,-0.00000018,0
 .00000079,0.00000060,-0.00000031,0.00000090,-0.00000157,0.00000341,-0.
 00000127,0.00000475,0.00002418,0.00001675,-0.00004041,0.00000613,-0.00
 000399,0.00000797,0.00000747,0.00000684,-0.00001700,0.00001728,0.00000
 466,-0.00001990,-0.00014353,0.00037677,0.00020018,-0.00004378,-0.00002
 077,0.00000274,-0.00011443,0.00013560,-0.00000312,-0.00046439,0.000116
 66,0.00049266,0.00126656,-0.00208527,-0.00082132,-0.05424765,-0.019433
 25,0.07280135,0.00021738,0.00003518,-0.00002349,-0.00039001,0.00032367
 ,-0.00014134,-0.00794438,-0.00571337,0.00017218,0.00105233,0.00093698,
 0.00010760,0.00007717,0.00003581,0.00001056,-0.31595986,-0.10812824,0.
 01110425,-0.02234397,0.00445754,0.00681634,-0.00074845,0.00020196,-0.0
 0168889,0.00001680,-0.00003034,-0.00002060,0.00002377,0.00001664,0.000
 00048,-0.00000575,-0.00000232,0.00000301,0.00016238,0.00012690,0.00010
 929,0.00077036,-0.00151641,0.00002090,-0.00080876,-0.00016127,-0.00120
 368,0.00069607,0.00025712,-0.00010267,0.00014616,0.00007767,0.00017904
 ,0.00001881,0.00000915,-0.00001366,0.00000953,0.00000873,-0.00000515,-
 0.00001335,-0.00003030,-0.00001826,-0.00002052,0.00000648,0.00001703,0
 .00000676,0.00000521,-0.00001592,-0.00000404,0.00000020,-0.00000094,-0
 .00012164,-0.00002093,0.00003465,0.00058629,-0.00006945,0.00011800,-0.
 00006847,-0.00003667,-0.00004164,-0.00002890,0.00004051,0.00002983,0.0
 0002471,-0.00001641,-0.00003047,-0.00000944,0.00000907,0.00001457,0.00
 000715,-0.00000247,-0.00001547,-0.00000037,0.00000132,0.00000216,0.000
 00384,-0.00000075,0.00000121,0.00000237,0.00000249,-0.00000122,0.00000
 206,-0.00000604,0.00000932,-0.00001037,0.00005156,-0.00017083,0.000012
 77,-0.00001920,0.00000856,0.00002622,-0.00000533,-0.00000953,0.0000605
 0,0.00000313,-0.00008608,-0.00003319,-0.00008950,-0.00003547,-0.000004
 77,0.00000942,-0.00000511,0.00001686,-0.00001673,-0.00000523,-0.000006
 68,0.00013430,-0.00001463,0.00038610,-0.00041023,-0.00025789,0.0002249
 8,-0.00057287,-0.00102262,0.34358976,0.00023922,0.00003723,-0.00003823
 ,-0.00083399,0.00057441,0.00051324,-0.00992805,-0.00408556,0.00201866,
 0.00106836,0.00094009,-0.00046700,0.00001050,0.00002762,0.00004306,-0.
 10945113,-0.08492704,0.00527176,0.03269409,0.00200364,-0.00601435,0.00
 080388,0.00157158,0.00183252,0.00000122,0.00004349,0.00003314,0.000021
 16,-0.00002834,-0.00001323,-0.00000507,0.00000585,0.00000298,-0.000066
 58,0.00003572,0.00014276,0.00159485,0.00099611,-0.00032588,-0.02660319
 ,-0.00842479,-0.00087432,0.00108913,0.00144567,-0.00170516,-0.00001966
 ,0.00028645,0.00004684,0.00004521,-0.00003495,-0.00015917,0.00008035,0
 .00001561,0.00009013,-0.00009642,-0.00000229,-0.00006521,-0.00002903,0
 .00002535,0.00000552,0.00000844,0.00002271,-0.00000855,-0.00000524,-0.
 00000309,-0.00000561,0.00005653,-0.00002172,0.00012076,-0.00032734,-0.
 00026230,-0.00017132,0.00007781,0.00001767,-0.00014556,0.00002586,-0.0
 0005562,0.00004607,0.00000004,0.00004179,-0.00002016,0.00000512,-0.000
 04498,0.00001805,0.00000282,0.00001331,-0.00000704,0.00000007,-0.00000
 126,0.00000167,0.00000006,0.00000421,0.00000146,0.00000597,0.00000319,
 -0.00000679,0.00002369,-0.00000678,0.00002918,0.00014950,0.00001872,-0
 .00015427,0.00001342,0.00002610,0.00002469,-0.00002259,0.00000415,0.00
 000366,-0.00003335,0.00000592,0.00004194,-0.00000799,-0.00002082,-0.00
 002434,-0.00000014,-0.00001376,-0.00001154,0.00004114,-0.00004734,-0.0
 0002425,0.00019689,0.00012268,-0.00000599,0.00036419,-0.00031654,-0.00
 029568,-0.00052372,-0.00046695,-0.00210305,0.10950733,0.09376398,0.000
 45089,0.00015242,-0.00031479,-0.00130334,0.00164077,0.00129518,-0.0299
 7741,-0.01460137,0.00166735,0.00239877,0.00117849,0.00266363,0.0001607
 9,-0.00017400,0.00023464,0.00855828,0.00474179,-0.04226531,0.01337030,
 -0.00177166,-0.00065700,0.00164373,0.00040643,0.00092443,0.00000688,-0
 .00000330,0.00004934,0.00000534,0.00001911,0.00002065,0.00000597,-0.00
 000004,0.00000537,-0.00046352,-0.00026772,-0.00039687,-0.00111896,0.00
 034220,0.00042450,0.02123452,0.01039709,-0.00157355,-0.00022872,-0.001
 31561,0.00237664,0.00030084,-0.00017513,-0.00012412,-0.00006687,0.0000
 3681,0.00018824,-0.00006084,-0.00004446,-0.00009646,0.00007198,0.00001
 228,0.00009793,0.00003304,-0.00002261,-0.00001721,-0.00000308,-0.00004
 314,0.00002410,0.00000633,0.00000484,0.00000534,0.00023055,0.00021431,
 -0.00021176,-0.00040099,-0.00018021,0.00017270,0.00003730,-0.00003119,
 0.00004936,-0.00002719,0.00005713,-0.00004799,-0.00001628,-0.00008637,
 0.00009930,-0.00001444,0.00008143,-0.00005425,-0.00000938,-0.00002353,
 0.00003529,-0.00000131,0.00000046,-0.00000601,-0.00000120,-0.00000433,
 -0.00000146,-0.00000632,-0.00000585,0.00000739,-0.00003733,0.00001632,
 -0.00002668,-0.00022649,-0.00005913,0.00008415,-0.00003413,0.00000038,
 -0.00005343,-0.00003861,-0.00003260,0.00007158,-0.00008089,-0.00001566
 ,0.00006697,0.00002925,-0.00011708,-0.00007634,0.00001168,-0.00003189,
 0.00000941,0.00000988,-0.00002266,-0.00000011,0.00019275,-0.00002025,-
 0.00015673,0.00075956,-0.00035983,-0.00023575,-0.00261896,-0.00249245,
 -0.00506634,-0.01330006,-0.00021889,0.04295857,0.00008711,-0.00013918,
 0.00028200,0.00014388,0.00062065,-0.00006500,-0.00103541,-0.00026189,-
 0.00078461,0.00043835,0.00032258,-0.00050582,0.00001881,0.00007685,0.0
 0009009,-0.00601398,-0.00014288,0.00099625,0.00233088,0.00052709,-0.00
 135205,-0.00022795,-0.00015325,-0.00000483,0.00060856,-0.00006717,-0.0
 0001426,0.00002999,0.00026080,0.00011776,-0.00000608,0.00000143,0.0000
 3356,-0.00010497,-0.00112239,-0.00167440,-0.01597511,0.01059955,0.0079
 2906,-0.32754892,-0.06645733,0.05586424,-0.01810068,-0.00519121,-0.008
 99005,0.00075967,-0.00050027,0.00312827,0.00017633,0.00018235,-0.00019
 128,0.00038073,-0.00002772,-0.00014252,-0.00032930,-0.00023084,0.00040
 669,-0.00005614,0.00006268,0.00002306,0.00002727,0.00002796,-0.0000361
 1,-0.00001600,-0.00000294,-0.00001154,-0.00021176,0.00011200,0.0001229
 0,0.00013966,-0.00007685,0.00002329,-0.00000761,-0.00002722,-0.0000355
 4,0.00046971,0.00004224,0.00002751,0.00000691,-0.00006145,-0.00021216,
 -0.00000217,-0.00004176,0.00004660,0.00001137,0.00000901,-0.00003740,0
 .00000101,0.00000237,0.00000408,0.00000494,0.00000802,0.00000234,0.000
 01790,0.00001813,-0.00003395,0.00009963,-0.00015511,0.00017660,0.00111
 305,0.00044396,-0.00136495,0.00013627,0.00013725,0.00025946,0.00003447
 ,-0.00000657,-0.00000893,0.00007054,-0.00004038,-0.00002875,0.00000452
 ,0.00000235,0.00000749,-0.00002305,-0.00003038,0.00001653,0.00013695,-
 0.00025628,-0.00011912,0.00083018,0.00049018,0.00103425,0.00010159,-0.
 00009144,-0.00030938,0.00123788,0.00058869,-0.00055626,0.00038181,-0.0
 0017333,0.00051771,0.35985915,-0.00008131,0.00029659,-0.00024479,-0.00
 020364,-0.00048561,-0.00012667,-0.00177326,-0.00044130,-0.00136127,0.0
 0066779,0.00014481,0.00021448,0.00015653,-0.00003028,-0.00000202,-0.02
 645615,-0.00705286,0.00794497,0.00040441,0.00322297,-0.00100835,-0.000
 52561,-0.00036229,-0.00002321,0.00024232,0.00017132,0.00010211,-0.0001
 9467,-0.00021201,-0.00010465,-0.00000216,0.00002460,-0.00001846,0.0043
 4243,0.00203036,0.00363726,0.03620550,-0.00984636,-0.01527717,-0.06851
 380,-0.05574966,0.01543919,-0.00638716,0.00288283,-0.00213099,0.000849
 89,-0.00024498,0.00104846,0.00021337,-0.00006398,-0.00001843,-0.000226
 72,0.00010849,0.00014266,0.00019437,-0.00002105,-0.00050825,0.00000649
 ,0.00002717,0.00007670,-0.00002112,0.00005781,-0.00006613,-0.00000743,
 -0.00000640,-0.00000068,-0.00015364,0.00003680,0.00000160,0.00013735,-
 0.00001119,0.00002114,-0.00002307,-0.00001364,-0.00000575,0.00002946,0
 .00014332,0.00010176,-0.00000680,-0.00002264,-0.00015400,0.00001399,-0
 .00004343,0.00009517,0.00000971,0.00001062,-0.00006062,0.00000340,0.00
 000134,0.00001130,-0.00000173,-0.00000176,-0.00000515,-0.00000914,0.00
 000284,0.00000094,0.00001365,-0.00005723,0.00004224,0.00036495,0.00029
 115,-0.00030763,0.00001209,-0.00000364,0.00005864,0.00003415,-0.000020
 13,-0.00000805,0.00005387,-0.00003361,-0.00004396,-0.00000722,0.000014
 79,0.00001802,0.00004649,-0.00000396,0.00000303,-0.00021729,-0.0000180
 7,0.00001381,-0.00126346,0.00009542,0.00019436,-0.00003984,-0.00017669
 ,-0.00003032,0.00080085,0.00052180,0.00041448,0.00059042,-0.00328914,0
 .00281871,0.06072173,0.06812688,-0.00003488,-0.00001792,-0.00024820,-0
 .00020981,0.00014186,-0.00018519,0.00183341,0.00099469,0.00010982,-0.0
 0049002,-0.00023717,0.00002987,0.00001167,-0.00003189,0.00002792,0.020
 04172,0.00654561,-0.00107015,-0.00158803,-0.00170624,0.00097158,-0.000
 09215,-0.00012174,-0.00008492,0.00002978,0.00002018,0.00001735,-0.0001
 1938,-0.00015458,-0.00008592,0.00000793,0.00001331,-0.00001564,0.00317
 539,0.00057473,0.00270279,0.01467476,-0.00728930,-0.00277250,0.0601886
 8,0.01806972,-0.05468176,-0.03749232,-0.00687567,-0.01303989,-0.005349
 64,-0.00228867,0.00462930,0.00007513,0.00013362,-0.00046011,0.00009896
 ,0.00008159,0.00022057,-0.00017332,-0.00013338,-0.00035396,0.00000706,
 0.00008505,0.00004745,0.00000871,0.00005722,-0.00003331,-0.00000982,-0
 .00000546,-0.00001091,-0.00011887,0.00020985,0.00011157,0.00001425,-0.
 00017594,0.00008674,0.00002939,-0.00003219,-0.00005839,-0.00019684,-0.
 00009980,-0.00004433,0.00014673,0.00006814,-0.00023600,0.00000981,-0.0
 0011697,0.00007136,0.00001213,0.00002816,-0.00005016,0.00000237,0.0000
 0099,0.00000863,0.00000086,0.00000351,0.00000904,0.00002239,0.00002093
 ,-0.00005425,0.00025948,-0.00005271,0.00004560,0.00159001,0.00033908,-
 0.00001540,0.00025017,0.00004316,0.00002976,0.00000564,-0.00001910,0.0
 0000404,0.00002367,-0.00003898,-0.00000589,-0.00002252,0.00000316,-0.0
 0000357,0.00000810,0.00002554,-0.00000945,-0.00015256,0.00003004,0.000
 00066,-0.00071809,-0.00023819,-0.00007514,-0.00017798,-0.00003325,0.00
 014246,-0.00042306,0.00049603,-0.00125807,-0.00052809,0.00257749,-0.00
 214991,-0.05463081,-0.01089450,0.06773652\\0.00887795,-0.01297825,-0.0
 0859091,-0.01369912,0.01224115,-0.00187807,0.03189770,-0.02554587,0.04
 657800,-0.01533255,0.00329725,0.01918658,0.00269052,-0.00942884,-0.029
 62385,0.01612887,0.02103098,0.02110560,-0.03094393,0.01044494,-0.01856
 521,0.01315263,-0.00161949,0.01512981,0.00287348,0.00780614,0.01313370
 ,-0.00015096,0.02179545,-0.00562400,0.00620258,-0.03363810,0.00558967,
 -0.01194174,0.00693495,0.00316664,0.00843173,-0.01027830,0.00937774,-0
 .03533008,0.01332633,-0.05509456,0.00829429,-0.00588771,0.00289313,-0.
 00497593,-0.00548019,0.00195232,0.00266895,0.02897637,0.00618861,-0.00
 321162,-0.02881819,0.01405337,0.01160779,0.02198485,-0.01261168,-0.010
 97350,0.00140640,0.00247438,0.01274145,0.01580215,-0.01102931,-0.01062
 606,-0.01939790,0.02695469,0.02707402,-0.02888761,-0.00835463,-0.01318
 110,-0.00648917,0.01594750,0.00470727,0.03587062,-0.00564954,-0.031719
 73,-0.01923107,0.00573809,0.01418397,0.02553621,0.01371513,0.00935874,
 -0.00074425,-0.03604203,0.00834798,-0.01450518,0.01287542,-0.00186196,
 -0.00436006,0.00067653,-0.02079299,-0.00274631,0.00006298,0.01750386,0
 .00498829,-0.00002364,-0.02049701,-0.00599183,-0.00190801,0.01861744,0
 .00285717,0.00516140,-0.02477632,0.00195208,0.00217835,-0.00475369,-0.
 00386419,-0.01803572,0.02231200,-0.00473600,-0.00304780,-0.00076587,0.
 00219347,-0.00144150,0.00071702,0.00463809,-0.01809498,-0.02104615,-0.
 00259136,0.00210712,0.02047479,0.00299080,-0.00204002,-0.02066306,0.00
 033831,0.00137490,0.02445855,0.00437009,-0.00625945,-0.01574581,-0.006
 60219,-0.00205177,0.01966560,0.00304001,-0.00165497\\\@


 THE ONLY TROUBLE WITH A SURE THING IS THE UNCERTAINTY.
     -- FROM A TEABAG (BELONGING TO W.H.?)
 Job cpu time:  3 days 22 hours 22 minutes 56.0 seconds.
 File lengths (MBytes):  RWF=   2351 Int=      0 D2E=      0 Chk=     43 Scr=      1
 Normal termination of Gaussian 09 at Fri Feb 12 12:18:58 2016.
Gaussian '09 finished on node004 at Fri Feb 12 12:18:58 EST 2016.
