Gaussian '09 started on node020 at Tue Mar  1 03:25:17 EST 2016.
 Entering Gaussian System, Link 0=/usr/local/gaussian/g09/g09
 Initial command:
 /usr/local/gaussian/g09/l1.exe /home/srmcgrat/thesis/gaussian/cellobiose/450/6000/2/gdp/gaussian10543/Gau-10579.inp -scrdir=/home/srmcgrat/thesis/gaussian/cellobiose/450/6000/2/gdp/gaussian10543/
 Entering Link 1 = /usr/local/gaussian/g09/l1.exe PID=     10581.
  
 Copyright (c) 1988,1990,1992,1993,1995,1998,2003,2009,2010,
            Gaussian, Inc.  All Rights Reserved.
  
 This is part of the Gaussian(R) 09 program.  It is based on
 the Gaussian(R) 03 system (copyright 2003, Gaussian, Inc.),
 the Gaussian(R) 98 system (copyright 1998, Gaussian, Inc.),
 the Gaussian(R) 94 system (copyright 1995, Gaussian, Inc.),
 the Gaussian 92(TM) system (copyright 1992, Gaussian, Inc.),
 the Gaussian 90(TM) system (copyright 1990, Gaussian, Inc.),
 the Gaussian 88(TM) system (copyright 1988, Gaussian, Inc.),
 the Gaussian 86(TM) system (copyright 1986, Carnegie Mellon
 University), and the Gaussian 82(TM) system (copyright 1983,
 Carnegie Mellon University). Gaussian is a federally registered
 trademark of Gaussian, Inc.
  
 This software contains proprietary and confidential information,
 including trade secrets, belonging to Gaussian, Inc.
  
 This software is provided under written license and may be
 used, copied, transmitted, or stored only in accord with that
 written license.
  
 The following legend is applicable only to US Government
 contracts under FAR:
  
                    RESTRICTED RIGHTS LEGEND
  
 Use, reproduction and disclosure by the US Government is
 subject to restrictions as set forth in subparagraphs (a)
 and (c) of the Commercial Computer Software - Restricted
 Rights clause in FAR 52.227-19.
  
 Gaussian, Inc.
 340 Quinnipiac St., Bldg. 40, Wallingford CT 06492
  
  
 ---------------------------------------------------------------
 Warning -- This program may not be used in any manner that
 competes with the business of Gaussian, Inc. or will provide
 assistance to any competitor of Gaussian, Inc.  The licensee
 of this program is prohibited from giving any competitor of
 Gaussian, Inc. access to this program.  By using this program,
 the user acknowledges that Gaussian, Inc. is engaged in the
 business of creating and licensing software in the field of
 computational chemistry and represents and warrants to the
 licensee that it is not a competitor of Gaussian, Inc. and that
 it will not use this program in any manner prohibited above.
 ---------------------------------------------------------------
  

 Cite this work as:
 Gaussian 09, Revision B.01,
 M. J. Frisch, G. W. Trucks, H. B. Schlegel, G. E. Scuseria, 
 M. A. Robb, J. R. Cheeseman, G. Scalmani, V. Barone, B. Mennucci, 
 G. A. Petersson, H. Nakatsuji, M. Caricato, X. Li, H. P. Hratchian, 
 A. F. Izmaylov, J. Bloino, G. Zheng, J. L. Sonnenberg, M. Hada, 
 M. Ehara, K. Toyota, R. Fukuda, J. Hasegawa, M. Ishida, T. Nakajima, 
 Y. Honda, O. Kitao, H. Nakai, T. Vreven, J. A. Montgomery, Jr., 
 J. E. Peralta, F. Ogliaro, M. Bearpark, J. J. Heyd, E. Brothers, 
 K. N. Kudin, V. N. Staroverov, T. Keith, R. Kobayashi, J. Normand, 
 K. Raghavachari, A. Rendell, J. C. Burant, S. S. Iyengar, J. Tomasi, 
 M. Cossi, N. Rega, J. M. Millam, M. Klene, J. E. Knox, J. B. Cross, 
 V. Bakken, C. Adamo, J. Jaramillo, R. Gomperts, R. E. Stratmann, 
 O. Yazyev, A. J. Austin, R. Cammi, C. Pomelli, J. W. Ochterski, 
 R. L. Martin, K. Morokuma, V. G. Zakrzewski, G. A. Voth, 
 P. Salvador, J. J. Dannenberg, S. Dapprich, A. D. Daniels, 
 O. Farkas, J. B. Foresman, J. V. Ortiz, J. Cioslowski, 
 and D. J. Fox, Gaussian, Inc., Wallingford CT, 2010.
 
 ******************************************
 Gaussian 09:  EM64L-G09RevB.01 12-Aug-2010
                 1-Mar-2016 
 ******************************************
 ------------------------------------------------
 # freq=raman b3lyp/6-31+g(d,p) geom=connectivity
 ------------------------------------------------
 1/10=4,30=1,38=1,57=2/1,3;
 2/12=2,17=6,18=5,40=1/2;
 3/5=1,6=6,7=111,11=2,16=1,25=1,30=1,71=2,74=-5/1,2,3;
 4//1;
 5/5=2,38=5,98=1/2;
 8/6=4,10=90,11=11/1;
 10/13=10,15=4/2;
 11/6=3,8=1,9=11,15=111,16=1/1,2,10;
 10/6=1/2;
 6/7=2,8=2,9=2,10=2,18=1,28=1/1;
 7/8=1,10=1,25=1/1,2,3,16;
 1/10=4,30=1/3;
 99//99;
 ------------
 450 6000.com
 ------------
 Symbolic Z-matrix:
 Charge =  0 Multiplicity = 1
 O                     10.49     8.024     22.115 
 C                     11.208    7.733     23.322 
 C                     11.742    9.076     23.793 
 O                     12.895    9.321     22.974 
 H                     12.578    9.347     22.026 
 C                     12.104    9.141     25.268 
 O                     11.836    10.504    25.629 
 H                     12.327    11.289    25.253 
 C                     10.123    5.703     24.059 
 O                     9.335     4.706     24.725 
 H                     9.327     3.882     24.158 
 C                     10.33     7.164     24.425 
 O                     11.094    7.021     25.631 
 C                     11.262    8.316     26.227 
 O                     11.952    7.884     27.409 
 C                     11.024    8.092     28.483 
 C                     10.307    6.833     28.944 
 O                     9.623     6.067     27.942 
 H                     10.029    6.327     27.067 
 C                     9.516     7.006     30.23 
 O                     8.845     5.789     30.586 
 H                     8.1       5.672     29.929 
 C                     12.349    10.022    29.531 
 O                     13.094    10.811    30.47 
 H                     13.967    10.358    30.647 
 C                     11.828    8.601     29.669 
 O                     11.021    8.836     30.832 
 C                     10.524    7.55      31.23 
 O                     9.783     7.917     32.403 
 H                     10.3929   8.13837   33.11054 
 H                     11.11332   8.19512   21.40522 
 H                     9.74303   5.72533   23.05899 
 H                     11.10945   5.28998   24.024 
 H                     9.41279   7.69754   24.5627 
 H                     12.01952   7.06669   23.11617 
 H                     11.00867   9.8276    23.58753 
 H                     13.14237   8.92166   25.4043 
 H                     10.32313   8.77778   26.45104 
 H                     12.12887   10.50283   28.60082 
 H                     12.56913   9.54117   30.46118 
 H                     12.62853   7.92931   29.89897 
 H                     10.30375   8.8294    28.196 
 H                     11.1109   6.18926   29.23426 
 H                     8.77223   7.75755   30.06605 
 H                     11.30901   6.85579   31.44618 
 

 GradGradGradGradGradGradGradGradGradGradGradGradGradGradGradGradGradGrad
 Berny optimization.
 Initialization pass.
 Trust Radius=3.00D-01 FncErr=1.00D-07 GrdErr=1.00D-07
 Number of steps in this run=      2 maximum allowed number of steps=      2.
 GradGradGradGradGradGradGradGradGradGradGradGradGradGradGradGradGradGrad

                          Input orientation:                          
 ---------------------------------------------------------------------
 Center     Atomic      Atomic             Coordinates (Angstroms)
 Number     Number       Type             X           Y           Z
 ---------------------------------------------------------------------
      1          8           0       10.490000    8.024000   22.115000
      2          6           0       11.208000    7.733000   23.322000
      3          6           0       11.742000    9.076000   23.793000
      4          8           0       12.895000    9.321000   22.974000
      5          1           0       12.578000    9.347000   22.026000
      6          6           0       12.104000    9.141000   25.268000
      7          8           0       11.836000   10.504000   25.629000
      8          1           0       12.327000   11.289000   25.253000
      9          6           0       10.123000    5.703000   24.059000
     10          8           0        9.335000    4.706000   24.725000
     11          1           0        9.327000    3.882000   24.158000
     12          6           0       10.330000    7.164000   24.425000
     13          8           0       11.094000    7.021000   25.631000
     14          6           0       11.262000    8.316000   26.227000
     15          8           0       11.952000    7.884000   27.409000
     16          6           0       11.024000    8.092000   28.483000
     17          6           0       10.307000    6.833000   28.944000
     18          8           0        9.623000    6.067000   27.942000
     19          1           0       10.029000    6.327000   27.067000
     20          6           0        9.516000    7.006000   30.230000
     21          8           0        8.845000    5.789000   30.586000
     22          1           0        8.100000    5.672000   29.929000
     23          6           0       12.349000   10.022000   29.531000
     24          8           0       13.094000   10.811000   30.470000
     25          1           0       13.967000   10.358000   30.647000
     26          6           0       11.828000    8.601000   29.669000
     27          8           0       11.021000    8.836000   30.832000
     28          6           0       10.524000    7.550000   31.230000
     29          8           0        9.783000    7.917000   32.403000
     30          1           0       10.392901    8.138371   33.110542
     31          1           0       11.113320    8.195124   21.405220
     32          1           0        9.743034    5.725325   23.058986
     33          1           0       11.109452    5.289978   24.023996
     34          1           0        9.412789    7.697538   24.562697
     35          1           0       12.019518    7.066688   23.116170
     36          1           0       11.008668    9.827604   23.587535
     37          1           0       13.142370    8.921663   25.404305
     38          1           0       10.323134    8.777776   26.451038
     39          1           0       12.128866   10.502832   28.600816
     40          1           0       12.569134    9.541168   30.461184
     41          1           0       12.628533    7.929315   29.898970
     42          1           0       10.303745    8.829402   28.195996
     43          1           0       11.110901    6.189265   29.234256
     44          1           0        8.772235    7.757554   30.066051
     45          1           0       11.309012    6.855792   31.446176
 ---------------------------------------------------------------------
                    Distance matrix (angstroms):
                    1          2          3          4          5
     1  O    0.000000
     2  C    1.434243   0.000000
     3  C    2.343052   1.520081   0.000000
     4  O    2.864283   2.342822   1.435338   0.000000
     5  H    2.473458   2.482239   1.973481   0.999934   0.000000
     6  C    3.714040   2.563629   1.520162   2.433211   3.282937
     7  O    4.506696   3.659928   2.327857   3.093541   3.856270
     8  H    4.886905   4.198340   2.714994   3.064227   3.774638
     9  C    3.049732   2.416877   3.750873   4.685204   4.841369
    10  O    4.376671   3.826130   5.075350   6.085871   6.272203
    11  H    4.762623   4.366607   5.739607   6.611747   6.706762
    12  C    2.470081   1.520281   2.459454   3.652023   3.946415
    13  O    3.705817   2.418971   2.832168   3.948829   4.539665
    14  C    4.194019   2.963415   2.594678   3.776072   4.521418
    15  O    5.493949   4.156911   3.813190   4.756411   5.613282
    16  C    6.390712   5.176742   4.845604   5.946441   6.758904
    17  C    6.934494   5.764433   5.798541   6.966261   7.703010
    18  O    6.207694   5.160638   5.546029   6.780525   7.381699
    19  H    5.254963   4.170360   4.605480   5.825001   6.405426
    20  C    8.236396   7.149256   7.118634   8.332251   9.064311
    21  O    8.913983   7.882170   8.083429   9.317729   9.993410
    22  H    8.503094   7.586820   7.905813   9.202133   9.798751
    23  C    7.902211   6.715138   5.847051   6.616930   7.538773
    24  O    9.184455   8.007808   7.029969   7.645241   8.585493
    25  H    9.504321   8.255806   7.319253   7.816616   8.790511
    26  C    7.693250   6.436011   5.895795   6.817618   7.715858
    27  O    8.770826   7.592870   7.079898   8.092914   8.957176
    28  C    9.127380   7.939635   7.689029   8.770383   9.600091
    29  O   10.312819   9.193968   8.905788  10.028051  10.841543
    30  H   10.996565   9.830781   9.461279  10.507549  11.362329
    31  H    0.960000   1.973973   2.621579   2.627366   1.964045
    32  H    2.594798   2.499212   3.970096   4.782363   4.713876
    33  H    3.391587   2.543790   3.845444   4.532087   4.754792
    34  H    2.694101   2.182515   2.813862   4.157569   4.378826
    35  H    2.063544   1.070000   2.138329   2.422520   2.588474
    36  H    2.385448   2.120756   1.070000   2.047272   2.265430
    37  H    4.319767   3.080698   2.140364   2.475286   3.451430
    38  H    4.404231   3.415469   3.027753   4.358828   4.998940
    39  H    7.134164   6.032070   5.029971   5.800409   6.690731
    40  H    8.734036   7.489333   6.735370   7.497505   8.437423
    41  H    8.072947   6.731492   6.275643   7.068451   7.999752
    42  H    6.136927   5.076968   4.638508   5.850257   6.596134
    43  H    7.378047   6.111245   6.191833   7.223682   8.005163
    44  H    8.138853   7.170480   7.064629   8.350973   9.036184
    45  H    9.439615   8.172021   7.980470   8.964952   9.826299
                    6          7          8          9         10
     6  C    0.000000
     7  O    1.435240   0.000000
     8  H    2.159597   0.999341   0.000000
     9  C    4.147998   5.333748   6.122634   0.000000
    10  O    5.256561   6.378795   7.250292   1.434751   0.000000
    11  H    6.049869   7.232552   8.066144   1.989839   1.000264
    12  C    2.786800   3.856586   4.657168   1.520305   2.668668
    13  O    2.376188   3.561160   4.458587   2.269614   3.045348
    14  C    1.519628   2.339749   3.304789   3.581245   4.359063
    15  O    2.487375   3.169583   4.047590   4.395964   4.914492
    16  C    3.550074   3.823925   4.727739   5.107925   5.332943
    17  C    4.697771   5.177191   6.128606   5.017368   4.823782
    18  O    4.770232   5.471225   6.466191   3.931944   3.504904
    19  H    3.932000   4.772884   5.761323   3.073479   2.931594
    20  C    5.989776   6.227970   7.142572   6.336205   5.968902
    21  O    7.080827   7.466536   8.415178   6.651497   5.980327
    22  H    7.056267   7.469667   8.442938   6.208896   5.435071
    23  C    4.359972   3.964984   4.461733   7.317897   7.774425
    24  O    5.552459   5.011197   5.294701   8.718912   9.187281
    25  H    5.821125   5.453696   5.714158   8.935721   9.405882
    26  C    4.442587   4.465767   5.193785   6.540453   6.769727
    27  O    5.676620   5.524279   6.232823   7.516357   7.562734
    28  C    6.369704   6.466735   7.277050   7.415892   7.198408
    29  O    7.602200   7.536210   8.304506   8.639429   8.334441
    30  H    8.089412   7.978233   8.683788   9.377328   9.122370
    31  H    4.098439   4.867597   5.084339   3.772793   5.133941
    32  H    4.703269   5.815601   6.514987   1.070000   1.995274
    33  H    4.167378   5.503629   6.243488   1.070000   1.995274
    34  H    3.134271   3.858132   4.676296   2.176302   2.996947
    35  H    2.990030   4.261820   4.742205   2.518998   3.920181
    36  H    2.120175   2.304251   2.578266   4.244884   5.506888
    37  H    1.070000   2.064190   2.508387   4.613701   5.720956
    38  H    2.168639   2.438106   3.428851   3.900788   4.531553
    39  H    3.600398   2.986212   3.444589   6.905793   7.512050
    40  H    5.229306   4.981418   5.498975   7.855130   8.169595
    41  H    4.815516   5.048738   5.741380   6.733455   6.928714
    42  H    3.451256   3.426595   4.336405   5.188621   5.476196
    43  H    5.042834   5.669266   6.583054   5.291094   5.068263
    44  H    6.002989   6.051202   6.947872   6.490796   6.177015
    45  H    6.635061   6.886702   7.684078   7.570067   7.327519
                   11         12         13         14         15
    11  H    0.000000
    12  C    3.442212   0.000000
    13  O    3.891701   1.434776   0.000000
    14  C    5.261686   2.333009   1.435432   0.000000
    15  O    5.785813   3.471821   2.154580   1.435217   0.000000
    16  C    6.269732   4.220211   3.047268   2.279552   1.434547
    17  C    5.707416   4.531164   3.410379   3.239352   2.483315
    18  O    4.379554   3.751339   2.900806   3.268875   3.001636
    19  H    3.864338   2.787711   1.917800   2.486365   2.497827
    20  C    6.831126   5.863922   4.862212   4.559454   3.829232
    21  O    6.722214   6.484888   5.579234   5.588247   4.912820
    22  H    6.165555   6.123151   5.408941   5.540197   5.106980
    23  C    8.700644   6.189973   5.078487   3.874070   3.038344
    24  O   10.101617   7.581710   6.463747   5.252076   4.386481
    25  H   10.274984   7.883063   6.674575   5.569846   4.545937
    26  C    7.674313   5.639903   4.397795   3.499849   2.374250
    27  O    8.482572   6.657531   5.509079   4.640529   3.672873
    28  C    8.056067   6.818699   5.652746   5.114822   4.092772
    29  O    9.190712   8.032104   6.955683   6.363145   5.444785
    30  H    9.969997   8.740251   7.594972   6.940463   5.916339
    31  H    5.419573   3.285709   4.385905   4.825586   6.070054
    32  H    2.186038   2.068891   3.181059   4.365222   5.334982
    33  H    2.275411   2.068891   2.362020   3.746105   4.347078
    34  H    3.837899   1.070000   2.103675   2.563588   3.818875
    35  H    4.298523   2.139387   2.680120   3.436841   4.370463
    36  H    6.205130   2.873451   3.472759   3.052196   4.389882
    37  H    6.442712   3.458012   2.803521   2.139964   2.551966
    38  H    5.497175   2.590203   2.086375   1.070000   2.090390
    39  H    8.451301   5.641024   4.691898   3.341959   2.882705
    40  H    9.070157   6.862956   5.644284   4.597603   3.527448
    41  H    7.761418   5.986092   4.625515   3.937042   2.580639
    42  H    6.460358   4.122458   3.236359   2.249173   2.056670
    43  H    5.854413   4.968789   3.698043   3.686384   2.628904
    44  H    7.087507   5.882211   5.059920   4.609676   4.145699
    45  H    8.117224   7.095799   5.821494   5.419798   4.215381
                   16         17         18         19         20
    16  C    0.000000
    17  C    1.520425   0.000000
    18  O    2.521132   1.434788   0.000000
    19  H    2.471903   1.963784   0.999030   0.000000
    20  C    2.550582   1.519673   2.475503   3.275481   0.000000
    21  O    3.804531   2.433833   2.770073   3.751621   1.434596
    22  H    4.061661   2.681230   2.534506   3.512992   1.968556
    23  C    2.564923   3.831978   5.059449   5.010661   4.196516
    24  O    3.952977   5.091221   6.398762   6.409438   5.228548
    25  H    4.298709   5.359238   6.678326   6.676317   5.587593
    26  C    1.520557   2.442312   3.776997   3.895880   2.864278
    27  O    2.464010   2.843651   4.239560   4.631886   2.444653
    28  C    2.844253   2.405613   3.717800   4.367073   1.520526
    29  O    4.115472   3.662556   4.832041   5.573286   2.371316
    30  H    4.670608   4.367086   5.621134   6.319643   3.216946
    31  H    7.079095   7.703165   7.034164   6.059818   9.046668
    32  H    6.054911   6.014847   4.896424   4.062999   7.288011
    33  H    5.267005   5.218360   4.261931   3.391558   6.633122
    34  H    4.256804   4.554433   3.757996   2.920552   5.710272
    35  H    5.553844   6.078728   5.480083   4.485349   7.541741
    36  H    5.194048   6.176707   5.918073   5.031963   7.369657
    37  H    3.828080   4.993124   5.193743   4.380629   6.333061
    38  H    2.256185   3.161846   3.171980   2.544057   4.251024
    39  H    2.654566   4.111525   5.137120   4.919309   4.659307
    40  H    2.898403   3.840999   5.205366   5.320117   3.975192
    41  H    2.146151   2.739231   4.041185   4.164737   3.263427
    42  H    1.070000   2.131934   2.856360   2.759009   2.842976
    43  H    2.047520   1.070000   1.974519   2.426207   2.049944
    44  H    2.772788   2.114073   2.844885   3.552500   1.070000
    45  H    3.223329   2.695446   3.967881   4.592955   2.171759
                   21         22         23         24         25
    21  O    0.000000
    22  H    1.000181   0.000000
    23  C    5.595474   6.093842   0.000000
    24  O    6.579357   7.186239   1.435015   0.000000
    25  H    6.863991   7.542931   1.994060   0.999333   0.000000
    26  C    4.200776   4.748118   1.519778   2.669917   2.935788
    27  O    3.752293   4.399835   2.205171   2.886000   3.321088
    28  C    2.516922   3.330955   3.511127   4.220974   4.480960
    29  O    2.951223   3.740747   4.389051   4.803587   5.152463
    30  H    3.780060   4.632773   4.493050   4.627239   4.875446
    31  H    9.758147   9.386218   8.419780   9.640340   9.911207
    32  H    7.580663   7.063957   8.193866   9.592507   9.842841
    33  H    6.959645   6.638660   7.365840   8.716139   8.815589
    34  H    6.343901   5.884168   6.221615   7.625037   8.052183
    35  H    8.216350   7.982633   7.070536   8.321851   8.446231
    36  H    8.364825   8.120565   6.095823   7.258375   7.672620
    37  H    7.425021   7.513899   4.343937   5.406774   5.498085
    38  H    5.311833   5.165693   3.890809   5.288076   5.777626
    39  H    6.078235   6.429056   1.070000   2.126100   2.754375
    40  H    5.288055   5.935221   1.070000   1.374058   1.629653
    41  H    4.400918   5.060038   2.143099   2.974365   2.872204
    42  H    4.133292   4.222438   2.718013   4.108935   4.665134
    43  H    2.668657   3.133011   4.038664   5.178820   5.247047
    44  H    2.037363   2.195500   4.266995   5.307011   5.838271
    45  H    2.819451   3.741784   3.843741   4.447783   4.468673
                   26         27         28         29         30
    26  C    0.000000
    27  O    1.434937   0.000000
    28  C    2.289484   1.434994   0.000000
    29  O    3.482045   2.201192   1.435165   0.000000
    30  H    3.757359   2.464335   1.974792   0.960000   0.000000
    31  H    8.304551   9.448991   9.863559  11.081439  11.727608
    32  H    7.503924   8.469311   8.408615   9.597689  10.357552
    33  H    6.583711   7.676654   7.574757   8.880790   9.549455
    34  H    5.720474   6.571652   6.760879   7.852106   8.615138
    35  H    6.732783   7.978818   8.264648   9.590112  10.182429
    36  H    6.257802   7.312025   7.989346   9.103027   9.691251
    37  H    4.474150   5.828158   6.532691   7.827928   8.219442
    38  H    3.556845   4.436579   4.938244   6.038090   6.690493
    39  H    2.201931   2.997311   4.267015   5.161997   5.379765
    40  H    1.435532   1.741117   2.956079   3.764455   3.704447
    41  H    1.070000   2.068039   2.518845   3.790432   3.918667
    42  H    2.131962   2.731852   3.300085   4.336189   4.963692
    43  H    2.553370   3.092907   2.485769   3.845689   4.397741
    44  H    3.194801   2.608959   2.113418   2.551156   3.469943
    45  H    2.544298   2.093176   1.070000   2.090547   2.292244
                   31         32         33         34         35
    31  H    0.000000
    32  H    3.273001   0.000000
    33  H    3.911250   1.728546   0.000000
    34  H    3.620644   2.501965   2.994196   0.000000
    35  H    2.240963   2.642897   2.192958   3.047204   0.000000
    36  H    2.727351   4.325492   4.559682   2.834599   2.977694
    37  H    4.542861   5.222316   4.384877   4.014544   3.152347
    38  H    5.140444   4.599999   4.321292   2.358278   4.114230
    39  H    7.624530   7.696015   7.011443   5.617220   6.473051
    40  H    9.270476   8.794318   7.851158   6.939282   7.770094
    41  H    8.631936   7.743968   6.617327   6.234624   6.864502
    42  H    6.868214   6.028147   5.530123   3.908424   5.644082
    43  H    8.081911   6.341944   5.287299   5.194414   6.247114
    44  H    8.982325   7.360120   6.932384   5.540832   7.702142
    45  H   10.131777   8.606695   7.588172   7.189331   8.362912
                   36         37         38         39         40
    36  H    0.000000
    37  H    2.945177   0.000000
    38  H    3.125980   3.010722   0.000000
    39  H    5.181097   3.707421   3.295152   0.000000
    40  H    7.054371   5.126833   4.659244   2.140000   0.000000
    41  H    6.786875   4.631501   4.233554   2.925382   1.708123
    42  H    4.767728   3.982442   1.745828   2.509046   3.281719
    43  H    6.718141   5.124588   3.881658   4.477093   3.855782
    44  H    7.159463   6.495007   4.063799   4.577164   4.213533
    45  H    8.407146   6.643285   5.442185   4.697779   3.125598
                   41         42         43         44         45
    41  H    0.000000
    42  H    3.019092   0.000000
    43  H    2.402670   2.949544   0.000000
    44  H    3.863736   2.644143   2.936115   0.000000
    45  H    2.299442   3.933112   2.318641   3.025419   0.000000
 Stoichiometry    C12H22O11
 Framework group  C1[X(C12H22O11)]
 Deg. of freedom   129
 Full point group                 C1      NOp   1
 Largest Abelian subgroup         C1      NOp   1
 Largest concise Abelian subgroup C1      NOp   1
                         Standard orientation:                         
 ---------------------------------------------------------------------
 Center     Atomic      Atomic             Coordinates (Angstroms)
 Number     Number       Type             X           Y           Z
 ---------------------------------------------------------------------
      1          8           0        5.027192    0.237995    0.817215
      2          6           0        3.878699    0.050494   -0.021153
      3          6           0        3.398306   -1.359251    0.282962
      4          8           0        4.280475   -2.216055   -0.457214
      5          1           0        5.204976   -2.045553   -0.116486
      6          6           0        1.948008   -1.635096   -0.079585
      7          8           0        1.525595   -2.597972    0.897323
      8          1           0        1.905812   -3.518827    0.975704
      9          6           0        3.141947    2.327618   -0.357600
     10          8           0        2.460608    3.590094   -0.336615
     11          1           0        3.053008    4.273514   -0.763850
     12          6           0        2.741539    1.010884    0.288318
     13          8           0        1.592056    0.675938   -0.502303
     14          6           0        0.965273   -0.484867    0.063507
     15          8           0       -0.155384   -0.540766   -0.831397
     16          6           0       -1.292615   -0.186259   -0.032051
     17          6           0       -1.756258    1.251375   -0.205073
     18          8           0       -0.774957    2.281112   -0.017177
     19          1           0        0.115000    1.843052   -0.136094
     20          6           0       -3.095055    1.553508    0.447418
     21          8           0       -3.452436    2.931315    0.268557
     22          1           0       -2.840688    3.462532    0.855018
     23          6           0       -2.317647   -2.537052   -0.075753
     24          8           0       -3.232991   -3.620133   -0.295632
     25          1           0       -3.338892   -3.754706   -1.280183
     26          6           0       -2.441262   -1.076885   -0.478691
     27          8           0       -3.660455   -0.815021    0.231266
     28          6           0       -4.046355    0.518502   -0.132058
     29          8           0       -5.275704    0.634365    0.599361
     30          1           0       -5.949934    0.095224    0.179432
     31          1           0        5.769148   -0.254249    0.458331
     32          1           0        4.114440    2.537906    0.036020
     33          1           0        3.253399    2.097027   -1.396497
     34          1           0        2.528065    1.102105    1.332831
     35          1           0        4.157810    0.129337   -1.051095
     36          1           0        3.531573   -1.548913    1.327552
     37          1           0        1.885466   -2.055527   -1.061535
     38          1           0        0.666686   -0.323349    1.078227
     39          1           0       -1.419858   -2.794233    0.446484
     40          1           0       -3.215437   -2.279870   -0.597990
     41          1           0       -2.597346   -0.991493   -1.533796
     42          1           0       -1.076715   -0.371070    0.999516
     43          1           0       -1.973187    1.311408   -1.251131
     44          1           0       -3.003860    1.369501    1.497526
     45          1           0       -4.188921    0.631376   -1.186494
 ---------------------------------------------------------------------
 Rotational constants (GHZ):      0.3838146      0.1521625      0.1131036
 Standard basis: 6-31+G(d,p) (6D, 7F)
 There are   547 symmetry adapted basis functions of A   symmetry.
 Integral buffers will be    131072 words long.
 Raffenetti 2 integral format.
 Two-electron integral symmetry is turned on.
   547 basis functions,   890 primitive gaussians,   547 cartesian basis functions
    91 alpha electrons       91 beta electrons
       nuclear repulsion energy      2289.3752100832 Hartrees.
 NAtoms=   45 NActive=   45 NUniq=   45 SFac= 1.00D+00 NAtFMM=   50 NAOKFM=F Big=F
 One-electron integrals computed using PRISM.
 NBasis=   547 RedAO= T  NBF=   547
 NBsUse=   547 1.00D-06 NBFU=   547
 Harris functional with IExCor=  402 diagonalized for initial guess.
 ExpMin= 4.38D-02 ExpMax= 5.48D+03 ExpMxC= 8.25D+02 IAcc=2 IRadAn=         0 AccDes= 0.00D+00
 HarFok:  IExCor=  402 AccDes= 0.00D+00 IRadAn=         0 IDoV= 1
 ScaDFX=  1.000000  1.000000  1.000000  1.000000
 FoFCou: FMM=F IPFlag=           0 FMFlag=      100000 FMFlg1=           0
         NFxFlg=           0 DoJE=T BraDBF=F KetDBF=T FulRan=T
         Omega=  0.000000  0.000000  1.000000  0.000000  0.000000 ICntrl=     500 IOpCl=  0
         NMat0=    1 NMatS0=    1 NMatT0=    0 NMatD0=    1 NMtDS0=    0 NMtDT0=    0
         I1Cent=           4 NGrid=           0.
 Petite list used in FoFCou.
 Initial guess orbital symmetries:
       Occupied  (A) (A) (A) (A) (A) (A) (A) (A) (A) (A) (A) (A)
                 (A) (A) (A) (A) (A) (A) (A) (A) (A) (A) (A) (A)
                 (A) (A) (A) (A) (A) (A) (A) (A) (A) (A) (A) (A)
                 (A) (A) (A) (A) (A) (A) (A) (A) (A) (A) (A) (A)
                 (A) (A) (A) (A) (A) (A) (A) (A) (A) (A) (A) (A)
                 (A) (A) (A) (A) (A) (A) (A) (A) (A) (A) (A) (A)
                 (A) (A) (A) (A) (A) (A) (A) (A) (A) (A) (A) (A)
                 (A) (A) (A) (A) (A) (A) (A)
       Virtual   (A) (A) (A) (A) (A) (A) (A) (A) (A) (A) (A) (A)
                 (A) (A) (A) (A) (A) (A) (A) (A) (A) (A) (A) (A)
                 (A) (A) (A) (A) (A) (A) (A) (A) (A) (A) (A) (A)
                 (A) (A) (A) (A) (A) (A) (A) (A) (A) (A) (A) (A)
                 (A) (A) (A) (A) (A) (A) (A) (A) (A) (A) (A) (A)
                 (A) (A) (A) (A) (A) (A) (A) (A) (A) (A) (A) (A)
                 (A) (A) (A) (A) (A) (A) (A) (A) (A) (A) (A) (A)
                 (A) (A) (A) (A) (A) (A) (A) (A) (A) (A) (A) (A)
                 (A) (A) (A) (A) (A) (A) (A) (A) (A) (A) (A) (A)
                 (A) (A) (A) (A) (A) (A) (A) (A) (A) (A) (A) (A)
                 (A) (A) (A) (A) (A) (A) (A) (A) (A) (A) (A) (A)
                 (A) (A) (A) (A) (A) (A) (A) (A) (A) (A) (A) (A)
                 (A) (A) (A) (A) (A) (A) (A) (A) (A) (A) (A) (A)
                 (A) (A) (A) (A) (A) (A) (A) (A) (A) (A) (A) (A)
                 (A) (A) (A) (A) (A) (A) (A) (A) (A) (A) (A) (A)
                 (A) (A) (A) (A) (A) (A) (A) (A) (A) (A) (A) (A)
                 (A) (A) (A) (A) (A) (A) (A) (A) (A) (A) (A) (A)
                 (A) (A) (A) (A) (A) (A) (A) (A) (A) (A) (A) (A)
                 (A) (A) (A) (A) (A) (A) (A) (A) (A) (A) (A) (A)
                 (A) (A) (A) (A) (A) (A) (A) (A) (A) (A) (A) (A)
                 (A) (A) (A) (A) (A) (A) (A) (A) (A) (A) (A) (A)
                 (A) (A) (A) (A) (A) (A) (A) (A) (A) (A) (A) (A)
                 (A) (A) (A) (A) (A) (A) (A) (A) (A) (A) (A) (A)
                 (A) (A) (A) (A) (A) (A) (A) (A) (A) (A) (A) (A)
                 (A) (A) (A) (A) (A) (A) (A) (A) (A) (A) (A) (A)
                 (A) (A) (A) (A) (A) (A) (A) (A) (A) (A) (A) (A)
                 (A) (A) (A) (A) (A) (A) (A) (A) (A) (A) (A) (A)
                 (A) (A) (A) (A) (A) (A) (A) (A) (A) (A) (A) (A)
                 (A) (A) (A) (A) (A) (A) (A) (A) (A) (A) (A) (A)
                 (A) (A) (A) (A) (A) (A) (A) (A) (A) (A) (A) (A)
                 (A) (A) (A) (A) (A) (A) (A) (A) (A) (A) (A) (A)
                 (A) (A) (A) (A) (A) (A) (A) (A) (A) (A) (A) (A)
                 (A) (A) (A) (A) (A) (A) (A) (A) (A) (A) (A) (A)
                 (A) (A) (A) (A) (A) (A) (A) (A) (A) (A) (A) (A)
                 (A) (A) (A) (A) (A) (A) (A) (A) (A) (A) (A) (A)
                 (A) (A) (A) (A) (A) (A) (A) (A) (A) (A) (A) (A)
                 (A) (A) (A) (A) (A) (A) (A) (A) (A) (A) (A) (A)
                 (A) (A) (A) (A) (A) (A) (A) (A) (A) (A) (A) (A)
 The electronic state of the initial guess is 1-A.
 Requested convergence on RMS density matrix=1.00D-08 within 128 cycles.
 Requested convergence on MAX density matrix=1.00D-06.
 Requested convergence on             energy=1.00D-06.
 No special actions if energy rises.
 EnCoef did     5 forward-backward iterations
 Restarting incremental Fock formation.
 SCF Done:  E(RB3LYP) =  -1297.59890536     A.U. after   23 cycles
             Convg  =    0.3667D-08             -V/T =  2.0081
 Range of M.O.s used for correlation:     1   547
 NBasis=   547 NAE=    91 NBE=    91 NFC=     0 NFV=     0
 NROrb=    547 NOA=    91 NOB=    91 NVA=   456 NVB=   456

 **** Warning!!: The largest alpha MO coefficient is  0.92603673D+02


 **** Warning!!: The smallest alpha delta epsilon is  0.90304638D-01

          Differentiating once with respect to electric field.
                with respect to dipole field.
          Electric field/nuclear overlap derivatives assumed to be zero.
          There are     3 degrees of freedom in the 1st order CPHF.  IDoFFX=0.
      3 vectors produced by pass  0 Test12= 1.38D-12 3.33D-08 XBig12= 1.66D+02 3.60D+00.
 AX will form     3 AO Fock derivatives at one time.
      3 vectors produced by pass  1 Test12= 1.38D-12 3.33D-08 XBig12= 3.75D+01 1.29D+00.
      3 vectors produced by pass  2 Test12= 1.38D-12 3.33D-08 XBig12= 1.38D+01 1.70D+00.
      3 vectors produced by pass  3 Test12= 1.38D-12 3.33D-08 XBig12= 3.68D+00 1.02D+00.
      3 vectors produced by pass  4 Test12= 1.38D-12 3.33D-08 XBig12= 1.56D+00 4.36D-01.
      3 vectors produced by pass  5 Test12= 1.38D-12 3.33D-08 XBig12= 5.18D-01 1.48D-01.
      3 vectors produced by pass  6 Test12= 1.38D-12 3.33D-08 XBig12= 1.57D-01 8.12D-02.
      3 vectors produced by pass  7 Test12= 1.38D-12 3.33D-08 XBig12= 4.01D-02 5.28D-02.
      3 vectors produced by pass  8 Test12= 1.38D-12 3.33D-08 XBig12= 7.18D-03 1.53D-02.
      3 vectors produced by pass  9 Test12= 1.38D-12 3.33D-08 XBig12= 2.03D-03 7.45D-03.
      3 vectors produced by pass 10 Test12= 1.38D-12 3.33D-08 XBig12= 4.04D-04 3.40D-03.
      3 vectors produced by pass 11 Test12= 1.38D-12 3.33D-08 XBig12= 1.09D-04 1.51D-03.
      3 vectors produced by pass 12 Test12= 1.38D-12 3.33D-08 XBig12= 1.80D-05 6.74D-04.
      3 vectors produced by pass 13 Test12= 1.38D-12 3.33D-08 XBig12= 2.31D-06 2.49D-04.
      3 vectors produced by pass 14 Test12= 1.38D-12 3.33D-08 XBig12= 5.48D-07 1.06D-04.
      3 vectors produced by pass 15 Test12= 1.38D-12 3.33D-08 XBig12= 1.06D-07 3.81D-05.
      3 vectors produced by pass 16 Test12= 1.38D-12 3.33D-08 XBig12= 2.34D-08 1.54D-05.
      3 vectors produced by pass 17 Test12= 1.38D-12 3.33D-08 XBig12= 3.35D-09 5.81D-06.
      3 vectors produced by pass 18 Test12= 1.38D-12 3.33D-08 XBig12= 4.40D-10 2.19D-06.
      3 vectors produced by pass 19 Test12= 1.38D-12 3.33D-08 XBig12= 9.41D-11 1.56D-06.
      3 vectors produced by pass 20 Test12= 1.38D-12 3.33D-08 XBig12= 3.74D-11 9.44D-07.
      3 vectors produced by pass 21 Test12= 1.38D-12 3.33D-08 XBig12= 4.29D-11 1.10D-06.
      3 vectors produced by pass 22 Test12= 1.38D-12 3.33D-08 XBig12= 1.66D-11 4.07D-07.
      2 vectors produced by pass 23 Test12= 1.38D-12 3.33D-08 XBig12= 1.10D-11 2.77D-07.
      2 vectors produced by pass 24 Test12= 1.38D-12 3.33D-08 XBig12= 2.92D-12 1.68D-07.
      1 vectors produced by pass 25 Test12= 1.38D-12 3.33D-08 XBig12= 5.62D-13 5.27D-08.
 Inverted reduced A of dimension    74 with in-core refinement.
 End of Minotr Frequency-dependent properties file   721 does not exist.
 End of Minotr Frequency-dependent properties file   722 does not exist.
 Symmetrizing basis deriv contribution to polar:
 IMax=3 JMax=2 DiffMx= 0.00D+00
 G2DrvN: will do    23 centers at a time, making    2 passes doing MaxLOS=2.
 Calling FoFCou, ICntrl=  3107 FMM=F I1Cent=   0 AccDes= 0.00D+00.
 Calling FoFCou, ICntrl=  3107 FMM=F I1Cent=   0 AccDes= 0.00D+00.
 FoFDir/FoFCou used for L=0 through L=2.
 End of G2Drv Frequency-dependent properties file   721 does not exist.
 End of G2Drv Frequency-dependent properties file   722 does not exist.
          IDoAtm=111111111111111111111111111111111111111111111
          Differentiating once with respect to electric field.
                with respect to dipole field.
          Differentiating once with respect to nuclear coordinates.
          There are   138 degrees of freedom in the 1st order CPHF.  IDoFFX=5.
 Will reuse    3 saved solutions.
    135 vectors produced by pass  0 Test12= 4.15D-14 1.00D-09 XBig12= 5.19D-01 2.15D-01.
 AX will form    68 AO Fock derivatives at one time.
    135 vectors produced by pass  1 Test12= 4.15D-14 1.00D-09 XBig12= 4.38D-02 1.86D-02.
    133 vectors produced by pass  2 Test12= 4.15D-14 1.00D-09 XBig12= 3.14D-04 2.49D-03.
    132 vectors produced by pass  3 Test12= 4.15D-14 1.00D-09 XBig12= 8.72D-07 9.04D-05.
    132 vectors produced by pass  4 Test12= 4.15D-14 1.00D-09 XBig12= 1.37D-09 2.76D-06.
    132 vectors produced by pass  5 Test12= 4.15D-14 1.00D-09 XBig12= 7.36D-12 3.19D-07.
     82 vectors produced by pass  6 Test12= 4.15D-14 1.00D-09 XBig12= 2.50D-13 3.74D-08.
      3 vectors produced by pass  7 Test12= 4.15D-14 1.00D-09 XBig12= 5.82D-16 1.51D-09.
 Inverted reduced A of dimension   884 with in-core refinement.
 Isotropic polarizability for W=    0.000000      199.53 Bohr**3.
 End of Minotr Frequency-dependent properties file   721 does not exist.
 End of Minotr Frequency-dependent properties file   722 does not exist.

 **********************************************************************

            Population analysis using the SCF density.

 **********************************************************************

 Orbital symmetries:
       Occupied  (A) (A) (A) (A) (A) (A) (A) (A) (A) (A) (A) (A)
                 (A) (A) (A) (A) (A) (A) (A) (A) (A) (A) (A) (A)
                 (A) (A) (A) (A) (A) (A) (A) (A) (A) (A) (A) (A)
                 (A) (A) (A) (A) (A) (A) (A) (A) (A) (A) (A) (A)
                 (A) (A) (A) (A) (A) (A) (A) (A) (A) (A) (A) (A)
                 (A) (A) (A) (A) (A) (A) (A) (A) (A) (A) (A) (A)
                 (A) (A) (A) (A) (A) (A) (A) (A) (A) (A) (A) (A)
                 (A) (A) (A) (A) (A) (A) (A)
       Virtual   (A) (A) (A) (A) (A) (A) (A) (A) (A) (A) (A) (A)
                 (A) (A) (A) (A) (A) (A) (A) (A) (A) (A) (A) (A)
                 (A) (A) (A) (A) (A) (A) (A) (A) (A) (A) (A) (A)
                 (A) (A) (A) (A) (A) (A) (A) (A) (A) (A) (A) (A)
                 (A) (A) (A) (A) (A) (A) (A) (A) (A) (A) (A) (A)
                 (A) (A) (A) (A) (A) (A) (A) (A) (A) (A) (A) (A)
                 (A) (A) (A) (A) (A) (A) (A) (A) (A) (A) (A) (A)
                 (A) (A) (A) (A) (A) (A) (A) (A) (A) (A) (A) (A)
                 (A) (A) (A) (A) (A) (A) (A) (A) (A) (A) (A) (A)
                 (A) (A) (A) (A) (A) (A) (A) (A) (A) (A) (A) (A)
                 (A) (A) (A) (A) (A) (A) (A) (A) (A) (A) (A) (A)
                 (A) (A) (A) (A) (A) (A) (A) (A) (A) (A) (A) (A)
                 (A) (A) (A) (A) (A) (A) (A) (A) (A) (A) (A) (A)
                 (A) (A) (A) (A) (A) (A) (A) (A) (A) (A) (A) (A)
                 (A) (A) (A) (A) (A) (A) (A) (A) (A) (A) (A) (A)
                 (A) (A) (A) (A) (A) (A) (A) (A) (A) (A) (A) (A)
                 (A) (A) (A) (A) (A) (A) (A) (A) (A) (A) (A) (A)
                 (A) (A) (A) (A) (A) (A) (A) (A) (A) (A) (A) (A)
                 (A) (A) (A) (A) (A) (A) (A) (A) (A) (A) (A) (A)
                 (A) (A) (A) (A) (A) (A) (A) (A) (A) (A) (A) (A)
                 (A) (A) (A) (A) (A) (A) (A) (A) (A) (A) (A) (A)
                 (A) (A) (A) (A) (A) (A) (A) (A) (A) (A) (A) (A)
                 (A) (A) (A) (A) (A) (A) (A) (A) (A) (A) (A) (A)
                 (A) (A) (A) (A) (A) (A) (A) (A) (A) (A) (A) (A)
                 (A) (A) (A) (A) (A) (A) (A) (A) (A) (A) (A) (A)
                 (A) (A) (A) (A) (A) (A) (A) (A) (A) (A) (A) (A)
                 (A) (A) (A) (A) (A) (A) (A) (A) (A) (A) (A) (A)
                 (A) (A) (A) (A) (A) (A) (A) (A) (A) (A) (A) (A)
                 (A) (A) (A) (A) (A) (A) (A) (A) (A) (A) (A) (A)
                 (A) (A) (A) (A) (A) (A) (A) (A) (A) (A) (A) (A)
                 (A) (A) (A) (A) (A) (A) (A) (A) (A) (A) (A) (A)
                 (A) (A) (A) (A) (A) (A) (A) (A) (A) (A) (A) (A)
                 (A) (A) (A) (A) (A) (A) (A) (A) (A) (A) (A) (A)
                 (A) (A) (A) (A) (A) (A) (A) (A) (A) (A) (A) (A)
                 (A) (A) (A) (A) (A) (A) (A) (A) (A) (A) (A) (A)
                 (A) (A) (A) (A) (A) (A) (A) (A) (A) (A) (A) (A)
                 (A) (A) (A) (A) (A) (A) (A) (A) (A) (A) (A) (A)
                 (A) (A) (A) (A) (A) (A) (A) (A) (A) (A) (A) (A)
 The electronic state is 1-A.
 Alpha  occ. eigenvalues --  -19.22556 -19.20303 -19.19812 -19.19644 -19.19471
 Alpha  occ. eigenvalues --  -19.17751 -19.17438 -19.16685 -19.15824 -19.15651
 Alpha  occ. eigenvalues --  -19.15467 -10.32058 -10.29270 -10.28979 -10.27431
 Alpha  occ. eigenvalues --  -10.27132 -10.27074 -10.27062 -10.26388 -10.24565
 Alpha  occ. eigenvalues --  -10.24384 -10.24215 -10.16757  -1.11807  -1.10122
 Alpha  occ. eigenvalues --   -1.08043  -1.07723  -1.05233  -1.04965  -1.03252
 Alpha  occ. eigenvalues --   -1.02717  -1.02340  -1.01158  -1.00271  -0.83156
 Alpha  occ. eigenvalues --   -0.81760  -0.80480  -0.79504  -0.72378  -0.71097
 Alpha  occ. eigenvalues --   -0.68148  -0.65700  -0.63869  -0.63477  -0.61655
 Alpha  occ. eigenvalues --   -0.61013  -0.57774  -0.57087  -0.56246  -0.54992
 Alpha  occ. eigenvalues --   -0.54032  -0.53937  -0.53350  -0.53083  -0.52369
 Alpha  occ. eigenvalues --   -0.51124  -0.49742  -0.49394  -0.48858  -0.48400
 Alpha  occ. eigenvalues --   -0.46921  -0.46184  -0.44701  -0.44303  -0.44239
 Alpha  occ. eigenvalues --   -0.43276  -0.41869  -0.41636  -0.40923  -0.39703
 Alpha  occ. eigenvalues --   -0.39371  -0.38086  -0.37800  -0.37271  -0.36350
 Alpha  occ. eigenvalues --   -0.35923  -0.35463  -0.34948  -0.33821  -0.33044
 Alpha  occ. eigenvalues --   -0.32972  -0.32299  -0.31415  -0.30693  -0.30094
 Alpha  occ. eigenvalues --   -0.29086  -0.28563  -0.28360  -0.27924  -0.26283
 Alpha  occ. eigenvalues --   -0.13716
 Alpha virt. eigenvalues --   -0.04685  -0.04352  -0.01542  -0.00678  -0.00213
 Alpha virt. eigenvalues --    0.00226   0.01154   0.01574   0.02087   0.02609
 Alpha virt. eigenvalues --    0.03134   0.03432   0.04422   0.05138   0.05642
 Alpha virt. eigenvalues --    0.05788   0.06137   0.06622   0.07104   0.07484
 Alpha virt. eigenvalues --    0.07840   0.08568   0.08694   0.08981   0.10172
 Alpha virt. eigenvalues --    0.10389   0.10568   0.11078   0.11198   0.11644
 Alpha virt. eigenvalues --    0.11925   0.12252   0.12297   0.12971   0.13332
 Alpha virt. eigenvalues --    0.13756   0.14137   0.14442   0.14717   0.15189
 Alpha virt. eigenvalues --    0.15259   0.15424   0.15709   0.15957   0.16430
 Alpha virt. eigenvalues --    0.16748   0.17221   0.17545   0.17765   0.18332
 Alpha virt. eigenvalues --    0.18783   0.19024   0.19341   0.19448   0.20031
 Alpha virt. eigenvalues --    0.20564   0.20630   0.20896   0.21053   0.21384
 Alpha virt. eigenvalues --    0.21809   0.22101   0.22547   0.22800   0.23206
 Alpha virt. eigenvalues --    0.23394   0.23820   0.23888   0.24410   0.24787
 Alpha virt. eigenvalues --    0.25009   0.25147   0.25375   0.25507   0.25852
 Alpha virt. eigenvalues --    0.26339   0.26495   0.26743   0.26945   0.27591
 Alpha virt. eigenvalues --    0.27778   0.27936   0.28211   0.28431   0.28807
 Alpha virt. eigenvalues --    0.29185   0.29638   0.29844   0.30477   0.30744
 Alpha virt. eigenvalues --    0.30911   0.31290   0.31785   0.31993   0.32403
 Alpha virt. eigenvalues --    0.32609   0.32708   0.33143   0.33462   0.33990
 Alpha virt. eigenvalues --    0.34459   0.34633   0.35220   0.35315   0.35758
 Alpha virt. eigenvalues --    0.36289   0.36608   0.37115   0.37262   0.37621
 Alpha virt. eigenvalues --    0.37766   0.38177   0.38797   0.38837   0.39373
 Alpha virt. eigenvalues --    0.39850   0.40267   0.40670   0.41131   0.41220
 Alpha virt. eigenvalues --    0.41806   0.42348   0.42569   0.42964   0.43333
 Alpha virt. eigenvalues --    0.44286   0.44637   0.45350   0.45649   0.46539
 Alpha virt. eigenvalues --    0.47199   0.47740   0.49061   0.49620   0.50602
 Alpha virt. eigenvalues --    0.52150   0.54017   0.54800   0.63515   0.64133
 Alpha virt. eigenvalues --    0.65993   0.66657   0.68327   0.68840   0.70651
 Alpha virt. eigenvalues --    0.71407   0.72423   0.73045   0.74720   0.75241
 Alpha virt. eigenvalues --    0.76363   0.77258   0.77659   0.78215   0.79101
 Alpha virt. eigenvalues --    0.80232   0.80724   0.82289   0.83282   0.83792
 Alpha virt. eigenvalues --    0.84110   0.86526   0.87389   0.88558   0.89184
 Alpha virt. eigenvalues --    0.90710   0.91525   0.93326   0.94819   0.95168
 Alpha virt. eigenvalues --    0.96073   0.97148   0.98207   0.99496   1.00027
 Alpha virt. eigenvalues --    1.00700   1.02218   1.02781   1.03527   1.03695
 Alpha virt. eigenvalues --    1.04341   1.04945   1.05053   1.05534   1.06176
 Alpha virt. eigenvalues --    1.06795   1.07951   1.08362   1.08870   1.10247
 Alpha virt. eigenvalues --    1.10515   1.11785   1.12234   1.13581   1.14977
 Alpha virt. eigenvalues --    1.15977   1.18199   1.18580   1.18975   1.21585
 Alpha virt. eigenvalues --    1.21948   1.22079   1.22787   1.23622   1.24367
 Alpha virt. eigenvalues --    1.24747   1.25447   1.26644   1.26894   1.27488
 Alpha virt. eigenvalues --    1.27799   1.28434   1.29325   1.30600   1.30962
 Alpha virt. eigenvalues --    1.31259   1.31495   1.31963   1.32156   1.33147
 Alpha virt. eigenvalues --    1.33755   1.34336   1.35565   1.36833   1.37271
 Alpha virt. eigenvalues --    1.37379   1.38291   1.39501   1.40559   1.41287
 Alpha virt. eigenvalues --    1.42540   1.43327   1.44270   1.46405   1.47111
 Alpha virt. eigenvalues --    1.49226   1.50012   1.50943   1.52163   1.53309
 Alpha virt. eigenvalues --    1.53500   1.54860   1.55822   1.55909   1.56964
 Alpha virt. eigenvalues --    1.57031   1.58947   1.59131   1.59423   1.59727
 Alpha virt. eigenvalues --    1.61085   1.62283   1.62798   1.63505   1.64410
 Alpha virt. eigenvalues --    1.65065   1.65565   1.66204   1.66257   1.68306
 Alpha virt. eigenvalues --    1.68834   1.69900   1.70975   1.71316   1.72616
 Alpha virt. eigenvalues --    1.73594   1.74390   1.75508   1.76997   1.77333
 Alpha virt. eigenvalues --    1.77513   1.79125   1.79439   1.81006   1.81892
 Alpha virt. eigenvalues --    1.82706   1.84390   1.84704   1.85260   1.86699
 Alpha virt. eigenvalues --    1.86895   1.88356   1.90005   1.91098   1.91232
 Alpha virt. eigenvalues --    1.91704   1.92378   1.92702   1.93174   1.94796
 Alpha virt. eigenvalues --    1.95203   1.95546   1.95810   1.98353   1.98892
 Alpha virt. eigenvalues --    1.99489   2.00215   2.00979   2.01827   2.02321
 Alpha virt. eigenvalues --    2.03784   2.04492   2.05816   2.06165   2.07153
 Alpha virt. eigenvalues --    2.08284   2.09381   2.10866   2.12432   2.12815
 Alpha virt. eigenvalues --    2.13168   2.14391   2.14824   2.16223   2.17223
 Alpha virt. eigenvalues --    2.18315   2.20304   2.21028   2.22654   2.23122
 Alpha virt. eigenvalues --    2.24093   2.26207   2.26685   2.27637   2.29359
 Alpha virt. eigenvalues --    2.30471   2.30527   2.32693   2.33338   2.34681
 Alpha virt. eigenvalues --    2.36156   2.37411   2.37741   2.38075   2.39163
 Alpha virt. eigenvalues --    2.39983   2.40399   2.41170   2.41736   2.42530
 Alpha virt. eigenvalues --    2.45470   2.46035   2.47622   2.49317   2.50482
 Alpha virt. eigenvalues --    2.51579   2.52796   2.53537   2.54263   2.55201
 Alpha virt. eigenvalues --    2.56107   2.57614   2.59507   2.60183   2.60918
 Alpha virt. eigenvalues --    2.61828   2.62225   2.63373   2.64036   2.64933
 Alpha virt. eigenvalues --    2.65524   2.66366   2.67583   2.68171   2.70016
 Alpha virt. eigenvalues --    2.70585   2.71790   2.72918   2.73511   2.74255
 Alpha virt. eigenvalues --    2.76120   2.76651   2.77930   2.79553   2.81167
 Alpha virt. eigenvalues --    2.81455   2.82232   2.83204   2.85374   2.85501
 Alpha virt. eigenvalues --    2.86255   2.86709   2.88276   2.89176   2.90146
 Alpha virt. eigenvalues --    2.91548   2.92117   2.92598   2.93047   2.94267
 Alpha virt. eigenvalues --    2.95945   2.96366   2.97973   2.99361   3.00608
 Alpha virt. eigenvalues --    3.02386   3.03096   3.04415   3.05259   3.06581
 Alpha virt. eigenvalues --    3.08204   3.09005   3.10134   3.11424   3.13726
 Alpha virt. eigenvalues --    3.15944   3.19292   3.21553   3.23155   3.26153
 Alpha virt. eigenvalues --    3.30765   3.38026   3.38864   3.40318   3.43113
 Alpha virt. eigenvalues --    3.44102   3.45287   3.45609   3.46349   3.47343
 Alpha virt. eigenvalues --    3.48623   3.49339   3.50963   3.51820   3.53046
 Alpha virt. eigenvalues --    3.54389   3.56473   3.57932   3.59191   3.60475
 Alpha virt. eigenvalues --    3.66100   3.72549   4.01155   4.28072   4.30374
 Alpha virt. eigenvalues --    4.32022   4.35476   4.35799   4.42091   4.42831
 Alpha virt. eigenvalues --    4.48073   4.51154   4.52504   4.54112   4.56180
 Alpha virt. eigenvalues --    4.60247   4.66120   4.66923   4.75630   4.79609
 Alpha virt. eigenvalues --    4.80156   4.87869   4.88651   4.90131   4.95182
 Alpha virt. eigenvalues --    5.04448
          Condensed to atoms (all electrons):
              1          2          3          4          5          6
     1  O    8.293930   0.097326   0.038530  -0.025126   0.006229   0.021984
     2  C    0.097326   9.885421  -3.110044   0.055017  -0.047136  -0.576124
     3  C    0.038530  -3.110044  10.126770  -0.104475   0.115966  -4.027778
     4  O   -0.025126   0.055017  -0.104475   8.271232   0.174154   0.256772
     5  H    0.006229  -0.047136   0.115966   0.174154   0.481698  -0.088048
     6  C    0.021984  -0.576124  -4.027778   0.256772  -0.088048  26.408592
     7  O   -0.003295   0.050021   0.055552  -0.013812   0.001042  -0.297250
     8  H   -0.000038   0.002251  -0.071276   0.000889  -0.000289   0.138472
     9  C   -0.048958   0.401405  -0.595889   0.008466   0.000308   0.746779
    10  O    0.000149   0.008761   0.004168   0.000029  -0.000004  -0.023071
    11  H    0.000098  -0.010053   0.001348  -0.000001   0.000000   0.002213
    12  C   -0.062018  -1.869025   1.003331  -0.015737  -0.003723   0.255917
    13  O    0.001199   0.025296  -0.044186  -0.003627   0.000169   0.089192
    14  C    0.017228   0.145310   1.646370  -0.064842   0.038037 -11.342944
    15  O    0.000360   0.011540  -0.001091   0.000455   0.000092  -0.247736
    16  C    0.005477   0.370532   0.241592  -0.000369   0.001457  -0.858236
    17  C    0.000968   0.005297  -0.084195   0.001903   0.000046   0.189502
    18  O    0.000039  -0.005110  -0.011612  -0.000014   0.000000   0.078459
    19  H   -0.000042   0.006669  -0.000072  -0.000015   0.000000   0.035452
    20  C    0.000111   0.025751   0.002115   0.000067   0.000001  -0.209447
    21  O    0.000000   0.000074  -0.000101   0.000000   0.000000  -0.000830
    22  H    0.000000   0.000003   0.000003   0.000000   0.000000   0.000347
    23  C    0.000040   0.040621  -0.187900  -0.000159  -0.000076   1.163879
    24  O    0.000000  -0.000328   0.001335   0.000004   0.000000  -0.034610
    25  H    0.000000   0.000034  -0.000494   0.000000   0.000000   0.008461
    26  C   -0.000256  -0.167514   0.690229   0.001122   0.000114  -5.707948
    27  O    0.000000  -0.000076  -0.000399   0.000000   0.000000  -0.015444
    28  C    0.000004   0.001310   0.010434   0.000016   0.000000  -0.038050
    29  O    0.000000  -0.000018  -0.000064   0.000000   0.000000   0.000829
    30  H    0.000000   0.000000  -0.000001   0.000000   0.000000   0.000060
    31  H    0.206394   0.073837  -0.043995  -0.003949   0.013205  -0.038945
    32  H    0.000852   0.082390  -0.013074   0.000120  -0.000007  -0.015124
    33  H    0.000810   0.016544  -0.007198  -0.000418  -0.000001   0.039117
    34  H    0.006059   0.061495  -0.043886  -0.000753  -0.000004   0.031735
    35  H   -0.037065   0.326005  -0.007131  -0.005608  -0.001261   0.024809
    36  H   -0.010044   0.086068   0.388807  -0.044095  -0.007761  -0.254839
    37  H   -0.000572   0.029737   0.079879  -0.001498   0.000279   0.132569
    38  H    0.000127   0.026347   0.002867  -0.000385   0.000008  -0.163223
    39  H    0.000000   0.000250   0.002558   0.000007   0.000000  -0.000748
    40  H    0.000000   0.000118  -0.000210   0.000000   0.000000   0.013190
    41  H    0.000000   0.000271  -0.001745  -0.000001   0.000000   0.026721
    42  H   -0.000004  -0.000278  -0.005027  -0.000004   0.000000   0.020151
    43  H    0.000000  -0.000513  -0.000081  -0.000001   0.000000   0.019777
    44  H    0.000000  -0.000005   0.000052   0.000000   0.000000   0.001908
    45  H    0.000000  -0.000006   0.000029   0.000000   0.000000   0.000594
              7          8          9         10         11         12
     1  O   -0.003295  -0.000038  -0.048958   0.000149   0.000098  -0.062018
     2  C    0.050021   0.002251   0.401405   0.008761  -0.010053  -1.869025
     3  C    0.055552  -0.071276  -0.595889   0.004168   0.001348   1.003331
     4  O   -0.013812   0.000889   0.008466   0.000029  -0.000001  -0.015737
     5  H    0.001042  -0.000289   0.000308  -0.000004   0.000000  -0.003723
     6  C   -0.297250   0.138472   0.746779  -0.023071   0.002213   0.255917
     7  O    8.415446   0.212328  -0.003774  -0.000016   0.000000  -0.009877
     8  H    0.212328   0.384517   0.000974   0.000000   0.000000   0.010195
     9  C   -0.003774   0.000974   6.824912   0.208493  -0.041387  -1.445189
    10  O   -0.000016   0.000000   0.208493   8.324026   0.202047  -0.088436
    11  H    0.000000   0.000000  -0.041387   0.202047   0.438952   0.066310
    12  C   -0.009877   0.010195  -1.445189  -0.088436   0.066310   9.783603
    13  O    0.005607  -0.000575   0.070837   0.012486  -0.000786  -0.193057
    14  C    0.078821  -0.026458  -0.577985  -0.020545   0.001433  -0.791894
    15  O    0.002121  -0.000877  -0.018980  -0.002777   0.000007  -0.033345
    16  C    0.162667  -0.028077  -0.272154   0.038836  -0.001914  -0.364719
    17  C    0.006858  -0.000123  -0.008883  -0.014308  -0.000222  -0.501481
    18  O    0.000684  -0.000001  -0.001362   0.001898   0.000101  -0.014532
    19  H    0.000000   0.000001   0.007344   0.002110  -0.000061  -0.007674
    20  C    0.002529  -0.000185  -0.022068   0.002641  -0.000172  -0.016626
    21  O   -0.000007   0.000000  -0.000013  -0.000017   0.000000  -0.000507
    22  H    0.000000   0.000000   0.000001   0.000009   0.000000   0.000247
    23  C   -0.014515   0.002873   0.015780   0.000245  -0.000002  -0.060464
    24  O    0.000396  -0.000037  -0.000074   0.000000   0.000000   0.000722
    25  H   -0.000014   0.000000   0.000006   0.000000   0.000000  -0.000116
    26  C   -0.011151  -0.005855  -0.060419  -0.002147  -0.000085   0.502086
    27  O   -0.000144   0.000004  -0.000135   0.000004   0.000000   0.002548
    28  C    0.000523  -0.000035  -0.006418   0.000383   0.000003   0.002187
    29  O   -0.000004   0.000000   0.000049   0.000000   0.000000   0.000017
    30  H    0.000000   0.000000   0.000001   0.000000   0.000000  -0.000004
    31  H    0.000144  -0.000002   0.000390  -0.000013  -0.000002   0.011191
    32  H   -0.000010   0.000000   0.482554  -0.060636  -0.008526  -0.175427
    33  H   -0.000005   0.000000   0.570018  -0.059782  -0.004119  -0.243598
    34  H   -0.000486   0.000007   0.033534   0.003588  -0.000041   0.120696
    35  H   -0.001196   0.000008   0.018646   0.001058  -0.000011  -0.126902
    36  H   -0.017022  -0.001090   0.002812   0.000026   0.000000  -0.078067
    37  H   -0.039205  -0.004471   0.002683  -0.000009   0.000000  -0.019971
    38  H    0.003111  -0.000072   0.001610  -0.000182  -0.000001  -0.039836
    39  H    0.000311  -0.000090  -0.000052   0.000000   0.000000  -0.000824
    40  H    0.000184   0.000000   0.000021   0.000000   0.000000  -0.000500
    41  H   -0.000058   0.000000   0.000239   0.000000   0.000000  -0.001045
    42  H   -0.000303   0.000010  -0.000185   0.000004   0.000000   0.015181
    43  H    0.000042   0.000000   0.002075  -0.000038   0.000000   0.002281
    44  H    0.000014   0.000000   0.000116   0.000001   0.000000   0.001290
    45  H    0.000001   0.000000   0.000004   0.000000   0.000000   0.000074
             13         14         15         16         17         18
     1  O    0.001199   0.017228   0.000360   0.005477   0.000968   0.000039
     2  C    0.025296   0.145310   0.011540   0.370532   0.005297  -0.005110
     3  C   -0.044186   1.646370  -0.001091   0.241592  -0.084195  -0.011612
     4  O   -0.003627  -0.064842   0.000455  -0.000369   0.001903  -0.000014
     5  H    0.000169   0.038037   0.000092   0.001457   0.000046   0.000000
     6  C    0.089192 -11.342944  -0.247736  -0.858236   0.189502   0.078459
     7  O    0.005607   0.078821   0.002121   0.162667   0.006858   0.000684
     8  H   -0.000575  -0.026458  -0.000877  -0.028077  -0.000123  -0.000001
     9  C    0.070837  -0.577985  -0.018980  -0.272154  -0.008883  -0.001362
    10  O    0.012486  -0.020545  -0.002777   0.038836  -0.014308   0.001898
    11  H   -0.000786   0.001433   0.000007  -0.001914  -0.000222   0.000101
    12  C   -0.193057  -0.791894  -0.033345  -0.364719  -0.501481  -0.014532
    13  O    8.635930   0.169950  -0.096895   0.018663  -0.048807   0.020397
    14  C    0.169950  21.390654   0.257324  -2.432792   0.201634   0.136455
    15  O   -0.096895   0.257324   8.192325  -0.077148   0.058479  -0.023037
    16  C    0.018663  -2.432792  -0.077148  37.711333  -2.522630  -0.098261
    17  C   -0.048807   0.201634   0.058479  -2.522630  12.063934   0.417987
    18  O    0.020397   0.136455  -0.023037  -0.098261   0.417987   8.309959
    19  H    0.019930  -0.019011   0.018716  -0.060966   0.002085   0.173789
    20  C   -0.023165  -1.213591   0.100663  -3.072525  -0.363927  -0.218018
    21  O    0.000273  -0.006657   0.000113  -0.107632  -0.117905   0.007179
    22  H   -0.000022   0.005769  -0.000110   0.044112  -0.103077   0.017141
    23  C    0.052435   0.431765  -0.086848   9.747035   0.454793   0.059791
    24  O   -0.000206   0.017946  -0.000983  -0.887235  -0.026426  -0.000357
    25  H    0.000002  -0.005491   0.000036   0.265086   0.008280   0.000016
    26  C   -0.212047  -2.809261   0.309476 -33.377567  -2.998262  -0.267504
    27  O    0.001696  -0.038926   0.008267  -0.892331  -0.142825  -0.000215
    28  C    0.001798  -0.064999  -0.008677   0.701470  -0.728454   0.021134
    29  O    0.000013   0.018015   0.000135   0.083969   0.013099   0.000041
    30  H    0.000000   0.000997  -0.000014   0.020163   0.002770   0.000027
    31  H   -0.000374   0.020434   0.000026   0.000446   0.000004  -0.000001
    32  H    0.004766  -0.000368  -0.000230   0.002251  -0.000658  -0.000196
    33  H   -0.008883  -0.013706   0.000954  -0.005706   0.003341   0.000538
    34  H   -0.049019   0.049597   0.001863   0.015796   0.015410  -0.000117
    35  H    0.007002   0.046051   0.000091   0.001696   0.001751   0.000033
    36  H    0.000781   0.154550   0.000064   0.019212   0.001377   0.000011
    37  H    0.002627  -0.012713  -0.002320   0.093491   0.004993   0.000044
    38  H   -0.062527   0.274288  -0.041900   0.119191   0.031014   0.000394
    39  H    0.000277   0.016257   0.003757   0.116964   0.003886   0.000004
    40  H    0.000059  -0.023515  -0.003591   0.490946   0.015781   0.000129
    41  H    0.000081   0.113982   0.002398   0.650949   0.016946   0.001272
    42  H    0.005647   0.134198  -0.066643   0.403629  -0.107582   0.004857
    43  H    0.001297   0.122301  -0.014429  -0.015301   0.303879  -0.057306
    44  H    0.000355   0.013142  -0.001038   0.081421  -0.163676   0.003948
    45  H    0.000041   0.012312   0.000003   0.111607  -0.047432  -0.000693
             19         20         21         22         23         24
     1  O   -0.000042   0.000111   0.000000   0.000000   0.000040   0.000000
     2  C    0.006669   0.025751   0.000074   0.000003   0.040621  -0.000328
     3  C   -0.000072   0.002115  -0.000101   0.000003  -0.187900   0.001335
     4  O   -0.000015   0.000067   0.000000   0.000000  -0.000159   0.000004
     5  H    0.000000   0.000001   0.000000   0.000000  -0.000076   0.000000
     6  C    0.035452  -0.209447  -0.000830   0.000347   1.163879  -0.034610
     7  O    0.000000   0.002529  -0.000007   0.000000  -0.014515   0.000396
     8  H    0.000001  -0.000185   0.000000   0.000000   0.002873  -0.000037
     9  C    0.007344  -0.022068  -0.000013   0.000001   0.015780  -0.000074
    10  O    0.002110   0.002641  -0.000017   0.000009   0.000245   0.000000
    11  H   -0.000061  -0.000172   0.000000   0.000000  -0.000002   0.000000
    12  C   -0.007674  -0.016626  -0.000507   0.000247  -0.060464   0.000722
    13  O    0.019930  -0.023165   0.000273  -0.000022   0.052435  -0.000206
    14  C   -0.019011  -1.213591  -0.006657   0.005769   0.431765   0.017946
    15  O    0.018716   0.100663   0.000113  -0.000110  -0.086848  -0.000983
    16  C   -0.060966  -3.072525  -0.107632   0.044112   9.747035  -0.887235
    17  C    0.002085  -0.363927  -0.117905  -0.103077   0.454793  -0.026426
    18  O    0.173789  -0.218018   0.007179   0.017141   0.059791  -0.000357
    19  H    0.356214   0.027373   0.000190  -0.000170  -0.005204   0.000004
    20  C    0.027373   8.596659   0.553346   0.015411  -0.498549   0.008059
    21  O    0.000190   0.553346   8.138955   0.219658   0.000603  -0.000034
    22  H   -0.000170   0.015411   0.219658   0.402278   0.000040   0.000001
    23  C   -0.005204  -0.498549   0.000603   0.000040  13.377133  -0.817034
    24  O    0.000004   0.008059  -0.000034   0.000001  -0.817034   8.460684
    25  H    0.000000  -0.003714   0.000001   0.000000   0.290159   0.087253
    26  C    0.014381   3.057976   0.046448  -0.009266 -18.052219   1.518415
    27  O   -0.000105   0.059102  -0.000440   0.000133  -0.271875   0.025856
    28  C    0.002069  -0.515775  -0.233587   0.048527  -0.564299   0.077001
    29  O    0.000018  -0.084474  -0.001687  -0.000191   0.035317  -0.003132
    30  H    0.000000   0.012339  -0.001139   0.000019   0.001784  -0.000118
    31  H    0.000000   0.000001   0.000000   0.000000  -0.000002   0.000000
    32  H   -0.000002   0.000144   0.000000   0.000000   0.000000   0.000000
    33  H    0.000163  -0.000110   0.000001   0.000000   0.000022   0.000000
    34  H    0.000231   0.000961   0.000003   0.000000  -0.000119   0.000000
    35  H   -0.000005  -0.000024   0.000000   0.000000   0.000065   0.000000
    36  H   -0.000002   0.000046   0.000000   0.000000   0.000465   0.000000
    37  H   -0.000016   0.000779   0.000000   0.000000   0.005472  -0.000013
    38  H   -0.001718   0.017383   0.000046  -0.000001   0.006259   0.000007
    39  H   -0.000001  -0.007436   0.000001   0.000000   0.465689  -0.027782
    40  H   -0.000001  -0.021270  -0.000011   0.000000   0.432162  -0.024765
    41  H    0.000004  -0.059252   0.000050  -0.000003   0.248273  -0.019297
    42  H   -0.000404  -0.006824  -0.000275   0.000012   0.131520  -0.000974
    43  H   -0.001419  -0.185024  -0.001734   0.000302   0.020011   0.000112
    44  H   -0.000049   0.340319  -0.049133  -0.006599   0.008020   0.000099
    45  H   -0.000004  -0.138783   0.007985  -0.000119   0.004754   0.000190
             25         26         27         28         29         30
     1  O    0.000000  -0.000256   0.000000   0.000004   0.000000   0.000000
     2  C    0.000034  -0.167514  -0.000076   0.001310  -0.000018   0.000000
     3  C   -0.000494   0.690229  -0.000399   0.010434  -0.000064  -0.000001
     4  O    0.000000   0.001122   0.000000   0.000016   0.000000   0.000000
     5  H    0.000000   0.000114   0.000000   0.000000   0.000000   0.000000
     6  C    0.008461  -5.707948  -0.015444  -0.038050   0.000829   0.000060
     7  O   -0.000014  -0.011151  -0.000144   0.000523  -0.000004   0.000000
     8  H    0.000000  -0.005855   0.000004  -0.000035   0.000000   0.000000
     9  C    0.000006  -0.060419  -0.000135  -0.006418   0.000049   0.000001
    10  O    0.000000  -0.002147   0.000004   0.000383   0.000000   0.000000
    11  H    0.000000  -0.000085   0.000000   0.000003   0.000000   0.000000
    12  C   -0.000116   0.502086   0.002548   0.002187   0.000017  -0.000004
    13  O    0.000002  -0.212047   0.001696   0.001798   0.000013   0.000000
    14  C   -0.005491  -2.809261  -0.038926  -0.064999   0.018015   0.000997
    15  O    0.000036   0.309476   0.008267  -0.008677   0.000135  -0.000014
    16  C    0.265086 -33.377567  -0.892331   0.701470   0.083969   0.020163
    17  C    0.008280  -2.998262  -0.142825  -0.728454   0.013099   0.002770
    18  O    0.000016  -0.267504  -0.000215   0.021134   0.000041   0.000027
    19  H    0.000000   0.014381  -0.000105   0.002069   0.000018   0.000000
    20  C   -0.003714   3.057976   0.059102  -0.515775  -0.084474   0.012339
    21  O    0.000001   0.046448  -0.000440  -0.233587  -0.001687  -0.001139
    22  H    0.000000  -0.009266   0.000133   0.048527  -0.000191   0.000019
    23  C    0.290159 -18.052219  -0.271875  -0.564299   0.035317   0.001784
    24  O    0.087253   1.518415   0.025856   0.077001  -0.003132  -0.000118
    25  H    0.555599  -0.548247  -0.001365  -0.028188   0.000342   0.000001
    26  C   -0.548247  64.670301   1.075381   0.193479  -0.136676  -0.033305
    27  O   -0.001365   1.075381   8.693813   0.058088  -0.086733  -0.003433
    28  C   -0.028188   0.193479   0.058088   6.047212   0.256499   0.018089
    29  O    0.000342  -0.136676  -0.086733   0.256499   8.230233   0.219448
    30  H    0.000001  -0.033305  -0.003433   0.018089   0.219448   0.425935
    31  H    0.000000   0.000002   0.000000   0.000000   0.000000   0.000000
    32  H    0.000000   0.000055   0.000000   0.000001   0.000000   0.000000
    33  H    0.000000  -0.000041   0.000000  -0.000028   0.000000   0.000000
    34  H    0.000000   0.002024  -0.000001  -0.000024   0.000000   0.000000
    35  H    0.000000  -0.000104   0.000000   0.000000   0.000000   0.000000
    36  H    0.000000  -0.000719   0.000000   0.000009   0.000000   0.000000
    37  H    0.000000  -0.010457   0.000016   0.000021   0.000000   0.000000
    38  H    0.000000   0.050253   0.000298  -0.000290  -0.000016   0.000000
    39  H    0.003541  -0.230011   0.005398   0.005558   0.000027   0.000000
    40  H    0.039903  -0.631895  -0.053007  -0.028256  -0.000861   0.000223
    41  H    0.007024  -0.699698  -0.076327  -0.042262   0.004003  -0.000014
    42  H    0.000034  -0.311336   0.005895  -0.008283   0.000141   0.000003
    43  H   -0.000003  -0.003492   0.004745  -0.009231   0.000515   0.000001
    44  H    0.000000   0.042053   0.000216  -0.041090  -0.002188   0.000166
    45  H    0.000003  -0.023639  -0.066258   0.411784  -0.038044  -0.008191
             31         32         33         34         35         36
     1  O    0.206394   0.000852   0.000810   0.006059  -0.037065  -0.010044
     2  C    0.073837   0.082390   0.016544   0.061495   0.326005   0.086068
     3  C   -0.043995  -0.013074  -0.007198  -0.043886  -0.007131   0.388807
     4  O   -0.003949   0.000120  -0.000418  -0.000753  -0.005608  -0.044095
     5  H    0.013205  -0.000007  -0.000001  -0.000004  -0.001261  -0.007761
     6  C   -0.038945  -0.015124   0.039117   0.031735   0.024809  -0.254839
     7  O    0.000144  -0.000010  -0.000005  -0.000486  -0.001196  -0.017022
     8  H   -0.000002   0.000000   0.000000   0.000007   0.000008  -0.001090
     9  C    0.000390   0.482554   0.570018   0.033534   0.018646   0.002812
    10  O   -0.000013  -0.060636  -0.059782   0.003588   0.001058   0.000026
    11  H   -0.000002  -0.008526  -0.004119  -0.000041  -0.000011   0.000000
    12  C    0.011191  -0.175427  -0.243598   0.120696  -0.126902  -0.078067
    13  O   -0.000374   0.004766  -0.008883  -0.049019   0.007002   0.000781
    14  C    0.020434  -0.000368  -0.013706   0.049597   0.046051   0.154550
    15  O    0.000026  -0.000230   0.000954   0.001863   0.000091   0.000064
    16  C    0.000446   0.002251  -0.005706   0.015796   0.001696   0.019212
    17  C    0.000004  -0.000658   0.003341   0.015410   0.001751   0.001377
    18  O   -0.000001  -0.000196   0.000538  -0.000117   0.000033   0.000011
    19  H    0.000000  -0.000002   0.000163   0.000231  -0.000005  -0.000002
    20  C    0.000001   0.000144  -0.000110   0.000961  -0.000024   0.000046
    21  O    0.000000   0.000000   0.000001   0.000003   0.000000   0.000000
    22  H    0.000000   0.000000   0.000000   0.000000   0.000000   0.000000
    23  C   -0.000002   0.000000   0.000022  -0.000119   0.000065   0.000465
    24  O    0.000000   0.000000   0.000000   0.000000   0.000000   0.000000
    25  H    0.000000   0.000000   0.000000   0.000000   0.000000   0.000000
    26  C    0.000002   0.000055  -0.000041   0.002024  -0.000104  -0.000719
    27  O    0.000000   0.000000   0.000000  -0.000001   0.000000   0.000000
    28  C    0.000000   0.000001  -0.000028  -0.000024   0.000000   0.000009
    29  O    0.000000   0.000000   0.000000   0.000000   0.000000   0.000000
    30  H    0.000000   0.000000   0.000000   0.000000   0.000000   0.000000
    31  H    0.435433  -0.000362  -0.000047  -0.000213  -0.009777  -0.000466
    32  H   -0.000362   0.616774  -0.051824  -0.004147  -0.001580  -0.000017
    33  H   -0.000047  -0.051824   0.616263   0.006326   0.006400  -0.000006
    34  H   -0.000213  -0.004147   0.006326   0.586555   0.004978   0.001228
    35  H   -0.009777  -0.001580   0.006400   0.004978   0.594971   0.004711
    36  H   -0.000466  -0.000017  -0.000006   0.001228   0.004711   0.574126
    37  H    0.000009   0.000000  -0.000006  -0.000052   0.000099   0.004550
    38  H   -0.000001   0.000007   0.000016   0.007185  -0.000018   0.000693
    39  H    0.000000   0.000000   0.000000   0.000000   0.000000   0.000001
    40  H    0.000000   0.000000   0.000000   0.000000   0.000000   0.000000
    41  H    0.000000   0.000000   0.000000   0.000000   0.000000   0.000000
    42  H    0.000000   0.000000   0.000000  -0.000078   0.000000  -0.000001
    43  H    0.000000   0.000000   0.000000  -0.000002   0.000000   0.000000
    44  H    0.000000   0.000000   0.000000   0.000000   0.000000   0.000000
    45  H    0.000000   0.000000   0.000000   0.000000   0.000000   0.000000
             37         38         39         40         41         42
     1  O   -0.000572   0.000127   0.000000   0.000000   0.000000  -0.000004
     2  C    0.029737   0.026347   0.000250   0.000118   0.000271  -0.000278
     3  C    0.079879   0.002867   0.002558  -0.000210  -0.001745  -0.005027
     4  O   -0.001498  -0.000385   0.000007   0.000000  -0.000001  -0.000004
     5  H    0.000279   0.000008   0.000000   0.000000   0.000000   0.000000
     6  C    0.132569  -0.163223  -0.000748   0.013190   0.026721   0.020151
     7  O   -0.039205   0.003111   0.000311   0.000184  -0.000058  -0.000303
     8  H   -0.004471  -0.000072  -0.000090   0.000000   0.000000   0.000010
     9  C    0.002683   0.001610  -0.000052   0.000021   0.000239  -0.000185
    10  O   -0.000009  -0.000182   0.000000   0.000000   0.000000   0.000004
    11  H    0.000000  -0.000001   0.000000   0.000000   0.000000   0.000000
    12  C   -0.019971  -0.039836  -0.000824  -0.000500  -0.001045   0.015181
    13  O    0.002627  -0.062527   0.000277   0.000059   0.000081   0.005647
    14  C   -0.012713   0.274288   0.016257  -0.023515   0.113982   0.134198
    15  O   -0.002320  -0.041900   0.003757  -0.003591   0.002398  -0.066643
    16  C    0.093491   0.119191   0.116964   0.490946   0.650949   0.403629
    17  C    0.004993   0.031014   0.003886   0.015781   0.016946  -0.107582
    18  O    0.000044   0.000394   0.000004   0.000129   0.001272   0.004857
    19  H   -0.000016  -0.001718  -0.000001  -0.000001   0.000004  -0.000404
    20  C    0.000779   0.017383  -0.007436  -0.021270  -0.059252  -0.006824
    21  O    0.000000   0.000046   0.000001  -0.000011   0.000050  -0.000275
    22  H    0.000000  -0.000001   0.000000   0.000000  -0.000003   0.000012
    23  C    0.005472   0.006259   0.465689   0.432162   0.248273   0.131520
    24  O   -0.000013   0.000007  -0.027782  -0.024765  -0.019297  -0.000974
    25  H    0.000000   0.000000   0.003541   0.039903   0.007024   0.000034
    26  C   -0.010457   0.050253  -0.230011  -0.631895  -0.699698  -0.311336
    27  O    0.000016   0.000298   0.005398  -0.053007  -0.076327   0.005895
    28  C    0.000021  -0.000290   0.005558  -0.028256  -0.042262  -0.008283
    29  O    0.000000  -0.000016   0.000027  -0.000861   0.004003   0.000141
    30  H    0.000000   0.000000   0.000000   0.000223  -0.000014   0.000003
    31  H    0.000009  -0.000001   0.000000   0.000000   0.000000   0.000000
    32  H    0.000000   0.000007   0.000000   0.000000   0.000000   0.000000
    33  H   -0.000006   0.000016   0.000000   0.000000   0.000000   0.000000
    34  H   -0.000052   0.007185   0.000000   0.000000   0.000000  -0.000078
    35  H    0.000099  -0.000018   0.000000   0.000000   0.000000   0.000000
    36  H    0.004550   0.000693   0.000001   0.000000   0.000000  -0.000001
    37  H    0.560531   0.004420   0.000022   0.000000  -0.000002  -0.000011
    38  H    0.004420   0.619887  -0.000073   0.000002  -0.000045   0.011047
    39  H    0.000022  -0.000073   0.491867  -0.012547   0.003667   0.001280
    40  H    0.000000   0.000002  -0.012547   0.510279   0.004968   0.000284
    41  H   -0.000002  -0.000045   0.003667   0.004968   0.654022   0.006437
    42  H   -0.000011   0.011047   0.001280   0.000284   0.006437   0.618106
    43  H   -0.000002  -0.000123  -0.000011  -0.000184   0.003247   0.008622
    44  H    0.000000  -0.000064  -0.000007  -0.000106  -0.000070   0.003850
    45  H    0.000000  -0.000001  -0.000007  -0.001501   0.006502   0.000029
             43         44         45
     1  O    0.000000   0.000000   0.000000
     2  C   -0.000513  -0.000005  -0.000006
     3  C   -0.000081   0.000052   0.000029
     4  O   -0.000001   0.000000   0.000000
     5  H    0.000000   0.000000   0.000000
     6  C    0.019777   0.001908   0.000594
     7  O    0.000042   0.000014   0.000001
     8  H    0.000000   0.000000   0.000000
     9  C    0.002075   0.000116   0.000004
    10  O   -0.000038   0.000001   0.000000
    11  H    0.000000   0.000000   0.000000
    12  C    0.002281   0.001290   0.000074
    13  O    0.001297   0.000355   0.000041
    14  C    0.122301   0.013142   0.012312
    15  O   -0.014429  -0.001038   0.000003
    16  C   -0.015301   0.081421   0.111607
    17  C    0.303879  -0.163676  -0.047432
    18  O   -0.057306   0.003948  -0.000693
    19  H   -0.001419  -0.000049  -0.000004
    20  C   -0.185024   0.340319  -0.138783
    21  O   -0.001734  -0.049133   0.007985
    22  H    0.000302  -0.006599  -0.000119
    23  C    0.020011   0.008020   0.004754
    24  O    0.000112   0.000099   0.000190
    25  H   -0.000003   0.000000   0.000003
    26  C   -0.003492   0.042053  -0.023639
    27  O    0.004745   0.000216  -0.066258
    28  C   -0.009231  -0.041090   0.411784
    29  O    0.000515  -0.002188  -0.038044
    30  H    0.000001   0.000166  -0.008191
    31  H    0.000000   0.000000   0.000000
    32  H    0.000000   0.000000   0.000000
    33  H    0.000000   0.000000   0.000000
    34  H   -0.000002   0.000000   0.000000
    35  H    0.000000   0.000000   0.000000
    36  H    0.000000   0.000000   0.000000
    37  H   -0.000002   0.000000   0.000000
    38  H   -0.000123  -0.000064  -0.000001
    39  H   -0.000011  -0.000007  -0.000007
    40  H   -0.000184  -0.000106  -0.001501
    41  H    0.003247  -0.000070   0.006502
    42  H    0.008622   0.003850   0.000029
    43  H    0.658927   0.008277   0.005253
    44  H    0.008277   0.609614   0.005346
    45  H    0.005253   0.005346   0.630400
 Mulliken atomic charges:
              1
     1  O   -0.510494
     2  C   -0.049473
     3  C   -0.050007
     4  O   -0.485362
     5  H    0.315507
     6  C    0.232913
     7  O   -0.586259
     8  H    0.387023
     9  C   -0.296134
    10  O   -0.538983
    11  H    0.354869
    12  C    0.386715
    13  O   -0.404630
    14  C   -0.049121
    15  O   -0.240596
    16  C   -0.444427
    17  C    0.154856
    18  O   -0.557991
    19  H    0.430198
    20  C   -0.162819
    21  O   -0.453218
    22  H    0.365544
    23  C   -0.437736
    24  O   -0.354679
    25  H    0.321849
    26  C    0.137323
    27  O   -0.291422
    28  C    0.460344
    29  O   -0.508619
    30  H    0.344194
    31  H    0.336632
    32  H    0.142273
    33  H    0.134964
    34  H    0.149672
    35  H    0.152309
    36  H    0.174591
    37  H    0.169096
    38  H    0.134013
    39  H    0.158267
    40  H    0.293970
    41  H    0.148762
    42  H    0.137276
    43  H    0.127228
    44  H    0.143816
    45  H    0.127766
 Sum of Mulliken atomic charges =   0.00000
 Mulliken charges with hydrogens summed into heavy atoms:
              1
     1  O   -0.173862
     2  C    0.102836
     3  C    0.124584
     4  O   -0.169855
     6  C    0.402009
     7  O   -0.199236
     9  C   -0.018897
    10  O   -0.184114
    12  C    0.536386
    13  O   -0.404630
    14  C    0.084891
    15  O   -0.240596
    16  C   -0.307151
    17  C    0.282084
    18  O   -0.127792
    20  C   -0.019003
    21  O   -0.087673
    23  C    0.014501
    24  O   -0.032830
    26  C    0.286085
    27  O   -0.291422
    28  C    0.588111
    29  O   -0.164426
 Sum of Mulliken charges with hydrogens summed into heavy atoms =   0.00000
 APT atomic charges:
              1
     1  O   -0.622786
     2  C    0.367138
     3  C    0.403134
     4  O   -0.610260
     5  H    0.228885
     6  C    0.351044
     7  O   -0.655926
     8  H    0.283065
     9  C    0.466314
    10  O   -0.627781
    11  H    0.253553
    12  C    0.408251
    13  O   -0.776458
    14  C    0.868684
    15  O   -0.793969
    16  C    0.450199
    17  C    0.333861
    18  O   -0.696044
    19  H    0.377776
    20  C    0.427667
    21  O   -0.619099
    22  H    0.272156
    23  C   -0.725918
    24  O   -0.164233
    25  H    0.074595
    26  C    0.601097
[...]
 0346,0.00000996,0.00007440,0.00008542,0.00056248,-0.00046117,0.0002162
 9,-0.00134906,0.00221080,-0.00573290,-0.02199618,0.01620299,0.00848724
 ,-0.17922527,0.13951509,-0.05697937,0.01240274,-0.01274071,0.00590070,
 0.00054521,0.00206715,0.00033722,-0.00011692,0.00014299,-0.00027007,0.
 00153604,-0.00016755,-0.00062708,-0.00042296,0.00010666,-0.00015744,-0
 .00007772,-0.00001967,0.00005227,0.00156095,0.00068193,0.00091480,0.00
 142106,0.00000919,-0.00012342,0.00037715,0.00022030,0.00033294,-0.0132
 1181,0.01035924,-0.00848656,0.00174817,-0.00039179,0.00051747,-0.00025
 016,-0.00057271,-0.00013267,0.00005944,0.00004701,0.00002285,-0.000006
 19,0.00002832,0.00000545,0.00000097,0.00000461,0.00000568,0.00000467,0
 .00002390,0.00000935,-0.00000177,-0.00000720,-0.00001334,0.00004653,0.
 00001541,0.00004354,0.00000155,-0.00001005,-0.00001034,0.00001629,-0.0
 0000804,0.00003134,0.00019074,0.00016126,-0.00024059,0.00283224,-0.000
 72783,-0.00024802,-0.00105249,-0.00012252,0.00072704,-0.00147225,0.001
 52588,0.00018528,-0.00102820,-0.00071354,-0.00234136,0.19758420,-0.000
 00366,-0.00001327,0.00004857,0.00001268,0.00002989,-0.00004636,0.00004
 591,0.00007577,-0.00007656,-0.00005484,-0.00002813,0.00003413,0.000012
 37,0.00000718,0.00000353,-0.00082547,0.00058680,-0.00016241,0.00007777
 ,-0.00018454,-0.00011187,0.00000415,0.00000501,0.00002414,-0.00001205,
 -0.00005788,0.00000990,-0.00000337,0.00005929,-0.00000617,0.00000121,-
 0.00001315,0.00000738,-0.00000014,-0.00005902,-0.00027991,-0.00030266,
 0.00056373,0.00050991,0.00106017,0.00119122,0.00363175,0.00498541,-0.0
 0117818,-0.00251054,0.14578188,-0.19717125,0.06113272,0.01926568,-0.02
 276321,0.01396786,-0.00048910,0.00342771,-0.00139037,0.00027667,-0.000
 51969,-0.00037660,0.00128890,-0.00011880,-0.00152267,-0.00064892,0.000
 33153,-0.00006004,0.00000020,-0.00010729,0.00007954,0.00027333,0.00049
 767,-0.00066040,-0.00055182,0.00030075,0.00002960,0.00032376,-0.000278
 79,0.00013234,-0.00937448,0.00871467,-0.00601153,-0.00037997,-0.000344
 88,0.00175470,0.00015771,-0.00011517,0.00011566,-0.00008752,0.00009120
 ,0.00012307,0.00000138,-0.00002666,0.00000294,0.00000019,-0.00000260,-
 0.00000449,0.00000973,0.00000885,0.00000561,-0.00000869,0.00001160,0.0
 0000571,-0.00003511,-0.00000442,-0.00003045,-0.00000917,-0.00000448,0.
 00001368,-0.00000754,0.00000201,-0.00000906,-0.00010647,-0.00020437,0.
 00019516,-0.00123595,0.00173940,-0.00030463,-0.00017195,0.00008058,0.0
 0036597,0.00004350,0.00077993,-0.00046381,-0.00148775,-0.00116715,-0.0
 0159932,-0.15407736,0.20931751,-0.00001311,-0.00000449,-0.00001157,0.0
 0002750,0.00001009,0.00001590,0.00007000,0.00004259,0.00003891,-0.0000
 1414,0.00001609,-0.00004347,0.00000305,0.00000343,-0.00001626,0.000512
 79,-0.00046693,-0.00052016,-0.00024425,0.00004243,0.00004123,-0.000036
 69,0.00001055,0.00006850,-0.00002775,0.00002949,-0.00003553,-0.0000019
 7,-0.00000707,0.00001880,-0.00000487,0.00000097,0.00000021,-0.00006529
 ,-0.00002287,-0.00015769,-0.00118490,0.00002761,-0.00031992,0.01110988
 ,-0.00561761,-0.00473791,0.02261731,-0.01638369,-0.00814252,-0.0671331
 1,0.06600804,-0.06596815,-0.00755914,0.00803737,-0.00222432,0.00111553
 ,-0.00005339,0.00124253,0.00025083,0.00007796,-0.00004822,-0.00113147,
 0.00048861,0.00075374,0.00023534,-0.00030475,0.00000396,-0.00002233,0.
 00005612,0.00005752,0.00185554,0.00034190,0.00071455,0.00060839,-0.000
 09534,-0.00019625,0.00044605,0.00009966,0.00020238,-0.01774941,0.01618
 197,-0.00877672,0.00087551,-0.00065048,0.00197072,-0.00032827,0.000458
 79,-0.00003627,0.00006807,-0.00013600,-0.00011121,0.00001047,0.0000382
 4,-0.00001037,0.00000152,0.00000178,0.00000010,-0.00000033,-0.00001605
 ,0.00000020,0.00000342,0.00001224,0.00001351,-0.00005400,0.00000169,-0
 .00008194,-0.00000292,0.00000377,0.00001020,-0.00000847,0.00001046,-0.
 00004002,-0.00016438,0.00008647,-0.00003579,0.00086906,-0.00034279,-0.
 00546753,-0.00044113,-0.00015968,0.00069286,-0.00108845,0.00161379,0.0
 0053323,-0.00177057,-0.00158309,-0.00313633,0.05637288,-0.06918666,0.0
 9405913,0.00001985,0.00003520,-0.00005404,-0.00002967,-0.00003073,0.00
 006347,-0.00002880,-0.00002010,-0.00000273,0.00006162,0.00004296,-0.00
 003089,-0.00001071,-0.00001408,0.00000521,-0.00004760,-0.00007800,-0.0
 0008730,0.00003657,0.00008609,0.00005654,-0.00001974,0.00000779,-0.000
 00727,-0.00011964,-0.00004848,0.00014465,0.00005446,-0.00007292,-0.000
 10431,0.00001176,0.00003385,-0.00006052,0.00003725,0.00001130,0.000136
 93,0.00034998,0.00048379,-0.00027226,0.00024604,-0.00043510,-0.0001801
 7,0.00122606,0.00071108,-0.00113928,0.00887144,-0.01212340,0.00507586,
 -0.20656498,0.14559844,-0.04973371,-0.01899916,-0.00324619,-0.02511758
 ,-0.00230711,-0.00006268,0.00071912,-0.01973203,0.02000528,0.00025490,
 0.00262801,-0.00111239,-0.00116452,0.00011760,0.00020082,-0.00032507,0
 .00035931,-0.00030638,0.00045506,-0.00017330,0.00027110,0.00021606,-0.
 00019046,0.00005213,-0.00012662,0.00034316,-0.00084319,0.00004663,0.00
 046315,0.00005976,0.00007697,-0.00112530,-0.00055241,-0.00253455,0.000
 60943,-0.00069425,-0.00012561,0.00011073,0.00007665,0.00013302,-0.0000
 0224,0.00000161,0.00000135,0.00000421,0.00000656,-0.00002447,0.0000361
 5,0.00000278,-0.00000840,0.00000190,-0.00005315,0.00002778,0.00000472,
 0.00000347,-0.00001265,0.00000354,0.00000078,-0.00000276,-0.00000714,-
 0.00000023,-0.00000012,-0.00012940,0.00001114,0.00010975,0.00022177,-0
 .00022696,-0.00026150,0.00004099,-0.00000338,-0.00016800,0.00039214,-0
 .00039763,0.00017726,-0.00119472,-0.00272026,0.00136126,0.23470616,0.0
 0000444,0.00000940,0.00001122,-0.00000169,-0.00001198,0.00000155,0.000
 02785,0.00001882,-0.00002771,-0.00001394,0.00001092,0.00001038,0.00000
 554,-0.00000247,-0.00000033,-0.00018892,0.00000548,-0.00016812,-0.0000
 3367,0.00001782,0.00003610,-0.00000344,0.00001515,0.00002586,-0.000022
 90,-0.00000477,0.00003591,0.00002478,-0.00002972,-0.00000134,0.0000068
 7,0.00000272,-0.00001839,0.00001111,0.00001006,-0.00003902,0.00008556,
 0.00019416,0.00008798,0.00050084,0.00017149,-0.00001362,-0.00076499,0.
 00267124,-0.00136352,0.02157643,-0.02992452,0.00981685,0.14242944,-0.1
 5799283,0.05319277,-0.02101593,0.01047115,-0.01501746,-0.00086433,0.00
 032377,-0.00032819,0.00566887,-0.00398374,-0.00036791,-0.00024890,0.00
 163902,-0.00055830,-0.00025923,-0.00004984,-0.00011221,-0.00033321,0.0
 0069390,-0.00001699,-0.00030650,0.00004796,-0.00004872,-0.00006826,-0.
 00008372,-0.00005422,0.00271713,-0.00132865,0.00214233,-0.00080456,0.0
 0012526,-0.00059610,0.00228993,-0.00051440,-0.00011685,-0.00059697,0.0
 0040337,0.00005870,0.00000345,-0.00011590,-0.00009220,-0.00000026,-0.0
 0000339,-0.00000354,0.00000072,0.00000172,0.00000056,0.00000497,0.0000
 0269,-0.00000427,-0.00000919,-0.00002092,0.00000521,0.00000085,0.00000
 431,0.00000022,-0.00000573,0.00000269,-0.00000598,-0.00002949,-0.00002
 556,0.00004377,-0.00026033,0.00012076,-0.00027873,0.00012672,0.0000389
 5,-0.00014244,0.00020113,-0.00014322,-0.00025945,-0.00120661,0.0005785
 2,-0.00070150,-0.00336563,-0.00403473,0.00172272,-0.14460095,0.1798829
 7,0.00001301,0.00001357,-0.00002797,-0.00001505,-0.00001391,0.00004053
 ,-0.00004932,-0.00004799,0.00000531,0.00004427,0.00001983,-0.00000573,
 -0.00000980,-0.00000560,0.00000522,0.00003818,0.00000166,0.00012663,0.
 00004885,0.00002667,-0.00001164,-0.00000642,-0.00000280,-0.00001142,-0
 .00012492,-0.00002197,0.00011858,0.00009444,-0.00007046,-0.00006307,-0
 .00000002,0.00002042,-0.00005774,-0.00003065,0.00001750,0.00010754,0.0
 0052900,0.00023428,-0.00032590,-0.00065322,-0.00022300,-0.00047365,-0.
 00060262,-0.00139662,0.00126267,-0.00882568,0.01457042,-0.00200447,-0.
 05078240,0.05437282,-0.05529483,-0.03435566,0.00052185,-0.02343259,-0.
 00225425,0.00028948,-0.00004040,0.02543316,-0.02085245,0.00147022,-0.0
 0277684,0.00018761,0.00172056,0.00013112,-0.00014550,-0.00016561,0.000
 18830,-0.00022770,-0.00002227,0.00035552,0.00012472,-0.00003776,0.0000
 4933,0.00004798,0.00003305,-0.00082505,-0.00151742,-0.00055651,-0.0004
 3087,0.00006715,-0.00013128,0.00248688,-0.00227719,-0.00049087,-0.0002
 0533,0.00015169,0.00009758,-0.00011678,0.00008027,0.00006584,-0.000002
 25,0.00000239,0.00000076,0.00001096,0.00000556,-0.00001629,0.00003709,
 -0.00000408,-0.00002621,0.00001712,-0.00004566,0.00004172,0.00000721,0
 .00000189,-0.00001621,0.00000835,-0.00000215,0.00000857,0.00002761,0.0
 0002453,-0.00002412,0.00014396,-0.00012142,0.00009991,-0.00009971,0.00
 000799,0.00006561,-0.00030679,0.00000142,0.00011887,0.00028158,-0.0003
 8947,0.00045160,0.00133008,0.00218008,-0.00034109,0.06808540,-0.045210
 12,0.08294393,0.00000347,-0.00000896,0.00000827,0.00000284,0.00000040,
 -0.00000485,-0.00001062,-0.00000048,0.00000185,0.00000604,-0.00000656,
 0.00000016,-0.00000155,0.00000316,0.00000061,0.00002759,0.00001139,0.0
 0001510,0.00002270,-0.00002588,0.00000663,-0.00000652,0.00000165,-0.00
 000469,-0.00000003,0.00001353,-0.00001128,0.00001644,-0.00000440,0.000
 01649,-0.00000815,-0.00000019,0.00000078,-0.00003881,0.00001265,-0.000
 02086,0.00001498,-0.00006417,0.00003013,-0.00011218,0.00009151,-0.0000
 0439,0.00030921,-0.00029160,0.00016938,0.00023400,0.00142725,-0.000657
 44,-0.01664680,0.01246805,-0.00144640,0.00224373,-0.00038312,0.0009292
 1,0.00000700,0.00014301,-0.00013078,-0.20424733,0.15593502,-0.03645687
 ,0.01184523,-0.02259528,0.00569457,0.00224269,-0.00013575,0.00029662,0
 .00005684,-0.00027622,0.00007252,-0.00020239,-0.00005955,-0.00002540,-
 0.00002079,-0.00001968,-0.00000366,-0.00063799,0.00037007,0.00015705,0
 .00249661,0.00039749,0.00028350,-0.01732521,0.01484150,-0.00299130,0.0
 0165596,-0.00039925,0.00147746,0.00029247,-0.00005161,0.00036917,-0.00
 000069,0.00000143,0.00000040,0.00000078,0.00000032,0.00000400,0.000003
 16,-0.00000415,-0.00000560,0.00000835,-0.00000344,0.00000975,0.0000031
 0,-0.00000094,-0.00000339,0.00000179,-0.00000240,0.00000503,0.00000786
 ,0.00000522,-0.00000996,0.00002116,-0.00002407,0.00005654,0.00000398,-
 0.00002678,0.00000136,0.00003765,-0.00001639,0.00015310,0.00042297,-0.
 00016170,0.00005486,-0.00013230,-0.00080585,0.00046622,-0.00159976,-0.
 00002803,0.00337144,0.22072146,-0.00000016,0.00000909,0.00000300,-0.00
 000290,0.00000416,-0.00000078,0.00000986,0.00000260,-0.00000732,-0.000
 00632,0.00000587,0.00000504,0.00000259,-0.00000193,-0.00000197,-0.0000
 2342,-0.00001325,-0.00002778,-0.00000376,0.00002616,0.00001229,-0.0000
 0037,-0.00000101,-0.00000359,-0.00001206,-0.00003331,0.00000922,-0.000
 00270,0.00004927,-0.00002120,0.00000245,-0.00001111,0.00001275,0.00003
 307,-0.00002113,0.00000149,-0.00000686,0.00003253,-0.00000547,0.000131
 27,-0.00005709,0.00002120,0.00008011,0.00019014,-0.00023874,-0.0005937
 6,-0.00021756,0.00004519,0.00643185,-0.00119551,-0.00015922,-0.0007636
 3,0.00046717,0.00018394,0.00001081,-0.00000100,0.00001268,0.15532548,-
 0.18673762,0.02899704,0.00677616,-0.03968949,0.00970942,0.00085866,-0.
 00005949,0.00130873,-0.00009307,-0.00002271,0.00002118,-0.00007555,-0.
 00000106,-0.00005155,-0.00001843,-0.00002163,-0.00000470,-0.00007098,0
 .00018828,-0.00010387,-0.00001078,0.00160461,-0.00044914,-0.00847594,0
 .00646389,-0.00267802,0.00020936,0.00023661,0.00055914,-0.00026174,0.0
 0017366,0.00019766,-0.00000055,-0.00000370,-0.00000228,0.00000306,0.00
 000292,-0.00000518,-0.00000099,0.00000361,0.00000173,-0.00000622,0.000
 00759,-0.00000714,-0.00000408,-0.00000031,0.00000331,-0.00000149,0.000
 00210,-0.00000219,-0.00000731,-0.00000139,0.00000242,-0.00000430,0.000
 01778,-0.00001940,0.00002376,-0.00000749,-0.00001175,0.00002115,-0.000
 07252,0.00008715,0.00007732,-0.00011927,0.00003806,0.00029752,0.000526
 78,-0.00024324,0.00022095,0.00053876,-0.00030352,-0.15870502,0.2183835
 6,-0.00000471,-0.00000197,-0.00000125,0.00000063,0.00000603,-0.0000013
 6,0.00001633,0.00001170,0.00000184,-0.00000788,-0.00000429,-0.00000339
 ,0.00000352,0.00000208,-0.00000235,-0.00003644,-0.00000590,-0.00002993
 ,-0.00000497,0.00000545,-0.00000231,0.00000167,0.00000224,0.00000114,0
 .00001800,0.00001191,-0.00001426,-0.00002247,-0.00000599,0.00001012,0.
 00000311,0.00000008,0.00000194,0.00001844,-0.00000402,0.00000474,-0.00
 007474,-0.00004702,0.00003653,0.00013830,0.00004315,0.00004192,-0.0004
 6297,0.00031736,-0.00032183,-0.00052850,-0.00164714,0.00142062,0.02735
 661,-0.02104034,0.00282680,-0.00210343,0.00168214,0.00228794,0.0001018
 4,0.00013700,0.00009806,-0.03362711,0.02743276,-0.05158108,-0.00353698
 ,0.01368728,0.00072498,0.00006568,-0.00088699,0.00057893,-0.00010750,0
 .00000270,0.00009237,-0.00010650,-0.00001267,-0.00004833,0.00001746,-0
 .00002970,0.00000529,0.00033891,-0.00004599,-0.00033719,0.00256493,0.0
 0043317,0.00102680,-0.02256851,0.01712615,-0.00460731,0.00092095,0.000
 16302,0.00190150,0.00033040,0.00013115,0.00051101,0.00000035,0.0000002
 4,0.00000013,-0.00000255,-0.00000354,0.00000103,-0.00000699,0.00000169
 ,0.00000575,-0.00000552,0.00000721,-0.00001082,-0.00000174,-0.00000005
 ,0.00000251,-0.00000219,0.00000027,-0.00000150,-0.00000452,-0.00000583
 ,0.00000436,-0.00001228,0.00002735,-0.00004615,0.00002469,-0.00000650,
 -0.00000360,0.00003171,-0.00007747,-0.00001425,0.00001524,0.00007937,-
 0.00008104,-0.00022621,0.00056071,-0.00011460,0.00392867,-0.00084170,-
 0.00466434,0.03024130,-0.03530081,0.05333691,0.00001318,0.00000289,0.0
 0001318,-0.00000971,-0.00000587,-0.00000303,-0.00000507,0.00000349,-0.
 00001109,0.00000757,0.00000324,0.00000621,-0.00000120,-0.00000008,0.00
 000062,-0.00001294,-0.00002818,-0.00001939,0.00003252,0.00002314,0.000
 05343,-0.00001451,0.00000778,-0.00002050,-0.00001488,-0.00000617,0.000
 01003,0.00002083,-0.00000233,-0.00000390,-0.00000638,0.00000277,-0.000
 00653,-0.00002004,0.00000824,-0.00000271,0.00005638,0.00004110,0.00000
 035,-0.00004989,-0.00001299,-0.00007024,0.00025762,0.00004675,-0.00007
 148,-0.00016611,0.00018318,0.00004863,-0.00136416,0.00063628,0.0015385
 1,0.00060681,-0.00027799,0.00000613,0.00003798,-0.00009714,0.00001310,
 -0.01420155,0.01616878,-0.00548276,0.00129983,-0.00082710,0.00082751,0
 .00028541,-0.00003857,0.00020978,-0.00117337,-0.00020269,0.00095726,-0
 .00063519,-0.00005954,0.00011278,-0.00027483,-0.00006066,-0.00009508,0
 .00084080,-0.00200154,-0.00116286,0.01329337,-0.01036766,0.00599005,-0
 .22171978,0.14679216,-0.05765892,-0.01305686,0.01209172,0.00664787,0.0
 0066588,-0.00092654,0.00010238,-0.00000232,-0.00000078,-0.00000385,0.0
 0000096,0.00000203,0.00000096,0.00000585,-0.00000111,-0.00000321,0.000
 00201,-0.00000639,0.00000379,0.00000245,0.00000019,-0.00000174,0.00000
 029,-0.00000106,0.00000225,0.00000229,0.00000028,-0.00001217,0.0000005
 0,-0.00001259,0.00000421,0.00065635,-0.00037284,-0.00034622,0.00073341
 ,0.00008589,-0.00006132,0.00021882,-0.00030998,-0.00039146,-0.00015584
 ,-0.00022254,0.00016631,0.00132376,-0.00065294,-0.00025922,-0.00171896
 ,-0.00136302,-0.00268402,0.23423874,0.00000958,0.00001323,0.00000916,-
 0.00000632,-0.00001043,0.00000161,-0.00000215,-0.00000429,-0.00001518,
 0.00000175,0.00001169,0.00001092,0.,-0.00000397,0.00000072,-0.00000602
 ,-0.00003950,-0.00000816,0.00001991,0.00004809,0.00004973,-0.00000813,
 0.00000082,-0.00001985,-0.00001319,-0.00002575,0.00002354,0.00000768,0
 .00001858,-0.00002106,0.00000345,-0.00000191,-0.00000031,-0.00000466,0
 .00000836,0.00000821,0.00007112,0.00007967,0.00001540,-0.00008051,-0.0
 0003937,-0.00009746,0.00015647,0.00009647,0.00024419,-0.00064759,-0.00
 005981,-0.00015408,-0.00073539,0.00044870,0.00065376,0.00006059,-0.000
 26003,-0.00050107,-0.00005320,-0.00008786,0.00009908,-0.00835697,0.009
 33919,-0.00423134,0.00150444,0.00076849,0.00084558,0.00028249,0.000150
 44,-0.00000798,-0.00217090,0.00007203,0.00051984,-0.00015584,-0.000256
 85,0.00051206,-0.00037550,0.00005217,-0.00011712,0.00381385,-0.0009710
 3,-0.00320873,0.01323626,-0.03077973,0.01379224,0.14680119,-0.16720251
 ,0.04204287,0.00604658,-0.00018691,-0.00374882,0.00042034,-0.00023860,
 -0.00006757,-0.00000147,-0.00000418,-0.00000392,0.00000148,0.00000481,
 -0.00000250,0.00000320,0.00000065,0.00000034,-0.00000170,-0.00000422,0
 .00000379,-0.00000014,0.00000133,0.00000075,-0.00000052,0.00000076,0.0
 0000068,0.00000153,0.00000016,-0.00000834,-0.00000282,-0.00000828,0.00
 000934,0.00032680,-0.00003638,-0.00022234,0.00170130,0.00014455,-0.000
 91374,-0.00176943,0.00071388,0.00066666,0.00006686,0.00004858,-0.00015
 074,-0.00028067,0.00026732,-0.00009274,-0.00162217,-0.00064755,-0.0019
 0432,-0.15824156,0.18857918,0.00000026,0.00000104,-0.00001386,-0.00000
 137,-0.00000157,0.00001221,-0.00000384,-0.00000036,0.00001068,0.000009
 83,0.00000414,-0.00001130,-0.00000166,-0.00000233,0.00000109,0.0000000
 6,-0.00001073,-0.00000186,0.00000645,0.00001067,0.00000037,-0.00000116
 ,-0.00000275,-0.00000277,-0.00000811,0.00000156,0.00000504,0.00000632,
 -0.00000836,-0.00000707,-0.00000055,0.00000326,-0.00000188,0.00000165,
 0.00000146,0.00001719,0.00001285,0.00000662,-0.00004857,-0.00000119,-0
 .00001387,0.00003974,0.00014122,0.00004697,-0.00015303,-0.00022237,-0.
 00029137,-0.00012103,-0.00221231,0.00144978,0.00085845,0.00064512,-0.0
 0041237,0.00005224,-0.00001459,0.00000539,0.00006380,-0.01715177,0.014
 32672,-0.00278604,0.00032838,-0.00113499,0.00049909,0.00020327,-0.0000
 7559,0.00010382,0.00069816,-0.00040550,-0.00053463,0.00007968,0.000049
 70,-0.00034212,0.00012867,-0.00004722,0.00010562,-0.00104336,0.0025426
 6,0.00099122,-0.00373055,0.00894613,0.00008699,-0.05915225,0.04367264,
 -0.06147149,0.03047378,-0.02247978,-0.00470469,0.00091233,0.00056080,0
 .00251155,-0.00000005,0.00000169,0.00000213,-0.00000074,-0.00000121,-0
 .00000274,0.00000348,-0.00000027,-0.00000090,0.00000097,-0.00000343,0.
 00000096,0.00000094,0.00000008,-0.00000224,0.00000052,-0.00000068,-0.0
 0000068,-0.00000099,0.00000228,-0.00000205,-0.00000373,-0.00000644,0.0
 0001259,-0.00024474,0.00013667,0.00014172,-0.00060108,-0.00025662,0.00
 060314,0.00068066,-0.00009394,-0.00003786,0.00005362,-0.00012084,0.000
 13565,0.00046847,-0.00080321,-0.00054271,-0.00211663,-0.00158378,-0.00
 303631,0.05165634,-0.04401306,0.06757055\\0.01504119,0.01315428,-0.003
 16410,0.01472413,-0.03139724,-0.00543256,-0.01579311,0.03493011,0.0104
 0346,-0.00129182,-0.01335163,0.02093491,-0.01219616,-0.00437031,-0.029
 40710,-0.00590887,-0.04769532,0.00801140,0.00102492,-0.03400485,-0.020
 50004,0.00347662,0.03876022,-0.00322140,0.00902430,0.02809611,0.035883
 22,0.01204002,0.00339746,-0.00934984,-0.00232094,-0.02978509,-0.016272
 84,0.00312762,0.06413789,-0.00461150,0.02109496,-0.03358258,0.01372089
 ,-0.04849279,0.05162783,0.00782325,0.03081806,-0.03426853,0.00532298,-
 0.01428908,-0.00724780,-0.01203430,-0.01737468,0.03415790,0.00878874,0
 .00111404,-0.03197866,0.01491389,0.00848731,0.01515196,-0.01630656,0.0
 0827297,0.00457267,0.02347379,0.00589256,-0.00519660,0.00969540,-0.025
 17285,-0.00258966,-0.01742354,0.01823297,-0.04734943,0.14719014,-0.053
 69435,0.02040848,-0.03581137,-0.00208206,-0.02501725,0.00515792,-0.026
 69893,-0.04531618,-0.01637228,0.02180241,0.06797687,0.00050116,0.05640
 291,-0.03178520,-0.05679898,0.00288181,0.02341095,0.00551787,-0.005229
 42,-0.00189393,-0.00299088,-0.00196927,0.00397444,0.00438417,0.0027342
 8,-0.00299970,0.02197331,-0.02080899,0.00219995,0.00248310,0.01411591,
 -0.01256079,-0.00451989,-0.01279924,0.01150963,-0.00002373,0.01484661,
 -0.00930400,-0.00071433,-0.01638269,0.00920560,-0.00330195,0.01228792,
 -0.00837488,0.00086262,0.00615934,-0.00272944,-0.00006200,0.02179587,0
 .00949364,-0.06544276,-0.00961955,0.03125772,-0.00772974,0.00821560,-0
 .01504160,-0.00227694,-0.01915972,0.01586731,-0.00652927,0.01280424,-0
 .01722492,-0.00339610,-0.01513403,0.01177456,-0.00334822\\\@


 IF THERE IS ONE WAY BETTER THAN ANOTHER IT IS THE WAY OF NATURE.

                          -- ARISTOTLE
 Job cpu time:  0 days 14 hours  9 minutes 57.3 seconds.
 File lengths (MBytes):  RWF=   1373 Int=      0 D2E=      0 Chk=     19 Scr=      1
 Normal termination of Gaussian 09 at Tue Mar  1 17:36:03 2016.
Gaussian '09 finished on node020 at Tue Mar  1 17:36:03 EST 2016.
