Gaussian '09 started on node015 at Thu Jan 21 05:12:43 EST 2016.
 Entering Gaussian System, Link 0=/usr/local/gaussian/g09/g09
 Initial command:
 /usr/local/gaussian/g09/l1.exe /home/srmcgrat/thesis/gaussian/cellobiose/550/7000/gaussian23173/Gau-23209.inp -scrdir=/home/srmcgrat/thesis/gaussian/cellobiose/550/7000/gaussian23173/
 Entering Link 1 = /usr/local/gaussian/g09/l1.exe PID=     23211.
  
 Copyright (c) 1988,1990,1992,1993,1995,1998,2003,2009,2010,
            Gaussian, Inc.  All Rights Reserved.
  
 This is part of the Gaussian(R) 09 program.  It is based on
 the Gaussian(R) 03 system (copyright 2003, Gaussian, Inc.),
 the Gaussian(R) 98 system (copyright 1998, Gaussian, Inc.),
 the Gaussian(R) 94 system (copyright 1995, Gaussian, Inc.),
 the Gaussian 92(TM) system (copyright 1992, Gaussian, Inc.),
 the Gaussian 90(TM) system (copyright 1990, Gaussian, Inc.),
 the Gaussian 88(TM) system (copyright 1988, Gaussian, Inc.),
 the Gaussian 86(TM) system (copyright 1986, Carnegie Mellon
 University), and the Gaussian 82(TM) system (copyright 1983,
 Carnegie Mellon University). Gaussian is a federally registered
 trademark of Gaussian, Inc.
  
 This software contains proprietary and confidential information,
 including trade secrets, belonging to Gaussian, Inc.
  
 This software is provided under written license and may be
 used, copied, transmitted, or stored only in accord with that
 written license.
  
 The following legend is applicable only to US Government
 contracts under FAR:
  
                    RESTRICTED RIGHTS LEGEND
  
 Use, reproduction and disclosure by the US Government is
 subject to restrictions as set forth in subparagraphs (a)
 and (c) of the Commercial Computer Software - Restricted
 Rights clause in FAR 52.227-19.
  
 Gaussian, Inc.
 340 Quinnipiac St., Bldg. 40, Wallingford CT 06492
  
  
 ---------------------------------------------------------------
 Warning -- This program may not be used in any manner that
 competes with the business of Gaussian, Inc. or will provide
 assistance to any competitor of Gaussian, Inc.  The licensee
 of this program is prohibited from giving any competitor of
 Gaussian, Inc. access to this program.  By using this program,
 the user acknowledges that Gaussian, Inc. is engaged in the
 business of creating and licensing software in the field of
 computational chemistry and represents and warrants to the
 licensee that it is not a competitor of Gaussian, Inc. and that
 it will not use this program in any manner prohibited above.
 ---------------------------------------------------------------
  

 Cite this work as:
 Gaussian 09, Revision B.01,
 M. J. Frisch, G. W. Trucks, H. B. Schlegel, G. E. Scuseria, 
 M. A. Robb, J. R. Cheeseman, G. Scalmani, V. Barone, B. Mennucci, 
 G. A. Petersson, H. Nakatsuji, M. Caricato, X. Li, H. P. Hratchian, 
 A. F. Izmaylov, J. Bloino, G. Zheng, J. L. Sonnenberg, M. Hada, 
 M. Ehara, K. Toyota, R. Fukuda, J. Hasegawa, M. Ishida, T. Nakajima, 
 Y. Honda, O. Kitao, H. Nakai, T. Vreven, J. A. Montgomery, Jr., 
 J. E. Peralta, F. Ogliaro, M. Bearpark, J. J. Heyd, E. Brothers, 
 K. N. Kudin, V. N. Staroverov, T. Keith, R. Kobayashi, J. Normand, 
 K. Raghavachari, A. Rendell, J. C. Burant, S. S. Iyengar, J. Tomasi, 
 M. Cossi, N. Rega, J. M. Millam, M. Klene, J. E. Knox, J. B. Cross, 
 V. Bakken, C. Adamo, J. Jaramillo, R. Gomperts, R. E. Stratmann, 
 O. Yazyev, A. J. Austin, R. Cammi, C. Pomelli, J. W. Ochterski, 
 R. L. Martin, K. Morokuma, V. G. Zakrzewski, G. A. Voth, 
 P. Salvador, J. J. Dannenberg, S. Dapprich, A. D. Daniels, 
 O. Farkas, J. B. Foresman, J. V. Ortiz, J. Cioslowski, 
 and D. J. Fox, Gaussian, Inc., Wallingford CT, 2010.
 
 ******************************************
 Gaussian 09:  EM64L-G09RevB.01 12-Aug-2010
                21-Jan-2016 
 ******************************************
 ------------------------------------------------
 # freq=raman b3lyp/6-31+g(d,p) geom=connectivity
 ------------------------------------------------
 1/10=4,30=1,38=1,57=2/1,3;
 2/12=2,17=6,18=5,40=1/2;
 3/5=1,6=6,7=111,11=2,16=1,25=1,30=1,71=2,74=-5/1,2,3;
 4//1;
 5/5=2,38=5,98=1/2;
 8/6=4,10=90,11=11/1;
 10/13=10,15=4/2;
 11/6=3,8=1,9=11,15=111,16=1/1,2,10;
 10/6=1/2;
 6/7=2,8=2,9=2,10=2,18=1,28=1/1;
 7/8=1,10=1,25=1/1,2,3,16;
 1/10=4,30=1/3;
 99//99;
 ------------
 550 7000.com
 ------------
 Symbolic Z-matrix:
 Charge =  0 Multiplicity = 1
 O                     9.863     7.056     11.017 
 C                     10.556    7.276     12.254 
 C                     10.408    8.703     12.756 
 O                     11.101    9.557     11.835 
 H                     10.929    9.116     10.955 
 C                     10.778    8.92      14.215 
 O                     10.238    10.036    14.936 
 H                     10.623    10.83     14.466 
 C                     9.856     4.877     12.659 
 O                     9.589     3.905     13.681 
 H                     9.716     3.015     13.245 
 C                     9.805     6.312     13.157 
 O                     10.556    6.46      14.371 
 C                     10.399    7.712     15.055 
 O                     11.311    7.573     16.154 
 C                     10.6      7.871     17.365 
 C                     9.316     7.209     17.838 
 O                     8.284     8.178     18.073 
 H                     7.462     7.789     18.49 
 C                     9.483     6.174     18.938 
 O                     10.126    5.027     18.363 
 H                     9.826     4.91      17.416 
 C                     12.062    9.557     18.48 
 O                     11.115    10.627    18.616 
 H                     10.456    10.654    17.864 
 C                     11.505    8.145     18.555 
 O                     10.904    7.952     19.843 
 C                     10.348    6.653     20.092 
 O                     9.704     6.502     21.366 
 H                     10.50098   6.93039   10.31074 
 H                     10.36934   6.42055   22.05323 
 H                     8.51991   5.8922    19.30942 
 H                     11.18478   5.98662   20.11727 
 H                     12.33255   7.47023   18.48613 
 H                     8.97388   6.64822   16.99338 
 H                     10.23966   8.85202   17.13553 
 H                     12.55339   9.66865   17.53609 
 H                     12.79507   9.66445   19.25199 
 H                     10.82903   4.6898    12.25518 
 H                     9.13299   4.76009   11.87894 
 H                     8.79362   6.63243   13.29606 
 H                     11.58635   6.99955   12.17121 
 H                     9.36948   8.94672   12.67242 
 H                     11.84347   9.0108    14.25292 
 H                     9.39722   7.81205   15.4174 
 

 GradGradGradGradGradGradGradGradGradGradGradGradGradGradGradGradGradGrad
 Berny optimization.
 Initialization pass.
 Trust Radius=3.00D-01 FncErr=1.00D-07 GrdErr=1.00D-07
 Number of steps in this run=      2 maximum allowed number of steps=      2.
 GradGradGradGradGradGradGradGradGradGradGradGradGradGradGradGradGradGrad

                          Input orientation:                          
 ---------------------------------------------------------------------
 Center     Atomic      Atomic             Coordinates (Angstroms)
 Number     Number       Type             X           Y           Z
 ---------------------------------------------------------------------
      1          8           0        9.863000    7.056000   11.017000
      2          6           0       10.556000    7.276000   12.254000
      3          6           0       10.408000    8.703000   12.756000
      4          8           0       11.101000    9.557000   11.835000
      5          1           0       10.929000    9.116000   10.955000
      6          6           0       10.778000    8.920000   14.215000
      7          8           0       10.238000   10.036000   14.936000
      8          1           0       10.623000   10.830000   14.466000
      9          6           0        9.856000    4.877000   12.659000
     10          8           0        9.589000    3.905000   13.681000
     11          1           0        9.716000    3.015000   13.245000
     12          6           0        9.805000    6.312000   13.157000
     13          8           0       10.556000    6.460000   14.371000
     14          6           0       10.399000    7.712000   15.055000
     15          8           0       11.311000    7.573000   16.154000
     16          6           0       10.600000    7.871000   17.365000
     17          6           0        9.316000    7.209000   17.838000
     18          8           0        8.284000    8.178000   18.073000
     19          1           0        7.462000    7.789000   18.490000
     20          6           0        9.483000    6.174000   18.938000
     21          8           0       10.126000    5.027000   18.363000
     22          1           0        9.826000    4.910000   17.416000
     23          6           0       12.062000    9.557000   18.480000
     24          8           0       11.115000   10.627000   18.616000
     25          1           0       10.456000   10.654000   17.864000
     26          6           0       11.505000    8.145000   18.555000
     27          8           0       10.904000    7.952000   19.843000
     28          6           0       10.348000    6.653000   20.092000
     29          8           0        9.704000    6.502000   21.366000
     30          1           0       10.500982    6.930392   10.310741
     31          1           0       10.369340    6.420546   22.053232
     32          1           0        8.519914    5.892201   19.309423
     33          1           0       11.184780    5.986621   20.117269
     34          1           0       12.332551    7.470228   18.486130
     35          1           0        8.973880    6.648221   16.993381
     36          1           0       10.239662    8.852021   17.135533
     37          1           0       12.553387    9.668647   17.536086
     38          1           0       12.795069    9.664451   19.251987
     39          1           0       10.829029    4.689796   12.255182
     40          1           0        9.132992    4.760089   11.878942
     41          1           0        8.793621    6.632429   13.296060
     42          1           0       11.586349    6.999547   12.171207
     43          1           0        9.369485    8.946722   12.672422
     44          1           0       11.843466    9.010796   14.252918
     45          1           0        9.397222    7.812048   15.417396
 ---------------------------------------------------------------------
                    Distance matrix (angstroms):
                    1          2          3          4          5
     1  O    0.000000
     2  C    1.434858   0.000000
     3  C    2.456370   1.519946   0.000000
     4  O    2.908052   2.382341   1.434505   0.000000
     5  H    2.320302   2.283009   1.919795   0.999232   0.000000
     6  C    3.812994   2.568568   1.520747   2.484854   3.269376
     7  O    4.937569   3.861586   2.560896   3.254291   4.143940
     8  H    5.168779   4.186687   2.737600   2.961617   3.918999
     9  C    2.728416   2.531645   3.866832   4.912372   4.692981
    10  O    4.135308   3.786167   4.954512   6.135060   6.031683
    11  H    4.616847   4.454638   5.750768   6.834039   6.628550
    12  C    2.266385   1.519443   2.498258   3.735950   3.738261
    13  O    3.476317   2.268820   2.767883   4.039769   4.343100
    14  C    4.125903   2.839075   2.503510   3.776934   4.366018
    15  O    5.362160   3.983495   3.693063   4.757533   5.436577
    16  C    6.442398   5.145705   4.687427   5.802973   6.538071
    17  C    6.844608   5.720415   5.408440   6.688448   7.322165
    18  O    7.317053   6.311604   5.749564   6.982104   7.651261
    19  H    7.883389   6.980236   6.510996   7.788271   8.399836
    20  C    7.979008   6.858687   6.743040   8.032137   8.629865
    21  O    7.625597   6.524016   6.710510   8.005392   8.499600
    22  H    6.749362   5.725129   6.036652   7.373452   7.787912
    23  C    8.172330   6.799564   6.019070   6.714130   7.622585
    24  O    8.489072   7.212262   6.208158   6.864915   7.810803
    25  H    7.757491   6.549274   5.468123   6.161840   7.093903
    26  C    7.791247   6.431047   5.928168   6.878616   7.683399
    27  O    8.932232   7.626992   7.143920   8.169633   8.963931
    28  C    9.096882   7.865471   7.617283   8.785117   9.480965
    29  O   10.365037   9.184417   8.914714  10.105671  10.803821
    30  H    0.960000   1.974519   3.021602   3.095554   2.318437
    31  H   11.066102   9.838272   9.573381  10.713773  11.434573
    32  H    8.480719   7.472586   7.376504   8.715490   9.273239
    33  H    9.257730   7.993051   7.884820   9.019457   9.685330
    34  H    7.877701   6.483310   6.169118   7.078762   7.835588
    35  H    6.055902   5.035767   4.922826   6.292419   6.809881
    36  H    6.387802   5.139385   4.385300   5.416138   6.224457
    37  H    7.520810   6.133086   5.327699   5.884239   6.801084
    38  H    9.122284   7.725927   6.987155   7.608752   8.521913
    39  H    2.839934   2.600576   4.066188   4.892872   4.614298
    40  H    2.558723   2.914692   4.235732   5.185108   4.801383
    41  H    2.552860   2.146171   2.680512   4.001476   4.025981
    42  H    2.074925   1.070000   2.152264   2.624722   2.527972
    43  H    2.561017   2.091461   1.070000   2.017885   2.326001
    44  H    4.267861   2.943256   2.096679   2.587648   3.423971
    45  H    4.489103   3.411333   2.983035   4.333738   4.894856
                    6          7          8          9         10
     6  C    0.000000
     7  O    1.434189   0.000000
     8  H    1.932647   0.999780   0.000000
     9  C    4.429116   5.652073   6.268313   0.000000
    10  O    5.181612   6.291692   7.045637   1.435464   0.000000
    11  H    6.077645   7.240608   7.961640   1.957049   0.999162
    12  C    2.977878   4.149760   4.774404   1.519812   2.472829
    13  O    2.474918   3.634298   4.371546   2.434509   2.817661
    14  C    1.519377   2.332608   3.181041   3.751385   4.127617
    15  O    2.420376   2.949783   3.732390   4.647630   4.747129
    16  C    3.324844   3.273883   4.142513   5.627078   5.506644
    17  C    4.265102   4.154951   5.117643   5.705424   5.317104
    18  O    4.653468   4.136550   5.051185   6.532931   6.265079
    19  H    5.527264   5.038462   5.952493   6.943453   6.537283
    20  C    5.614648   5.612582   6.555663   6.422397   5.726748
    21  O    5.725946   6.070169   7.007741   5.712356   4.844417
    22  H    5.218506   5.709292   6.662140   4.757209   3.875102
    23  C    4.499406   4.014518   4.450106   7.787996   7.816088
    24  O    4.732464   3.828944   4.183990   8.374570   8.477511
    25  H    4.052856   3.000439   3.406651   7.799087   7.987376
    26  C    4.468194   4.275316   4.970621   6.939873   6.738289
    27  O    5.712030   5.372640   6.105242   7.884401   7.488503
    28  C    6.313740   6.167749   7.012477   7.658050   7.016303
    29  O    7.624762   7.356576   8.196716   8.858644   8.112759
    30  H    4.390731   5.577363   5.699825   3.185395   4.619887
    31  H    8.237242   7.983968   8.779164   9.534026   8.776741
    32  H    6.341898   6.264960   7.229356   6.858855   6.063915
    33  H    6.603557   6.643750   7.463964   7.656545   6.950195
    34  H    4.770851   4.855281   5.511087   6.842045   6.582340
    35  H    4.016869   4.160272   5.156988   4.764685   4.344595
    36  H    2.970512   2.497950   3.344512   5.998944   6.068787
    37  H    3.839542   3.500916   3.807960   7.349948   7.541147
    38  H    5.476679   5.030347   5.383499   8.661714   8.630530
    39  H    4.662415   6.009825   6.529339   1.070000   2.046102
    40  H    5.046591   6.196925   6.764378   1.070000   2.046102
    41  H    3.164679   4.044741   4.725991   2.148494   2.866998
    42  H    2.918674   4.322288   4.567985   2.781592   3.980590
    43  H    2.089061   2.657937   2.887033   4.098721   5.146298
    44  H    1.070000   2.023652   2.201010   4.855807   5.610602
    45  H    2.140061   2.425822   3.393482   4.053854   4.279822
                   11         12         13         14         15
    11  H    0.000000
    12  C    3.299375   0.000000
    13  O    3.720417   1.435166   0.000000
    14  C    5.079803   2.432127   1.435273   0.000000
    15  O    5.637523   3.583318   2.233357   1.434875   0.000000
    16  C    6.429354   4.557386   3.310120   2.324173   1.435565
    17  C    6.232599   4.791189   3.757485   3.028364   2.635977
    18  O    7.212266   5.473797   4.671008   3.714661   3.634737
    19  H    7.441883   6.009332   5.320267   4.520080   4.507588
    20  C    6.514892   5.791605   4.700065   4.275768   3.612401
    21  O    5.514542   5.371843   4.263151   4.269264   3.572957
    22  H    4.582616   4.483874   3.493913   3.708619   3.299915
    23  C    8.700960   6.630113   5.361280   4.230865   3.148100
    24  O    9.420583   7.080678   5.974646   4.657317   3.927693
    25  H    8.957515   6.436817   5.459000   4.068058   3.625974
    26  C    7.596942   5.948806   4.609304   3.696042   2.475807
    27  O    8.325798   6.971370   5.682425   4.820536   3.730685
    28  C    7.779195   6.964579   5.728032   5.147373   4.157116
    29  O    8.837984   8.211820   7.046821   6.463424   5.558276
    30  H    4.955438   2.994660   4.087787   4.809294   5.934033
    31  H    9.466232   8.914775   7.684601   7.116459   6.084062
    32  H    6.818074   6.299205   5.371784   4.994272   4.535630
    33  H    7.629936   7.103169   5.799919   5.405640   4.270835
    34  H    7.359677   6.010793   4.594670   3.945849   2.548129
    35  H    5.272703   3.939750   3.068455   2.630573   2.649889
    36  H    7.034293   4.740186   3.669397   2.377741   1.935734
    37  H    8.410422   6.164179   4.929780   3.824348   2.800968
    38  H    9.475218   7.571546   6.253477   5.212285   4.021710
    39  H    2.241320   2.119777   2.772156   4.142176   4.872980
    40  H    2.291582   2.119777   3.335417   4.517068   5.561682
    41  H    3.733522   1.070000   2.071523   2.614686   3.922970
    42  H    4.530767   2.148886   2.488336   3.199007   4.033275
    43  H    5.969359   2.714084   3.236785   2.874216   4.216394
    44  H    6.441395   3.555261   2.859733   2.101592   2.442313
    45  H    5.275660   2.743322   2.065368   1.070000   2.064528
                   16         17         18         19         20
    16  C    0.000000
    17  C    1.520075   0.000000
    18  O    2.441182   1.434995   0.000000
    19  H    3.334575   2.049102   1.000447   0.000000
    20  C    2.569402   1.519577   2.490350   2.625523   0.000000
    21  O    3.051068   2.385969   3.661402   3.839488   1.435160
    22  H    3.060915   2.392402   3.672770   3.876933   2.007941
    23  C    2.494647   3.669575   4.042348   4.928075   4.278515
    24  O    3.070140   3.940103   3.782461   4.627583   4.753558
    25  H    2.831047   3.628815   3.300279   4.190959   4.708567
    26  C    1.519935   2.486344   3.257031   4.059164   2.849564
    27  O    2.497891   2.663422   3.169917   3.701965   2.449398
    28  C    2.997258   2.540605   3.265284   3.490830   1.519665
    29  O    4.322612   3.619002   3.958437   3.867080   2.460002
    30  H    7.117381   7.625053   8.168488   8.767719   8.719978
    31  H    4.912896   4.415809   4.824887   4.798116   3.248239
    32  H    3.467447   2.129037   2.609459   2.321311   1.070000
    33  H    3.386419   3.190864   4.170815   4.444734   2.078903
    34  H    2.102209   3.096432   4.130663   4.880973   3.162963
    35  H    2.068225   1.070000   1.995428   2.413923   2.065340
    36  H    1.070000   2.011499   2.271071   3.268027   3.315602
    37  H    2.660174   4.076970   4.553896   5.510467   4.858518
    38  H    3.405219   4.486928   4.893801   5.704346   4.821995
    39  H    6.023516   6.309001   7.245118   7.734009   6.976726
    40  H    6.475084   6.445233   7.125255   7.461408   7.207770
    41  H    4.620967   4.608094   5.046549   5.485243   5.702358
    42  H    5.357966   6.108265   6.864796   7.586872   7.134079
    43  H    4.969068   5.450297   5.561965   6.230813   6.852616
    44  H    3.539830   4.742085   5.287379   6.216341   5.963993
    45  H    2.289828   2.495914   2.902657   3.631323   3.883968
                   21         22         23         24         25
    21  O    0.000000
    22  H    1.000249   0.000000
    23  C    4.927746   5.265586   0.000000
    24  O    5.692287   5.982107   1.435341   0.000000
    25  H    5.658713   5.795786   2.040123   1.000257   0.000000
    26  C    3.414737   3.818584   1.519743   2.513194   2.805880
    27  O    3.369170   4.038091   2.403073   2.950538   3.379046
    28  C    2.383821   3.235971   3.737587   4.308079   4.580791
    29  O    3.372198   4.260499   4.818940   5.154517   5.483485
    30  H    8.282656   7.417701   8.721963   9.111490   8.421342
    31  H    3.952088   4.907229   5.046824   5.483140   5.956451
    32  H    2.055189   2.501126   5.163823   5.443678   5.339701
    33  H    2.262597   3.209711   4.024646   4.877684   5.233810
    34  H    3.294449   3.739351   2.104246   3.385927   3.747651
    35  H    2.414869   1.981446   4.495277   4.800830   4.359005
    36  H    4.018753   3.973576   2.371815   2.471548   1.955658
    37  H    5.302912   5.486144   1.070000   2.038041   2.340402
    38  H    5.424037   5.898391   1.070000   2.038041   2.894298
    39  H    6.157385   5.261996   7.997390   8.705870   8.195713
    40  H    6.565083   5.582271   8.669684   9.150790   8.503497
    41  H    5.479646   4.583282   6.790335   7.046074   6.308931
    42  H    6.660470   5.913788   6.824051   7.410529   6.858616
    43  H    6.951203   6.245404   6.430400   6.418433   5.572055
    44  H    5.976043   5.558038   4.267824   4.709487   4.202987
    45  H    4.118761   3.549669   4.418760   4.594103   3.896610
                   26         27         28         29         30
    26  C    0.000000
    27  O    1.434362   0.000000
    28  C    2.434560   1.434761   0.000000
    29  O    3.720856   2.421163   1.435484   0.000000
    30  H    8.393517   9.595315   9.786387  11.092225   0.000000
    31  H    4.062154   2.741594   1.975075   0.960000  11.754292
    32  H    3.815101   3.195519   2.129117   2.450188   9.272473
    33  H    2.683622   2.004190   1.070000   2.004409   9.875539
    34  H    1.070000   2.028289   2.680508   4.017511   8.395419
    35  H    3.329500   3.680425   3.389641   4.435566   6.860710
    36  H    2.028755   2.929464   3.686208   4.868920   7.094979
    37  H    2.111587   3.314997   4.526649   5.728429   7.994749
    38  H    2.111587   2.618764   3.970215   4.901515   9.627242
    39  H    7.216860   8.259696   8.093285   9.357178   2.984751
    40  H    7.851993   8.760764   8.515497   9.662535   3.006803
    41  H    6.107037   7.004098   6.971465   8.122176   3.451955
    42  H    6.486254   7.760746   8.024498   9.398670   2.155026
    43  H    6.309351   7.400095   7.827439   9.036972   3.305058
    44  H    4.401372   5.766512   6.472287   7.840109   4.655223
    45  H    3.794488   4.677172   4.909103   6.098871   5.298446
                   31         32         33         34         35
    31  H    0.000000
    32  H    3.350822   0.000000
    33  H    2.145038   2.786222   0.000000
    34  H    4.204788   4.207633   2.485776   0.000000
    35  H    5.253688   2.478246   3.883873   3.766254   0.000000
    36  H    5.487500   4.055104   4.241994   2.848446   2.545416
    37  H    5.977025   5.803031   4.700309   2.405077   4.714909
    38  H    4.924841   5.701764   4.107089   2.369614   5.366603
    39  H    9.960351   7.519315   7.976259   6.986851   5.452297
    40  H   10.382768   7.541193   8.578126   7.825406   5.454159
    41  H    8.900329   6.064932   7.256969   6.337410   3.701747
    42  H    9.973504   7.847507   8.020422   6.376254   5.495616
    43  H    9.766314   7.355383   8.214819   6.690217   4.910224
    44  H    8.350290   6.807340   6.630997   4.531296   4.618055
    45  H    6.849497   4.427568   5.349425   4.260296   2.004355
                   36         37         38         39         40
    36  H    0.000000
    37  H    2.486090   0.000000
    38  H    3.416069   1.732843   0.000000
    39  H    6.441218   7.459913   8.807257   0.000000
    40  H    6.752805   8.233852   9.582556   1.738690   0.000000
    41  H    4.664673   6.429018   7.789596   3.000023   2.372563
    42  H    5.467152   6.069693   7.661603   2.432187   3.334599
    43  H    4.548136   5.857784   7.452546   4.519489   4.267720
    44  H    3.302555   3.422857   5.130644   4.867347   5.572337
    45  H    2.177898   4.230506   5.448013   4.668846   4.680270
                   41         42         43         44         45
    41  H    0.000000
    42  H    3.033051   0.000000
    43  H    2.465055   2.992857   0.000000
    44  H    3.984189   2.905985   2.936436   0.000000
    45  H    2.501180   3.998772   2.970377   2.962620   0.000000
 Stoichiometry    C12H22O11
 Framework group  C1[X(C12H22O11)]
 Deg. of freedom   129
 Full point group                 C1      NOp   1
 Largest Abelian subgroup         C1      NOp   1
 Largest concise Abelian subgroup C1      NOp   1
                         Standard orientation:                         
 ---------------------------------------------------------------------
 Center     Atomic      Atomic             Coordinates (Angstroms)
 Number     Number       Type             X           Y           Z
 ---------------------------------------------------------------------
      1          8           0        5.045867    0.266675    0.361637
      2          6           0        3.792252   -0.067644   -0.251141
      3          6           0        3.215587   -1.369558    0.280569
      4          8           0        4.082609   -2.429877   -0.145814
      5          1           0        4.986679   -2.007135   -0.096713
      6          6           0        1.743552   -1.600175   -0.023728
      7          8           0        0.968705   -2.483921    0.798163
      8          1           0        1.391574   -3.377486    0.648884
      9          6           0        3.523708    2.449692   -0.239796
     10          8           0        2.558120    3.511735   -0.255999
     11          1           0        3.040172    4.307503   -0.620286
     12          6           0        2.949680    1.113230    0.200873
     13          8           0        1.722352    0.830841   -0.487331
     14          6           0        0.973468   -0.290705    0.003908
     15          8           0       -0.125118   -0.348072   -0.917332
     16          6           0       -1.343557   -0.372923   -0.158626
     17          6           0       -1.767939    0.641096    0.891276
     18          8           0       -2.044897    0.007214    2.148534
     19          1           0       -2.432475    0.629176    2.829592
     20          6           0       -2.812164    1.648615    0.440042
     21          8           0       -2.182414    2.541760   -0.490221
     22          1           0       -1.227665    2.684996   -0.228618
     23          6           0       -2.561632   -2.332489   -1.107131
     24          8           0       -2.745988   -3.092067    0.096720
     25          1           0       -1.990270   -2.977824    0.741974
     26          6           0       -2.555176   -0.819886   -0.960128
     27          8           0       -3.825115   -0.399425   -0.442575
     28          6           0       -3.998492    1.013889   -0.266451
     29          8           0       -5.256303    1.405084    0.304068
     30          1           0        5.751736    0.173551   -0.282317
     31          1           0       -5.944479    1.337850   -0.361885
     32          1           0       -3.158658    2.203953    1.286471
     33          1           0       -3.995841    1.425059   -1.254293
     34          1           0       -2.457987   -0.403245   -1.940874
     35          1           0       -0.891123    1.227489    1.070821
     36          1           0       -1.163808   -1.228152    0.458766
     37          1           0       -1.629836   -2.626020   -1.543590
     38          1           0       -3.345253   -2.595066   -1.786756
     39          1           0        3.927703    2.340091   -1.224517
     40          1           0        4.315801    2.718148    0.427601
     41          1           0        2.803240    1.091074    1.260573
     42          1           0        3.879960   -0.089856   -1.317309
     43          1           0        3.295842   -1.322730    1.346527
     44          1           0        1.690622   -1.978020   -1.023394
     45          1           0        0.615800   -0.091791    0.992547
 ---------------------------------------------------------------------
 Rotational constants (GHZ):      0.4058991      0.1528641      0.1210254
 Standard basis: 6-31+G(d,p) (6D, 7F)
 There are   547 symmetry adapted basis functions of A   symmetry.
 Integral buffers will be    131072 words long.
 Raffenetti 2 integral format.
 Two-electron integral symmetry is turned on.
   547 basis functions,   890 primitive gaussians,   547 cartesian basis functions
    91 alpha electrons       91 beta electrons
       nuclear repulsion energy      2301.3513086257 Hartrees.
 NAtoms=   45 NActive=   45 NUniq=   45 SFac= 1.00D+00 NAtFMM=   50 NAOKFM=F Big=F
 One-electron integrals computed using PRISM.
 NBasis=   547 RedAO= T  NBF=   547
 NBsUse=   547 1.00D-06 NBFU=   547
 Harris functional with IExCor=  402 diagonalized for initial guess.
 ExpMin= 4.38D-02 ExpMax= 5.48D+03 ExpMxC= 8.25D+02 IAcc=2 IRadAn=         0 AccDes= 0.00D+00
 HarFok:  IExCor=  402 AccDes= 0.00D+00 IRadAn=         0 IDoV= 1
 ScaDFX=  1.000000  1.000000  1.000000  1.000000
 FoFCou: FMM=F IPFlag=           0 FMFlag=      100000 FMFlg1=           0
         NFxFlg=           0 DoJE=T BraDBF=F KetDBF=T FulRan=T
         Omega=  0.000000  0.000000  1.000000  0.000000  0.000000 ICntrl=     500 IOpCl=  0
         NMat0=    1 NMatS0=    1 NMatT0=    0 NMatD0=    1 NMtDS0=    0 NMtDT0=    0
         I1Cent=           4 NGrid=           0.
 Petite list used in FoFCou.
 Initial guess orbital symmetries:
       Occupied  (A) (A) (A) (A) (A) (A) (A) (A) (A) (A) (A) (A)
                 (A) (A) (A) (A) (A) (A) (A) (A) (A) (A) (A) (A)
                 (A) (A) (A) (A) (A) (A) (A) (A) (A) (A) (A) (A)
                 (A) (A) (A) (A) (A) (A) (A) (A) (A) (A) (A) (A)
                 (A) (A) (A) (A) (A) (A) (A) (A) (A) (A) (A) (A)
                 (A) (A) (A) (A) (A) (A) (A) (A) (A) (A) (A) (A)
                 (A) (A) (A) (A) (A) (A) (A) (A) (A) (A) (A) (A)
                 (A) (A) (A) (A) (A) (A) (A)
       Virtual   (A) (A) (A) (A) (A) (A) (A) (A) (A) (A) (A) (A)
                 (A) (A) (A) (A) (A) (A) (A) (A) (A) (A) (A) (A)
                 (A) (A) (A) (A) (A) (A) (A) (A) (A) (A) (A) (A)
                 (A) (A) (A) (A) (A) (A) (A) (A) (A) (A) (A) (A)
                 (A) (A) (A) (A) (A) (A) (A) (A) (A) (A) (A) (A)
                 (A) (A) (A) (A) (A) (A) (A) (A) (A) (A) (A) (A)
                 (A) (A) (A) (A) (A) (A) (A) (A) (A) (A) (A) (A)
                 (A) (A) (A) (A) (A) (A) (A) (A) (A) (A) (A) (A)
                 (A) (A) (A) (A) (A) (A) (A) (A) (A) (A) (A) (A)
                 (A) (A) (A) (A) (A) (A) (A) (A) (A) (A) (A) (A)
                 (A) (A) (A) (A) (A) (A) (A) (A) (A) (A) (A) (A)
                 (A) (A) (A) (A) (A) (A) (A) (A) (A) (A) (A) (A)
                 (A) (A) (A) (A) (A) (A) (A) (A) (A) (A) (A) (A)
                 (A) (A) (A) (A) (A) (A) (A) (A) (A) (A) (A) (A)
                 (A) (A) (A) (A) (A) (A) (A) (A) (A) (A) (A) (A)
                 (A) (A) (A) (A) (A) (A) (A) (A) (A) (A) (A) (A)
                 (A) (A) (A) (A) (A) (A) (A) (A) (A) (A) (A) (A)
                 (A) (A) (A) (A) (A) (A) (A) (A) (A) (A) (A) (A)
                 (A) (A) (A) (A) (A) (A) (A) (A) (A) (A) (A) (A)
                 (A) (A) (A) (A) (A) (A) (A) (A) (A) (A) (A) (A)
                 (A) (A) (A) (A) (A) (A) (A) (A) (A) (A) (A) (A)
                 (A) (A) (A) (A) (A) (A) (A) (A) (A) (A) (A) (A)
                 (A) (A) (A) (A) (A) (A) (A) (A) (A) (A) (A) (A)
                 (A) (A) (A) (A) (A) (A) (A) (A) (A) (A) (A) (A)
                 (A) (A) (A) (A) (A) (A) (A) (A) (A) (A) (A) (A)
                 (A) (A) (A) (A) (A) (A) (A) (A) (A) (A) (A) (A)
                 (A) (A) (A) (A) (A) (A) (A) (A) (A) (A) (A) (A)
                 (A) (A) (A) (A) (A) (A) (A) (A) (A) (A) (A) (A)
                 (A) (A) (A) (A) (A) (A) (A) (A) (A) (A) (A) (A)
                 (A) (A) (A) (A) (A) (A) (A) (A) (A) (A) (A) (A)
                 (A) (A) (A) (A) (A) (A) (A) (A) (A) (A) (A) (A)
                 (A) (A) (A) (A) (A) (A) (A) (A) (A) (A) (A) (A)
                 (A) (A) (A) (A) (A) (A) (A) (A) (A) (A) (A) (A)
                 (A) (A) (A) (A) (A) (A) (A) (A) (A) (A) (A) (A)
                 (A) (A) (A) (A) (A) (A) (A) (A) (A) (A) (A) (A)
                 (A) (A) (A) (A) (A) (A) (A) (A) (A) (A) (A) (A)
                 (A) (A) (A) (A) (A) (A) (A) (A) (A) (A) (A) (A)
                 (A) (A) (A) (A) (A) (A) (A) (A) (A) (A) (A) (A)
 The electronic state of the initial guess is 1-A.
 Requested convergence on RMS density matrix=1.00D-08 within 128 cycles.
 Requested convergence on MAX density matrix=1.00D-06.
 Requested convergence on             energy=1.00D-06.
 No special actions if energy rises.
 SCF Done:  E(RB3LYP) =  -1297.90247604     A.U. after   14 cycles
             Convg  =    0.3131D-08             -V/T =  2.0087
 Range of M.O.s used for correlation:     1   547
 NBasis=   547 NAE=    91 NBE=    91 NFC=     0 NFV=     0
 NROrb=    547 NOA=    91 NOB=    91 NVA=   456 NVB=   456

 **** Warning!!: The largest alpha MO coefficient is  0.82609491D+02

          Differentiating once with respect to electric field.
                with respect to dipole field.
          Electric field/nuclear overlap derivatives assumed to be zero.
          There are     3 degrees of freedom in the 1st order CPHF.  IDoFFX=0.
      3 vectors produced by pass  0 Test12= 1.38D-12 3.33D-08 XBig12= 1.17D+02 1.15D+00.
 AX will form     3 AO Fock derivatives at one time.
      3 vectors produced by pass  1 Test12= 1.38D-12 3.33D-08 XBig12= 2.51D+01 4.48D-01.
      3 vectors produced by pass  2 Test12= 1.38D-12 3.33D-08 XBig12= 9.24D+00 2.44D-01.
      3 vectors produced by pass  3 Test12= 1.38D-12 3.33D-08 XBig12= 8.79D-01 9.68D-02.
      3 vectors produced by pass  4 Test12= 1.38D-12 3.33D-08 XBig12= 2.28D-01 3.77D-02.
      3 vectors produced by pass  5 Test12= 1.38D-12 3.33D-08 XBig12= 5.07D-02 1.67D-02.
      3 vectors produced by pass  6 Test12= 1.38D-12 3.33D-08 XBig12= 1.63D-02 1.20D-02.
      3 vectors produced by pass  7 Test12= 1.38D-12 3.33D-08 XBig12= 3.00D-03 7.43D-03.
      3 vectors produced by pass  8 Test12= 1.38D-12 3.33D-08 XBig12= 6.38D-04 2.70D-03.
      3 vectors produced by pass  9 Test12= 1.38D-12 3.33D-08 XBig12= 1.23D-04 1.70D-03.
      3 vectors produced by pass 10 Test12= 1.38D-12 3.33D-08 XBig12= 4.27D-05 7.09D-04.
      3 vectors produced by pass 11 Test12= 1.38D-12 3.33D-08 XBig12= 5.92D-06 3.39D-04.
      3 vectors produced by pass 12 Test12= 1.38D-12 3.33D-08 XBig12= 9.62D-07 1.65D-04.
      3 vectors produced by pass 13 Test12= 1.38D-12 3.33D-08 XBig12= 2.10D-07 4.57D-05.
      3 vectors produced by pass 14 Test12= 1.38D-12 3.33D-08 XBig12= 3.13D-08 1.92D-05.
      3 vectors produced by pass 15 Test12= 1.38D-12 3.33D-08 XBig12= 8.11D-09 8.84D-06.
      3 vectors produced by pass 16 Test12= 1.38D-12 3.33D-08 XBig12= 5.99D-10 3.26D-06.
      3 vectors produced by pass 17 Test12= 1.38D-12 3.33D-08 XBig12= 1.30D-10 8.91D-07.
      3 vectors produced by pass 18 Test12= 1.38D-12 3.33D-08 XBig12= 4.37D-11 7.65D-07.
      3 vectors produced by pass 19 Test12= 1.38D-12 3.33D-08 XBig12= 1.09D-11 2.74D-07.
      3 vectors produced by pass 20 Test12= 1.38D-12 3.33D-08 XBig12= 1.15D-11 3.95D-07.
      3 vectors produced by pass 21 Test12= 1.38D-12 3.33D-08 XBig12= 4.56D-12 1.75D-07.
      2 vectors produced by pass 22 Test12= 1.38D-12 3.33D-08 XBig12= 8.36D-13 5.77D-08.
 Inverted reduced A of dimension    68 with in-core refinement.
 End of Minotr Frequency-dependent properties file   721 does not exist.
 End of Minotr Frequency-dependent properties file   722 does not exist.
 Symmetrizing basis deriv contribution to polar:
 IMax=3 JMax=2 DiffMx= 0.00D+00
 G2DrvN: will do    23 centers at a time, making    2 passes doing MaxLOS=2.
 Calling FoFCou, ICntrl=  3107 FMM=F I1Cent=   0 AccDes= 0.00D+00.
 Calling FoFCou, ICntrl=  3107 FMM=F I1Cent=   0 AccDes= 0.00D+00.
 FoFDir/FoFCou used for L=0 through L=2.
 End of G2Drv Frequency-dependent properties file   721 does not exist.
 End of G2Drv Frequency-dependent properties file   722 does not exist.
          IDoAtm=111111111111111111111111111111111111111111111
          Differentiating once with respect to electric field.
                with respect to dipole field.
          Differentiating once with respect to nuclear coordinates.
          There are   138 degrees of freedom in the 1st order CPHF.  IDoFFX=5.
 Will reuse    3 saved solutions.
    135 vectors produced by pass  0 Test12= 4.15D-14 1.00D-09 XBig12= 3.47D-01 8.40D-02.
 AX will form    68 AO Fock derivatives at one time.
    135 vectors produced by pass  1 Test12= 4.15D-14 1.00D-09 XBig12= 2.07D-02 1.59D-02.
    132 vectors produced by pass  2 Test12= 4.15D-14 1.00D-09 XBig12= 1.38D-04 1.32D-03.
    132 vectors produced by pass  3 Test12= 4.15D-14 1.00D-09 XBig12= 5.46D-07 7.19D-05.
    132 vectors produced by pass  4 Test12= 4.15D-14 1.00D-09 XBig12= 9.68D-10 2.86D-06.
    132 vectors produced by pass  5 Test12= 4.15D-14 1.00D-09 XBig12= 5.58D-12 2.50D-07.
     79 vectors produced by pass  6 Test12= 4.15D-14 1.00D-09 XBig12= 1.51D-13 2.52D-08.
 Inverted reduced A of dimension   877 with in-core refinement.
 Isotropic polarizability for W=    0.000000      184.55 Bohr**3.
 End of Minotr Frequency-dependent properties file   721 does not exist.
 End of Minotr Frequency-dependent properties file   722 does not exist.

 **********************************************************************

            Population analysis using the SCF density.

 **********************************************************************

 Orbital symmetries:
       Occupied  (A) (A) (A) (A) (A) (A) (A) (A) (A) (A) (A) (A)
                 (A) (A) (A) (A) (A) (A) (A) (A) (A) (A) (A) (A)
                 (A) (A) (A) (A) (A) (A) (A) (A) (A) (A) (A) (A)
                 (A) (A) (A) (A) (A) (A) (A) (A) (A) (A) (A) (A)
                 (A) (A) (A) (A) (A) (A) (A) (A) (A) (A) (A) (A)
                 (A) (A) (A) (A) (A) (A) (A) (A) (A) (A) (A) (A)
                 (A) (A) (A) (A) (A) (A) (A) (A) (A) (A) (A) (A)
                 (A) (A) (A) (A) (A) (A) (A)
       Virtual   (A) (A) (A) (A) (A) (A) (A) (A) (A) (A) (A) (A)
                 (A) (A) (A) (A) (A) (A) (A) (A) (A) (A) (A) (A)
                 (A) (A) (A) (A) (A) (A) (A) (A) (A) (A) (A) (A)
                 (A) (A) (A) (A) (A) (A) (A) (A) (A) (A) (A) (A)
                 (A) (A) (A) (A) (A) (A) (A) (A) (A) (A) (A) (A)
                 (A) (A) (A) (A) (A) (A) (A) (A) (A) (A) (A) (A)
                 (A) (A) (A) (A) (A) (A) (A) (A) (A) (A) (A) (A)
                 (A) (A) (A) (A) (A) (A) (A) (A) (A) (A) (A) (A)
                 (A) (A) (A) (A) (A) (A) (A) (A) (A) (A) (A) (A)
                 (A) (A) (A) (A) (A) (A) (A) (A) (A) (A) (A) (A)
                 (A) (A) (A) (A) (A) (A) (A) (A) (A) (A) (A) (A)
                 (A) (A) (A) (A) (A) (A) (A) (A) (A) (A) (A) (A)
                 (A) (A) (A) (A) (A) (A) (A) (A) (A) (A) (A) (A)
                 (A) (A) (A) (A) (A) (A) (A) (A) (A) (A) (A) (A)
                 (A) (A) (A) (A) (A) (A) (A) (A) (A) (A) (A) (A)
                 (A) (A) (A) (A) (A) (A) (A) (A) (A) (A) (A) (A)
                 (A) (A) (A) (A) (A) (A) (A) (A) (A) (A) (A) (A)
                 (A) (A) (A) (A) (A) (A) (A) (A) (A) (A) (A) (A)
                 (A) (A) (A) (A) (A) (A) (A) (A) (A) (A) (A) (A)
                 (A) (A) (A) (A) (A) (A) (A) (A) (A) (A) (A) (A)
                 (A) (A) (A) (A) (A) (A) (A) (A) (A) (A) (A) (A)
                 (A) (A) (A) (A) (A) (A) (A) (A) (A) (A) (A) (A)
                 (A) (A) (A) (A) (A) (A) (A) (A) (A) (A) (A) (A)
                 (A) (A) (A) (A) (A) (A) (A) (A) (A) (A) (A) (A)
                 (A) (A) (A) (A) (A) (A) (A) (A) (A) (A) (A) (A)
                 (A) (A) (A) (A) (A) (A) (A) (A) (A) (A) (A) (A)
                 (A) (A) (A) (A) (A) (A) (A) (A) (A) (A) (A) (A)
                 (A) (A) (A) (A) (A) (A) (A) (A) (A) (A) (A) (A)
                 (A) (A) (A) (A) (A) (A) (A) (A) (A) (A) (A) (A)
                 (A) (A) (A) (A) (A) (A) (A) (A) (A) (A) (A) (A)
                 (A) (A) (A) (A) (A) (A) (A) (A) (A) (A) (A) (A)
                 (A) (A) (A) (A) (A) (A) (A) (A) (A) (A) (A) (A)
                 (A) (A) (A) (A) (A) (A) (A) (A) (A) (A) (A) (A)
                 (A) (A) (A) (A) (A) (A) (A) (A) (A) (A) (A) (A)
                 (A) (A) (A) (A) (A) (A) (A) (A) (A) (A) (A) (A)
                 (A) (A) (A) (A) (A) (A) (A) (A) (A) (A) (A) (A)
                 (A) (A) (A) (A) (A) (A) (A) (A) (A) (A) (A) (A)
                 (A) (A) (A) (A) (A) (A) (A) (A) (A) (A) (A) (A)
 The electronic state is 1-A.
 Alpha  occ. eigenvalues --  -19.20006 -19.19297 -19.18621 -19.18561 -19.17582
 Alpha  occ. eigenvalues --  -19.17548 -19.17370 -19.17217 -19.16801 -19.16079
 Alpha  occ. eigenvalues --  -19.14724 -10.30879 -10.29174 -10.27085 -10.26435
 Alpha  occ. eigenvalues --  -10.26371 -10.26204 -10.25587 -10.25170 -10.24897
 Alpha  occ. eigenvalues --  -10.24515 -10.24240 -10.22599  -1.09484  -1.07710
 Alpha  occ. eigenvalues --   -1.06668  -1.05446  -1.04101  -1.03981  -1.03434
 Alpha  occ. eigenvalues --   -1.02649  -1.02255  -1.01598  -0.99915  -0.81598
 Alpha  occ. eigenvalues --   -0.81124  -0.78540  -0.77644  -0.72097  -0.71050
 Alpha  occ. eigenvalues --   -0.67829  -0.65437  -0.63529  -0.63267  -0.61733
 Alpha  occ. eigenvalues --   -0.57834  -0.56326  -0.55942  -0.55505  -0.55120
 Alpha  occ. eigenvalues --   -0.54468  -0.53491  -0.52638  -0.52087  -0.50692
 Alpha  occ. eigenvalues --   -0.50118  -0.49104  -0.48158  -0.47825  -0.46756
 Alpha  occ. eigenvalues --   -0.45781  -0.45298  -0.44374  -0.43999  -0.43866
 Alpha  occ. eigenvalues --   -0.43202  -0.42308  -0.40958  -0.40322  -0.39427
 Alpha  occ. eigenvalues --   -0.38891  -0.38251  -0.37892  -0.36975  -0.36339
 Alpha  occ. eigenvalues --   -0.35877  -0.35376  -0.34719  -0.33425  -0.33250
 Alpha  occ. eigenvalues --   -0.32020  -0.31454  -0.30980  -0.30432  -0.29657
 Alpha  occ. eigenvalues --   -0.29314  -0.28842  -0.27898  -0.27278  -0.26509
 Alpha  occ. eigenvalues --   -0.25681
 Alpha virt. eigenvalues --   -0.03683  -0.02126  -0.01012  -0.00720   0.00174
 Alpha virt. eigenvalues --    0.00981   0.01302   0.02021   0.02548   0.03022
 Alpha virt. eigenvalues --    0.04001   0.04347   0.04859   0.05642   0.06003
 Alpha virt. eigenvalues --    0.06324   0.06656   0.06880   0.07619   0.07774
 Alpha virt. eigenvalues --    0.07949   0.08441   0.08778   0.09660   0.10293
 Alpha virt. eigenvalues --    0.10629   0.10766   0.10900   0.11371   0.11725
 Alpha virt. eigenvalues --    0.11984   0.12407   0.12709   0.13144   0.13420
 Alpha virt. eigenvalues --    0.13803   0.13921   0.14345   0.14751   0.15186
 Alpha virt. eigenvalues --    0.15513   0.16082   0.16092   0.16626   0.17038
 Alpha virt. eigenvalues --    0.17353   0.17734   0.17976   0.18213   0.18246
 Alpha virt. eigenvalues --    0.18687   0.19004   0.19355   0.19530   0.20133
 Alpha virt. eigenvalues --    0.20206   0.20320   0.20640   0.21019   0.21450
 Alpha virt. eigenvalues --    0.21650   0.21943   0.22812   0.23062   0.23295
 Alpha virt. eigenvalues --    0.23551   0.23673   0.23972   0.24195   0.24417
 Alpha virt. eigenvalues --    0.24729   0.25083   0.25341   0.25690   0.25723
 Alpha virt. eigenvalues --    0.25989   0.26464   0.26863   0.27109   0.27800
 Alpha virt. eigenvalues --    0.28090   0.28422   0.28560   0.29245   0.29462
 Alpha virt. eigenvalues --    0.29715   0.30002   0.30273   0.30682   0.30852
 Alpha virt. eigenvalues --    0.31676   0.31975   0.32072   0.32440   0.32912
 Alpha virt. eigenvalues --    0.33382   0.33992   0.34043   0.34497   0.34737
 Alpha virt. eigenvalues --    0.35211   0.35458   0.35597   0.35807   0.36419
 Alpha virt. eigenvalues --    0.37028   0.37199   0.37430   0.37815   0.37861
 Alpha virt. eigenvalues --    0.37997   0.38641   0.38710   0.39247   0.40223
 Alpha virt. eigenvalues --    0.40370   0.40696   0.41064   0.41157   0.41582
 Alpha virt. eigenvalues --    0.42321   0.42668   0.42817   0.43366   0.43660
 Alpha virt. eigenvalues --    0.44712   0.45671   0.46113   0.46840   0.47289
 Alpha virt. eigenvalues --    0.47714   0.48396   0.49074   0.49990   0.51385
 Alpha virt. eigenvalues --    0.51775   0.53941   0.56995   0.63267   0.64846
 Alpha virt. eigenvalues --    0.66544   0.68206   0.68982   0.70036   0.70350
 Alpha virt. eigenvalues --    0.71362   0.71672   0.72816   0.74356   0.74791
 Alpha virt. eigenvalues --    0.75066   0.76481   0.77286   0.77358   0.79097
 Alpha virt. eigenvalues --    0.79166   0.80304   0.80997   0.82132   0.82808
 Alpha virt. eigenvalues --    0.84338   0.84735   0.86097   0.86738   0.88934
 Alpha virt. eigenvalues --    0.89343   0.90078   0.90873   0.91474   0.93953
 Alpha virt. eigenvalues --    0.94856   0.96819   0.98131   0.98936   0.99954
 Alpha virt. eigenvalues --    1.00723   1.01431   1.01869   1.02355   1.02879
 Alpha virt. eigenvalues --    1.03180   1.04617   1.05875   1.06185   1.06473
 Alpha virt. eigenvalues --    1.06892   1.07773   1.08308   1.08490   1.09348
 Alpha virt. eigenvalues --    1.10846   1.11786   1.12687   1.12987   1.14145
 Alpha virt. eigenvalues --    1.14648   1.16317   1.17547   1.18303   1.20204
 Alpha virt. eigenvalues --    1.20813   1.21736   1.22429   1.24648   1.25094
 Alpha virt. eigenvalues --    1.25897   1.26192   1.26605   1.27602   1.28103
 Alpha virt. eigenvalues --    1.28442   1.28564   1.29624   1.30046   1.31002
 Alpha virt. eigenvalues --    1.31057   1.32372   1.32813   1.33985   1.34607
 Alpha virt. eigenvalues --    1.36195   1.36871   1.37215   1.38166   1.38298
 Alpha virt. eigenvalues --    1.39127   1.40002   1.41057   1.42723   1.43917
 Alpha virt. eigenvalues --    1.45094   1.45651   1.46171   1.47757   1.48718
 Alpha virt. eigenvalues --    1.49385   1.50585   1.52141   1.53211   1.53532
 Alpha virt. eigenvalues --    1.54433   1.55424   1.56095   1.56572   1.56911
 Alpha virt. eigenvalues --    1.57637   1.59046   1.59995   1.60098   1.61573
 Alpha virt. eigenvalues --    1.61743   1.63354   1.63428   1.64210   1.64939
 Alpha virt. eigenvalues --    1.65251   1.66017   1.66612   1.67285   1.68106
 Alpha virt. eigenvalues --    1.68220   1.69505   1.69723   1.71079   1.73609
 Alpha virt. eigenvalues --    1.74370   1.74723   1.76317   1.77158   1.77712
 Alpha virt. eigenvalues --    1.79652   1.80050   1.81052   1.81903   1.82057
 Alpha virt. eigenvalues --    1.83433   1.84316   1.85200   1.85784   1.86408
 Alpha virt. eigenvalues --    1.87947   1.88533   1.89358   1.90851   1.91074
 Alpha virt. eigenvalues --    1.91679   1.93064   1.93192   1.95083   1.95516
 Alpha virt. eigenvalues --    1.95917   1.97046   1.97524   1.97936   1.98544
 Alpha virt. eigenvalues --    1.99049   2.00600   2.01301   2.02607   2.03766
 Alpha virt. eigenvalues --    2.05128   2.05759   2.06711   2.08054   2.08742
 Alpha virt. eigenvalues --    2.09001   2.10745   2.11084   2.12894   2.13073
 Alpha virt. eigenvalues --    2.14095   2.14585   2.15954   2.16657   2.18473
 Alpha virt. eigenvalues --    2.19842   2.20657   2.21507   2.21882   2.22753
 Alpha virt. eigenvalues --    2.23121   2.23859   2.26439   2.28032   2.29242
 Alpha virt. eigenvalues --    2.29649   2.31047   2.33741   2.34507   2.35671
 Alpha virt. eigenvalues --    2.35732   2.37296   2.37412   2.38525   2.39010
 Alpha virt. eigenvalues --    2.39245   2.40124   2.42327   2.43023   2.44561
 Alpha virt. eigenvalues --    2.44924   2.45018   2.46780   2.48186   2.48628
 Alpha virt. eigenvalues --    2.50332   2.51515   2.52528   2.53396   2.54072
 Alpha virt. eigenvalues --    2.54968   2.56240   2.57342   2.58997   2.59693
 Alpha virt. eigenvalues --    2.60887   2.61364   2.62126   2.62636   2.64069
 Alpha virt. eigenvalues --    2.64718   2.66402   2.66926   2.68019   2.68535
 Alpha virt. eigenvalues --    2.69810   2.70526   2.71766   2.73463   2.74459
 Alpha virt. eigenvalues --    2.76148   2.76815   2.77182   2.77842   2.79292
 Alpha virt. eigenvalues --    2.80236   2.80528   2.80893   2.81305   2.83734
 Alpha virt. eigenvalues --    2.85309   2.85383   2.87311   2.88170   2.88593
 Alpha virt. eigenvalues --    2.89789   2.90808   2.92218   2.92891   2.93463
 Alpha virt. eigenvalues --    2.93710   2.95835   2.96206   2.97604   2.98211
 Alpha virt. eigenvalues --    2.99331   3.00547   3.04317   3.05179   3.05356
 Alpha virt. eigenvalues --    3.06811   3.07326   3.08994   3.09850   3.11769
 Alpha virt. eigenvalues --    3.13764   3.16324   3.22263   3.23593   3.28000
 Alpha virt. eigenvalues --    3.28853   3.37464   3.39777   3.41650   3.42396
 Alpha virt. eigenvalues --    3.44121   3.45677   3.47668   3.48286   3.48963
 Alpha virt. eigenvalues --    3.49779   3.50794   3.51537   3.52089   3.52400
 Alpha virt. eigenvalues --    3.53155   3.55745   3.57069   3.58283   3.59851
 Alpha virt. eigenvalues --    3.61166   3.62944   3.66099   4.29042   4.29401
 Alpha virt. eigenvalues --    4.29902   4.31210   4.32643   4.34950   4.41016
 Alpha virt. eigenvalues --    4.45866   4.47685   4.49325   4.54640   4.58577
 Alpha virt. eigenvalues --    4.59566   4.61273   4.63408   4.64630   4.74474
 Alpha virt. eigenvalues --    4.80382   4.83412   4.88142   4.89666   4.96247
 Alpha virt. eigenvalues --    4.98372
          Condensed to atoms (all electrons):
              1          2          3          4          5          6
     1  O    8.380850   0.239252  -0.034439  -0.027527   0.040706   0.041894
     2  C    0.239252   9.099557  -1.149506   0.001903  -0.059315  -1.463246
     3  C   -0.034439  -1.149506   8.917756   0.204082  -0.020523  -1.759798
     4  O   -0.027527   0.001903   0.204082   8.261990   0.197556  -0.086314
     5  H    0.040706  -0.059315  -0.020523   0.197556   0.443000   0.019298
     6  C    0.041894  -1.463246  -1.759798  -0.086314   0.019298  12.155661
     7  O   -0.000246   0.008093  -0.168221  -0.005169   0.000142   0.237348
     8  H   -0.000096   0.010059   0.018549   0.003792  -0.000141  -0.026217
     9  C   -0.008392   0.708583  -0.205311   0.005116  -0.005508   0.075662
    10  O    0.000736   0.024724   0.009128   0.000155  -0.000010  -0.011232
    11  H    0.000158  -0.005544   0.001288   0.000001   0.000000   0.000499
    12  C   -0.293745  -2.500719  -0.171514  -0.018558   0.054810   0.259935
    13  O    0.015394   0.033282  -0.060758  -0.003491   0.000482  -0.015546
    14  C   -0.003826   0.648429   0.603647   0.033672  -0.005676  -3.821905
    15  O   -0.000039  -0.003157  -0.039485  -0.000538   0.000098   0.073450
    16  C    0.005988   0.046547  -0.378391  -0.006275   0.001447  -0.087662
    17  C   -0.000044  -0.056025  -0.095302  -0.001272   0.000046   0.003742
    18  O   -0.000002  -0.002247  -0.004563   0.000006   0.000000   0.031216
    19  H    0.000000   0.000003  -0.000108   0.000000   0.000000   0.001603
    20  C   -0.000105   0.038189  -0.002315  -0.000329   0.000002  -0.080108
    21  O    0.000003  -0.000403  -0.001868  -0.000001   0.000000   0.014096
    22  H    0.000000   0.000703  -0.000003   0.000000   0.000000   0.003197
    23  C    0.000085   0.004842  -0.078387  -0.000156  -0.000048  -0.028511
    24  O    0.000000   0.000308   0.000331   0.000016   0.000000  -0.029618
    25  H    0.000000  -0.000142  -0.001787  -0.000001   0.000000   0.008316
    26  C    0.000332   0.007911   0.152089   0.000316   0.000112   0.104822
    27  O    0.000001  -0.000161  -0.001341   0.000000   0.000000  -0.011714
    28  C    0.000003  -0.003340   0.001558   0.000059   0.000001   0.012122
    29  O    0.000000   0.000003  -0.000049   0.000000   0.000000   0.000362
    30  H    0.226493   0.068617  -0.052089   0.000627  -0.002420  -0.004194
    31  H    0.000000   0.000000   0.000001   0.000000   0.000000   0.000009
    32  H    0.000000  -0.000126   0.000051   0.000000   0.000000   0.000873
    33  H    0.000000  -0.000009   0.000006   0.000000   0.000000  -0.000416
    34  H    0.000000   0.000272   0.000600   0.000000   0.000000  -0.001095
    35  H    0.000000   0.007618  -0.000452  -0.000003   0.000000  -0.015391
    36  H   -0.000007  -0.000661   0.008382   0.000018   0.000000  -0.037330
    37  H    0.000000   0.000066   0.001629   0.000005   0.000000   0.005998
    38  H    0.000000   0.000001  -0.000238   0.000000   0.000000  -0.001563
    39  H    0.001164   0.081033  -0.003410  -0.000124   0.000002   0.010867
    40  H    0.000208  -0.030085  -0.010583  -0.000003   0.000002  -0.005280
    41  H    0.012489   0.026165  -0.050072  -0.000064  -0.000022   0.016455
    42  H   -0.044083   0.377646  -0.085219   0.001672  -0.001357   0.044707
    43  H   -0.007564   0.119776   0.316073  -0.055791  -0.002981  -0.182624
    44  H   -0.000557   0.035735  -0.157543   0.000202  -0.000060   0.509737
    45  H    0.000320   0.015232  -0.063559  -0.000849   0.000011   0.062024
              7          8          9         10         11         12
     1  O   -0.000246  -0.000096  -0.008392   0.000736   0.000158  -0.293745
     2  C    0.008093   0.010059   0.708583   0.024724  -0.005544  -2.500719
     3  C   -0.168221   0.018549  -0.205311   0.009128   0.001288  -0.171514
     4  O   -0.005169   0.003792   0.005116   0.000155   0.000001  -0.018558
     5  H    0.000142  -0.000141  -0.005508  -0.000010   0.000000   0.054810
     6  C    0.237348  -0.026217   0.075662  -0.011232   0.000499   0.259935
     7  O    8.286740   0.199619  -0.000676  -0.000051   0.000000  -0.026025
     8  H    0.199619   0.413044   0.000820   0.000000   0.000000   0.005151
     9  C   -0.000676   0.000820   6.617982   0.214737  -0.056373  -1.897875
    10  O   -0.000051   0.000000   0.214737   8.294838   0.205333  -0.072182
    11  H    0.000000   0.000000  -0.056373   0.205333   0.445456   0.068326
    12  C   -0.026025   0.005151  -1.897875  -0.072182   0.068326  12.136055
    13  O    0.015511  -0.001103   0.010592   0.000132   0.000130  -0.277592
    14  C    0.046438   0.039921  -0.314694  -0.037224   0.005184  -0.332155
    15  O    0.003504   0.000274  -0.001883  -0.003040   0.000066  -0.002090
    16  C   -0.119220  -0.027575  -0.155349   0.007424  -0.000627  -0.616113
    17  C    0.026754  -0.003004   0.010385  -0.000336   0.000015   0.015895
    18  O    0.006899  -0.000040   0.002464   0.000018   0.000000   0.002898
    19  H    0.000016   0.000000  -0.000102   0.000001   0.000000  -0.001440
    20  C   -0.012262  -0.000197   0.002454  -0.002073   0.000097  -0.003573
    21  O    0.000242  -0.000001  -0.000185  -0.000440   0.000016  -0.008382
    22  H   -0.000005   0.000000   0.002883   0.000377   0.000001  -0.001657
    23  C   -0.000959  -0.001642   0.002382   0.000104  -0.000001   0.005383
    24  O    0.002642   0.000260  -0.000078   0.000000   0.000000  -0.000122
    25  H    0.002631  -0.000108  -0.000018   0.000000   0.000000  -0.000435
    26  C    0.052397   0.003867   0.002254  -0.000069  -0.000026  -0.178354
    27  O    0.000467  -0.000005  -0.000129   0.000005   0.000000  -0.000526
    28  C    0.002461   0.000083  -0.003190   0.000221  -0.000013   0.005124
    29  O    0.000011   0.000000   0.000009   0.000000   0.000000  -0.000059
    30  H   -0.000025   0.000000  -0.007319   0.000039  -0.000006   0.011116
    31  H    0.000000   0.000000   0.000000   0.000000   0.000000   0.000001
    32  H    0.000001   0.000000  -0.000026  -0.000001   0.000000  -0.000689
    33  H    0.000003   0.000000  -0.000009   0.000000   0.000000   0.000109
    34  H    0.000005   0.000000   0.000018   0.000000   0.000000   0.001029
    35  H   -0.001859  -0.000003  -0.002142   0.000177   0.000002   0.010117
    36  H   -0.000463   0.000226   0.000163   0.000001   0.000000   0.009865
    37  H    0.001695  -0.000002   0.000102   0.000000   0.000000   0.000659
    38  H    0.000115   0.000000   0.000002   0.000000   0.000000   0.000134
    39  H    0.000005   0.000000   0.555220  -0.052899  -0.006953  -0.310878
    40  H   -0.000004   0.000000   0.468752  -0.057677  -0.004891  -0.044391
    41  H    0.000217   0.000005   0.026241   0.004208  -0.000104   0.146584
    42  H   -0.000477   0.000004   0.016567   0.000557  -0.000005  -0.053409
    43  H   -0.000731  -0.000143   0.021818   0.000010   0.000000  -0.061297
    44  H   -0.059186  -0.006378   0.007876   0.000009   0.000000  -0.022815
    45  H    0.005361   0.000127   0.008615  -0.000151  -0.000001  -0.052511
             13         14         15         16         17         18
     1  O    0.015394  -0.003826  -0.000039   0.005988  -0.000044  -0.000002
     2  C    0.033282   0.648429  -0.003157   0.046547  -0.056025  -0.002247
     3  C   -0.060758   0.603647  -0.039485  -0.378391  -0.095302  -0.004563
     4  O   -0.003491   0.033672  -0.000538  -0.006275  -0.001272   0.000006
     5  H    0.000482  -0.005676   0.000098   0.001447   0.000046   0.000000
     6  C   -0.015546  -3.821905   0.073450  -0.087662   0.003742   0.031216
     7  O    0.015511   0.046438   0.003504  -0.119220   0.026754   0.006899
     8  H   -0.001103   0.039921   0.000274  -0.027575  -0.003004  -0.000040
     9  C    0.010592  -0.314694  -0.001883  -0.155349   0.010385   0.002464
    10  O    0.000132  -0.037224  -0.003040   0.007424  -0.000336   0.000018
    11  H    0.000130   0.005184   0.000066  -0.000627   0.000015   0.000000
    12  C   -0.277592  -0.332155  -0.002090  -0.616113   0.015895   0.002898
    13  O    8.311274   0.325718   0.037820  -0.007332   0.016077   0.001741
    14  C    0.325718  15.594850   0.219606  -3.528701  -1.136205   0.124771
    15  O    0.037820   0.219606   8.136737  -0.103217   0.082139   0.022202
    16  C   -0.007332  -3.528701  -0.103217  25.110829  -3.250128  -0.464175
    17  C    0.016077  -1.136205   0.082139  -3.250128  11.327887   0.000835
    18  O    0.001741   0.124771   0.022202  -0.464175   0.000835   8.339966
    19  H   -0.000021  -0.022311   0.000213  -0.013732   0.116252   0.194059
    20  C   -0.019843   0.990028  -0.008748  -1.534894  -2.867478   0.213330
    21  O   -0.000930  -0.107528  -0.010236  -0.012008   0.097836   0.011385
    22  H    0.000127   0.006767   0.000618   0.004794  -0.065687   0.000347
    23  C   -0.000322   0.445572  -0.023633   0.593570   0.432051  -0.022660
    24  O    0.000263  -0.006246  -0.001215   0.158132   0.005292  -0.000004
    25  H   -0.000061   0.008210  -0.003914   0.151538  -0.013132  -0.003185
    26  C   -0.006292  -4.191173  -0.044099 -10.675259   0.437835   0.188003
    27  O    0.000234  -0.070536   0.007025  -0.402355   0.212833   0.009913
    28  C    0.003951  -0.363775  -0.001492   1.563561   0.125296  -0.061918
    29  O    0.000002  -0.002130   0.000231   0.030455   0.055405  -0.006323
    30  H   -0.001683   0.005073  -0.000007   0.000692   0.000004   0.000000
    31  H    0.000000   0.000437  -0.000001   0.001668  -0.015397   0.000289
    32  H   -0.000042  -0.028856  -0.001277   0.051759   0.115010  -0.016438
    33  H    0.000026   0.004086   0.000592   0.061960   0.031219  -0.000706
    34  H    0.000172   0.055289   0.003050   0.069454  -0.002590   0.000144
    35  H   -0.004460   0.175268  -0.004222  -0.113310  -0.009787  -0.049970
    36  H    0.000839   0.295251  -0.070177   0.428871   0.015297  -0.022452
    37  H   -0.000057   0.018252   0.008003  -0.055343  -0.016057  -0.000204
    38  H    0.000013   0.021673   0.000442   0.168369  -0.000388  -0.000043
    39  H    0.006321   0.006391   0.000068   0.001371  -0.000077   0.000000
    40  H    0.002964  -0.004204  -0.000058  -0.000487  -0.000031   0.000000
    41  H   -0.034009   0.079521  -0.000557   0.014818   0.005484   0.000016
    42  H    0.002895   0.000880  -0.000272  -0.004266  -0.000190   0.000001
    43  H    0.002277   0.059898  -0.000146   0.013320   0.000424   0.000012
    44  H    0.002986  -0.154253  -0.008990   0.091122   0.008799   0.000020
    45  H   -0.044761   0.176157  -0.057462   0.093657   0.048468   0.002763
             19         20         21         22         23         24
     1  O    0.000000  -0.000105   0.000003   0.000000   0.000085   0.000000
     2  C    0.000003   0.038189  -0.000403   0.000703   0.004842   0.000308
     3  C   -0.000108  -0.002315  -0.001868  -0.000003  -0.078387   0.000331
     4  O    0.000000  -0.000329  -0.000001   0.000000  -0.000156   0.000016
     5  H    0.000000   0.000002   0.000000   0.000000  -0.000048   0.000000
     6  C    0.001603  -0.080108   0.014096   0.003197  -0.028511  -0.029618
     7  O    0.000016  -0.012262   0.000242  -0.000005  -0.000959   0.002642
     8  H    0.000000  -0.000197  -0.000001   0.000000  -0.001642   0.000260
     9  C   -0.000102   0.002454  -0.000185   0.002883   0.002382  -0.000078
    10  O    0.000001  -0.002073  -0.000440   0.000377   0.000104   0.000000
    11  H    0.000000   0.000097   0.000016   0.000001  -0.000001   0.000000
    12  C   -0.001440  -0.003573  -0.008382  -0.001657   0.005383  -0.000122
    13  O   -0.000021  -0.019843  -0.000930   0.000127  -0.000322   0.000263
    14  C   -0.022311   0.990028  -0.107528   0.006767   0.445572  -0.006246
    15  O    0.000213  -0.008748  -0.010236   0.000618  -0.023633  -0.001215
    16  C   -0.013732  -1.534894  -0.012008   0.004794   0.593570   0.158132
    17  C    0.116252  -2.867478   0.097836  -0.065687   0.432051   0.005292
    18  O    0.194059   0.213330   0.011385   0.000347  -0.022660  -0.000004
    19  H    0.419551  -0.090160   0.001967   0.000009  -0.000150   0.000058
    20  C   -0.090160  10.952950   0.002303   0.065861  -0.449760  -0.008686
    21  O    0.001967   0.002303   8.130298   0.219812   0.011731  -0.000086
    22  H    0.000009   0.065861   0.219812   0.414600  -0.000738   0.000012
    23  C   -0.000150  -0.449760   0.011731  -0.000738   6.598286   0.329505
    24  O    0.000058  -0.008686  -0.000086   0.000012   0.329505   8.150513
    25  H   -0.000039   0.004784  -0.000030   0.000000   0.025988   0.233756
    26  C    0.037048   0.763280   0.144689  -0.008010  -2.547510  -0.303948
    27  O    0.000236  -0.228388   0.010860  -0.000458  -0.073222   0.010521
    28  C   -0.008861  -1.861140  -0.006943  -0.004806  -0.028562   0.022222
    29  O    0.000368  -0.216039   0.010975  -0.000823   0.008793  -0.000205
    30  H    0.000000   0.000000   0.000000   0.000000  -0.000002   0.000000
    31  H   -0.000003   0.041359   0.000315   0.000016   0.000659  -0.000038
    32  H    0.005476   0.096767  -0.047200  -0.001940   0.002681  -0.000035
    33  H    0.000015  -0.180470  -0.014501   0.000344   0.008448   0.000121
    34  H    0.000015  -0.033977   0.000389   0.000024  -0.013217   0.011058
    35  H   -0.005211   0.313368  -0.034169   0.015698  -0.008582  -0.000019
    36  H    0.000341   0.013380  -0.002665   0.000036   0.030492   0.000149
    37  H    0.000001  -0.005025  -0.000093   0.000001   0.457149  -0.061151
    38  H    0.000000   0.003948  -0.000084   0.000000   0.526593  -0.054432
    39  H    0.000000   0.000013  -0.000001   0.000000  -0.000002   0.000000
    40  H    0.000000  -0.000029  -0.000001   0.000000   0.000003   0.000000
    41  H    0.000000  -0.000437   0.000021  -0.000004  -0.000024   0.000000
    42  H    0.000000  -0.000140   0.000001   0.000000   0.000079   0.000000
    43  H    0.000000  -0.000027   0.000001   0.000000  -0.000129   0.000000
    44  H    0.000000   0.001145   0.000015   0.000000  -0.000915  -0.000044
    45  H    0.000009   0.029361   0.000487  -0.000044  -0.012291  -0.000288
             25         26         27         28         29         30
     1  O    0.000000   0.000332   0.000001   0.000003   0.000000   0.226493
     2  C   -0.000142   0.007911  -0.000161  -0.003340   0.000003   0.068617
     3  C   -0.001787   0.152089  -0.001341   0.001558  -0.000049  -0.052089
     4  O   -0.000001   0.000316   0.000000   0.000059   0.000000   0.000627
     5  H    0.000000   0.000112   0.000000   0.000001   0.000000  -0.002420
     6  C    0.008316   0.104822  -0.011714   0.012122   0.000362  -0.004194
     7  O    0.002631   0.052397   0.000467   0.002461   0.000011  -0.000025
     8  H   -0.000108   0.003867  -0.000005   0.000083   0.000000   0.000000
     9  C   -0.000018   0.002254  -0.000129  -0.003190   0.000009  -0.007319
    10  O    0.000000  -0.000069   0.000005   0.000221   0.000000   0.000039
    11  H    0.000000  -0.000026   0.000000  -0.000013   0.000000  -0.000006
    12  C   -0.000435  -0.178354  -0.000526   0.005124  -0.000059   0.011116
    13  O   -0.000061  -0.006292   0.000234   0.003951   0.000002  -0.001683
    14  C    0.008210  -4.191173  -0.070536  -0.363775  -0.002130   0.005073
    15  O   -0.003914  -0.044099   0.007025  -0.001492   0.000231  -0.000007
    16  C    0.151538 -10.675259  -0.402355   1.563561   0.030455   0.000692
    17  C   -0.013132   0.437835   0.212833   0.125296   0.055405   0.000004
    18  O   -0.003185   0.188003   0.009913  -0.061918  -0.006323   0.000000
    19  H   -0.000039   0.037048   0.000236  -0.008861   0.000368   0.000000
    20  C    0.004784   0.763280  -0.228388  -1.861140  -0.216039   0.000000
    21  O   -0.000030   0.144689   0.010860  -0.006943   0.010975   0.000000
    22  H    0.000000  -0.008010  -0.000458  -0.004806  -0.000823   0.000000
    23  C    0.025988  -2.547510  -0.073222  -0.028562   0.008793  -0.000002
    24  O    0.233756  -0.303948   0.010521   0.022222  -0.000205   0.000000
    25  H    0.397052  -0.170121  -0.003813   0.000186  -0.000028   0.000000
    26  C   -0.170121  23.744554   0.490719  -1.522586  -0.089460   0.000024
    27  O   -0.003813   0.490719   8.370296   0.149921  -0.027858   0.000000
    28  C    0.000186  -1.522586   0.149921   6.874370   0.395357   0.000000
    29  O   -0.000028  -0.089460  -0.027858   0.395357   8.151853   0.000000
    30  H    0.000000   0.000024   0.000000   0.000000   0.000000   0.405478
    31  H    0.000000   0.009179  -0.003138  -0.029460   0.240462   0.000000
    32  H   -0.000001   0.041554   0.006814   0.019289  -0.003141   0.000000
    33  H   -0.000001  -0.083819  -0.088751   0.545052  -0.054657   0.000000
    34  H   -0.000023   0.120611  -0.051597   0.051347  -0.000358   0.000000
    35  H    0.000029  -0.069611  -0.001383  -0.025300  -0.000986   0.000000
    36  H    0.012097  -0.514196   0.001705   0.014251  -0.000260   0.000000
    37  H   -0.006472  -0.078441   0.006899   0.005782   0.000011   0.000000
    38  H    0.006475  -0.336721  -0.005711  -0.003061  -0.000108   0.000000
    39  H    0.000000   0.000132   0.000000   0.000004   0.000000  -0.000323
    40  H    0.000000  -0.000027   0.000000  -0.000001   0.000000  -0.000231
    41  H    0.000000   0.000656   0.000000   0.000044   0.000000  -0.000143
    42  H    0.000000  -0.000973   0.000000  -0.000001   0.000000  -0.011575
    43  H    0.000000  -0.000083   0.000000   0.000016   0.000000   0.000131
    44  H   -0.000009  -0.012787   0.000039   0.000077   0.000000   0.000014
    45  H    0.000044  -0.005606   0.000003   0.002838  -0.000006   0.000000
             31         32         33         34         35         36
     1  O    0.000000   0.000000   0.000000   0.000000   0.000000  -0.000007
     2  C    0.000000  -0.000126  -0.000009   0.000272   0.007618  -0.000661
     3  C    0.000001   0.000051   0.000006   0.000600  -0.000452   0.008382
     4  O    0.000000   0.000000   0.000000   0.000000  -0.000003   0.000018
     5  H    0.000000   0.000000   0.000000   0.000000   0.000000   0.000000
     6  C    0.000009   0.000873  -0.000416  -0.001095  -0.015391  -0.037330
     7  O    0.000000   0.000001   0.000003   0.000005  -0.001859  -0.000463
     8  H    0.000000   0.000000   0.000000   0.000000  -0.000003   0.000226
     9  C    0.000000  -0.000026  -0.000009   0.000018  -0.002142   0.000163
    10  O    0.000000  -0.000001   0.000000   0.000000   0.000177   0.000001
    11  H    0.000000   0.000000   0.000000   0.000000   0.000002   0.000000
    12  C    0.000001  -0.000689   0.000109   0.001029   0.010117   0.009865
    13  O    0.000000  -0.000042   0.000026   0.000172  -0.004460   0.000839
    14  C    0.000437  -0.028856   0.004086   0.055289   0.175268   0.295251
    15  O   -0.000001  -0.001277   0.000592   0.003050  -0.004222  -0.070177
    16  C    0.001668   0.051759   0.061960   0.069454  -0.113310   0.428871
    17  C   -0.015397   0.115010   0.031219  -0.002590  -0.009787   0.015297
    18  O    0.000289  -0.016438  -0.000706   0.000144  -0.049970  -0.022452
    19  H   -0.000003   0.005476   0.000015   0.000015  -0.005211   0.000341
    20  C    0.041359   0.096767  -0.180470  -0.033977   0.313368   0.013380
    21  O    0.000315  -0.047200  -0.014501   0.000389  -0.034169  -0.002665
    22  H    0.000016  -0.001940   0.000344   0.000024   0.015698   0.000036
    23  C    0.000659   0.002681   0.008448  -0.013217  -0.008582   0.030492
    24  O   -0.000038  -0.000035   0.000121   0.011058  -0.000019   0.000149
    25  H    0.000000  -0.000001  -0.000001  -0.000023   0.000029   0.012097
    26  C    0.009179   0.041554  -0.083819   0.120611  -0.069611  -0.514196
    27  O   -0.003138   0.006814  -0.088751  -0.051597  -0.001383   0.001705
    28  C   -0.029460   0.019289   0.545052   0.051347  -0.025300   0.014251
    29  O    0.240462  -0.003141  -0.054657  -0.000358  -0.000986  -0.000260
    30  H    0.000000   0.000000   0.000000   0.000000   0.000000   0.000000
    31  H    0.405975   0.000162  -0.011124  -0.000038   0.000009   0.000000
    32  H    0.000162   0.639833   0.004858  -0.000033  -0.013293  -0.000500
    33  H   -0.011124   0.004858   0.642769   0.009580  -0.000364   0.000003
    34  H   -0.000038  -0.000033   0.009580   0.640359  -0.000038   0.009757
    35  H    0.000009  -0.013293  -0.000364  -0.000038   0.749940   0.001307
    36  H    0.000000  -0.000500   0.000003   0.009757   0.001307   0.684597
    37  H    0.000000   0.000000   0.000004   0.000433  -0.000015  -0.001246
    38  H    0.000002  -0.000001  -0.000059  -0.002875   0.000006   0.001347
    39  H    0.000000   0.000000   0.000000   0.000000   0.000000   0.000000
    40  H    0.000000   0.000000   0.000000   0.000000   0.000000   0.000000
    41  H    0.000000   0.000000   0.000000   0.000000  -0.000062  -0.000006
    42  H    0.000000   0.000000   0.000000   0.000000   0.000000   0.000000
    43  H    0.000000   0.000000   0.000000   0.000000   0.000001   0.000009
    44  H    0.000000   0.000000   0.000000   0.000002  -0.000003   0.000400
    45  H    0.000000  -0.000005  -0.000001  -0.000046   0.005077  -0.003778
             37         38         39         40         41         42
     1  O    0.000000   0.000000   0.001164   0.000208   0.012489  -0.044083
     2  C    0.000066   0.000001   0.081033  -0.030085   0.026165   0.377646
     3  C    0.001629  -0.000238  -0.003410  -0.010583  -0.050072  -0.085219
     4  O    0.000005   0.000000  -0.000124  -0.000003  -0.000064   0.001672
     5  H    0.000000   0.000000   0.000002   0.000002  -0.000022  -0.001357
     6  C    0.005998  -0.001563   0.010867  -0.005280   0.016455   0.044707
     7  O    0.001695   0.000115   0.000005  -0.000004   0.000217  -0.000477
     8  H   -0.000002   0.000000   0.000000   0.000000   0.000005   0.000004
     9  C    0.000102   0.000002   0.555220   0.468752   0.026241   0.016567
    10  O    0.000000   0.000000  -0.052899  -0.057677   0.004208   0.000557
    11  H    0.000000   0.000000  -0.006953  -0.004891  -0.000104  -0.000005
    12  C    0.000659   0.000134  -0.310878  -0.044391   0.146584  -0.053409
    13  O   -0.000057   0.000013   0.006321   0.002964  -0.034009   0.002895
    14  C    0.018252   0.021673   0.006391  -0.004204   0.079521   0.000880
    15  O    0.008003   0.000442   0.000068  -0.000058  -0.000557  -0.000272
    16  C   -0.055343   0.168369   0.001371  -0.000487   0.014818  -0.004266
    17  C   -0.016057  -0.000388  -0.000077  -0.000031   0.005484  -0.000190
    18  O   -0.000204  -0.000043   0.000000   0.000000   0.000016   0.000001
    19  H    0.000001   0.000000   0.000000   0.000000   0.000000   0.000000
    20  C   -0.005025   0.003948   0.000013  -0.000029  -0.000437  -0.000140
    21  O   -0.000093  -0.000084  -0.000001  -0.000001   0.000021   0.000001
    22  H    0.000001   0.000000   0.000000   0.000000  -0.000004   0.000000
    23  C    0.457149   0.526593  -0.000002   0.000003  -0.000024   0.000079
    24  O   -0.061151  -0.054432   0.000000   0.000000   0.000000   0.000000
    25  H   -0.006472   0.006475   0.000000   0.000000   0.000000   0.000000
    26  C   -0.078441  -0.336721   0.000132  -0.000027   0.000656  -0.000973
    27  O    0.006899  -0.005711   0.000000   0.000000   0.000000   0.000000
    28  C    0.005782  -0.003061   0.000004  -0.000001   0.000044  -0.000001
    29  O    0.000011  -0.000108   0.000000   0.000000   0.000000   0.000000
    30  H    0.000000   0.000000  -0.000323  -0.000231  -0.000143  -0.011575
    31  H    0.000000   0.000002   0.000000   0.000000   0.000000   0.000000
    32  H    0.000000  -0.000001   0.000000   0.000000   0.000000   0.000000
    33  H    0.000004  -0.000059   0.000000   0.000000   0.000000   0.000000
    34  H    0.000433  -0.002875   0.000000   0.000000   0.000000   0.000000
    35  H   -0.000015   0.000006   0.000000   0.000000  -0.000062   0.000000
    36  H   -0.001246   0.001347   0.000000   0.000000  -0.000006   0.000000
    37  H    0.619034  -0.040135   0.000000   0.000000   0.000000   0.000000
    38  H   -0.040135   0.574414   0.000000   0.000000   0.000000   0.000000
    39  H    0.000000   0.000000   0.637541  -0.055095   0.006532   0.003233
    40  H    0.000000   0.000000  -0.055095   0.594350  -0.007842   0.000320
    41  H    0.000000   0.000000   0.006532  -0.007842   0.608152   0.004423
    42  H    0.000000   0.000000   0.003233   0.000320   0.004423   0.577549
    43  H    0.000000   0.000000  -0.000001   0.000001   0.002781   0.005569
    44  H   -0.000055   0.000000  -0.000003   0.000000   0.000012   0.001704
    45  H   -0.000012   0.000001   0.000014  -0.000002   0.006590  -0.000035
             43         44         45
     1  O   -0.007564  -0.000557   0.000320
     2  C    0.119776   0.035735   0.015232
     3  C    0.316073  -0.157543  -0.063559
     4  O   -0.055791   0.000202  -0.000849
     5  H   -0.002981  -0.000060   0.000011
     6  C   -0.182624   0.509737   0.062024
     7  O   -0.000731  -0.059186   0.005361
     8  H   -0.000143  -0.006378   0.000127
     9  C    0.021818   0.007876   0.008615
    10  O    0.000010   0.000009  -0.000151
    11  H    0.000000   0.000000  -0.000001
    12  C   -0.061297  -0.022815  -0.052511
    13  O    0.002277   0.002986  -0.044761
    14  C    0.059898  -0.154253   0.176157
    15  O   -0.000146  -0.008990  -0.057462
    16  C    0.013320   0.091122   0.093657
    17  C    0.000424   0.008799   0.048468
    18  O    0.000012   0.000020   0.002763
    19  H    0.000000   0.000000   0.000009
    20  C   -0.000027   0.001145   0.029361
    21  O    0.000001   0.000015   0.000487
    22  H    0.000000   0.000000  -0.000044
    23  C   -0.000129  -0.000915  -0.012291
    24  O    0.000000  -0.000044  -0.000288
    25  H    0.000000  -0.000009   0.000044
    26  C   -0.000083  -0.012787  -0.005606
    27  O    0.000000   0.000039   0.000003
    28  C    0.000016   0.000077   0.002838
    29  O    0.000000   0.000000  -0.000006
    30  H    0.000131   0.000014   0.000000
    31  H    0.000000   0.000000   0.000000
    32  H    0.000000   0.000000  -0.000005
    33  H    0.000000   0.000000  -0.000001
    34  H    0.000000   0.000002  -0.000046
    35  H    0.000001  -0.000003   0.005077
    36  H    0.000009   0.000400  -0.003778
    37  H    0.000000  -0.000055  -0.000012
    38  H    0.000000   0.000000   0.000001
    39  H   -0.000001  -0.000003   0.000014
    40  H    0.000001   0.000000  -0.000002
    41  H    0.002781   0.000012   0.006590
    42  H    0.005569   0.001704  -0.000035
    43  H    0.612057   0.007009   0.001447
    44  H    0.007009   0.592055   0.005874
    45  H    0.001447   0.005874   0.643785
 Mulliken atomic charges:
              1
     1  O   -0.545404
     2  C   -0.329865
     3  C    0.361664
     4  O   -0.504724
     5  H    0.340347
     6  C   -0.024126
     7  O   -0.503736
     8  H    0.370853
     9  C   -0.102437
    10  O   -0.525546
    11  H    0.347969
    12  C    0.215915
    13  O   -0.312922
    14  C    0.140405
    15  O   -0.206182
    16  C   -1.114929
    17  C    0.341847
    18  O   -0.498368
    19  H    0.364897
    20  C    0.073586
    21  O   -0.409686
    22  H    0.347947
    23  C   -0.192976
    24  O   -0.458942
    25  H    0.352215
    26  C    0.536786
    27  O   -0.307407
    28  C    0.129255
    29  O   -0.491806
    30  H    0.361711
    31  H    0.358659
    32  H    0.128478
    33  H    0.125692
    34  H    0.132279
    35  H    0.082018
    36  H    0.124959
    37  H    0.138584
    38  H    0.141884
    39  H    0.119855
    40  H    0.154321
    41  H    0.131933
    42  H    0.164194
    43  H    0.148887
    44  H    0.158768
    45  H    0.133143
 Sum of Mulliken atomic charges =   0.00000
 Mulliken charges with hydrogens summed into heavy atoms:
              1
     1  O   -0.183693
     2  C   -0.165671
     3  C    0.510551
     4  O   -0.164376
     6  C    0.134641
     7  O   -0.132882
     9  C    0.171740
    10  O   -0.177577
    12  C    0.347848
    13  O   -0.312922
    14  C    0.273549
    15  O   -0.206182
    16  C   -0.989970
    17  C    0.423865
    18  O   -0.133471
    20  C    0.202063
    21  O   -0.061738
    23  C    0.087493
    24  O   -0.106727
    26  C    0.669065
    27  O   -0.307407
    28  C    0.254948
    29  O   -0.133147
 Sum of Mulliken charges with hydrogens summed into heavy atoms =   0.00000
 APT atomic charges:
              1
     1  O   -0.645145
     2  C    0.439185
     3  C    0.355493
     4  O   -0.635808
     5  H    0.258835
     6  C    0.343106
     7  O   -0.591566
     8  H    0.254737
     9  C    0.462416
    10  O   -0.585908
    11  H    0.239617
    12  C    0.434594
    13  O   -0.793549
    14  C    0.907667
    15  O   -0.775923
    16  C    0.367183
    17  C    0.392584
    18  O   -0.588260
    19  H    0.254420
    20  C    0.327406
    21  O   -0.566758
    22  H    0.260068
    23  C    0.443925
    24  O   -0.589159
    25  H    0.267091
    26  C    0.454189
    27  O   -0.813871
    28  C    0.931221
    29  O   -0.677715
    30  H    0.246154
    31  H    0.272521
    32  H   -0.059073
    33  H   -0.076859
    34  H   -0.062425
    35  H   -0.086967
    36  H   -0.005211
    37  H   -0.042141
    38  H   -0.019958
    39  H   -0.062816
    40  H   -0.038269
    41  H   -0.047575
    42  H   -0.032843
    43  H   -0.048819
    44  H   -0.023781
    45  H   -0.042016
 Sum of APT charges=   0.00000
 APT Atomic charges with hydrogens summed into heavy atoms:
              1
[...]
 -0.00001497,-0.00002228,0.00000449,0.00001384,-0.00001108,0.00001518,0
 .00000402,0.00001303,-0.00001624,0.00000145,-0.00000395,0.00000600,-0.
 00000699,-0.00000974,0.00000771,0.00000611,0.00000919,-0.00000161,-0.0
 0000887,-0.00000918,-0.00000098,0.00000382,0.00000517,-0.00000216,-0.0
 0000540,0.00087415,-0.00019758,-0.00061444,-0.00000104,0.00000127,0.00
 000102,0.00000516,-0.00000088,-0.00000429,0.00000339,-0.00000037,0.000
 00164,0.00000436,-0.00000339,0.00000308,-0.00000908,0.00000136,0.00000
 302,0.00000375,-0.00000608,-0.00001000,0.00000033,0.00000158,-0.000003
 16,0.00000122,-0.00000103,0.00000072,0.00058793,-0.00087140,-0.0004230
 7,0.00030856,0.00011165,0.00002208,-0.00032959,-0.00154743,0.00133025,
 0.36213687,-0.00524775,0.00161335,-0.00209215,0.08459994,-0.06873332,-
 0.00714771,0.03177640,-0.01023960,-0.00509327,-0.00142330,0.00453304,-
 0.00051489,0.00072700,-0.00040761,0.00075690,0.00082167,0.00077897,0.0
 0137251,-0.00057647,-0.00026965,-0.00058753,0.00015506,0.00003055,0.00
 008632,-0.00174051,0.00161946,0.00040510,0.00044833,0.00006715,-0.0001
 5009,-0.00001115,-0.00004523,-0.00003361,-0.02128278,0.00513789,0.0038
 0027,0.00007563,0.00043582,-0.00227304,0.00018986,-0.00070605,-0.00007
 558,-0.00000792,0.00015499,-0.00013126,-0.00001632,0.00001744,0.000023
 58,-0.00001082,-0.00001989,-0.00001735,0.00000116,0.00001126,-0.000005
 38,-0.00000092,-0.00000189,-0.00000284,0.00000414,0.00000048,0.0000042
 2,0.00000548,0.00000638,-0.00000677,-0.00001248,-0.00000323,0.00000090
 ,0.00001988,-0.00001461,-0.00000664,-0.00001548,0.00001007,-0.00001024
 ,-0.00000129,-0.00000068,0.00002356,0.00000913,0.00000017,0.00001331,-
 0.00000254,0.00000797,-0.00001687,-0.00000501,-0.00001185,0.00001254,0
 .00000228,0.00000313,-0.00000976,-0.00036364,0.00120367,0.00020647,0.0
 0000026,-0.00000089,0.00000218,0.00000097,0.00000128,-0.00000299,-0.00
 000022,0.00000149,-0.00000001,-0.00000205,0.00000488,-0.00000311,-0.00
 000370,0.00000076,0.00000856,-0.00000428,0.00000033,0.00002128,0.00000
 638,-0.00000016,0.00000617,-0.00000300,0.00000114,-0.00000430,0.000332
 84,-0.00024723,-0.00025478,0.00001282,-0.00007512,-0.00003194,-0.00153
 889,-0.00219643,0.00241508,-0.08661680,0.07268956,-0.03996824,0.004742
 37,-0.01220194,0.03473840,-0.01020078,-0.04666345,0.01343333,-0.002118
 28,0.00069965,-0.00154756,0.00079472,0.00078923,-0.00057062,-0.0001558
 5,-0.00008687,0.00052736,0.00059700,0.00077513,-0.00030107,0.00000516,
 -0.00016551,0.00007172,0.00002480,0.00007225,-0.00031911,-0.00138192,0
 .00012099,-0.00015086,0.00005530,0.00000389,-0.00004704,0.00001088,0.0
 0001186,0.01940468,-0.00491212,-0.00252519,0.00074806,0.00028290,0.001
 28479,0.00039505,-0.00043898,-0.00034283,-0.00007085,0.00001749,-0.000
 16642,-0.00003601,0.00000597,-0.00004404,0.00002158,0.00002886,0.00004
 330,-0.00001571,-0.00000628,-0.00003178,0.00000005,0.00000202,0.000016
 94,0.00000058,-0.00001897,-0.00000465,-0.00001899,0.00001316,0.0000017
 9,0.00001870,-0.00000826,0.00000712,0.00001428,-0.00000744,-0.00001223
 ,-0.00001526,0.00000736,-0.00000446,0.00000355,0.00000210,0.00000964,0
 .00002854,-0.00000969,0.00000554,-0.00001675,0.00000147,-0.00001049,0.
 00001279,0.00000059,0.00001768,-0.00000342,0.00000217,-0.00001394,-0.0
 0225677,0.00096981,0.00347470,0.00000150,-0.00000205,0.00000137,-0.000
 00253,0.00000110,0.00000217,-0.00000398,0.00000089,-0.00000330,-0.0000
 0758,0.00000597,-0.00000545,-0.00000526,-0.00001668,-0.00000505,-0.000
 00548,0.00001236,0.00002189,0.00000276,-0.00000299,0.00000603,-0.00000
 244,-0.00000142,-0.00000348,-0.00032336,0.00025211,0.00031045,-0.00000
 070,0.00013363,-0.00004311,0.00099746,0.00229722,-0.00252469,-0.024184
 40,0.01163319,0.05783230,0.00154059,-0.00050172,0.00006997,-0.00542454
 ,0.00238639,-0.00161278,-0.32919658,0.07754611,-0.03350814,-0.02107180
 ,-0.00920637,0.01358460,-0.00077222,-0.00064090,-0.00039262,-0.0115094
 1,0.00496681,-0.00400954,0.00239172,-0.00085032,0.00130939,-0.00041687
 ,-0.00012480,-0.00024150,0.00057661,0.00000377,-0.00026882,0.00001855,
 0.00006777,0.00007695,-0.00000291,0.00003402,-0.00001223,-0.00042575,-
 0.00041801,0.00027756,0.00031199,0.00025425,0.00015187,-0.00103002,-0.
 00100472,-0.00001377,0.00025410,0.00032974,-0.00063896,-0.00010503,0.0
 0012636,0.00008254,-0.00007184,0.00000596,-0.00004329,0.00008445,-0.00
 002423,0.00003799,-0.00000692,0.00000158,-0.00002832,0.00000256,0.0000
 1063,0.00000042,0.00002729,-0.00000544,-0.00000251,-0.00001840,-0.0000
 0229,0.00000048,-0.00004565,0.00003223,0.00003345,0.00004696,-0.000029
 59,-0.00000687,-0.00002184,0.00000716,-0.00001260,-0.00000115,-0.00001
 730,0.00000438,0.00003185,0.00001885,-0.00003398,-0.00002742,-0.000026
 29,0.00000076,0.00001149,0.00000360,-0.00000219,0.00018561,-0.00042710
 ,-0.00015523,-0.00000161,-0.00000006,0.00000120,0.00000669,0.00000383,
 -0.00000752,0.00000396,0.00000092,0.00000244,0.00001141,-0.00000692,0.
 00000788,-0.00000146,0.00000871,0.00000536,0.00000739,-0.00003387,-0.0
 0000767,0.00000558,0.00000412,-0.00001183,0.00000489,-0.00000221,-0.00
 000017,-0.00006239,-0.00027832,-0.00004128,-0.00000431,0.00004139,0.00
 002148,0.00091176,0.00012479,-0.00030794,0.00059366,0.00014771,-0.0001
 6354,0.36251721,-0.00151319,0.00294526,0.00174531,0.03469583,-0.014132
 05,0.00226312,0.07793816,-0.06049273,0.00458801,-0.03176131,-0.0001078
 8,0.00944834,-0.00033553,-0.00005346,-0.00070143,-0.00500610,0.0038582
 0,-0.00357684,-0.00036824,0.00058319,0.00172682,-0.00037480,-0.0001700
 5,-0.00013769,0.00003340,-0.00006316,-0.00023914,-0.00018321,-0.000043
 54,0.00008801,0.00004296,0.00001150,-0.00000825,0.00242800,0.00135368,
 -0.00066194,-0.00060226,-0.00044452,0.00047340,0.00022163,-0.00049957,
 -0.00038352,-0.00003825,0.00020430,-0.00032989,-0.00006151,0.00009161,
 0.00005599,0.00000929,-0.00001097,0.00000459,-0.00000442,-0.00000263,-
 0.00001556,0.00000265,0.00000174,0.00000727,0.00000181,-0.00001090,-0.
 00000122,-0.00000644,0.00001074,0.00000155,0.00000915,-0.00000467,-0.0
 0000797,-0.00001794,0.00002322,0.00000316,0.00001211,-0.00002493,0.000
 00937,-0.00000002,0.00001650,-0.00002608,0.00001448,-0.00000886,-0.000
 00182,-0.00000408,-0.00000358,-0.00000930,0.00000316,0.00000228,0.0000
 0186,-0.00000157,-0.00000076,0.00000009,0.00000521,0.00029369,0.000325
 94,0.00000018,0.00000011,-0.00000043,-0.00000133,0.00000082,0.00000070
 ,-0.00000172,-0.00000082,-0.00000133,0.00000029,-0.00000174,0.00000098
 ,0.00000080,-0.00001064,0.00000011,0.00000777,-0.00002121,-0.00000159,
 0.00000002,0.00000203,-0.00000243,0.00000189,-0.00000534,0.00000046,-0
 .00026899,0.00011069,0.00017691,-0.00009751,-0.00004238,-0.00001622,-0
 .00094632,-0.00009178,0.00056544,0.00009794,-0.00524909,-0.00263203,-0
 .07313053,0.07177956,0.00058155,0.00114135,0.00112798,0.01039533,-0.00
 684661,0.00166769,-0.03649165,0.00522977,-0.04504568,0.03197275,0.0065
 7632,-0.00677411,0.00149220,-0.00007047,0.00039149,-0.03686194,0.00698
 160,-0.00671090,0.00286264,0.00079707,0.00387584,-0.00040345,-0.000232
 16,-0.00030628,0.00007048,-0.00005230,-0.00004423,-0.00006119,-0.00004
 644,0.00002323,0.00001044,-0.00000211,0.00000116,-0.00043057,0.0005767
 3,-0.00011846,0.00026095,0.00049560,-0.00025671,-0.00066889,-0.0009914
 9,0.00101027,0.00039903,0.00032767,-0.00069578,-0.00009193,0.00018341,
 0.00017263,-0.00006358,-0.00000881,-0.00003521,0.00008845,-0.00001987,
 0.00001491,0.00000002,-0.00000159,-0.00001503,0.00000475,-0.00000570,0
 .00000331,0.00002149,0.00000969,-0.00000654,-0.00001563,-0.00001328,0.
 00000504,-0.00007750,0.00005546,0.00006107,0.00005486,-0.00005888,-0.0
 0001011,-0.00002076,0.00002297,-0.00002605,0.00000592,-0.00003309,0.00
 003871,0.00003306,0.00003026,-0.00005714,-0.00002722,-0.00003587,0.000
 02421,0.00001321,0.00000795,-0.00002206,0.00011236,0.00011706,0.000045
 45,-0.00000035,-0.00000226,0.00000480,0.00000580,0.00000579,-0.0000080
 9,0.00000105,0.00000296,0.00000118,0.00000809,-0.00000679,0.00000646,-
 0.00000121,0.00000386,0.00000018,-0.00000510,-0.00005537,-0.00001758,0
 .00002581,0.00001840,-0.00000824,0.00000836,-0.00000372,-0.00001292,-0
 .00004744,0.00002206,0.00004562,-0.00003574,0.00000063,-0.00000659,-0.
 00006516,0.00024860,0.00007177,0.00041361,-0.00180223,-0.00064695,0.02
 749787,-0.01190635,0.05858784,0.00023026,-0.00030010,-0.00028707,-0.00
 066438,0.00114350,-0.00033421,-0.01174099,-0.00381814,-0.00282605,0.00
 195046,0.00064280,0.00066779,0.00021340,-0.00000228,0.00022079,-0.3531
 0983,-0.03492681,-0.01719097,-0.01316479,0.01108223,0.00711295,0.00022
 749,0.00031356,0.00062752,0.00000689,0.00000673,0.00000836,0.00002608,
 -0.00001460,0.00000089,-0.00001533,-0.00000047,-0.00000485,0.00007760,
 0.00015811,0.00012162,0.00087361,-0.00089312,-0.00008862,-0.00934671,-
 0.00174601,0.00071246,0.00184385,0.00099412,-0.00214624,-0.00005258,0.
 00062381,0.00028692,-0.00003150,-0.00007716,-0.00025934,0.00011898,-0.
 00003004,0.00002486,0.00000726,-0.00001384,-0.00001811,0.00002470,0.00
 003628,0.00000275,0.00003815,-0.00000967,-0.00000355,-0.00002584,0.000
 00144,0.00000024,-0.00016912,0.00013599,0.00011556,0.00012227,-0.00013
 082,0.00000694,-0.00004277,0.00004439,-0.00010555,-0.00000335,-0.00006
 322,0.00002767,0.00004081,0.00002018,-0.00005553,-0.00002611,-0.000031
 24,0.00001611,0.00001501,0.00000094,-0.00000928,-0.00006606,-0.0000880
 5,-0.00003786,-0.00000228,0.00000133,0.00000262,0.00000874,0.00000877,
 -0.00001437,0.00000610,0.00000105,0.00000483,0.00001829,-0.00001842,0.
 00001212,0.00000922,0.00001765,-0.00000267,-0.00001343,-0.00011577,-0.
 00005274,0.00004746,0.00002182,-0.00004173,0.00002373,-0.00000854,-0.0
 0001713,0.00001157,-0.00002482,-0.00001652,0.00000695,0.00000381,0.000
 00480,0.00010914,0.00006723,-0.00000099,0.00023047,-0.00043749,-0.0002
 1764,0.00033364,-0.00077105,-0.00127207,0.38160889,0.00010818,0.000138
 31,0.00013644,-0.00010673,0.00001671,0.00057552,-0.00439556,0.00384967
 ,0.00159478,0.00109762,0.00003068,-0.00092086,-0.00006691,0.00003244,-
 0.00006565,-0.03915243,-0.04720725,0.00123670,0.03985977,-0.01231690,-
 0.01125322,0.00174873,0.00159628,-0.00042967,0.00000401,0.00007221,0.0
 0003760,0.00001772,-0.00005307,0.00000342,-0.00001202,-0.00000220,-0.0
 0000637,0.00000978,0.00004954,0.00017687,0.00168116,0.00029134,-0.0004
 5468,-0.03059421,-0.00295770,0.00150476,0.00045062,0.00161399,-0.00253
 585,-0.00014783,0.00026348,0.00006670,-0.00009897,-0.00050578,-0.00017
 417,0.00001213,0.00014194,0.00003958,0.00002810,-0.00000925,-0.0000267
 6,0.00003633,0.00016101,0.00009508,0.00003659,0.00001007,-0.00000563,-
 0.00003150,0.00002781,-0.00001858,0.00011318,-0.00006872,-0.00005323,-
 0.00007651,0.00004481,-0.00001042,0.00007529,-0.00001317,0.00010167,0.
 00000876,-0.00000643,0.00007376,0.00002791,0.00003765,-0.00006218,-0.0
 0005144,-0.00011899,0.00000422,0.00001974,0.00001283,0.00002090,0.0000
 2113,0.00005543,0.00000504,-0.00000321,0.00000005,0.00000447,0.0000039
 1,0.00000060,-0.00000277,0.00001096,0.00000985,0.00001238,0.00001337,0
 .00000364,0.00001513,0.00014242,0.00020287,0.00018838,0.00007003,-0.00
 015087,0.00004033,-0.00002675,0.00004330,-0.00000964,-0.00002078,0.000
 01159,0.00000908,0.00002152,-0.00002929,-0.00001890,0.00000138,-0.0000
 1228,-0.00000606,0.00014762,0.00006459,0.00004308,0.00003901,-0.000063
 09,-0.00002623,0.00032352,0.00016736,-0.00103592,0.02884095,0.05816379
 ,0.00052940,-0.00042299,-0.00072569,-0.00088688,0.00169732,0.00068608,
 -0.03745332,-0.00493888,-0.00674521,0.00190613,0.00010488,0.00380365,0
 .00001421,-0.00026051,0.00054726,-0.02115035,-0.00043399,-0.04106170,0
 .02242181,-0.00950751,-0.00283440,-0.00035239,0.00080853,0.00007962,-0
 .00001709,0.00004249,0.00003910,-0.00000260,-0.00006086,0.00002781,-0.
 00000515,0.00000209,0.00000943,-0.00029123,0.00002380,-0.00046389,-0.0
 0085145,0.00014275,0.00027659,0.02066943,0.00452961,-0.00125307,0.0005
 2044,-0.00086780,0.00179883,0.00048209,-0.00015479,-0.00037907,0.00017
 766,0.00023118,0.00004440,-0.00012036,-0.00000027,-0.00006269,-0.00002
 254,0.00000692,0.00002159,-0.00001521,-0.00009502,-0.00005860,-0.00004
 926,0.00000353,0.00000243,0.00003021,-0.00001238,0.00000465,0.00030209
 ,-0.00012008,-0.00026006,-0.00018262,0.00014059,0.00005957,0.00011366,
 -0.00004692,0.00004497,-0.00001171,0.00013809,-0.00008394,-0.00011160,
 -0.00011739,0.00013995,0.00008470,0.00014894,-0.00003028,-0.00003619,-
 0.00002498,0.00002422,-0.00000020,-0.00024960,-0.00011342,0.00000194,0
 .00000227,-0.00001086,-0.00001245,-0.00000431,0.00000799,-0.00000933,-
 0.00001212,-0.00000837,-0.00003868,0.00002408,-0.00004219,-0.00010627,
 -0.00012915,-0.00011920,0.00010764,0.00012921,0.00004327,-0.00016805,-
 0.00009691,-0.00005353,-0.00004625,-0.00000010,0.00005995,0.00000121,-
 0.00001646,0.00000101,0.00000828,0.00001415,-0.00000050,0.00011033,0.0
 0003517,-0.00007648,0.00033888,-0.00046169,-0.00008506,-0.00132033,-0.
 00094362,-0.00598369,0.01480580,0.00842468,0.05459277,0.00012945,-0.00
 003919,0.00022046,-0.00002196,0.00021709,-0.00018834,-0.00080415,-0.00
 069213,-0.00015205,0.00023567,-0.00003208,0.00029665,-0.00004261,-0.00
 004300,0.00006746,-0.00612464,0.00083052,0.00511524,0.00096501,0.00048
 033,-0.00065434,0.00041852,0.00013962,-0.00027905,0.00036115,-0.000151
 70,0.00003115,0.00005001,0.00003418,0.00000213,-0.00000769,-0.00000645
 ,0.00000862,0.00113722,-0.00050203,0.00053720,0.00381479,0.00569902,0.
 00219646,-0.32019289,0.01670831,0.09854293,-0.02440291,0.00192678,-0.0
 0693449,-0.00223083,0.00190122,0.00387670,0.00068554,-0.00115488,0.000
 80102,0.00010469,0.00006464,-0.00002413,0.00003452,-0.00005736,0.00004
 413,0.00004139,0.00054781,0.00016334,0.00015881,-0.00007403,-0.0000033
 3,-0.00011507,0.00011669,0.00000982,-0.00018904,0.00006660,0.00013194,
 0.00013683,-0.00009030,-0.00004324,-0.00005182,-0.00003363,-0.00003040
 ,0.00018607,-0.00047877,0.00015068,0.00020084,0.00000100,-0.00006257,-
 0.00007581,-0.00018443,0.00004473,0.00004866,0.00001268,0.00006872,0.0
 0000668,-0.00000332,-0.00001136,-0.00001308,0.00001081,0.00000909,0.00
 000915,-0.00000972,0.00000232,0.00003716,0.00001651,0.00003744,0.00025
 330,-0.00001889,0.00024426,0.00097571,0.00025714,0.00092665,0.00052225
 ,-0.00109285,-0.00027357,0.00005869,0.00008018,-0.00006191,0.00002530,
 0.00000443,-0.00002032,-0.00004959,-0.00009711,-0.00008650,-0.00002600
 ,0.00008070,0.00003570,0.00007956,0.00059687,0.00128327,0.00004763,-0.
 00001211,-0.00016527,0.00033815,-0.00003042,0.00030130,0.00024404,-0.0
 0018657,0.00063562,0.34304132,0.00002582,0.00053546,-0.00046441,-0.000
 51821,-0.00088792,-0.00005519,-0.00095547,-0.00047816,-0.00148532,0.00
 024649,-0.00001002,0.00094293,0.00006567,-0.00019918,0.00015108,-0.024
 90008,0.00111120,0.01148387,0.00062652,0.00268589,-0.00029485,0.000044
 54,0.00066244,-0.00003986,-0.00011211,0.00025618,-0.00004888,-0.000083
 97,-0.00009348,0.00003900,-0.00000855,0.00002587,0.00000600,0.00399712
 ,0.00082241,0.00379270,0.02968862,-0.01783612,-0.02292085,0.01500815,-
 0.04366809,-0.00247962,0.00541112,0.00221077,0.00013322,-0.00075178,0.
 00110052,-0.00128688,0.00015047,0.00185186,0.00146407,0.00029148,-0.00
 062673,-0.00013103,-0.00001441,-0.00004311,0.00010194,-0.00013865,-0.0
 0042506,-0.00019129,-0.00004355,0.00011757,-0.00000435,0.00009958,-0.0
 0019311,0.00001014,-0.00008509,0.00006851,0.00000535,0.00005433,-0.000
 04453,0.00000717,-0.00004899,-0.00000947,-0.00002550,0.00008323,0.0000
 0480,-0.00005782,-0.00003608,-0.00003635,-0.00006428,0.00007665,0.0001
 8346,0.00008220,-0.00001918,-0.00000255,-0.00011146,0.00000830,-0.0000
 0564,-0.00004745,0.00000865,-0.00001086,0.00000288,0.00001186,0.000006
 84,0.00000154,-0.00003809,-0.00001706,-0.00003371,-0.00002044,-0.00002
 139,-0.00005276,-0.00060285,-0.00103048,0.00079010,-0.00085103,0.00000
 443,-0.00070080,0.00000191,-0.00002144,0.00000495,0.00000643,-0.000022
 69,-0.00000714,-0.00003835,0.00011757,0.00011504,-0.00009881,-0.000121
 43,-0.00000827,-0.00124466,0.00059381,-0.00013279,-0.00013016,-0.00004
 562,0.00003936,0.00028076,0.00004080,0.00037608,-0.00064506,-0.0035988
 6,0.00232805,-0.02480216,0.05704896,-0.00011800,0.00000885,-0.00037333
 ,-0.00004045,0.00033813,0.00001762,0.00054795,-0.00051969,0.00122564,-
 0.00027213,0.00020029,-0.00027603,-0.00005391,-0.00001172,-0.00003782,
 0.02131960,0.00089009,-0.00324714,-0.00161568,-0.00142112,0.00107298,-
 0.00027725,-0.00041550,0.00002293,-0.00023474,0.00001451,0.00005254,-0
 .00005803,-0.00001941,-0.00001262,0.00000213,0.00000762,-0.00000866,0.
 00328282,-0.00015781,0.00305128,0.01388652,-0.01344662,-0.00895685,0.1
 1140728,-0.00352204,-0.08555515,-0.03360570,0.00338900,-0.00334904,-0.
 00571503,0.00020041,0.00007855,-0.00022501,0.00088324,-0.00335500,-0.0
 0009936,0.00021509,0.00014915,0.00013654,-0.00000665,0.00000416,-0.000
 11114,0.00022639,0.00008936,0.00011771,-0.00002642,-0.00002537,-0.0000
 5563,0.00005095,-0.00001443,-0.00003461,0.00008854,0.00015494,0.000093
 76,-0.00011593,-0.00004867,-0.00003876,0.00001334,0.00000882,-0.000043
 59,0.00011487,0.00015431,0.00020304,0.00014333,-0.00033990,-0.00022441
 ,-0.00031575,-0.00002875,0.00006100,0.00003559,0.00000591,-0.00002104,
 0.00000862,-0.00000257,-0.00000416,0.00000067,0.00001261,0.00004210,-0
 .00004022,0.00002445,0.00003623,0.00001741,0.00003131,0.00021048,-0.00
 011242,0.00000054,0.00063034,0.00142585,-0.00145132,-0.00096943,-0.000
 38589,-0.00087913,0.00005727,0.00007371,-0.00004484,0.00001966,0.00001
 271,-0.00003064,-0.00006869,0.00016641,0.00007297,-0.00003091,-0.00007
 441,-0.00002754,-0.00107907,0.00053186,-0.00016908,-0.00016009,-0.0000
 5612,0.00008218,-0.00032297,0.00011724,-0.00037247,0.00021950,0.002706
 19,-0.00186322,-0.10679416,0.00876682,0.10415731\\-0.00631539,-0.02150
 035,0.01991427,0.03903078,0.02277412,-0.00150939,0.01119631,-0.0101618
 4,0.01570226,-0.00262075,0.01058891,0.01450885,-0.00422073,-0.02074681
 ,-0.02065895,-0.01354030,0.01057473,-0.00516716,-0.00892023,-0.0251784
 3,0.03523390,0.01461711,0.01653399,-0.01790462,0.00074634,0.00692208,-
 0.01594838,-0.00211818,0.01823375,0.01077744,0.00498977,-0.02571886,-0
 .01575298,-0.03748972,-0.00757128,-0.02467572,0.00681857,0.00436678,-0
 .01793431,-0.03238218,0.03173756,0.00408736,0.02304751,0.01577409,-0.0
 0597704,0.01407578,-0.05244276,-0.02373539,0.01972649,0.02364376,0.014
 88127,0.00919604,-0.00345410,-0.01395976,-0.03000879,-0.00533736,0.012
 10061,-0.00413170,-0.00049374,0.00762081,0.00377290,0.00366311,0.02032
 247,-0.00807263,-0.00264820,-0.02778965,0.01891889,-0.00787558,-0.0006
 7631,0.01345713,0.00208111,0.01126561,-0.02229450,0.00576127,-0.020665
 39,-0.00792029,0.00565531,-0.00464315,0.02147852,-0.00779076,-0.007863
 06,-0.01856835,0.00763016,-0.01024792,0.00660140,-0.01776291,0.0290881
 2,-0.00130130,0.00126131,0.00675151,-0.00607209,-0.00234625,-0.0015598
 5,0.01810100,0.00463914,-0.00784077,-0.01688728,0.01426567,0.00197418,
 -0.02090303,0.01293314,0.00198065,0.00837372,0.01694943,0.01610831,0.0
 1402333,-0.01649261,-0.00021103,-0.01174050,0.00285194,0.01669974,-0.0
 0735028,-0.00784302,-0.01386874,-0.01888006,0.00216069,0.00806400,0.01
 046962,-0.00255026,0.01452022,0.01953982,-0.00522274,-0.00233265,-0.01
 636884,0.00557906,-0.00014022,0.02338748,-0.00268124,0.00212235,-0.020
 91607,0.00219194,-0.00065081,0.01745470,-0.00295395,-0.00201067\\\@


 SATCHEL PAIGE'S GUIDE TO LONGEVITY

    1.  AVOID FRIED MEATS, WHICH ANGRY UP THE BLOOD.

    2.  IF YOUR STOMACH DISPUTES YOU, LIE DOWN AND PACIFY IT WITH COOL
        THOUGHTS.

    3.  KEEP THE JUICES FLOWING BY JANGLING AROUND GENTLY AS YOU MOVE.

    4.  GO VERY LIGHT ON THE VICES, SUCH AS CARRYING ON IN SOCIETY.
        THE SOCIAL RUMBLE AIN'T RESTFUL.

    5.  AVOID RUNNING AT ALL TIMES.

    6.  DON'T LOOK BACK.  SOMETHING MAY BE GAINING ON YOU.
 Job cpu time:  0 days 13 hours 49 minutes 43.1 seconds.
 File lengths (MBytes):  RWF=   1369 Int=      0 D2E=      0 Chk=     19 Scr=      1
 Normal termination of Gaussian 09 at Thu Jan 21 19:02:35 2016.
Gaussian '09 finished on node015 at Thu Jan 21 19:02:35 EST 2016.
