Gaussian '09 started on node016 at Mon Feb  8 13:54:04 EST 2016.
 Entering Gaussian System, Link 0=/usr/local/gaussian/g09/g09
 Initial command:
 /usr/local/gaussian/g09/l1.exe /home/srmcgrat/thesis/gaussian/cellobiose/310/7000/1/2dfp/gaussian9800/Gau-9880.inp -scrdir=/home/srmcgrat/thesis/gaussian/cellobiose/310/7000/1/2dfp/gaussian9800/
 Entering Link 1 = /usr/local/gaussian/g09/l1.exe PID=      9882.
  
 Copyright (c) 1988,1990,1992,1993,1995,1998,2003,2009,2010,
            Gaussian, Inc.  All Rights Reserved.
  
 This is part of the Gaussian(R) 09 program.  It is based on
 the Gaussian(R) 03 system (copyright 2003, Gaussian, Inc.),
 the Gaussian(R) 98 system (copyright 1998, Gaussian, Inc.),
 the Gaussian(R) 94 system (copyright 1995, Gaussian, Inc.),
 the Gaussian 92(TM) system (copyright 1992, Gaussian, Inc.),
 the Gaussian 90(TM) system (copyright 1990, Gaussian, Inc.),
 the Gaussian 88(TM) system (copyright 1988, Gaussian, Inc.),
 the Gaussian 86(TM) system (copyright 1986, Carnegie Mellon
 University), and the Gaussian 82(TM) system (copyright 1983,
 Carnegie Mellon University). Gaussian is a federally registered
 trademark of Gaussian, Inc.
  
 This software contains proprietary and confidential information,
 including trade secrets, belonging to Gaussian, Inc.
  
 This software is provided under written license and may be
 used, copied, transmitted, or stored only in accord with that
 written license.
  
 The following legend is applicable only to US Government
 contracts under FAR:
  
                    RESTRICTED RIGHTS LEGEND
  
 Use, reproduction and disclosure by the US Government is
 subject to restrictions as set forth in subparagraphs (a)
 and (c) of the Commercial Computer Software - Restricted
 Rights clause in FAR 52.227-19.
  
 Gaussian, Inc.
 340 Quinnipiac St., Bldg. 40, Wallingford CT 06492
  
  
 ---------------------------------------------------------------
 Warning -- This program may not be used in any manner that
 competes with the business of Gaussian, Inc. or will provide
 assistance to any competitor of Gaussian, Inc.  The licensee
 of this program is prohibited from giving any competitor of
 Gaussian, Inc. access to this program.  By using this program,
 the user acknowledges that Gaussian, Inc. is engaged in the
 business of creating and licensing software in the field of
 computational chemistry and represents and warrants to the
 licensee that it is not a competitor of Gaussian, Inc. and that
 it will not use this program in any manner prohibited above.
 ---------------------------------------------------------------
  

 Cite this work as:
 Gaussian 09, Revision B.01,
 M. J. Frisch, G. W. Trucks, H. B. Schlegel, G. E. Scuseria, 
 M. A. Robb, J. R. Cheeseman, G. Scalmani, V. Barone, B. Mennucci, 
 G. A. Petersson, H. Nakatsuji, M. Caricato, X. Li, H. P. Hratchian, 
 A. F. Izmaylov, J. Bloino, G. Zheng, J. L. Sonnenberg, M. Hada, 
 M. Ehara, K. Toyota, R. Fukuda, J. Hasegawa, M. Ishida, T. Nakajima, 
 Y. Honda, O. Kitao, H. Nakai, T. Vreven, J. A. Montgomery, Jr., 
 J. E. Peralta, F. Ogliaro, M. Bearpark, J. J. Heyd, E. Brothers, 
 K. N. Kudin, V. N. Staroverov, T. Keith, R. Kobayashi, J. Normand, 
 K. Raghavachari, A. Rendell, J. C. Burant, S. S. Iyengar, J. Tomasi, 
 M. Cossi, N. Rega, J. M. Millam, M. Klene, J. E. Knox, J. B. Cross, 
 V. Bakken, C. Adamo, J. Jaramillo, R. Gomperts, R. E. Stratmann, 
 O. Yazyev, A. J. Austin, R. Cammi, C. Pomelli, J. W. Ochterski, 
 R. L. Martin, K. Morokuma, V. G. Zakrzewski, G. A. Voth, 
 P. Salvador, J. J. Dannenberg, S. Dapprich, A. D. Daniels, 
 O. Farkas, J. B. Foresman, J. V. Ortiz, J. Cioslowski, 
 and D. J. Fox, Gaussian, Inc., Wallingford CT, 2010.
 
 ******************************************
 Gaussian 09:  EM64L-G09RevB.01 12-Aug-2010
                 8-Feb-2016 
 ******************************************
 --------------------------------------------------
 # freq=raman b3lyp/6-31+g(2df,p) geom=connectivity
 --------------------------------------------------
 1/10=4,30=1,38=1,57=2/1,3;
 2/12=2,17=6,18=5,40=1/2;
 3/5=1,6=6,7=114,11=2,16=1,25=1,30=1,71=2,74=-5/1,2,3;
 4//1;
 5/5=2,38=5,98=1/2;
 8/6=4,10=90,11=11/1;
 10/13=10,15=4/2;
 11/6=3,8=1,9=11,15=111,16=1/1,2,10;
 10/6=1/2;
 6/7=2,8=2,9=2,10=2,18=1,28=1/1;
 7/8=1,10=1,25=1/1,2,3,16;
 1/10=4,30=1/3;
 99//99;
 ------------
 310 7000.com
 ------------
 Symbolic Z-matrix:
 Charge =  0 Multiplicity = 1
 O                     7.746     7.402     12.188 
 C                     8.392     7.745     13.423 
 C                     7.832     9.069     13.917 
 O                     8.116     10.159    13.028 
 H                     7.934     9.777     12.122 
 C                     8.458     9.41      15.26 
 O                     7.923     10.636    15.78 
 H                     8.205     10.875    16.709 
 C                     8.762     5.29      14.102 
 O                     8.128     4.397     13.175 
 H                     8.417     3.44      13.19 
 C                     8.257     6.67      14.49 
 O                     8.843     7.097     15.728 
 C                     8.221     8.281     16.249 
 O                     8.974     8.619     17.422 
 C                     8.287     8.27      18.632 
 C                     8.813     6.986     19.252 
 O                     8.467     5.977     18.292 
 H                     8.848     6.214     17.398 
 C                     8.346     6.597     20.645 
 O                     8.938     5.444     21.26 
 H                     8.415     5.253     22.091 
 C                     7.875     10.703    19.19 
 O                     8.579     11.435    18.176 
 H                     8.183     12.35     18.109 
 C                     8.438     9.374     19.666 
 O                     7.86      9.003     20.926 
 C                     8.449     7.836     21.52 
 O                     7.654     7.584     22.688 
 H                     8.23029   7.42207   23.43852 
 H                     9.46684   8.02344   21.79161 
 H                     7.3024    6.37795   20.55655 
 H                     9.88032   7.05594   19.28075 
 H                     7.24735   8.14456   18.41225 
 H                     9.48641   9.51424   19.82744 
 H                     7.79198   11.3403   20.04548 
 H                     6.88645   10.51923   18.82407 
 H                     7.18232   8.13591   16.46111 
 H                     9.51268   9.52873   15.12419 
 H                     6.77237   8.97958   14.03573 
 H                     8.41022   7.21652   11.52016 
 H                     9.43432   7.88106   13.22309 
 H                     7.20841   6.56288   14.67408 
 H                     8.85164   4.74412   15.01791 
 H                     9.75564   5.43621   13.73294 
 

 GradGradGradGradGradGradGradGradGradGradGradGradGradGradGradGradGradGrad
 Berny optimization.
 Initialization pass.
 Trust Radius=3.00D-01 FncErr=1.00D-07 GrdErr=1.00D-07
 Number of steps in this run=      2 maximum allowed number of steps=      2.
 GradGradGradGradGradGradGradGradGradGradGradGradGradGradGradGradGradGrad

                          Input orientation:                          
 ---------------------------------------------------------------------
 Center     Atomic      Atomic             Coordinates (Angstroms)
 Number     Number       Type             X           Y           Z
 ---------------------------------------------------------------------
      1          8           0        7.746000    7.402000   12.188000
      2          6           0        8.392000    7.745000   13.423000
      3          6           0        7.832000    9.069000   13.917000
      4          8           0        8.116000   10.159000   13.028000
      5          1           0        7.934000    9.777000   12.122000
      6          6           0        8.458000    9.410000   15.260000
      7          8           0        7.923000   10.636000   15.780000
      8          1           0        8.205000   10.875000   16.709000
      9          6           0        8.762000    5.290000   14.102000
     10          8           0        8.128000    4.397000   13.175000
     11          1           0        8.417000    3.440000   13.190000
     12          6           0        8.257000    6.670000   14.490000
     13          8           0        8.843000    7.097000   15.728000
     14          6           0        8.221000    8.281000   16.249000
     15          8           0        8.974000    8.619000   17.422000
     16          6           0        8.287000    8.270000   18.632000
     17          6           0        8.813000    6.986000   19.252000
     18          8           0        8.467000    5.977000   18.292000
     19          1           0        8.848000    6.214000   17.398000
     20          6           0        8.346000    6.597000   20.645000
     21          8           0        8.938000    5.444000   21.260000
     22          1           0        8.415000    5.253000   22.091000
     23          6           0        7.875000   10.703000   19.190000
     24          8           0        8.579000   11.435000   18.176000
     25          1           0        8.183000   12.350000   18.109000
     26          6           0        8.438000    9.374000   19.666000
     27          8           0        7.860000    9.003000   20.926000
     28          6           0        8.449000    7.836000   21.520000
     29          8           0        7.654000    7.584000   22.688000
     30          1           0        8.230287    7.422074   23.438515
     31          1           0        9.466838    8.023439   21.791610
     32          1           0        7.302404    6.377950   20.556548
     33          1           0        9.880324    7.055943   19.280750
     34          1           0        7.247349    8.144558   18.412247
     35          1           0        9.486413    9.514238   19.827441
     36          1           0        7.791976   11.340301   20.045485
     37          1           0        6.886453   10.519231   18.824073
     38          1           0        7.182318    8.135909   16.461105
     39          1           0        9.512685    9.528732   15.124195
     40          1           0        6.772374    8.979578   14.035732
     41          1           0        8.410224    7.216520   11.520165
     42          1           0        9.434315    7.881064   13.223087
     43          1           0        7.208411    6.562877   14.674078
     44          1           0        8.851644    4.744124   15.017906
     45          1           0        9.755636    5.436214   13.732936
 ---------------------------------------------------------------------
                    Distance matrix (angstroms):
                    1          2          3          4          5
     1  O    0.000000
     2  C    1.435336   0.000000
     3  C    2.403274   1.520070   0.000000
     4  O    2.905779   2.461625   1.434948   0.000000
     5  H    2.383343   2.455889   1.932277   0.999942   0.000000
     6  C    3.738475   2.480151   1.520462   2.379031   3.202547
     7  O    4.836584   3.759427   2.436091   2.799693   3.757521
     8  H    5.719428   4.541989   3.346047   3.751045   4.724364
     9  C    3.025921   2.573901   3.896148   5.027718   4.973847
    10  O    3.185925   3.367537   4.739806   5.763887   5.485512
    11  H    4.141460   4.311373   5.705821   6.727689   6.444492
    12  C    2.469038   1.520638   2.502829   3.785558   3.919847
    13  O    3.718606   2.436458   2.861927   4.146610   4.583876
    14  C    4.182103   2.881460   2.492085   3.729980   4.399149
    15  O    5.512153   4.134562   3.713716   4.734448   5.523818
    16  C    6.524664   5.236443   4.803816   5.916281   6.691469
    17  C    7.156231   5.893264   5.810635   7.020820   7.707089
    18  O    6.309460   5.180599   5.394841   6.732163   7.265878
    19  H    5.456175   4.283984   4.615262   5.932601   6.431683
    20  C    8.516389   7.312818   7.186165   8.411863   9.106244
    21  O    9.357126   8.186042   8.263384   9.522223  10.162969
    22  H   10.155549   9.019136   9.039691  10.310005  10.958052
    23  C    7.742173   6.501949   5.520537   6.190659   7.128645
    24  O    7.267401   6.020139   4.929001   5.323951   6.309985
    25  H    7.728642   6.573302   5.334888   5.533672   6.521234
    26  C    7.764543   6.452194   5.788891   6.692007   7.571549
    27  O    8.884191   7.626310   7.009367   7.986255   8.838267
    28  C    9.368500   8.097712   7.727004   8.810294   9.610157
    29  O   10.501980   9.295740   8.897604  10.007980  10.794814
    30  H   11.260952  10.022025   9.671104  10.764881  11.562741
    31  H    9.776339   8.441945   8.110202   9.120650   9.946152
    32  H    8.442633   7.344627   7.183719   8.463883   9.115594
    33  H    7.414998   6.083021   6.084229   7.199909   7.901900
    34  H    6.288187   5.134439   4.626409   5.814005   6.534797
    35  H    8.114903   6.733855   6.153750   6.966071   7.864659
    36  H    8.789334   7.559334   6.535957   7.123592   8.077481
    37  H    7.381965   6.255767   5.203517   5.935993   6.823931
    38  H    4.372161   3.293361   2.786614   4.092782   4.699578
    39  H    4.033039   2.707711   2.119758   2.596536   3.401037
    40  H    2.617406   2.126690   1.070000   2.052289   2.376474
    41  H    0.960000   1.974944   3.083966   3.319386   2.673023
    42  H    2.037478   1.070000   2.111900   2.639130   2.656673
    43  H    2.678379   2.088898   2.691224   4.057757   4.167754
    44  H    4.036721   3.429323   4.577796   5.815649   5.878621
    45  H    3.207768   2.699269   4.114777   5.048767   4.975529
                    6          7          8          9         10
     6  C    0.000000
     7  O    1.435166   0.000000
     8  H    2.076014   0.999843   0.000000
     9  C    4.290429   5.665626   6.188612   0.000000
    10  O    5.439328   6.764109   7.379673   1.434829   0.000000
    11  H    6.318820   7.663847   8.228459   2.091236   0.999797
    12  C    2.853226   4.183875   4.754860   1.519858   2.629143
    13  O    2.391070   3.656997   3.955084   2.432218   3.784050
    14  C    1.519517   2.419667   2.634519   3.721340   4.954148
    15  O    2.359276   2.805183   2.487824   4.706335   6.047976
    16  C    3.563597   3.723487   3.238932   5.443062   6.693598
    17  C    4.683787   5.115602   4.686239   5.422317   6.640939
    18  O    4.580240   5.320936   5.154118   4.256183   5.366098
    19  H    3.864914   4.798712   4.755322   3.424148   4.653345
    20  C    6.076491   6.337245   5.814917   6.685219   7.790278
    21  O    7.208298   7.616921   7.123528   7.161819   8.192651
    22  H    7.996565   8.309481   7.785686   7.996618   8.961594
    23  C    4.178114   3.410996   2.508754   7.481650   8.718364
    24  O    3.552228   2.609512   1.614176   7.375093   8.645626
    25  H    4.103173   2.903384   2.033743   8.138482   9.359358
    26  C    4.406192   4.118114   3.324325   6.909568   8.185335
    27  O    5.711988   5.399257   4.626716   7.820930   9.020258
    28  C    6.454855   6.408141   5.695681   7.849001   9.031544
    29  O    7.691286   7.556952   6.847096   8.955975  10.043845
    30  H    8.419728   8.311233   7.563710   9.591610  10.700527
    31  H    6.752943   6.734120   5.962933   8.191373   9.444020
    32  H    6.211453   6.428961   5.986799   6.706358   7.687198
    33  H    4.871449   5.376167   4.899572   5.584681   6.886276
    34  H    3.606062   3.686802   3.357597   5.387105   6.499885
    35  H    4.682950   4.481561   3.635708   7.151897   8.502140
    36  H    5.202933   4.325225   3.393998   8.536516   9.773735
    37  H    4.050033   3.217832   2.517672   7.291125   8.422302
    38  H    2.166408   2.694989   2.934271   4.019947   5.066779
    39  H    1.070000   2.045292   2.456437   4.424393   5.661394
    40  H    2.127305   2.666485   3.576507   4.192373   4.855780
    41  H    4.335897   5.484198   6.352212   3.240540   3.281436
    42  H    2.727609   4.051117   4.756727   2.817465   3.721220
    43  H    3.163999   4.280658   4.871191   2.088332   2.789965
    44  H    4.688706   6.013100   6.392620   1.070000   2.010089
    45  H    4.450478   5.881054   6.390761   1.070000   2.010089
                   11         12         13         14         15
    11  H    0.000000
    12  C    3.485470   0.000000
    13  O    4.471752   1.434702   0.000000
    14  C    5.729850   2.385518   1.435333   0.000000
    15  O    6.711342   3.592953   2.281070   1.434288   0.000000
    16  C    7.277442   4.440390   3.180925   2.383939   1.434528
    17  C    7.034115   4.804751   3.525875   3.323477   2.457948
    18  O    5.698182   3.870343   2.823096   3.089139   2.827386
    19  H    5.058468   3.002279   1.889078   2.446593   2.408418
    20  C    8.096216   6.156076   4.967283   4.709172   3.856241
    21  O    8.331408   6.913735   5.774466   5.802825   4.981181
    22  H    9.083764   7.733567   6.638621   6.582962   5.782906
    23  C    9.436362   6.204918   5.091729   3.825609   2.945621
    24  O    9.423718   6.032869   4.988050   3.713382   2.941836
    25  H   10.180345   6.735357   5.805064   4.474126   3.875308
    26  C    8.783585   5.842547   4.566902   3.594110   2.427521
    27  O    9.544785   6.857302   5.623018   4.746149   3.696819
    28  C    9.418850   7.128627   5.852232   5.294662   4.205035
    29  O   10.390713   8.270805   7.077605   6.501386   5.526697
    30  H   10.996537   8.980103   7.741649   7.240647   6.179336
    31  H    9.802947   7.523896   6.165617   5.686737   4.437463
    32  H    8.008739   6.148134   5.119115   4.797956   4.200230
    33  H    7.232814   5.073009   3.701319   3.666828   2.592204
    34  H    7.125505   4.310190   3.293731   2.376184   2.046218
    35  H    9.060664   6.171663   4.802337   3.990913   2.617282
    36  H   10.478697   7.272645   6.144179   4.894556   3.960471
    37  H    9.176103   5.956439   5.012525   3.663563   3.151911
    38  H    5.854582   2.681247   2.091564   1.070000   2.089694
    39  H    6.481843   3.186110   2.593526   2.119073   2.529368
    40  H    5.840118   2.782916   3.270376   2.735888   4.055118
    41  H    4.129225   3.023588   4.231720   4.850856   6.092327
    42  H    4.556213   2.111354   2.690539   3.284544   4.288042
    43  H    3.662723   1.070000   2.016909   2.541193   3.859536
    44  H    2.287115   2.083575   2.457709   3.797736   4.561721
    45  H    2.464061   2.083575   2.751617   4.096156   4.934600
                   16         17         18         19         20
    16  C    0.000000
    17  C    1.519780   0.000000
    18  O    2.325048   1.435060   0.000000
    19  H    2.462643   2.008613   1.000283   0.000000
    20  C    2.618125   1.519822   2.436319   3.307824   0.000000
    21  O    3.913625   2.534848   3.052041   3.939041   1.434607
    22  H    4.591661   3.349868   3.867723   4.809913   1.975351
    23  C    2.529940   3.834029   4.846849   4.930427   4.381564
    24  O    3.210985   4.583245   5.460381   5.285498   5.436588
    25  H    4.114699   5.520493   6.381949   6.212748   6.289267
    26  C    1.520123   2.452461   3.664468   3.911205   2.945952
    27  O    2.445824   2.789045   4.057472   4.604503   2.470626
    28  C    2.924918   2.449249   3.725076   4.447580   1.520314
    29  O    4.162021   3.675184   4.750604   5.593446   2.372105
    30  H    4.881064   4.249309   5.350784   6.191029   2.915109
    31  H    3.381708   2.820178   4.175507   4.791747   2.146094
    32  H    2.872833   2.086497   2.577833   3.520251   1.070000
    33  H    2.105586   1.070000   2.034510   2.306363   2.103796
    34  H    1.070000   2.121015   2.490043   2.705150   2.930385
    35  H    2.101380   2.678918   3.988588   4.147448   3.237162
    36  H    3.416100   4.542251   5.682901   5.865435   4.813031
    37  H    2.656589   4.047027   4.838708   4.941292   4.563984
    38  H    2.439485   3.430818   3.108613   2.710351   4.607317
    39  H    3.923188   4.898349   4.872704   4.074241   6.358891
    40  H    4.891142   5.945415   5.477504   4.823016   7.199680
    41  H    7.190494   7.745750   6.884576   5.978766   9.146067
    42  H    5.542918   6.126578   5.500458   4.533516   7.610390
    43  H    4.443283   4.869405   3.875133   3.198393   6.078419
    44  H    5.080581   4.791143   3.519606   2.797391   5.945840
    45  H    5.847056   5.809515   4.768448   3.855055   7.149205
                   21         22         23         24         25
    21  O    0.000000
    22  H    1.000285   0.000000
    23  C    5.750822   6.197572   0.000000
    24  O    6.747742   7.319238   1.435143   0.000000
    25  H    7.628346   8.141103   1.993999   0.999265   0.000000
    26  C    4.270332   4.781610   1.519798   2.547097   3.368360
    27  O    3.733647   3.965823   2.429799   3.740867   4.386596
    28  C    2.455277   2.645579   3.738725   4.914472   5.664086
    29  O    2.875316   2.523706   4.691802   6.003663   6.630372
    30  H    3.026477   2.560234   5.379646   6.627160   7.258817
    31  H    2.686221   2.978477   4.059849   5.049717   5.824860
    32  H    2.010543   2.204070   4.571802   5.733277   6.513933
    33  H    2.720986   3.646270   4.163002   4.700006   5.681632
    34  H    4.273290   4.822628   2.746719   3.557543   4.318928
    35  H    4.349691   4.942648   2.101461   2.690722   3.562790
    36  H    6.128196   6.451940   1.070000   2.030603   2.218640
    37  H    5.991708   6.382982   1.070000   2.030603   2.354587
    38  H    5.775655   6.444097   3.810069   3.971849   4.634165
    39  H    7.393470   8.247616   4.537807   3.717410   4.317022
    40  H    8.329483   9.026236   5.545488   5.141479   5.471848
    41  H    9.913867  10.751651   8.442060   7.881891   8.355657
    42  H    8.412941   9.305139   6.782244   6.155759   6.738644
    43  H    6.900560   7.627736   6.162670   6.154637   6.799949
    44  H    6.281801   7.104806   7.339510   7.403763   8.237190
    45  H    7.571346   8.466883   7.813794   7.557164   8.332080
                   26         27         28         29         30
    26  C    0.000000
    27  O    1.435035   0.000000
    28  C    2.408917   1.435843   0.000000
    29  O    3.598783   2.271704   1.435184   0.000000
    30  H    4.252650   2.991517   1.974809   0.960000   0.000000
    31  H    2.720431   2.071413   1.070000   2.069542   2.145459
    32  H    3.325503   2.708929   2.090176   2.474119   3.202639
    33  H    2.757191   3.252628   2.769733   4.104232   4.488172
    34  H    2.121573   2.726025   3.346236   4.331472   5.172187
    35  H    1.070000   2.028156   2.599512   3.907218   4.358309
    36  H    2.104209   2.498582   3.858238   4.594749   5.201661
    37  H    2.104209   2.768547   4.112093   4.912702   5.717635
    38  H    3.657999   4.598520   5.223681   6.269075   7.091689
    39  H    4.669784   6.055469   6.700977   8.027941   8.672397
    40  H    5.884708   6.975620   7.754554   8.808328   9.641766
    41  H    8.426750   9.589786  10.019080  11.199440  11.921481
    42  H    6.688245   7.941793   8.355336   9.635473  10.296374
    43  H    5.859487   6.742796   7.072945   8.090994   8.865540
    44  H    6.573555   7.350303   7.211036   8.266172   8.858000
    45  H    7.241794   8.249580   8.252554   9.445795  10.023403
                   31         32         33         34         35
    31  H    0.000000
    32  H    2.986267   0.000000
    33  H    2.722395   2.955167   0.000000
    34  H    4.044860   2.778841   2.978580   0.000000
    35  H    2.465933   3.890732   2.548970   2.981979   0.000000
    36  H    4.105569   5.012564   4.827188   3.629994   2.500633
    37  H    4.657644   4.508292   4.600672   2.436989   2.962525
    38  H    5.800514   4.458418   4.049193   1.952245   4.305910
    39  H    6.835381   6.657569   4.850443   4.225987   4.703342
    40  H    8.266074   7.040627   6.392960   4.480708   6.418392
    41  H   10.357130   9.142575   7.900232   7.050839   8.686111
    42  H    8.569767   7.783575   6.129847   5.637343   6.803489
    43  H    7.608744   5.886126   5.348239   4.059204   6.360580
    44  H    7.550857   5.978803   4.957271   5.065399   6.803568
    45  H    8.468729   7.312106   5.780771   5.960083   7.337966
                   36         37         38         39         40
    36  H    0.000000
    37  H    1.727998   0.000000
    38  H    4.846399   3.369180   0.000000
    39  H    5.519213   4.644059   3.026201   0.000000
    40  H    6.536798   5.031078   2.600435   2.999270   0.000000
    41  H    9.490463   8.159464   5.173579   4.421626   3.481236
    42  H    7.823599   6.694966   3.952366   2.516974   2.992165
    43  H    7.212235   5.742721   2.380877   3.782668   2.537333
    44  H    8.361160   7.190323   4.046441   4.831226   4.819450
    45  H    8.863548   7.745253   4.620955   4.329356   4.641871
                   41         42         43         44         45
    41  H    0.000000
    42  H    2.095311   0.000000
    43  H    3.437845   2.966083   0.000000
    44  H    4.306018   3.660775   2.475136   0.000000
    45  H    3.142607   2.518032   2.939979   1.716781   0.000000
 Stoichiometry    C12H22O11
 Framework group  C1[X(C12H22O11)]
 Deg. of freedom   129
 Full point group                 C1      NOp   1
 Largest Abelian subgroup         C1      NOp   1
 Largest concise Abelian subgroup C1      NOp   1
                         Standard orientation:                         
 ---------------------------------------------------------------------
 Center     Atomic      Atomic             Coordinates (Angstroms)
 Number     Number       Type             X           Y           Z
 ---------------------------------------------------------------------
      1          8           0        5.000163   -0.302023   -0.541733
      2          6           0        3.742706   -0.066840    0.109176
      3          6           0        3.189513    1.268072   -0.362630
      4          8           0        4.020040    2.377126    0.010601
      5          1           0        4.945845    2.053846   -0.185001
      6          6           0        1.824513    1.497414    0.266641
      7          8           0        1.249960    2.731636   -0.187546
      8          1           0        0.307221    2.904181    0.097333
      9          6           0        3.182765   -2.572249    0.294529
     10          8           0        4.159863   -3.371276   -0.387796
     11          1           0        4.189384   -4.346072   -0.167574
     12          6           0        2.732052   -1.180299   -0.116934
     13          8           0        1.468068   -0.857289    0.480041
     14          6           0        0.895548    0.341260   -0.063910
     15          8           0       -0.300897    0.566844    0.694254
     16          6           0       -1.484526    0.209124   -0.033022
     17          6           0       -2.045510   -1.137950    0.391738
     18          8           0       -1.032797   -2.071514   -0.011086
     19          1           0       -0.155874   -1.818945    0.398525
     20          6           0       -3.412290   -1.560188   -0.121570
     21          8           0       -3.975514   -2.781226    0.378371
     22          1           0       -4.790272   -2.974739   -0.168706
     23          6           0       -2.158430    2.635164   -0.279556
     24          8           0       -1.189792    3.363652    0.489003
     25          1           0       -1.164132    4.306794    0.159830
     26          6           0       -2.573761    1.247652    0.180983
     27          8           0       -3.807409    0.857781   -0.439853
     28          6           0       -4.348931   -0.375965    0.056405
     29          8           0       -5.494273   -0.627277   -0.771114
     30          1           0       -6.241990   -0.866464   -0.218566
     31          1           0       -4.640528   -0.275254    1.080967
     32          1           0       -3.301761   -1.699501   -1.176689
     33          1           0       -2.089250   -1.145961    1.460814
     34          1           0       -1.247568    0.169202   -1.075690
     35          1           0       -2.753314    1.304538    1.234276
     36          1           0       -3.043623    3.234198   -0.329471
     37          1           0       -1.773137    2.540625   -1.273292
     38          1           0        0.702176    0.260588   -1.113195
     39          1           0        1.942823    1.546953    1.328926
     40          1           0        3.086849    1.248920   -1.427521
     41          1           0        5.669176   -0.501644    0.117184
     42          1           0        3.924312    0.003984    1.161271
     43          1           0        2.564888   -1.221068   -1.173009
     44          1           0        2.294245   -3.167243    0.332132
     45          1           0        3.533324   -2.479567    1.301216
 ---------------------------------------------------------------------
 Rotational constants (GHZ):      0.3989477      0.1465500      0.1101768
 Standard basis: 6-31+G(2df,p) (6D, 7F)
 There are   846 symmetry adapted basis functions of A   symmetry.
 Integral buffers will be    131072 words long.
 Raffenetti 2 integral format.
 Two-electron integral symmetry is turned on.
   846 basis functions,  1258 primitive gaussians,   915 cartesian basis functions
    91 alpha electrons       91 beta electrons
       nuclear repulsion energy      2286.5348457209 Hartrees.
 NAtoms=   45 NActive=   45 NUniq=   45 SFac= 1.00D+00 NAtFMM=   50 NAOKFM=F Big=F
 One-electron integrals computed using PRISM.
 NBasis=   846 RedAO= T  NBF=   846
 NBsUse=   846 1.00D-06 NBFU=   846
 Harris functional with IExCor=  402 diagonalized for initial guess.
 ExpMin= 4.38D-02 ExpMax= 5.48D+03 ExpMxC= 8.25D+02 IAcc=2 IRadAn=         0 AccDes= 0.00D+00
 HarFok:  IExCor=  402 AccDes= 0.00D+00 IRadAn=         0 IDoV= 1
 ScaDFX=  1.000000  1.000000  1.000000  1.000000
 FoFCou: FMM=F IPFlag=           0 FMFlag=      100000 FMFlg1=           0
         NFxFlg=           0 DoJE=T BraDBF=F KetDBF=T FulRan=T
         Omega=  0.000000  0.000000  1.000000  0.000000  0.000000 ICntrl=     500 IOpCl=  0
         NMat0=    1 NMatS0=    1 NMatT0=    0 NMatD0=    1 NMtDS0=    0 NMtDT0=    0
         I1Cent=           4 NGrid=           0.
 Petite list used in FoFCou.
 Initial guess orbital symmetries:
       Occupied  (A) (A) (A) (A) (A) (A) (A) (A) (A) (A) (A) (A)
                 (A) (A) (A) (A) (A) (A) (A) (A) (A) (A) (A) (A)
                 (A) (A) (A) (A) (A) (A) (A) (A) (A) (A) (A) (A)
                 (A) (A) (A) (A) (A) (A) (A) (A) (A) (A) (A) (A)
                 (A) (A) (A) (A) (A) (A) (A) (A) (A) (A) (A) (A)
                 (A) (A) (A) (A) (A) (A) (A) (A) (A) (A) (A) (A)
                 (A) (A) (A) (A) (A) (A) (A) (A) (A) (A) (A) (A)
                 (A) (A) (A) (A) (A) (A) (A)
       Virtual   (A) (A) (A) (A) (A) (A) (A) (A) (A) (A) (A) (A)
                 (A) (A) (A) (A) (A) (A) (A) (A) (A) (A) (A) (A)
                 (A) (A) (A) (A) (A) (A) (A) (A) (A) (A) (A) (A)
                 (A) (A) (A) (A) (A) (A) (A) (A) (A) (A) (A) (A)
                 (A) (A) (A) (A) (A) (A) (A) (A) (A) (A) (A) (A)
                 (A) (A) (A) (A) (A) (A) (A) (A) (A) (A) (A) (A)
                 (A) (A) (A) (A) (A) (A) (A) (A) (A) (A) (A) (A)
                 (A) (A) (A) (A) (A) (A) (A) (A) (A) (A) (A) (A)
                 (A) (A) (A) (A) (A) (A) (A) (A) (A) (A) (A) (A)
                 (A) (A) (A) (A) (A) (A) (A) (A) (A) (A) (A) (A)
                 (A) (A) (A) (A) (A) (A) (A) (A) (A) (A) (A) (A)
                 (A) (A) (A) (A) (A) (A) (A) (A) (A) (A) (A) (A)
                 (A) (A) (A) (A) (A) (A) (A) (A) (A) (A) (A) (A)
                 (A) (A) (A) (A) (A) (A) (A) (A) (A) (A) (A) (A)
                 (A) (A) (A) (A) (A) (A) (A) (A) (A) (A) (A) (A)
                 (A) (A) (A) (A) (A) (A) (A) (A) (A) (A) (A) (A)
                 (A) (A) (A) (A) (A) (A) (A) (A) (A) (A) (A) (A)
                 (A) (A) (A) (A) (A) (A) (A) (A) (A) (A) (A) (A)
                 (A) (A) (A) (A) (A) (A) (A) (A) (A) (A) (A) (A)
                 (A) (A) (A) (A) (A) (A) (A) (A) (A) (A) (A) (A)
                 (A) (A) (A) (A) (A) (A) (A) (A) (A) (A) (A) (A)
                 (A) (A) (A) (A) (A) (A) (A) (A) (A) (A) (A) (A)
                 (A) (A) (A) (A) (A) (A) (A) (A) (A) (A) (A) (A)
                 (A) (A) (A) (A) (A) (A) (A) (A) (A) (A) (A) (A)
                 (A) (A) (A) (A) (A) (A) (A) (A) (A) (A) (A) (A)
                 (A) (A) (A) (A) (A) (A) (A) (A) (A) (A) (A) (A)
                 (A) (A) (A) (A) (A) (A) (A) (A) (A) (A) (A) (A)
                 (A) (A) (A) (A) (A) (A) (A) (A) (A) (A) (A) (A)
                 (A) (A) (A) (A) (A) (A) (A) (A) (A) (A) (A) (A)
                 (A) (A) (A) (A) (A) (A) (A) (A) (A) (A) (A) (A)
                 (A) (A) (A) (A) (A) (A) (A) (A) (A) (A) (A) (A)
                 (A) (A) (A) (A) (A) (A) (A) (A) (A) (A) (A) (A)
                 (A) (A) (A) (A) (A) (A) (A) (A) (A) (A) (A) (A)
                 (A) (A) (A) (A) (A) (A) (A) (A) (A) (A) (A) (A)
                 (A) (A) (A) (A) (A) (A) (A) (A) (A) (A) (A) (A)
                 (A) (A) (A) (A) (A) (A) (A) (A) (A) (A) (A) (A)
                 (A) (A) (A) (A) (A) (A) (A) (A) (A) (A) (A) (A)
                 (A) (A) (A) (A) (A) (A) (A) (A) (A) (A) (A) (A)
                 (A) (A) (A) (A) (A) (A) (A) (A) (A) (A) (A) (A)
                 (A) (A) (A) (A) (A) (A) (A) (A) (A) (A) (A) (A)
                 (A) (A) (A) (A) (A) (A) (A) (A) (A) (A) (A) (A)
                 (A) (A) (A) (A) (A) (A) (A) (A) (A) (A) (A) (A)
                 (A) (A) (A) (A) (A) (A) (A) (A) (A) (A) (A) (A)
                 (A) (A) (A) (A) (A) (A) (A) (A) (A) (A) (A) (A)
                 (A) (A) (A) (A) (A) (A) (A) (A) (A) (A) (A) (A)
                 (A) (A) (A) (A) (A) (A) (A) (A) (A) (A) (A) (A)
                 (A) (A) (A) (A) (A) (A) (A) (A) (A) (A) (A) (A)
                 (A) (A) (A) (A) (A) (A) (A) (A) (A) (A) (A) (A)
                 (A) (A) (A) (A) (A) (A) (A) (A) (A) (A) (A) (A)
                 (A) (A) (A) (A) (A) (A) (A) (A) (A) (A) (A) (A)
                 (A) (A) (A) (A) (A) (A) (A) (A) (A) (A) (A) (A)
                 (A) (A) (A) (A) (A) (A) (A) (A) (A) (A) (A) (A)
                 (A) (A) (A) (A) (A) (A) (A) (A) (A) (A) (A) (A)
                 (A) (A) (A) (A) (A) (A) (A) (A) (A) (A) (A) (A)
                 (A) (A) (A) (A) (A) (A) (A) (A) (A) (A) (A) (A)
                 (A) (A) (A) (A) (A) (A) (A) (A) (A) (A) (A) (A)
                 (A) (A) (A) (A) (A) (A) (A) (A) (A) (A) (A) (A)
                 (A) (A) (A) (A) (A) (A) (A) (A) (A) (A) (A) (A)
                 (A) (A) (A) (A) (A) (A) (A) (A) (A) (A) (A) (A)
                 (A) (A) (A) (A) (A) (A) (A) (A) (A) (A) (A) (A)
                 (A) (A) (A) (A) (A) (A) (A) (A) (A) (A) (A) (A)
                 (A) (A) (A) (A) (A) (A) (A) (A) (A) (A) (A) (A)
                 (A) (A) (A) (A) (A) (A) (A) (A) (A) (A) (A)
 The electronic state of the initial guess is 1-A.
 Requested convergence on RMS density matrix=1.00D-08 within 128 cycles.
 Requested convergence on MAX density matrix=1.00D-06.
 Requested convergence on             energy=1.00D-06.
 No special actions if energy rises.
 SCF Done:  E(RB3LYP) =  -1298.01199557     A.U. after   13 cycles
             Convg  =    0.3806D-08             -V/T =  2.0066
 Range of M.O.s used for correlation:     1   846
 NBasis=   846 NAE=    91 NBE=    91 NFC=     0 NFV=     0
 NROrb=    846 NOA=    91 NOB=    91 NVA=   755 NVB=   755

 **** Warning!!: The largest alpha MO coefficient is  0.65801304D+02

          Differentiating once with respect to electric field.
                with respect to dipole field.
          Electric field/nuclear overlap derivatives assumed to be zero.
          There are     3 degrees of freedom in the 1st order CPHF.  IDoFFX=0.
      3 vectors produced by pass  0 Test12= 2.29D-12 3.33D-08 XBig12= 1.22D+02 1.34D+00.
 AX will form     3 AO Fock derivatives at one time.
      3 vectors produced by pass  1 Test12= 2.29D-12 3.33D-08 XBig12= 2.64D+01 4.85D-01.
      3 vectors produced by pass  2 Test12= 2.29D-12 3.33D-08 XBig12= 1.10D+01 2.11D-01.
      3 vectors produced by pass  3 Test12= 2.29D-12 3.33D-08 XBig12= 1.08D+00 9.12D-02.
      3 vectors produced by pass  4 Test12= 2.29D-12 3.33D-08 XBig12= 2.98D-01 5.02D-02.
      3 vectors produced by pass  5 Test12= 2.29D-12 3.33D-08 XBig12= 5.69D-02 2.09D-02.
      3 vectors produced by pass  6 Test12= 2.29D-12 3.33D-08 XBig12= 1.75D-02 1.55D-02.
      3 vectors produced by pass  7 Test12= 2.29D-12 3.33D-08 XBig12= 3.02D-03 8.62D-03.
      3 vectors produced by pass  8 Test12= 2.29D-12 3.33D-08 XBig12= 4.48D-04 2.66D-03.
      3 vectors produced by pass  9 Test12= 2.29D-12 3.33D-08 XBig12= 1.22D-04 1.43D-03.
      3 vectors produced by pass 10 Test12= 2.29D-12 3.33D-08 XBig12= 2.89D-05 6.49D-04.
      3 vectors produced by pass 11 Test12= 2.29D-12 3.33D-08 XBig12= 8.25D-06 3.10D-04.
      3 vectors produced by pass 12 Test12= 2.29D-12 3.33D-08 XBig12= 1.15D-06 1.31D-04.
      3 vectors produced by pass 13 Test12= 2.29D-12 3.33D-08 XBig12= 2.64D-07 4.76D-05.
      3 vectors produced by pass 14 Test12= 2.29D-12 3.33D-08 XBig12= 5.57D-08 3.25D-05.
      3 vectors produced by pass 15 Test12= 2.29D-12 3.33D-08 XBig12= 2.06D-08 1.31D-05.
      3 vectors produced by pass 16 Test12= 2.29D-12 3.33D-08 XBig12= 2.44D-09 7.59D-06.
      3 vectors produced by pass 17 Test12= 2.29D-12 3.33D-08 XBig12= 1.56D-10 1.40D-06.
      3 vectors produced by pass 18 Test12= 2.29D-12 3.33D-08 XBig12= 3.58D-11 2.86D-07.
      3 vectors produced by pass 19 Test12= 2.29D-12 3.33D-08 XBig12= 1.75D-11 2.52D-07.
      2 vectors produced by pass 20 Test12= 2.29D-12 3.33D-08 XBig12= 8.98D-12 2.58D-07.
      2 vectors produced by pass 21 Test12= 2.29D-12 3.33D-08 XBig12= 4.23D-12 1.64D-07.
      1 vectors produced by pass 22 Test12= 2.29D-12 3.33D-08 XBig12= 1.31D-12 7.29D-08.
 Inverted reduced A of dimension    65 with in-core refinement.
 End of Minotr Frequency-dependent properties file   721 does not exist.
 End of Minotr Frequency-dependent properties file   722 does not exist.
 Symmetrizing basis deriv contribution to polar:
 IMax=3 JMax=2 DiffMx= 0.00D+00
 G2DrvN: will do     8 centers at a time, making    6 passes doing MaxLOS=3.
 Calling FoFCou, ICntrl=  3107 FMM=F I1Cent=   0 AccDes= 0.00D+00.
 Calling FoFCou, ICntrl=  3107 FMM=F I1Cent=   0 AccDes= 0.00D+00.
 Calling FoFCou, ICntrl=  3107 FMM=F I1Cent=   0 AccDes= 0.00D+00.
 Calling FoFCou, ICntrl=  3107 FMM=F I1Cent=   0 AccDes= 0.00D+00.
 Calling FoFCou, ICntrl=  3107 FMM=F I1Cent=   0 AccDes= 0.00D+00.
 Calling FoFCou, ICntrl=  3107 FMM=F I1Cent=   0 AccDes= 0.00D+00.
 FoFDir/FoFCou used for L=0 through L=3.
 End of G2Drv Frequency-dependent properties file   721 does not exist.
 End of G2Drv Frequency-dependent properties file   722 does not exist.
          IDoAtm=111111111111111111111111111111111111111111111
          Differentiating once with respect to electric field.
                with respect to dipole field.
          Differentiating once with respect to nuclear coordinates.
          There are   138 degrees of freedom in the 1st order CPHF.  IDoFFX=5.
 Will reuse    3 saved solutions.
    135 vectors produced by pass  0 Test12= 6.87D-14 1.00D-09 XBig12= 1.56D-01 6.40D-02.
 AX will form    27 AO Fock derivatives at one time.
    135 vectors produced by pass  1 Test12= 6.87D-14 1.00D-09 XBig12= 2.18D-02 1.37D-02.
    132 vectors produced by pass  2 Test12= 6.87D-14 1.00D-09 XBig12= 1.69D-04 1.70D-03.
    132 vectors produced by pass  3 Test12= 6.87D-14 1.00D-09 XBig12= 8.49D-07 7.52D-05.
    132 vectors produced by pass  4 Test12= 6.87D-14 1.00D-09 XBig12= 2.08D-09 3.09D-06.
    132 vectors produced by pass  5 Test12= 6.87D-14 1.00D-09 XBig12= 6.21D-12 1.39D-07.
     98 vectors produced by pass  6 Test12= 6.87D-14 1.00D-09 XBig12= 2.51D-13 2.39D-08.
      1 vectors produced by pass  7 Test12= 6.87D-14 1.00D-09 XBig12= 1.29D-15 2.05D-09.
 Inverted reduced A of dimension   897 with in-core refinement.
 Isotropic polarizability for W=    0.000000      192.08 Bohr**3.
 End of Minotr Frequency-dependent properties file   721 does not exist.
 End of Minotr Frequency-dependent properties file   722 does not exist.

 **********************************************************************

            Population analysis using the SCF density.

 **********************************************************************

 Orbital symmetries:
       Occupied  (A) (A) (A) (A) (A) (A) (A) (A) (A) (A) (A) (A)
                 (A) (A) (A) (A) (A) (A) (A) (A) (A) (A) (A) (A)
                 (A) (A) (A) (A) (A) (A) (A) (A) (A) (A) (A) (A)
                 (A) (A) (A) (A) (A) (A) (A) (A) (A) (A) (A) (A)
                 (A) (A) (A) (A) (A) (A) (A) (A) (A) (A) (A) (A)
                 (A) (A) (A) (A) (A) (A) (A) (A) (A) (A) (A) (A)
                 (A) (A) (A) (A) (A) (A) (A) (A) (A) (A) (A) (A)
                 (A) (A) (A) (A) (A) (A) (A)
       Virtual   (A) (A) (A) (A) (A) (A) (A) (A) (A) (A) (A) (A)
                 (A) (A) (A) (A) (A) (A) (A) (A) (A) (A) (A) (A)
                 (A) (A) (A) (A) (A) (A) (A) (A) (A) (A) (A) (A)
                 (A) (A) (A) (A) (A) (A) (A) (A) (A) (A) (A) (A)
                 (A) (A) (A) (A) (A) (A) (A) (A) (A) (A) (A) (A)
                 (A) (A) (A) (A) (A) (A) (A) (A) (A) (A) (A) (A)
                 (A) (A) (A) (A) (A) (A) (A) (A) (A) (A) (A) (A)
                 (A) (A) (A) (A) (A) (A) (A) (A) (A) (A) (A) (A)
                 (A) (A) (A) (A) (A) (A) (A) (A) (A) (A) (A) (A)
                 (A) (A) (A) (A) (A) (A) (A) (A) (A) (A) (A) (A)
                 (A) (A) (A) (A) (A) (A) (A) (A) (A) (A) (A) (A)
                 (A) (A) (A) (A) (A) (A) (A) (A) (A) (A) (A) (A)
                 (A) (A) (A) (A) (A) (A) (A) (A) (A) (A) (A) (A)
                 (A) (A) (A) (A) (A) (A) (A) (A) (A) (A) (A) (A)
                 (A) (A) (A) (A) (A) (A) (A) (A) (A) (A) (A) (A)
                 (A) (A) (A) (A) (A) (A) (A) (A) (A) (A) (A) (A)
                 (A) (A) (A) (A) (A) (A) (A) (A) (A) (A) (A) (A)
                 (A) (A) (A) (A) (A) (A) (A) (A) (A) (A) (A) (A)
                 (A) (A) (A) (A) (A) (A) (A) (A) (A) (A) (A) (A)
                 (A) (A) (A) (A) (A) (A) (A) (A) (A) (A) (A) (A)
                 (A) (A) (A) (A) (A) (A) (A) (A) (A) (A) (A) (A)
                 (A) (A) (A) (A) (A) (A) (A) (A) (A) (A) (A) (A)
                 (A) (A) (A) (A) (A) (A) (A) (A) (A) (A) (A) (A)
                 (A) (A) (A) (A) (A) (A) (A) (A) (A) (A) (A) (A)
                 (A) (A) (A) (A) (A) (A) (A) (A) (A) (A) (A) (A)
                 (A) (A) (A) (A) (A) (A) (A) (A) (A) (A) (A) (A)
                 (A) (A) (A) (A) (A) (A) (A) (A) (A) (A) (A) (A)
                 (A) (A) (A) (A) (A) (A) (A) (A) (A) (A) (A) (A)
                 (A) (A) (A) (A) (A) (A) (A) (A) (A) (A) (A) (A)
                 (A) (A) (A) (A) (A) (A) (A) (A) (A) (A) (A) (A)
                 (A) (A) (A) (A) (A) (A) (A) (A) (A) (A) (A) (A)
                 (A) (A) (A) (A) (A) (A) (A) (A) (A) (A) (A) (A)
                 (A) (A) (A) (A) (A) (A) (A) (A) (A) (A) (A) (A)
                 (A) (A) (A) (A) (A) (A) (A) (A) (A) (A) (A) (A)
                 (A) (A) (A) (A) (A) (A) (A) (A) (A) (A) (A) (A)
                 (A) (A) (A) (A) (A) (A) (A) (A) (A) (A) (A) (A)
                 (A) (A) (A) (A) (A) (A) (A) (A) (A) (A) (A) (A)
                 (A) (A) (A) (A) (A) (A) (A) (A) (A) (A) (A) (A)
                 (A) (A) (A) (A) (A) (A) (A) (A) (A) (A) (A) (A)
                 (A) (A) (A) (A) (A) (A) (A) (A) (A) (A) (A) (A)
                 (A) (A) (A) (A) (A) (A) (A) (A) (A) (A) (A) (A)
                 (A) (A) (A) (A) (A) (A) (A) (A) (A) (A) (A) (A)
                 (A) (A) (A) (A) (A) (A) (A) (A) (A) (A) (A) (A)
                 (A) (A) (A) (A) (A) (A) (A) (A) (A) (A) (A) (A)
                 (A) (A) (A) (A) (A) (A) (A) (A) (A) (A) (A) (A)
                 (A) (A) (A) (A) (A) (A) (A) (A) (A) (A) (A) (A)
                 (A) (A) (A) (A) (A) (A) (A) (A) (A) (A) (A) (A)
                 (A) (A) (A) (A) (A) (A) (A) (A) (A) (A) (A) (A)
                 (A) (A) (A) (A) (A) (A) (A) (A) (A) (A) (A) (A)
                 (A) (A) (A) (A) (A) (A) (A) (A) (A) (A) (A) (A)
                 (A) (A) (A) (A) (A) (A) (A) (A) (A) (A) (A) (A)
                 (A) (A) (A) (A) (A) (A) (A) (A) (A) (A) (A) (A)
                 (A) (A) (A) (A) (A) (A) (A) (A) (A) (A) (A) (A)
                 (A) (A) (A) (A) (A) (A) (A) (A) (A) (A) (A) (A)
                 (A) (A) (A) (A) (A) (A) (A) (A) (A) (A) (A) (A)
                 (A) (A) (A) (A) (A) (A) (A) (A) (A) (A) (A) (A)
                 (A) (A) (A) (A) (A) (A) (A) (A) (A) (A) (A) (A)
                 (A) (A) (A) (A) (A) (A) (A) (A) (A) (A) (A) (A)
                 (A) (A) (A) (A) (A) (A) (A) (A) (A) (A) (A) (A)
                 (A) (A) (A) (A) (A) (A) (A) (A) (A) (A) (A) (A)
                 (A) (A) (A) (A) (A) (A) (A) (A) (A) (A) (A) (A)
                 (A) (A) (A) (A) (A) (A) (A) (A) (A) (A) (A) (A)
                 (A) (A) (A) (A) (A) (A) (A) (A) (A) (A) (A)
 The electronic state is 1-A.
 Alpha  occ. eigenvalues --  -19.19442 -19.18865 -19.18779 -19.18347 -19.17939
 Alpha  occ. eigenvalues --  -19.17286 -19.16936 -19.16087 -19.15103 -19.13758
 Alpha  occ. eigenvalues --  -19.12199 -10.30677 -10.30355 -10.26076 -10.26039
 Alpha  occ. eigenvalues --  -10.25498 -10.25413 -10.25182 -10.24952 -10.24607
 Alpha  occ. eigenvalues --  -10.24391 -10.23856 -10.23548  -1.10301  -1.09039
 Alpha  occ. eigenvalues --   -1.06209  -1.05461  -1.04440  -1.03786  -1.02756
 Alpha  occ. eigenvalues --   -1.02231  -1.01836  -1.00800  -0.98935  -0.82102
 Alpha  occ. eigenvalues --   -0.80366  -0.79483  -0.78349  -0.72210  -0.70154
 Alpha  occ. eigenvalues --   -0.67141  -0.65065  -0.63440  -0.62805  -0.61476
 Alpha  occ. eigenvalues --   -0.60149  -0.56684  -0.55855  -0.55040  -0.54724
 Alpha  occ. eigenvalues --   -0.54156  -0.53905  -0.52891  -0.52257  -0.51068
 Alpha  occ. eigenvalues --   -0.50687  -0.50558  -0.50017  -0.48164  -0.46632
 Alpha  occ. eigenvalues --   -0.46412  -0.45203  -0.44529  -0.43865  -0.43558
 Alpha  occ. eigenvalues --   -0.42910  -0.42027  -0.40676  -0.40211  -0.39536
 Alpha  occ. eigenvalues --   -0.39067  -0.38229  -0.37414  -0.36529  -0.35803
 Alpha  occ. eigenvalues --   -0.35400  -0.34656  -0.34519  -0.33753  -0.33272
 Alpha  occ. eigenvalues --   -0.32660  -0.31713  -0.31198  -0.30683  -0.29907
 Alpha  occ. eigenvalues --   -0.29514  -0.28616  -0.28399  -0.27390  -0.26576
 Alpha  occ. eigenvalues --   -0.26281
 Alpha virt. eigenvalues --   -0.02072  -0.01911  -0.01761  -0.00321   0.00256
 Alpha virt. eigenvalues --    0.00832   0.01867   0.02357   0.02851   0.03534
 Alpha virt. eigenvalues --    0.03774   0.04453   0.05094   0.05208   0.05522
 Alpha virt. eigenvalues --    0.06221   0.06364   0.07474   0.07684   0.08011
 Alpha virt. eigenvalues --    0.08426   0.08547   0.09225   0.09588   0.09939
 Alpha virt. eigenvalues --    0.10314   0.10654   0.11175   0.11854   0.12190
 Alpha virt. eigenvalues --    0.12545   0.12860   0.13170   0.13277   0.13409
 Alpha virt. eigenvalues --    0.13767   0.13951   0.14610   0.14858   0.15076
 Alpha virt. eigenvalues --    0.15812   0.16317   0.16803   0.16907   0.17137
 Alpha virt. eigenvalues --    0.17268   0.17575   0.17839   0.17988   0.18670
 Alpha virt. eigenvalues --    0.18946   0.19057   0.19552   0.19649   0.19933
 Alpha virt. eigenvalues --    0.20913   0.21095   0.21195   0.21320   0.21566
 Alpha virt. eigenvalues --    0.21986   0.22349   0.22685   0.22908   0.23038
 Alpha virt. eigenvalues --    0.23584   0.23786   0.24106   0.24304   0.24539
 Alpha virt. eigenvalues --    0.24802   0.25112   0.25176   0.25614   0.25971
 Alpha virt. eigenvalues --    0.26036   0.26321   0.26526   0.27085   0.27520
 Alpha virt. eigenvalues --    0.27586   0.28050   0.28271   0.28683   0.28858
 Alpha virt. eigenvalues --    0.28935   0.29190   0.29856   0.30128   0.30724
 Alpha virt. eigenvalues --    0.31039   0.31065   0.31424   0.31829   0.32278
 Alpha virt. eigenvalues --    0.32480   0.32782   0.33168   0.33345   0.33713
 Alpha virt. eigenvalues --    0.34230   0.34614   0.34932   0.35273   0.35499
 Alpha virt. eigenvalues --    0.35952   0.36189   0.36426   0.36834   0.37220
 Alpha virt. eigenvalues --    0.37481   0.38224   0.38828   0.39299   0.39466
 Alpha virt. eigenvalues --    0.40074   0.40521   0.40771   0.40805   0.41151
 Alpha virt. eigenvalues --    0.41446   0.42030   0.42209   0.42486   0.42573
 Alpha virt. eigenvalues --    0.43341   0.44496   0.45034   0.45826   0.46733
 Alpha virt. eigenvalues --    0.46744   0.47466   0.48214   0.48762   0.49014
 Alpha virt. eigenvalues --    0.50004   0.51848   0.53231   0.56819   0.58724
 Alpha virt. eigenvalues --    0.59612   0.60059   0.60622   0.60943   0.61870
 Alpha virt. eigenvalues --    0.62465   0.64005   0.64090   0.64563   0.66661
 Alpha virt. eigenvalues --    0.66787   0.67230   0.68195   0.68628   0.69817
 Alpha virt. eigenvalues --    0.69964   0.71085   0.71344   0.72557   0.73314
 Alpha virt. eigenvalues --    0.73811   0.74639   0.75211   0.75506   0.76420
 Alpha virt. eigenvalues --    0.76778   0.77979   0.78343   0.80119   0.80821
 Alpha virt. eigenvalues --    0.81552   0.82424   0.82885   0.83277   0.84455
 Alpha virt. eigenvalues --    0.85687   0.86483   0.87761   0.88304   0.89044
 Alpha virt. eigenvalues --    0.89328   0.89813   0.90416   0.90851   0.91366
 Alpha virt. eigenvalues --    0.91771   0.92048   0.92650   0.92923   0.93253
 Alpha virt. eigenvalues --    0.93863   0.94172   0.94730   0.94892   0.95351
 Alpha virt. eigenvalues --    0.95990   0.96385   0.96844   0.97285   0.97980
 Alpha virt. eigenvalues --    0.98369   0.99518   1.00086   1.00424   1.02126
 Alpha virt. eigenvalues --    1.03261   1.03793   1.04709   1.05758   1.05879
 Alpha virt. eigenvalues --    1.06264   1.06504   1.07357   1.08034   1.08287
 Alpha virt. eigenvalues --    1.08727   1.09321   1.09588   1.10194   1.10570
 Alpha virt. eigenvalues --    1.10842   1.11688   1.11952   1.13252   1.13608
 Alpha virt. eigenvalues --    1.14428   1.14688   1.15049   1.15498   1.16351
 Alpha virt. eigenvalues --    1.16445   1.16545   1.17692   1.18070   1.18973
 Alpha virt. eigenvalues --    1.19142   1.19948   1.20748   1.20843   1.21566
 Alpha virt. eigenvalues --    1.22140   1.22517   1.23794   1.24368   1.24831
 Alpha virt. eigenvalues --    1.24912   1.25238   1.26016   1.26637   1.27327
 Alpha virt. eigenvalues --    1.27908   1.28602   1.29070   1.30290   1.30763
 Alpha virt. eigenvalues --    1.31421   1.32462   1.32695   1.33277   1.34032
 Alpha virt. eigenvalues --    1.34451   1.35486   1.35674   1.36350   1.36683
 Alpha virt. eigenvalues --    1.37730   1.38077   1.38880   1.39819   1.40054
 Alpha virt. eigenvalues --    1.40442   1.41460   1.41894   1.42685   1.43720
 Alpha virt. eigenvalues --    1.44786   1.44982   1.45959   1.46638   1.47485
 Alpha virt. eigenvalues --    1.48297   1.48329   1.49402   1.50100   1.50645
 Alpha virt. eigenvalues --    1.51224   1.52483   1.53796   1.54513   1.55179
 Alpha virt. eigenvalues --    1.56357   1.57551   1.58271   1.59040   1.59757
 Alpha virt. eigenvalues --    1.59919   1.60485   1.61328   1.62537   1.63395
 Alpha virt. eigenvalues --    1.63782   1.64516   1.65600   1.66208   1.67272
 Alpha virt. eigenvalues --    1.67363   1.69454   1.69742   1.70362   1.70995
 Alpha virt. eigenvalues --    1.71676   1.72727   1.73547   1.75771   1.76274
 Alpha virt. eigenvalues --    1.76479   1.78256   1.79382   1.79697   1.80912
 Alpha virt. eigenvalues --    1.81445   1.82075   1.83614   1.84828   1.85448
 Alpha virt. eigenvalues --    1.86221   1.87413   1.88048   1.89415   1.89770
 Alpha virt. eigenvalues --    1.91526   1.91977   1.93386   1.93968   1.95532
 Alpha virt. eigenvalues --    1.96339   1.96469   1.97445   1.98885   1.99739
 Alpha virt. eigenvalues --    2.01812   2.02609   2.03140   2.04790   2.05021
 Alpha virt. eigenvalues --    2.06277   2.06839   2.08708   2.10290   2.11550
 Alpha virt. eigenvalues --    2.14148   2.16107   2.16944   2.18149   2.19932
 Alpha virt. eigenvalues --    2.20372   2.21245   2.22717   2.24374   2.26265
 Alpha virt. eigenvalues --    2.27478   2.28286   2.28836   2.29639   2.30969
 Alpha virt. eigenvalues --    2.32894   2.34124   2.35254   2.41265   2.42699
 Alpha virt. eigenvalues --    2.43831   2.46295   2.48472   2.49206   2.50401
 Alpha virt. eigenvalues --    2.51525   2.52774   2.53316   2.54621   2.55014
 Alpha virt. eigenvalues --    2.55374   2.57150   2.57744   2.58714   2.59707
 Alpha virt. eigenvalues --    2.60601   2.62893   2.63458   2.64578   2.66195
 Alpha virt. eigenvalues --    2.67508   2.68313   2.69006   2.70089   2.71742
 Alpha virt. eigenvalues --    2.72564   2.73856   2.75854   2.76520   2.77155
 Alpha virt. eigenvalues --    2.78274   2.79766   2.81088   2.82676   2.83247
 Alpha virt. eigenvalues --    2.85104   2.85701   2.86586   2.87256   2.88760
 Alpha virt. eigenvalues --    2.89306   2.90232   2.91435   2.92239   2.92745
 Alpha virt. eigenvalues --    2.93292   2.95000   2.95797   2.97078   2.98099
 Alpha virt. eigenvalues --    2.99344   2.99911   3.00541   3.01819   3.02410
 Alpha virt. eigenvalues --    3.03564   3.04529   3.04821   3.05649   3.07735
 Alpha virt. eigenvalues --    3.07852   3.08363   3.09771   3.10815   3.11238
 Alpha virt. eigenvalues --    3.12466   3.14038   3.14965   3.15549   3.18699
 Alpha virt. eigenvalues --    3.19320   3.19584   3.21136   3.22674   3.23632
 Alpha virt. eigenvalues --    3.24062   3.26200   3.26566   3.27347   3.27921
 Alpha virt. eigenvalues --    3.28569   3.29395   3.31111   3.31850   3.33912
 Alpha virt. eigenvalues --    3.34740   3.36510   3.37962   3.38869   3.39579
 Alpha virt. eigenvalues --    3.41699   3.42080   3.43395   3.43683   3.43978
 Alpha virt. eigenvalues --    3.45010   3.46455   3.48015   3.50710   3.52802
 Alpha virt. eigenvalues --    3.53186   3.55954   3.56585   3.59393   3.60680
 Alpha virt. eigenvalues --    3.61174   3.62950   3.64354   3.64562   3.66309
 Alpha virt. eigenvalues --    3.68030   3.69316   3.70298   3.72264   3.74505
 Alpha virt. eigenvalues --    3.75776   3.76777   3.77592   3.78345   3.79833
 Alpha virt. eigenvalues --    3.80303   3.82731   3.83689   3.84767   3.85593
 Alpha virt. eigenvalues --    3.86862   3.88110   3.88226   3.90176   3.90595
 Alpha virt. eigenvalues --    3.92173   3.92417   3.95991   3.97986   4.00162
 Alpha virt. eigenvalues --    4.03777   4.04963   4.07838   4.09465   4.15091
 Alpha virt. eigenvalues --    4.15104   4.16071   4.16377   4.18091   4.19967
 Alpha virt. eigenvalues --    4.21157   4.21666   4.23177   4.24755   4.25578
 Alpha virt. eigenvalues --    4.25802   4.27318   4.28654   4.28924   4.29490
 Alpha virt. eigenvalues --    4.30929   4.32310   4.32407   4.33043   4.34568
 Alpha virt. eigenvalues --    4.35355   4.36299   4.37781   4.38164   4.39382
 Alpha virt. eigenvalues --    4.40027   4.40801   4.40909   4.41866   4.42417
 Alpha virt. eigenvalues --    4.45247   4.45614   4.45715   4.46708   4.47877
 Alpha virt. eigenvalues --    4.48330   4.49687   4.50179   4.50520   4.51678
 Alpha virt. eigenvalues --    4.52350   4.52457   4.53478   4.53868   4.54837
 Alpha virt. eigenvalues --    4.55318   4.56500   4.56935   4.57478   4.58015
 Alpha virt. eigenvalues --    4.59408   4.59504   4.60889   4.61625   4.62233
 Alpha virt. eigenvalues --    4.62413   4.63190   4.63658   4.64748   4.65286
 Alpha virt. eigenvalues --    4.65718   4.66210   4.67548   4.68072   4.68942
 Alpha virt. eigenvalues --    4.69629   4.69847   4.70345   4.71754   4.72197
 Alpha virt. eigenvalues --    4.73199   4.74136   4.74833   4.75310   4.75398
 Alpha virt. eigenvalues --    4.76309   4.77039   4.77789   4.78280   4.79025
 Alpha virt. eigenvalues --    4.79531   4.79857   4.80881   4.81498   4.81972
 Alpha virt. eigenvalues --    4.82576   4.83740   4.84102   4.84631   4.85903
 Alpha virt. eigenvalues --    4.86505   4.87806   4.87990   4.89294   4.89468
 Alpha virt. eigenvalues --    4.90071   4.92320   4.92922   4.94427   4.96423
 Alpha virt. eigenvalues --    4.96664   4.98016   4.99646   5.00794   5.01292
 Alpha virt. eigenvalues --    5.02436   5.03929   5.05808   5.07701   5.08062
 Alpha virt. eigenvalues --    5.11120   5.13269   5.15539   5.16751   5.17736
 Alpha virt. eigenvalues --    5.18069   5.19389   5.20397   5.20672   5.21149
 Alpha virt. eigenvalues --    5.23556   5.24333   5.24895   5.26176   5.27261
 Alpha virt. eigenvalues --    5.28127   5.30216   5.31507   5.32249   5.33669
 Alpha virt. eigenvalues --    5.35166   5.35413   5.38665   5.40299   5.41319
 Alpha virt. eigenvalues --    5.41758   5.41902   5.43090   5.43410   5.43814
 Alpha virt. eigenvalues --    5.44615   5.44715   5.45569   5.45888   5.47740
 Alpha virt. eigenvalues --    5.48714   5.48954   5.50208   5.50755   5.51692
 Alpha virt. eigenvalues --    5.53106   5.53530   5.54885   5.55447   5.57193
 Alpha virt. eigenvalues --    5.58452   5.60548   5.62518   5.63639   5.65967
 Alpha virt. eigenvalues --    5.66577   5.69341   5.70781   5.71709   5.75340
 Alpha virt. eigenvalues --    5.76142   5.77078   5.79176   5.81172   5.84790
 Alpha virt. eigenvalues --    5.85556   5.86390   5.88219   5.88904   5.90297
 Alpha virt. eigenvalues --    5.90706   5.90823   5.91898   5.93936   5.95052
 Alpha virt. eigenvalues --    5.95570   5.96497   5.97911   5.98638   6.00210
 Alpha virt. eigenvalues --    6.00895   6.03583   6.04215   6.04656   6.07113
 Alpha virt. eigenvalues --    6.07784   6.09012   6.09616   6.10207   6.12323
 Alpha virt. eigenvalues --    6.13553   6.15343   6.16048   6.18889   6.20683
 Alpha virt. eigenvalues --    6.22779   6.23897   6.25608   6.30596   6.33855
 Alpha virt. eigenvalues --    6.49501   6.60054   6.98297   7.03321   7.12036
 Alpha virt. eigenvalues --    7.15821   7.17163   7.22587   7.25836   7.27208
 Alpha virt. eigenvalues --    7.30920   7.36642   7.46734   7.51514   7.64795
 Alpha virt. eigenvalues --    7.78624   8.21045  11.99366  12.10690  12.21284
 Alpha virt. eigenvalues --   12.29046  12.46951  12.53789  12.82493  12.92110
 Alpha virt. eigenvalues --   12.97077  13.07061  13.27306  13.35631  13.41288
 Alpha virt. eigenvalues --   13.47781  13.51107  13.52819  13.62063  13.63947
 Alpha virt. eigenvalues --   13.70886  13.81041  13.87387  14.09185  14.21967
          Condensed to atoms (all electrons):
              1          2          3          4          5          6
     1  O    8.058643   0.286427  -0.080424  -0.018980   0.019076   0.021332
     2  C    0.286427   7.881295  -0.788591   0.085899  -0.053255  -1.786039
     3  C   -0.080424  -0.788591   6.717887   0.179020   0.012269   0.848839
     4  O   -0.018980   0.085899   0.179020   8.086027   0.231496  -0.142739
     5  H    0.019076  -0.053255   0.012269   0.231496   0.430608   0.008188
     6  C    0.021332  -1.786039   0.848839  -0.142739   0.008188   9.059951
     7  O   -0.000229   0.028855  -0.149340   0.007558  -0.000019   0.291751
     8  H    0.000001  -0.002804   0.017369  -0.000202   0.000012  -0.001154
     9  C    0.016647  -0.196340  -0.169687   0.008285  -0.004088   0.230977
    10  O   -0.003983  -0.000494   0.001003  -0.000063  -0.000025  -0.000304
    11  H    0.000448  -0.005950  -0.000005   0.000000   0.000000   0.000207
    12  C   -0.094556  -1.204480   0.166207  -0.000823   0.010946   0.679974
    13  O    0.002804  -0.047374  -0.058078  -0.001597  -0.000027  -0.015164
    14  C   -0.028185   1.389614  -0.638638   0.020118   0.007146  -2.533500
    15  O   -0.000048  -0.002164   0.008119   0.000541  -0.000015  -0.068732
    16  C    0.000708   0.186550  -0.096665  -0.002886   0.000494  -0.538895
    17  C   -0.000043  -0.059096   0.019543   0.000094   0.000033   0.143736
    18  O    0.000017   0.008902  -0.000745  -0.000004   0.000000  -0.008469
    19  H   -0.000023   0.000242   0.003001   0.000002   0.000000   0.002796
    20  C    0.000044   0.003300  -0.007976  -0.000016   0.000001   0.030275
    21  O    0.000000   0.000018  -0.000019   0.000000   0.000000  -0.000255
    22  H    0.000000  -0.000001   0.000001   0.000000   0.000000  -0.000022
    23  C   -0.000029   0.021081  -0.011317   0.000154  -0.000014  -0.212699
    24  O    0.000005   0.001183  -0.002553   0.000022  -0.000001  -0.007357
    25  H    0.000000   0.000104   0.001074   0.000000   0.000000  -0.003164
    26  C    0.000043  -0.015929  -0.011863   0.000309   0.000019   0.082928
    27  O    0.000000   0.000117   0.000002   0.000001   0.000000   0.001202
    28  C    0.000002  -0.000018   0.000421   0.000003   0.000000  -0.010444
    29  O    0.000000   0.000009   0.000017   0.000000   0.000000  -0.000297
    30  H    0.000000   0.000000   0.000000   0.000000   0.000000   0.000004
    31  H    0.000000   0.000013  -0.000002   0.000000   0.000000  -0.000126
    32  H    0.000000   0.000116  -0.000016   0.000000   0.000000   0.000452
    33  H    0.000000  -0.000407   0.000577   0.000000   0.000000   0.008270
    34  H   -0.000001  -0.004762   0.004671   0.000006   0.000000   0.017636
    35  H    0.000000  -0.000006   0.000433   0.000000   0.000000  -0.006621
    36  H    0.000000  -0.000027   0.000081   0.000000   0.000000   0.001821
    37  H    0.000000   0.000061   0.000265  -0.000004   0.000000  -0.007160
    38  H    0.000153  -0.027824  -0.029001   0.000339   0.000000   0.019115
    39  H    0.000186   0.002740  -0.124778   0.005487  -0.000259   0.367181
    40  H   -0.000491   0.062593   0.284879  -0.016509  -0.002027  -0.230411
    41  H    0.269652   0.038117  -0.026735   0.001545  -0.002277   0.002456
    42  H   -0.016660   0.414953  -0.088677   0.002278  -0.000548  -0.038059
    43  H    0.003662   0.089449  -0.085383   0.000512   0.000006  -0.032561
    44  H    0.000080  -0.013996  -0.002163   0.000009   0.000000  -0.005512
    45  H    0.001882   0.004490  -0.001046  -0.000029  -0.000001   0.011170
              7          8          9         10         11         12
     1  O   -0.000229   0.000001   0.016647  -0.003983   0.000448  -0.094556
     2  C    0.028855  -0.002804  -0.196340  -0.000494  -0.005950  -1.204480
     3  C   -0.149340   0.017369  -0.169687   0.001003  -0.000005   0.166207
     4  O    0.007558  -0.000202   0.008285  -0.000063   0.000000  -0.000823
     5  H   -0.000019   0.000012  -0.004088  -0.000025   0.000000   0.010946
     6  C    0.291751  -0.001154   0.230977  -0.000304   0.000207   0.679974
     7  O    8.160997   0.254388   0.002612   0.000000   0.000000   0.017967
     8  H    0.254388   0.321195  -0.000225   0.000000   0.000000  -0.003901
     9  C    0.002612  -0.000225   7.314874   0.170003  -0.032390  -1.033843
    10  O    0.000000   0.000000   0.170003   8.114982   0.249998   0.025535
    11  H    0.000000   0.000000  -0.032390   0.249998   0.412176   0.030133
    12  C    0.017967  -0.003901  -1.033843   0.025535   0.030133   9.244222
    13  O    0.003934  -0.000116  -0.047611   0.000265  -0.000719   0.119993
    14  C   -0.055265  -0.056935  -0.852075   0.006485  -0.002988  -1.582163
    15  O    0.005245   0.011381  -0.008354   0.000096  -0.000002  -0.016478
    16  C    0.018191   0.027004  -0.149132  -0.002595  -0.000282  -0.284982
    17  C    0.000777   0.000609   0.004798   0.000257   0.000047  -0.094919
    18  O    0.000027  -0.000027  -0.005075  -0.000151  -0.000002   0.005265
    19  H   -0.000097  -0.000005  -0.003261   0.000022  -0.000001  -0.006273
    20  C    0.001566   0.000984  -0.000392  -0.000107   0.000003  -0.001066
    21  O   -0.000003   0.000000   0.000266   0.000000   0.000000   0.000013
    22  H    0.000000   0.000000   0.000000   0.000000   0.000000   0.000009
    23  C    0.000039   0.008677  -0.000893  -0.000026   0.000000  -0.004205
    24  O   -0.028532  -0.026458  -0.000107   0.000000   0.000000  -0.000601
    25  H    0.000327  -0.003457  -0.000010   0.000000   0.000000  -0.000308
    26  C   -0.005098  -0.020649   0.007009  -0.000059  -0.000002   0.047315
    27  O   -0.000139  -0.000125  -0.000010   0.000000   0.000000  -0.000370
    28  C    0.000029  -0.000304  -0.001056   0.000005   0.000000  -0.002870
    29  O   -0.000003   0.000000  -0.000013   0.000000   0.000000   0.000074
    30  H    0.000000   0.000000   0.000000   0.000000   0.000000  -0.000001
    31  H    0.000001   0.000000  -0.000007   0.000000   0.000000   0.000037
    32  H    0.000002   0.000000  -0.000168   0.000000   0.000000   0.000344
    33  H   -0.000021  -0.000001  -0.000168   0.000000   0.000000  -0.000523
    34  H   -0.002203  -0.000066   0.000333   0.000001   0.000000   0.007162
    35  H   -0.000402   0.000032   0.000078   0.000000   0.000000   0.001053
    36  H   -0.000594   0.000288  -0.000002   0.000000   0.000000   0.000005
    37  H    0.000318   0.000702   0.000013   0.000000   0.000000   0.000562
    38  H    0.001840  -0.000029   0.028916   0.000072   0.000000   0.112014
    39  H   -0.024458  -0.002768   0.025557   0.000018   0.000000   0.096874
    40  H    0.011561  -0.000173   0.007276  -0.000123   0.000000   0.006899
    41  H   -0.000006   0.000000   0.003308   0.000331  -0.000009  -0.029838
    42  H    0.001497   0.000001  -0.053245  -0.001209  -0.000008  -0.095964
    43  H    0.000468   0.000002   0.051461  -0.003559  -0.000154   0.034977
    44  H   -0.000011   0.000000   0.431295  -0.026810  -0.008013  -0.055160
    45  H    0.000007   0.000000   0.578851  -0.057137  -0.000893  -0.239845
             13         14         15         16         17         18
     1  O    0.002804  -0.028185  -0.000048   0.000708  -0.000043   0.000017
     2  C   -0.047374   1.389614  -0.002164   0.186550  -0.059096   0.008902
     3  C   -0.058078  -0.638638   0.008119  -0.096665   0.019543  -0.000745
     4  O   -0.001597   0.020118   0.000541  -0.002886   0.000094  -0.000004
     5  H   -0.000027   0.007146  -0.000015   0.000494   0.000033   0.000000
     6  C   -0.015164  -2.533500  -0.068732  -0.538895   0.143736  -0.008469
     7  O    0.003934  -0.055265   0.005245   0.018191   0.000777   0.000027
     8  H   -0.000116  -0.056935   0.011381   0.027004   0.000609  -0.000027
     9  C   -0.047611  -0.852075  -0.008354  -0.149132   0.004798  -0.005075
    10  O    0.000265   0.006485   0.000096  -0.002595   0.000257  -0.000151
    11  H   -0.000719  -0.002988  -0.000002  -0.000282   0.000047  -0.000002
    12  C    0.119993  -1.582163  -0.016478  -0.284982  -0.094919   0.005265
    13  O    7.887661   0.306079   0.000329  -0.023874   0.026786  -0.021898
    14  C    0.306079  10.595971   0.239090  -0.963212   0.037603   0.001002
    15  O    0.000329   0.239090   7.758973   0.331182  -0.071197  -0.010449
    16  C   -0.023874  -0.963212   0.331182  10.733065  -2.164011  -0.019552
    17  C    0.026786   0.037603  -0.071197  -2.164011   8.563471   0.217571
    18  O   -0.021898   0.001002  -0.010449  -0.019552   0.217571   8.106081
    19  H    0.024639  -0.012986   0.013338  -0.066477   0.047364   0.241239
    20  C   -0.012980  -0.265052   0.002721  -0.564925  -0.436334  -0.057666
    21  O   -0.000036   0.001239   0.000220   0.053584  -0.131743   0.008465
    22  H    0.000000   0.000113  -0.000004  -0.009522   0.039901  -0.000595
    23  C    0.003887   0.129190  -0.002081   0.088529  -0.430214   0.009742
    24  O   -0.000783   0.077502  -0.021622  -0.021130  -0.004330  -0.000088
    25  H   -0.000013  -0.007053   0.001477  -0.008366  -0.000986   0.000000
    26  C   -0.013347  -0.485609  -0.096399  -1.429906  -0.087902   0.043411
    27  O   -0.000010   0.010431   0.001583   0.049404   0.014559  -0.002077
    28  C    0.000458   0.039830   0.002582   0.530932   0.225847  -0.014554
    29  O    0.000022  -0.001066  -0.000023  -0.011970  -0.020818   0.000379
    30  H    0.000000  -0.000091   0.000001  -0.002576   0.009874  -0.000024
    31  H    0.000013  -0.000302   0.000348   0.047754  -0.058299   0.000481
    32  H    0.000115  -0.013372   0.000378   0.077209  -0.207964   0.006023
    33  H    0.000207  -0.002212  -0.005862  -0.063118   0.269655  -0.022329
    34  H   -0.000411  -0.013425  -0.040268   0.106036   0.077266  -0.005434
    35  H   -0.000167   0.053804  -0.002403  -0.024614  -0.040539   0.000092
    36  H    0.000024   0.005316   0.000250   0.015558   0.004813   0.000007
    37  H    0.000005   0.009878   0.002913   0.026467   0.000652   0.000021
    38  H   -0.025164   0.197124  -0.027804  -0.023215   0.013084  -0.003514
    39  H    0.008612  -0.060384  -0.010379  -0.038356   0.004860   0.000129
    40  H    0.004043   0.119093   0.000456  -0.009005   0.002465   0.000058
    41  H   -0.000505   0.002304   0.000004   0.000281  -0.000047   0.000000
    42  H    0.004138   0.124354  -0.000287  -0.001917   0.001205   0.000014
    43  H   -0.030795   0.194378   0.000208   0.010395   0.005530  -0.000502
    44  H   -0.001170  -0.006940  -0.000132   0.008820  -0.000453   0.000038
    45  H   -0.005454   0.001046  -0.000278  -0.003457   0.000964  -0.000116
             19         20         21         22         23         24
     1  O   -0.000023   0.000044   0.000000   0.000000  -0.000029   0.000005
     2  C    0.000242   0.003300   0.000018  -0.000001   0.021081   0.001183
     3  C    0.003001  -0.007976  -0.000019   0.000001  -0.011317  -0.002553
     4  O    0.000002  -0.000016   0.000000   0.000000   0.000154   0.000022
     5  H    0.000000   0.000001   0.000000   0.000000  -0.000014  -0.000001
     6  C    0.002796   0.030275  -0.000255  -0.000022  -0.212699  -0.007357
     7  O   -0.000097   0.001566  -0.000003   0.000000   0.000039  -0.028532
     8  H   -0.000005   0.000984   0.000000   0.000000   0.008677  -0.026458
     9  C   -0.003261  -0.000392   0.000266   0.000000  -0.000893  -0.000107
    10  O    0.000022  -0.000107   0.000000   0.000000  -0.000026   0.000000
    11  H   -0.000001   0.000003   0.000000   0.000000   0.000000   0.000000
    12  C   -0.006273  -0.001066   0.000013   0.000009  -0.004205  -0.000601
    13  O    0.024639  -0.012980  -0.000036   0.000000   0.003887  -0.000783
    14  C   -0.012986  -0.265052   0.001239   0.000113   0.129190   0.077502
    15  O    0.013338   0.002721   0.000220  -0.000004  -0.002081  -0.021622
    16  C   -0.066477  -0.564925   0.053584  -0.009522   0.088529  -0.021130
    17  C    0.047364  -0.436334  -0.131743   0.039901  -0.430214  -0.004330
    18  O    0.241239  -0.057666   0.008465  -0.000595   0.009742  -0.000088
    19  H    0.362454   0.007094  -0.000403   0.000012  -0.004843   0.000019
    20  C    0.007094   7.121880   0.195773  -0.045111   0.086081  -0.007343
    21  O   -0.000403   0.195773   8.086149   0.252238   0.001026   0.000008
    22  H    0.000012  -0.045111   0.252238   0.416049  -0.000087   0.000000
    23  C   -0.004843   0.086081   0.001026  -0.000087   6.232397  -0.006784
    24  O    0.000019  -0.007343   0.000008   0.000000  -0.006784   8.236590
    25  H    0.000000   0.000844   0.000000   0.000000  -0.008540   0.264930
    26  C    0.001205   0.659454  -0.010687   0.001765  -0.363694   0.105039
    27  O    0.000174  -0.107900   0.002320  -0.000486  -0.103442   0.002595
    28  C    0.004135  -0.738191   0.021354  -0.005339  -0.123408   0.008593
    29  O    0.000009  -0.051060   0.006466   0.012707   0.005791   0.000005
    30  H    0.000000  -0.039396  -0.000882  -0.001555  -0.000656  -0.000001
    31  H    0.000007  -0.064464   0.002573   0.000160   0.005163   0.000036
    32  H   -0.000083   0.386183  -0.025715  -0.006770   0.007896   0.000010
    33  H   -0.006017   0.026663  -0.004307  -0.000159   0.010647   0.000013
    34  H   -0.000088   0.024041  -0.000475   0.000006  -0.024906   0.000622
    35  H    0.000023  -0.028138   0.000252   0.000002   0.090133  -0.000722
    36  H    0.000000  -0.002646  -0.000004   0.000000   0.402790  -0.025552
    37  H    0.000000  -0.001534   0.000003   0.000000   0.518691  -0.055601
    38  H   -0.000069   0.010845   0.000009   0.000000   0.003383  -0.000236
    39  H   -0.000017   0.000319   0.000000   0.000000   0.002529   0.000148
    40  H   -0.000001   0.000021   0.000000   0.000000   0.000373   0.000073
    41  H    0.000000   0.000000   0.000000   0.000000   0.000004   0.000000
    42  H   -0.000011   0.000003   0.000000   0.000000   0.000025   0.000009
    43  H    0.000017   0.000069  -0.000001   0.000000   0.000032  -0.000001
    44  H    0.000923  -0.000026   0.000002   0.000000   0.000044   0.000000
    45  H    0.000018  -0.000057   0.000000   0.000000  -0.000030   0.000000
             25         26         27         28         29         30
     1  O    0.000000   0.000043   0.000000   0.000002   0.000000   0.000000
     2  C    0.000104  -0.015929   0.000117  -0.000018   0.000009   0.000000
     3  C    0.001074  -0.011863   0.000002   0.000421   0.000017   0.000000
     4  O    0.000000   0.000309   0.000001   0.000003   0.000000   0.000000
     5  H    0.000000   0.000019   0.000000   0.000000   0.000000   0.000000
     6  C   -0.003164   0.082928   0.001202  -0.010444  -0.000297   0.000004
     7  O    0.000327  -0.005098  -0.000139   0.000029  -0.000003   0.000000
     8  H   -0.003457  -0.020649  -0.000125  -0.000304   0.000000   0.000000
     9  C   -0.000010   0.007009  -0.000010  -0.001056  -0.000013   0.000000
    10  O    0.000000  -0.000059   0.000000   0.000005   0.000000   0.000000
    11  H    0.000000  -0.000002   0.000000   0.000000   0.000000   0.000000
    12  C   -0.000308   0.047315  -0.000370  -0.002870   0.000074  -0.000001
    13  O   -0.000013  -0.013347  -0.000010   0.000458   0.000022   0.000000
    14  C   -0.007053  -0.485609   0.010431   0.039830  -0.001066  -0.000091
    15  O    0.001477  -0.096399   0.001583   0.002582  -0.000023   0.000001
    16  C   -0.008366  -1.429906   0.049404   0.530932  -0.011970  -0.002576
    17  C   -0.000986  -0.087902   0.014559   0.225847  -0.020818   0.009874
    18  O    0.000000   0.043411  -0.002077  -0.014554   0.000379  -0.000024
    19  H    0.000000   0.001205   0.000174   0.004135   0.000009   0.000000
    20  C    0.000844   0.659454  -0.107900  -0.738191  -0.051060  -0.039396
    21  O    0.000000  -0.010687   0.002320   0.021354   0.006466  -0.000882
    22  H    0.000000   0.001765  -0.000486  -0.005339   0.012707  -0.001555
    23  C   -0.008540  -0.363694  -0.103442  -0.123408   0.005791  -0.000656
    24  O    0.264930   0.105039   0.002595   0.008593   0.000005  -0.000001
    25  H    0.389654   0.014526  -0.000653  -0.001451  -0.000001   0.000000
    26  C    0.014526   8.391805   0.163299  -0.810854  -0.002534   0.000913
    27  O   -0.000653   0.163299   7.867796   0.259768  -0.028290   0.003303
    28  C   -0.001451  -0.810854   0.259768   5.867670   0.286769   0.018804
    29  O   -0.000001  -0.002534  -0.028290   0.286769   8.043461   0.266612
    30  H    0.000000   0.000913   0.003303   0.018804   0.266612   0.404060
    31  H    0.000000   0.006843  -0.040688   0.390215  -0.019743  -0.008521
    32  H    0.000000   0.037072  -0.001833  -0.007840  -0.002036   0.000139
    33  H    0.000000   0.068872  -0.000204  -0.039284   0.000185   0.000014
    34  H   -0.000017   0.095271   0.002213   0.002048  -0.000379   0.000001
    35  H   -0.000211   0.181673  -0.028601   0.046866  -0.000649   0.000014
    36  H   -0.008183  -0.063781  -0.004475   0.003005  -0.000150   0.000000
    37  H   -0.002014  -0.197747   0.000502   0.003104  -0.000048   0.000000
    38  H    0.000009   0.014317   0.000353  -0.001128  -0.000002   0.000000
    39  H   -0.000010  -0.006195   0.000000  -0.000009   0.000000   0.000000
    40  H    0.000000  -0.001090   0.000000  -0.000003   0.000000   0.000000
    41  H    0.000000  -0.000005   0.000000   0.000000   0.000000   0.000000
    42  H    0.000000  -0.000220   0.000000   0.000002   0.000000   0.000000
    43  H    0.000000  -0.000947   0.000001   0.000063   0.000000   0.000000
    44  H    0.000000   0.000561   0.000000  -0.000004   0.000000   0.000000
    45  H    0.000000  -0.000124   0.000000   0.000007   0.000000   0.000000
             31         32         33         34         35         36
     1  O    0.000000   0.000000   0.000000  -0.000001   0.000000   0.000000
     2  C    0.000013   0.000116  -0.000407  -0.004762  -0.000006  -0.000027
     3  C   -0.000002  -0.000016   0.000577   0.004671   0.000433   0.000081
     4  O    0.000000   0.000000   0.000000   0.000006   0.000000   0.000000
     5  H    0.000000   0.000000   0.000000   0.000000   0.000000   0.000000
     6  C   -0.000126   0.000452   0.008270   0.017636  -0.006621   0.001821
     7  O    0.000001   0.000002  -0.000021  -0.002203  -0.000402  -0.000594
     8  H    0.000000   0.000000  -0.000001  -0.000066   0.000032   0.000288
     9  C   -0.000007  -0.000168  -0.000168   0.000333   0.000078  -0.000002
    10  O    0.000000   0.000000   0.000000   0.000001   0.000000   0.000000
    11  H    0.000000   0.000000   0.000000   0.000000   0.000000   0.000000
    12  C    0.000037   0.000344  -0.000523   0.007162   0.001053   0.000005
    13  O    0.000013   0.000115   0.000207  -0.000411  -0.000167   0.000024
    14  C   -0.000302  -0.013372  -0.002212  -0.013425   0.053804   0.005316
    15  O    0.000348   0.000378  -0.005862  -0.040268  -0.002403   0.000250
    16  C    0.047754   0.077209  -0.063118   0.106036  -0.024614   0.015558
    17  C   -0.058299  -0.207964   0.269655   0.077266  -0.040539   0.004813
    18  O    0.000481   0.006023  -0.022329  -0.005434   0.000092   0.000007
    19  H    0.000007  -0.000083  -0.006017  -0.000088   0.000023   0.000000
    20  C   -0.064464   0.386183   0.026663   0.024041  -0.028138  -0.002646
    21  O    0.002573  -0.025715  -0.004307  -0.000475   0.000252  -0.000004
    22  H    0.000160  -0.006770  -0.000159   0.000006   0.000002   0.000000
    23  C    0.005163   0.007896   0.010647  -0.024906   0.090133   0.402790
    24  O    0.000036   0.000010   0.000013   0.000622  -0.000722  -0.025552
    25  H    0.000000   0.000000   0.000000  -0.000017  -0.000211  -0.008183
    26  C    0.006843   0.037072   0.068872   0.095271   0.181673  -0.063781
    27  O   -0.040688  -0.001833  -0.000204   0.002213  -0.028601  -0.004475
    28  C    0.390215  -0.007840  -0.039284   0.002048   0.046866   0.003005
    29  O   -0.019743  -0.002036   0.000185  -0.000379  -0.000649  -0.000150
    30  H   -0.008521   0.000139   0.000014   0.000001   0.000014   0.000000
    31  H    0.593123   0.005458   0.001705  -0.000030   0.003615  -0.000037
    32  H    0.005458   0.594138   0.006831   0.001252  -0.000024   0.000000
    33  H    0.001705   0.006831   0.613977   0.005879   0.001685   0.000005
    34  H   -0.000030   0.001252   0.005879   0.610664   0.006427   0.000090
    35  H    0.003615  -0.000024   0.001685   0.006427   0.613109  -0.002857
    36  H   -0.000037   0.000000   0.000005   0.000090  -0.002857   0.562635
    37  H   -0.000007  -0.000009  -0.000005   0.003432   0.006109  -0.041865
    38  H    0.000000  -0.000007  -0.000048   0.008242  -0.000006  -0.000001
    39  H    0.000000   0.000000  -0.000006  -0.000020  -0.000002   0.000000
    40  H    0.000000   0.000000   0.000000  -0.000003   0.000000   0.000000
    41  H    0.000000   0.000000   0.000000   0.000000   0.000000   0.000000
    42  H    0.000000   0.000000   0.000000   0.000000   0.000000   0.000000
    43  H    0.000000   0.000000  -0.000001  -0.000026   0.000000   0.000000
    44  H    0.000000   0.000000  -0.000001   0.000000   0.000000   0.000000
    45  H    0.000000   0.000000   0.000000   0.000000   0.000000   0.000000
             37         38         39         40         41         42
[...]
 310,-0.00082332,0.00187206,0.00147523,0.00064421,0.00114931,0.00003675
 ,-0.00022959,-0.00011487,0.00008315,0.00002723,0.00012896,-0.00000259,
 0.00000621,-0.00001627,-0.00001864,-0.00000533,-0.00000772,0.00002165,
 -0.00001547,0.00003244,-0.00001853,0.00003077,-0.00002451,-0.00000533,
 0.00000270,-0.00000165,0.00000820,-0.00000245,0.00000552,-0.00000215,-
 0.00000092,-0.00000196,-0.00002117,-0.00001060,0.00000852,0.00002600,0
 .00002060,0.00001885,-0.00001046,-0.00000502,0.00000037,-0.00001205,-0
 .00000845,-0.00000273,0.00001080,0.00000264,0.00000413,-0.00000996,0.0
 0000063,-0.00000499,0.00000393,0.00000092,0.00000148,-0.00000137,-0.00
 000039,-0.00000036,0.00000293,0.00000100,0.00000181,0.00000378,0.00000
 104,-0.00000263,0.00000781,0.00000220,0.00000767,0.00000780,-0.0000002
 6,-0.00000815,0.00000610,0.00000062,0.00000556,0.00000065,0.00000081,-
 0.00000038,0.00000698,0.00000157,-0.00000097,0.00000864,0.00002018,-0.
 00018048,0.00104677,0.00006790,0.00037045,0.00004720,0.00210723,0.0009
 7612,0.00116311,0.00017761,-0.00057203,0.36290734,-0.01089657,-0.00072
 140,-0.00434952,-0.03494972,-0.04800793,0.00890997,0.03178040,0.000827
 93,-0.00810813,-0.00197748,0.00348402,-0.00019166,0.00058138,-0.000249
 84,0.00042202,0.00108562,0.00103381,0.00087236,-0.00045115,-0.00028791
 ,-0.00006163,-0.00010051,0.00002855,0.00009431,-0.00233083,0.00197587,
 -0.00016093,0.00048156,0.00010963,0.00005517,0.00000519,-0.00005359,0.
 00001920,-0.02755764,-0.00594921,0.00927226,0.00145410,0.00142967,-0.0
 0155761,0.00025794,-0.00051834,-0.00007163,0.00002010,0.00010768,-0.00
 002726,-0.00002772,0.00001349,-0.00001376,0.00000740,-0.00001212,-0.00
 002513,0.00002951,0.00000927,0.00000081,-0.00003975,-0.00000061,0.0000
 0957,-0.00000539,0.00000108,-0.00000056,0.00000389,0.00000194,0.000000
 39,-0.00000144,-0.00000084,-0.00000135,0.00000415,-0.00000793,0.000011
 16,-0.00001346,-0.00001283,-0.00005504,0.00000814,0.00000784,0.0000035
 7,-0.00000052,-0.00000604,0.00000344,-0.00000124,0.00000767,-0.0000047
 3,0.00000118,-0.00000715,0.00000364,0.00000134,0.00000195,-0.00000207,
 -0.00000017,0.00000008,0.00000034,0.00000001,0.00000120,0.00000035,0.0
 0000162,-0.00000078,-0.00000211,0.00000474,0.00000651,0.00000590,0.000
 00101,-0.00000753,0.00000401,-0.00000083,0.00000198,-0.00000022,-0.000
 00015,0.00000203,-0.00000420,-0.00000289,-0.00000055,0.00000296,-0.000
 07250,-0.00015271,-0.00002929,-0.00049053,-0.00018594,-0.00039603,0.00
 176231,-0.00477598,-0.00179143,-0.00089791,0.00131327,0.00024652,0.041
 38300,0.05370172,-0.04116484,-0.00945745,-0.01207335,0.06973680,0.0084
 7028,-0.05535504,0.01301620,0.00206315,-0.00200825,-0.00164102,0.00046
 878,0.00079253,-0.00030757,-0.00023850,-0.00000893,0.00132013,0.000117
 16,0.00021136,-0.00042162,-0.00006304,-0.00002917,0.00001569,0.0000433
 5,0.00003139,0.00034286,-0.00156544,0.00038269,-0.00015985,-0.00003061
 ,0.00013126,-0.00000380,-0.00002290,0.00003974,0.02516804,0.00601326,-
 0.00607751,-0.00106903,-0.00094325,0.00246348,0.00038689,-0.00013666,-
 0.00020170,-0.00008914,0.00000777,-0.00016837,-0.00000365,-0.00003294,
 0.00001953,0.00001521,0.00001661,0.00002868,-0.00005837,-0.00001936,-0
 .00001941,0.00006650,0.00002079,-0.00001876,0.00000372,-0.00000915,0.0
 0001182,-0.00000923,0.00001033,-0.00001531,0.00000199,-0.00000052,0.00
 000371,0.00001496,0.00001000,-0.00000148,-0.00002053,-0.00002359,-0.00
 002460,0.00000675,0.00000754,0.00000388,0.00000911,0.00001419,0.000013
 12,-0.00000897,0.00000136,-0.00002254,0.00000872,-0.00000387,0.0000228
 2,0.00000255,-0.00000085,-0.00001693,0.00000081,0.00000102,0.00000340,
 -0.00000302,-0.00000114,-0.00000288,-0.00000439,-0.00000012,0.00000395
 ,-0.00001149,-0.00000718,-0.00001371,-0.00001265,0.00000342,0.00001483
 ,-0.00000554,-0.00000248,-0.00000670,-0.00000132,-0.00000350,-0.000002
 10,-0.00000679,0.00000105,0.00000290,-0.00020221,0.00002139,0.00014736
 ,-0.00034314,-0.00036938,-0.00025543,0.00040322,-0.00219997,-0.0005796
 0,-0.00299115,0.00043511,0.00349072,-0.06108376,-0.00605744,0.07213789
 ,0.00133463,0.00021922,0.00127519,-0.00714518,-0.00182578,0.00269950,-
 0.00015256,0.00092021,-0.00010371,0.00049758,0.00017633,0.00003323,-0.
 00010757,0.00002038,0.00002978,0.00004386,0.00002795,-0.00015538,0.000
 12266,-0.00028170,-0.00002023,-0.00000311,0.00003807,0.00005298,-0.016
 45051,0.00168937,0.00543238,0.00177652,0.00032617,0.00042674,0.0001021
 4,-0.00014611,0.00002827,-0.32947994,-0.02699317,0.06157230,-0.0186421
 0,-0.00704834,-0.01355086,-0.00007578,0.00263696,0.00166565,0.00069799
 ,0.00004337,-0.00034959,-0.00019117,-0.00009247,0.00011237,0.00003074,
 0.00006730,-0.00001653,0.00024142,0.00009177,-0.00028062,-0.00036312,-
 0.00034758,0.00063284,-0.00003806,-0.00004254,0.00001693,0.00002064,0.
 00002694,-0.00001802,-0.00000981,-0.00000722,-0.00000455,-0.00003774,-
 0.00000167,0.00002108,0.00001556,-0.00001224,-0.00003992,-0.00000424,0
 .00000370,-0.00000101,0.00002133,0.00002599,0.00001962,0.00001591,0.00
 000729,-0.00006520,-0.00000460,-0.00000758,0.00003575,0.00002144,0.000
 00331,-0.00004055,-0.00000088,-0.00000035,0.00000507,0.00000279,0.0000
 0338,0.00000083,0.00001077,0.00000216,-0.00001153,0.00002536,0.0000178
 9,0.00003921,0.00003660,-0.00001582,-0.00003749,0.00000731,0.00000363,
 0.00000908,0.00000233,-0.00000550,-0.00000495,0.00000558,0.00000298,0.
 00000639,0.00065067,-0.00148920,-0.00093574,0.00009343,0.00016644,0.00
 005713,0.00073590,-0.00041923,-0.00033610,0.00018024,0.00007100,-0.000
 04938,0.00081452,-0.00055560,0.00006113,0.36501846,0.00140146,0.000683
 36,-0.00114324,-0.02754080,-0.00537077,0.00969182,-0.00159230,0.001058
 65,0.00036721,0.00077118,0.00005348,-0.00030111,-0.00014610,0.00009341
 ,-0.00003256,-0.00000556,-0.00029711,-0.00004926,0.00014448,-0.0000666
 4,-0.00002289,-0.00001095,-0.00001389,-0.00002965,0.03575799,0.0000865
 9,-0.00806919,-0.00275601,0.00226881,0.00079893,-0.00006670,0.00033407
 ,0.00023196,-0.02397255,-0.04727438,0.00790786,-0.01254361,-0.00108810
 ,-0.00685509,-0.00356569,0.00086859,0.00032443,0.00044587,-0.00009020,
 0.00004428,0.00002368,0.00001612,-0.00005387,0.00001400,0.00012997,0.0
 0009455,-0.00003972,-0.00008933,-0.00023135,0.00010055,-0.00005087,0.0
 0026043,0.00000050,-0.00002241,-0.00000717,-0.00000600,-0.00001014,-0.
 00000608,0.00000300,0.00000217,0.00000443,-0.00001371,0.00000196,-0.00
 001685,0.00000855,0.00000101,0.00001987,-0.00000454,-0.00000396,-0.000
 00292,0.00002219,-0.00000054,-0.00000457,0.00000236,-0.00002422,0.0000
 1780,-0.00000850,0.00004121,-0.00000895,0.00000298,-0.00001189,-0.0000
 0841,0.00000064,0.00000101,0.00000159,0.00000017,-0.00000440,-0.000001
 04,-0.00000295,0.00000445,0.00000431,-0.00001188,-0.00002766,-0.000008
 49,0.00002231,0.00001422,-0.00003892,0.00000065,0.00000354,0.00000735,
 0.00000392,-0.00000139,0.00000329,0.00000654,-0.00000271,-0.00000152,0
 .00056930,0.00015061,-0.00020734,0.00017625,0.00014810,0.00003117,0.00
 064312,-0.00035855,0.00010894,0.00010587,0.00006227,-0.00031941,-0.000
 39987,-0.00318991,0.00329766,0.03019174,0.05663386,-0.00138405,-0.0010
 5267,0.00206915,0.02722042,0.00649994,-0.00567662,0.00077413,-0.001299
 15,0.00029257,-0.00071069,0.00007861,0.00006781,0.00022363,-0.00006192
 ,0.00003809,0.00034295,-0.00013402,-0.00041533,0.00004291,-0.00021709,
 0.00026095,-0.00000756,0.00005813,-0.00001226,0.01020252,0.00056071,-0
 .00026650,-0.00092710,0.00056434,0.00026715,-0.00015285,0.00008988,-0.
 00001212,0.06766959,0.00714960,-0.05246733,-0.04310227,-0.01162262,-0.
 01154628,-0.00436448,0.00267157,0.00233775,0.00053770,-0.00001480,-0.0
 0043646,-0.00004811,-0.00010593,0.00019588,0.00001131,-0.00001108,-0.0
 0004382,0.00020761,0.00007658,-0.00003086,-0.00042246,-0.00029708,0.00
 042753,-0.00000572,-0.00002064,0.00002068,0.00000230,0.00002475,-0.000
 01762,-0.00000267,-0.00000287,-0.00000129,-0.00000344,0.00001998,0.000
 00368,0.00000060,-0.00002006,0.00001248,0.00000400,0.00000268,-0.00000
 456,0.00001997,0.00003017,0.00001910,0.00000014,0.00000759,-0.00005258
 ,0.00000577,-0.00001546,0.00002909,0.00000723,0.00000414,-0.00002283,0
 .00000077,-0.00000008,0.00000316,-0.00000123,0.00000174,-0.00000090,0.
 00000384,0.00000082,-0.00000865,0.00002075,0.00001493,0.00003537,0.000
 03080,-0.00000566,-0.00006507,0.00000014,0.00000282,0.00000462,-0.0000
 0015,-0.00000480,-0.00000091,-0.00000135,0.00000061,0.00000300,0.00108
 468,0.00012914,-0.00004894,-0.00001296,0.00002086,-0.00016663,-0.00058
 360,0.00037023,0.00028363,0.00004383,-0.00016498,0.00051712,0.00027264
 ,0.00362709,-0.00346532,-0.05730390,-0.00467768,0.06734803,0.00008617,
 -0.00038397,-0.00007681,-0.00106323,0.00179000,0.00229091,0.00070843,0
 .00015847,-0.00075969,-0.00011488,0.00051688,-0.00001995,0.00001113,-0
 .00002099,0.00006386,0.00001264,-0.00006382,-0.00013706,0.00000643,-0.
 00005399,0.00007191,0.00000021,0.00001594,-0.00001549,-0.04736811,0.01
 070342,-0.01085465,-0.00360790,0.00243672,-0.02725928,0.00148723,0.001
 02900,0.00061466,-0.00102092,0.01418951,-0.01522568,0.00100088,-0.0028
 6625,-0.00071255,-0.00034993,0.00012882,0.00001545,-0.00006823,-0.0001
 1458,-0.00014788,0.00000476,-0.00003186,0.00003302,0.00000468,0.000049
 46,0.00006183,-0.00018279,-0.00004829,-0.00012775,0.00037251,0.0000185
 5,0.00006748,0.00001177,-0.00002096,0.00001438,-0.00002053,0.00000990,
 -0.00002035,0.00000406,0.00000238,0.00000715,0.00000633,0.00001375,-0.
 00000988,-0.00000438,-0.00001369,0.00001637,0.00000181,0.00000308,-0.0
 0000263,0.00000806,0.00001568,0.00001591,-0.00000732,-0.00000402,-0.00
 002016,0.00000776,0.00000686,0.00002133,0.00000226,-0.00000313,-0.0000
 1961,0.00000172,0.00000050,0.00000356,-0.00000364,-0.00000347,-0.00000
 381,-0.00000832,0.00000442,0.00000752,-0.00002119,-0.00003618,-0.00003
 222,-0.00000728,0.00001333,-0.00000078,-0.00000336,-0.00000301,-0.0000
 0382,-0.00000028,-0.00000511,0.00000015,-0.00000303,0.00000110,0.00000
 064,0.00000084,0.00003991,-0.00000283,0.00001054,0.00000474,0.00001665
 ,-0.00001833,-0.00009642,-0.00001813,-0.00019213,0.00012566,-0.0001783
 2,0.00026615,0.00035190,-0.00014644,0.00043413,-0.00073353,-0.00035209
 ,0.04620882,-0.00009231,0.00042858,-0.00011855,0.00300784,-0.00435930,
 -0.00397869,-0.00064264,0.00010939,0.00177200,0.00022215,-0.00118987,0
 .00006567,-0.00009722,0.00012489,-0.00018897,-0.00000829,0.00022077,0.
 00058322,-0.00002423,0.00006174,-0.00039594,0.00003085,-0.00000769,0.0
 0015732,0.01502614,-0.12981035,0.14559699,-0.00968044,0.00432160,-0.03
 117683,0.00002254,0.00244668,-0.00067819,0.00181277,-0.02071713,0.0261
 5989,-0.00056336,0.00267503,0.00070147,0.00013422,-0.00025426,-0.00026
 347,-0.00001136,0.00008354,-0.00019444,-0.00000715,-0.00004767,0.00006
 885,-0.00010805,-0.00033451,-0.00026654,0.00002772,0.00047647,0.000451
 72,-0.00001592,-0.00066608,-0.00067318,0.00002280,0.00010099,-0.000014
 83,0.00000561,-0.00001154,0.00004821,-0.00000048,0.00000584,-0.0000107
 4,-0.00002067,-0.00005108,0.00007780,-0.00000909,0.00002621,-0.0001373
 3,0.00000478,-0.00000082,0.00001958,0.00000273,-0.00000556,-0.00003641
 ,-0.00001254,0.00005629,-0.00001217,0.00002162,-0.00010422,-0.00002904
 ,-0.00002771,0.00002926,0.00006852,-0.00000042,-0.00000261,-0.00001252
 ,-0.00000054,0.00000828,0.00000399,0.00000289,-0.00000766,-0.00000909,
 0.00003789,0.00003944,0.00002155,0.00000742,-0.00001232,-0.00000498,-0
 .00000080,0.00000146,0.00000200,0.00000059,0.00001849,-0.00000906,0.00
 000166,0.00000174,-0.00000183,-0.00005980,0.00005503,0.00004601,-0.000
 01597,-0.00001086,-0.00002920,0.00010997,-0.00004543,-0.00010006,0.000
 00365,-0.00006797,-0.00016270,-0.00000005,0.00026325,-0.00017625,0.000
 09315,0.00099733,-0.00015024,-0.00994879,0.14588087,0.00006400,0.00040
 115,0.00010836,-0.00027185,-0.00135475,-0.00040457,-0.00009321,-0.0002
 1767,0.00018001,0.00003157,-0.00012661,0.00006943,0.00000387,-0.000056
 51,-0.00002581,0.00008672,-0.00008491,-0.00018077,-0.00000335,-0.00005
 316,0.00009474,-0.00000427,0.00001385,-0.00001968,-0.01353283,0.142271
 44,-0.26055191,-0.01252478,-0.00501421,-0.03155067,-0.00033028,0.00022
 048,0.00080551,0.00162167,-0.00283604,0.00367951,0.00053943,-0.0015423
 5,0.00105058,-0.00010177,-0.00012799,0.00046588,-0.00001987,0.00002236
 ,-0.00000767,0.00000008,0.00003121,0.00001775,0.00000191,0.00006806,0.
 00000650,0.00002845,-0.00018384,-0.00008496,-0.00004862,0.00008730,-0.
 00002438,-0.00001272,-0.00000482,-0.00000552,0.00000380,-0.00001652,-0
 .00001317,0.00000101,0.00000245,0.00000613,0.00000303,0.00001439,-0.00
 001600,0.00000072,-0.00001314,0.00002303,-0.00000113,0.00000362,-0.000
 00402,-0.00000650,0.00000582,0.00000485,0.00000585,-0.00002363,0.00000
 382,-0.00001128,0.00003060,0.00001165,0.00001164,-0.00001258,-0.000022
 15,-0.00000134,0.00000368,0.00000609,0.00000123,-0.00000133,-0.0000007
 0,0.00000084,0.00000206,0.00000162,-0.00000312,-0.00000060,0.00000190,
 0.00000111,-0.00000134,-0.00000034,0.00000119,-0.00000016,0.00000002,-
 0.00000067,-0.00000444,0.00000068,-0.00000036,0.,0.00000157,0.00001078
 ,-0.00001047,-0.00001176,-0.00001266,0.00000720,0.00000799,0.00000136,
 0.00003067,0.00001146,0.00001499,-0.00022098,0.00007633,-0.00005266,-0
 .00018570,0.00004487,-0.00037802,0.00037288,0.00040054,0.02478324,-0.1
 3985581,0.29547245,0.00033858,-0.00023436,-0.00040661,0.00089480,-0.00
 179450,0.00064865,0.00052218,0.00007009,0.00006167,0.00008032,0.000096
 39,-0.00006478,-0.00006321,0.00003672,0.00000659,-0.00013114,-0.000055
 28,0.00013623,0.00005359,0.00004903,-0.00009438,-0.00001303,-0.0000234
 5,0.00001641,-0.29711726,-0.02901847,0.10757258,-0.01907144,-0.0177237
 5,-0.00868576,-0.00130443,0.00028124,-0.00001653,-0.01914350,0.0009304
 1,0.00924279,0.00068333,0.00111296,0.00115373,0.00035369,-0.00024663,0
 .00001658,0.00011162,0.00022172,0.00026594,0.00001336,0.00004760,-0.00
 008265,-0.00003750,-0.00002630,-0.00002445,0.00008097,-0.00001639,0.00
 008778,-0.00011091,0.00006971,-0.00008806,-0.00000606,0.00001265,-0.00
 001007,0.00001673,-0.00000739,0.00001626,-0.00000367,-0.00000282,-0.00
 000469,-0.00001485,-0.00002133,0.00001152,0.00001520,0.00002198,-0.000
 01919,-0.00000651,-0.00000434,0.00000327,-0.00001782,-0.00002754,-0.00
 001026,0.00001181,0.00000627,0.00002695,-0.00001561,0.00000037,-0.0000
 2004,0.00000209,0.00000258,0.00001368,-0.00000249,-0.00000143,-0.00000
 227,0.00000490,0.00000243,0.00000382,0.00000718,-0.00000067,-0.0000051
 0,0.00001566,0.00001322,0.00001662,0.00000722,-0.00000982,-0.00000272,
 0.00000626,0.00000287,0.00000564,0.00000105,0.00000528,-0.00000053,0.0
 0000679,-0.00000043,-0.00000082,0.00005742,-0.00015560,-0.00013883,0.0
 0004969,0.00004602,-0.00000031,0.00015308,-0.00028836,-0.00008942,-0.0
 0038470,0.00029891,-0.00034932,0.00048515,0.00114751,-0.00081174,-0.00
 025415,0.00300164,0.00065645,0.00340648,0.00074882,0.00019279,0.330319
 10,-0.00019089,0.00025667,0.00040206,0.00134050,0.00265628,-0.00126442
 ,0.00018107,0.00000734,-0.00032571,-0.00017971,0.00001396,0.00013403,0
 .00002921,-0.00006339,0.00000218,0.00001243,0.00009398,-0.00003014,-0.
 00002143,-0.00001078,0.00004285,0.00000266,0.00001756,0.00000406,-0.03
 044376,-0.04448444,0.02056701,-0.02795759,-0.01288750,-0.00848799,-0.0
 0168626,-0.00000257,0.00041407,0.03461980,-0.00292105,-0.01272236,-0.0
 0110075,0.00150675,0.00118065,0.00019794,0.00004201,0.00003565,-0.0001
 2822,-0.00010098,-0.00015817,-0.00002468,-0.00002755,0.00010140,-0.000
 02010,-0.00003345,-0.00003542,0.00002353,0.00010571,0.00003793,-0.0000
 4297,-0.00015688,-0.00001246,-0.00000200,-0.00000105,0.00001459,0.0000
 0498,0.00001798,-0.00000654,-0.00000346,-0.00000435,-0.00000215,0.0000
 0400,0.00000818,0.00000517,-0.00000081,-0.00000881,-0.00000107,0.00000
 154,0.00000318,-0.00000106,-0.00000885,0.00001287,0.00001057,0.0000011
 5,0.00000992,-0.00002876,0.00000257,-0.00002093,0.00002022,0.00000543,
 0.00000608,-0.00001103,-0.00000111,-0.00000037,0.00000184,0.00000010,0
 .00000245,-0.00000020,0.00000178,-0.00000210,-0.00000266,0.00000670,0.
 00001155,0.00000822,0.00000133,0.00000116,0.00001105,0.00000121,-0.000
 00128,-0.00000257,-0.00000178,-0.00000235,-0.00000175,-0.00000288,0.00
 000168,0.00000201,-0.00020466,0.00007098,0.00008428,-0.00002957,-0.000
 03445,-0.00000757,-0.00027050,0.00002492,0.00009698,0.00006590,-0.0002
 0767,0.00020664,-0.00085177,-0.00018133,0.00034138,0.00241541,-0.00565
 576,-0.00212809,-0.01717793,-0.00072628,0.00836040,0.04143245,0.062664
 12,0.00014830,-0.00008582,0.00027371,-0.00095758,0.00028797,-0.0001852
 8,-0.00019875,0.00006066,0.00010615,0.00001715,-0.00020218,0.00002410,
 -0.00000190,0.00005060,-0.00002193,0.00008271,0.00005761,0.00004971,-0
 .00003436,-0.00006571,-0.00006778,0.00002282,0.00001979,0.00004504,0.1
 1006880,0.02061021,-0.08797298,-0.03259437,-0.01542860,0.00296174,-0.0
 0126910,0.00015024,0.00118308,0.00750840,0.00008932,0.00039717,-0.0007
 7189,0.00019637,0.00069770,0.00002143,-0.00003250,0.00012524,-0.000084
 53,-0.00002897,-0.00008499,0.00000624,-0.00001687,0.00000346,0.0000645
 1,0.00009540,0.00009940,-0.00013609,-0.00012537,-0.00022129,0.00024794
 ,0.00015629,0.00015947,-0.00000110,-0.00003780,0.00001395,-0.00001955,
 0.00001526,-0.00002877,0.00000305,-0.00000076,0.00000714,0.00000674,0.
 00000356,-0.00000500,-0.00001885,-0.00001873,-0.00002759,0.00000596,0.
 00000851,0.00000546,0.00001063,0.00000232,0.00002979,-0.00001118,0.000
 00146,-0.00002276,0.00001202,0.00001362,0.00003165,0.00000624,-0.00000
 494,-0.00003224,0.00000233,0.00000059,0.00000535,-0.00000471,-0.000003
 98,-0.00000516,-0.00000831,0.00000318,0.00000893,-0.00002879,-0.000031
 78,-0.00003445,-0.00001400,0.00000983,0.00000415,-0.00000580,-0.000003
 33,-0.00000798,0.00000078,-0.00000602,-0.00000255,-0.00000482,0.000001
 91,0.00000227,-0.00011806,0.00007132,0.00003046,-0.00002228,-0.0000322
 7,0.00000116,-0.00002799,0.00010434,-0.00000074,-0.00006256,0.00008892
 ,-0.00004130,-0.00012375,-0.00046760,0.00036515,-0.00053019,-0.0014931
 9,0.00012552,0.02804185,0.00284225,-0.00962914,-0.10922740,-0.00685511
 ,0.09163500\\0.00368886,-0.00232653,-0.00728657,-0.00197954,-0.0042134
 2,0.00931442,-0.01557814,-0.01981813,-0.00143804,0.00566477,0.02692299
 ,0.02742287,-0.00374103,-0.01543459,-0.02405340,0.02032190,-0.02371850
 ,-0.01825925,0.00880063,0.00757599,0.00820251,-0.00620870,0.01435261,0
 .01838321,-0.03292002,0.03119495,-0.00612683,0.02239379,0.00090977,0.0
 1412918,0.00079049,-0.03888084,-0.01309972,0.03623803,0.00455890,0.012
 96194,-0.00223775,0.01100567,0.00701674,-0.05266455,-0.01233721,0.0030
 4727,0.02612273,0.01539598,0.00010445,-0.00540076,-0.00993741,-0.03108
 083,-0.01006509,0.03498948,0.03636768,-0.00821201,0.00965859,0.0097550
 2,0.00841322,0.00564759,-0.02450978,0.01854132,-0.00747903,0.00569694,
 0.00226514,-0.00830036,-0.01146350,-0.01395527,-0.00806909,0.02864423,
 0.01638548,-0.01125077,-0.00958067,-0.00255504,-0.01784774,-0.00292799
 ,-0.01179565,0.02890109,-0.00619332,-0.01597814,-0.00526795,0.01096082
 ,0.00233290,0.00522547,0.00800750,0.03153566,-0.00001424,-0.01389530,-
 0.00828649,-0.00351458,0.00953411,-0.00199382,-0.00416577,-0.00206312,
 -0.01925772,-0.00638397,-0.00530110,0.02122564,0.00011044,0.00157759,-
 0.02338184,-0.00364088,-0.00084466,0.01721696,0.00312623,0.00109726,-0
 .02314882,-0.00367914,-0.00185412,0.00227662,-0.00855675,-0.01641617,0
 .02000060,0.00277877,0.00477552,0.01599641,0.00553993,-0.00450528,-0.0
 1966449,0.00130455,0.00175562,0.02116354,0.00194989,-0.00135691,-0.000
 21542,0.00372039,-0.00047766,-0.02016925,-0.00380464,0.00209763,0.0242
 3908,0.00250530,-0.00272233,-0.00350347,0.00449174,-0.01984050,-0.0227
 0076,-0.00322480,0.00444455\\\@


 My opinions may have changed, but not the fact that I am right.
                       -- Ashleigh Brilliant
 Job cpu time:  3 days 21 hours  2 minutes 49.8 seconds.
 File lengths (MBytes):  RWF=   2340 Int=      0 D2E=      0 Chk=     43 Scr=      1
 Normal termination of Gaussian 09 at Fri Feb 12 10:58:55 2016.
Gaussian '09 finished on node016 at Fri Feb 12 10:58:55 EST 2016.
