Gaussian '09 started on node006 at Sun Mar 20 15:04:19 EDT 2016.
 Entering Gaussian System, Link 0=/usr/local/gaussian/g09/g09
 Initial command:
 /usr/local/gaussian/g09/l1.exe /home/srmcgrat/thesis/gaussian/cellobiose/290K/5882ps/1/2dp/gaussian15235/Gau-15271.inp -scrdir=/home/srmcgrat/thesis/gaussian/cellobiose/290K/5882ps/1/2dp/gaussian15235/
 Entering Link 1 = /usr/local/gaussian/g09/l1.exe PID=     15273.
  
 Copyright (c) 1988,1990,1992,1993,1995,1998,2003,2009,2010,
            Gaussian, Inc.  All Rights Reserved.
  
 This is part of the Gaussian(R) 09 program.  It is based on
 the Gaussian(R) 03 system (copyright 2003, Gaussian, Inc.),
 the Gaussian(R) 98 system (copyright 1998, Gaussian, Inc.),
 the Gaussian(R) 94 system (copyright 1995, Gaussian, Inc.),
 the Gaussian 92(TM) system (copyright 1992, Gaussian, Inc.),
 the Gaussian 90(TM) system (copyright 1990, Gaussian, Inc.),
 the Gaussian 88(TM) system (copyright 1988, Gaussian, Inc.),
 the Gaussian 86(TM) system (copyright 1986, Carnegie Mellon
 University), and the Gaussian 82(TM) system (copyright 1983,
 Carnegie Mellon University). Gaussian is a federally registered
 trademark of Gaussian, Inc.
  
 This software contains proprietary and confidential information,
 including trade secrets, belonging to Gaussian, Inc.
  
 This software is provided under written license and may be
 used, copied, transmitted, or stored only in accord with that
 written license.
  
 The following legend is applicable only to US Government
 contracts under FAR:
  
                    RESTRICTED RIGHTS LEGEND
  
 Use, reproduction and disclosure by the US Government is
 subject to restrictions as set forth in subparagraphs (a)
 and (c) of the Commercial Computer Software - Restricted
 Rights clause in FAR 52.227-19.
  
 Gaussian, Inc.
 340 Quinnipiac St., Bldg. 40, Wallingford CT 06492
  
  
 ---------------------------------------------------------------
 Warning -- This program may not be used in any manner that
 competes with the business of Gaussian, Inc. or will provide
 assistance to any competitor of Gaussian, Inc.  The licensee
 of this program is prohibited from giving any competitor of
 Gaussian, Inc. access to this program.  By using this program,
 the user acknowledges that Gaussian, Inc. is engaged in the
 business of creating and licensing software in the field of
 computational chemistry and represents and warrants to the
 licensee that it is not a competitor of Gaussian, Inc. and that
 it will not use this program in any manner prohibited above.
 ---------------------------------------------------------------
  

 Cite this work as:
 Gaussian 09, Revision B.01,
 M. J. Frisch, G. W. Trucks, H. B. Schlegel, G. E. Scuseria, 
 M. A. Robb, J. R. Cheeseman, G. Scalmani, V. Barone, B. Mennucci, 
 G. A. Petersson, H. Nakatsuji, M. Caricato, X. Li, H. P. Hratchian, 
 A. F. Izmaylov, J. Bloino, G. Zheng, J. L. Sonnenberg, M. Hada, 
 M. Ehara, K. Toyota, R. Fukuda, J. Hasegawa, M. Ishida, T. Nakajima, 
 Y. Honda, O. Kitao, H. Nakai, T. Vreven, J. A. Montgomery, Jr., 
 J. E. Peralta, F. Ogliaro, M. Bearpark, J. J. Heyd, E. Brothers, 
 K. N. Kudin, V. N. Staroverov, T. Keith, R. Kobayashi, J. Normand, 
 K. Raghavachari, A. Rendell, J. C. Burant, S. S. Iyengar, J. Tomasi, 
 M. Cossi, N. Rega, J. M. Millam, M. Klene, J. E. Knox, J. B. Cross, 
 V. Bakken, C. Adamo, J. Jaramillo, R. Gomperts, R. E. Stratmann, 
 O. Yazyev, A. J. Austin, R. Cammi, C. Pomelli, J. W. Ochterski, 
 R. L. Martin, K. Morokuma, V. G. Zakrzewski, G. A. Voth, 
 P. Salvador, J. J. Dannenberg, S. Dapprich, A. D. Daniels, 
 O. Farkas, J. B. Foresman, J. V. Ortiz, J. Cioslowski, 
 and D. J. Fox, Gaussian, Inc., Wallingford CT, 2010.
 
 ******************************************
 Gaussian 09:  EM64L-G09RevB.01 12-Aug-2010
                20-Mar-2016 
 ******************************************
 -------------------------------------------------
 # freq=raman b3lyp/6-31+g(2d,p) geom=connectivity
 -------------------------------------------------
 1/10=4,30=1,38=1,57=2/1,3;
 2/12=2,17=6,18=5,40=1/2;
 3/5=1,6=6,7=112,11=2,16=1,25=1,30=1,71=2,74=-5/1,2,3;
 4//1;
 5/5=2,38=5,98=1/2;
 8/6=4,10=90,11=11/1;
 10/13=10,15=4/2;
 11/6=3,8=1,9=11,15=111,16=1/1,2,10;
 10/6=1/2;
 6/7=2,8=2,9=2,10=2,18=1,28=1/1;
 7/8=1,10=1,25=1/1,2,3,16;
 1/10=4,30=1/3;
 99//99;
 -----------------
 290 5882/5882.com
 -----------------
 Symbolic Z-matrix:
 Charge =  0 Multiplicity = 1
 O                     7.719     7.686     12.421 
 C                     8.255     7.971     13.721 
 C                     7.711     9.309     14.196 
 O                     7.857     10.36     13.231 
 H                     7.423     10.013    12.4 
 C                     8.195     9.61      15.605 
 O                     7.388     10.708    16.058 
 H                     7.774     10.923    16.955 
 C                     8.488     5.496     14.393 
 O                     8.063     4.85      13.184 
 H                     8.048     3.876     13.411 
 C                     7.939     6.874     14.725 
 O                     8.627     7.235     15.931 
 C                     7.996     8.394     16.494 
 O                     8.806     8.666     17.647 
 C                     8.284     8.29      18.93 
 C                     8.838     6.968     19.435 
 O                     8.823     5.984     18.39 
 H                     8.984     6.477     17.535 
 C                     8.447     6.533     20.838 
 O                     9.122     5.359     21.313 
 H                     8.71      5.193     22.209 
 C                     8.03      10.683    19.794 
 O                     8.102     11.341    18.521 
 H                     7.889     12.309    18.651 
 C                     8.605     9.295     20.024 
 O                     8.016     8.841     21.252 
 C                     8.709     7.699     21.776 
 O                     7.773     7.539     22.852 
 H                     8.25037   7.4165    23.67584 
 H                     9.7246    7.86462   22.06931 
 H                     7.39577   6.3335    20.84148 
 H                     9.88157   7.17664   19.54602 
 H                     7.2205    8.20381   18.8498 
 H                     9.6661    9.36472   20.14276 
 H                     8.50268   11.33172   20.50155 
 H                     6.99349   10.63248   20.05476 
 H                     8.43902   7.55003   11.80077 
 H                     8.23936   4.84757   15.20702 
 H                     9.55429   5.57667   14.35521 
 H                     6.88488   6.82238   14.90128 
 H                     9.31855   8.05151   13.63564 
 H                     6.65479   9.16557   14.28952 
 H                     9.22707   9.89192   15.58877 
 H                     6.96956   8.22642   16.74546 
 

 GradGradGradGradGradGradGradGradGradGradGradGradGradGradGradGradGradGrad
 Berny optimization.
 Initialization pass.
 Trust Radius=3.00D-01 FncErr=1.00D-07 GrdErr=1.00D-07
 Number of steps in this run=      2 maximum allowed number of steps=      2.
 GradGradGradGradGradGradGradGradGradGradGradGradGradGradGradGradGradGrad

                          Input orientation:                          
 ---------------------------------------------------------------------
 Center     Atomic      Atomic             Coordinates (Angstroms)
 Number     Number       Type             X           Y           Z
 ---------------------------------------------------------------------
      1          8           0        7.719000    7.686000   12.421000
      2          6           0        8.255000    7.971000   13.721000
      3          6           0        7.711000    9.309000   14.196000
      4          8           0        7.857000   10.360000   13.231000
      5          1           0        7.423000   10.013000   12.400000
      6          6           0        8.195000    9.610000   15.605000
      7          8           0        7.388000   10.708000   16.058000
      8          1           0        7.774000   10.923000   16.955000
      9          6           0        8.488000    5.496000   14.393000
     10          8           0        8.063000    4.850000   13.184000
     11          1           0        8.048000    3.876000   13.411000
     12          6           0        7.939000    6.874000   14.725000
     13          8           0        8.627000    7.235000   15.931000
     14          6           0        7.996000    8.394000   16.494000
     15          8           0        8.806000    8.666000   17.647000
     16          6           0        8.284000    8.290000   18.930000
     17          6           0        8.838000    6.968000   19.435000
     18          8           0        8.823000    5.984000   18.390000
     19          1           0        8.984000    6.477000   17.535000
     20          6           0        8.447000    6.533000   20.838000
     21          8           0        9.122000    5.359000   21.313000
     22          1           0        8.710000    5.193000   22.209000
     23          6           0        8.030000   10.683000   19.794000
     24          8           0        8.102000   11.341000   18.521000
     25          1           0        7.889000   12.309000   18.651000
     26          6           0        8.605000    9.295000   20.024000
     27          8           0        8.016000    8.841000   21.252000
     28          6           0        8.709000    7.699000   21.776000
     29          8           0        7.773000    7.539000   22.852000
     30          1           0        8.250374    7.416496   23.675837
     31          1           0        9.724598    7.864620   22.069310
     32          1           0        7.395769    6.333498   20.841482
     33          1           0        9.881573    7.176641   19.546016
     34          1           0        7.220497    8.203808   18.849804
     35          1           0        9.666101    9.364720   20.142759
     36          1           0        8.502680   11.331724   20.501552
     37          1           0        6.993491   10.632485   20.054764
     38          1           0        8.439018    7.550027   11.800770
     39          1           0        8.239363    4.847573   15.207016
     40          1           0        9.554285    5.576668   14.355207
     41          1           0        6.884884    6.822381   14.901279
     42          1           0        9.318547    8.051511   13.635640
     43          1           0        6.654788    9.165572   14.289517
     44          1           0        9.227066    9.891917   15.588771
     45          1           0        6.969557    8.226420   16.745458
 ---------------------------------------------------------------------
                    Distance matrix (angstroms):
                    1          2          3          4          5
     1  O    0.000000
     2  C    1.434755   0.000000
     3  C    2.405165   1.520462   0.000000
     4  O    2.797395   2.470997   1.434274   0.000000
     5  H    2.345844   2.570414   1.950430   0.999663   0.000000
     6  C    3.750494   2.497874   1.519914   2.512493   3.321207
     7  O    4.740234   3.701949   2.351292   2.886693   3.723602
     8  H    5.571207   4.405045   3.197037   3.767232   4.658254
     9  C    3.045693   2.575170   3.896345   5.040526   5.050699
    10  O    2.956924   3.172676   4.585927   5.514050   5.261257
    11  H    3.950246   4.111931   5.499753   6.489309   6.251041
    12  C    2.452786   1.520290   2.502209   3.793541   3.940203
    13  O    3.653487   2.358851   2.854953   4.201015   4.651329
    14  C    4.143347   2.817009   2.489830   3.812040   4.439631
    15  O    5.427066   4.024935   3.677210   4.824033   5.590895
    16  C    6.561335   5.218839   4.876212   6.078308   6.808153
    17  C    7.138899   5.830583   5.847866   7.138462   7.795221
    18  O    6.304330   5.105914   5.466425   6.833580   7.353431
    19  H    5.405081   4.160538   4.559569   5.905272   6.427149
    20  C    8.526739   7.263360   7.236300   8.535835   9.184706
    21  O    9.297903   8.075438   8.261060   9.587959  10.197445
    22  H   10.148994   8.942620   9.063533  10.393747  11.004783
    23  C    7.964914   6.654840   5.772975   6.573220   7.449066
    24  O    7.121497   5.866882   4.794531   5.385767   6.300100
    25  H    7.759763   6.577013   5.373891   5.759863   6.675610
    26  C    7.821732   6.450061   5.896187   6.916544   7.748421
    27  O    8.911161   7.584852   7.078078   8.165114   8.948918
    28  C    9.407247   8.072368   7.813098   8.990209   9.742575
    29  O   10.432176   9.153912   8.835331  10.026402  10.746510
    30  H   11.270597   9.970270   9.681932  10.858802  11.600469
    31  H    9.856177   8.477341   8.254079   9.371797  10.168995
    32  H    8.534533   7.356695   7.288032   8.622348   9.208588
    33  H    7.463378   6.099800   6.154755   7.356092   8.071868
    34  H    6.468861   5.237273   4.808320   6.051881   6.701803
    35  H    8.138481   6.721060   6.260149   7.213587   8.087156
    36  H    8.899482   7.571770   6.669195   7.363565   8.278882
    37  H    8.214773   6.985089   6.049095   6.883578   7.691791
    38  H    0.960000   1.974428   3.059595   3.206283   2.730862
    39  H    4.011151   3.458943   4.604960   5.868364   5.935270
    40  H    3.399810   2.796996   4.165736   5.198547   5.295872
    41  H    2.755607   2.142336   2.713514   4.031078   4.089745
    42  H    2.041445   1.070000   2.116480   2.762060   2.994552
    43  H    2.610179   2.076269   1.070000   1.998106   2.208746
    44  H    4.144286   2.850158   2.139640   2.766815   3.665730
    45  H    4.422065   3.296202   2.867307   4.206083   4.720220
                    6          7          8          9         10
     6  C    0.000000
     7  O    1.435988   0.000000
     8  H    1.929692   0.999915   0.000000
     9  C    4.298813   5.580965   6.043672   0.000000
    10  O    5.341935   6.559853   7.154390   1.435138   0.000000
    11  H    6.141173   7.356523   7.892732   1.944820   1.000215
    12  C    2.885417   4.096345   4.625422   1.520036   2.546887
    13  O    2.435883   3.689577   3.921419   2.325701   3.681349
    14  C    1.519401   2.431945   2.580241   3.613125   4.849796
    15  O    2.331142   2.950493   2.576419   4.553959   5.918807
    16  C    3.578540   3.859783   3.330678   5.332206   6.700668
    17  C    4.697075   5.243494   4.787956   5.264128   6.645416
    18  O    4.615028   5.460185   5.249128   4.040591   5.382006
    19  H    3.763391   4.757111   4.644073   3.328745   4.735670
    20  C    6.075831   6.434322   5.899383   6.528022   7.846251
    21  O    7.177158   7.696336   7.194954   6.950333   8.213477
    22  H    7.961654   8.366463   7.830295   7.825021   9.054661
    23  C    4.327387   3.790842   2.860604   7.502369   8.815729
    24  O    3.392354   2.641374   1.653682   7.166129   8.403462
    25  H    4.081220   3.088341   2.193316   8.056447   9.249597
    26  C    4.449144   4.382558   3.572073   6.793692   8.175414
    27  O    5.701930   5.554972   4.780951   7.645763   9.001273
    28  C    6.480537   6.595047   5.874559   7.707836   9.075053
    29  O    7.548916   7.506612   6.798975   8.731538  10.039176
    30  H    8.363787   8.343208   7.595535   9.482396  10.802808
    31  H    6.868284   7.048429   6.270143   8.128055   9.528776
    32  H    6.228562   6.482131   6.025888   6.593731   7.828346
    33  H    4.929236   5.554697   5.019007   5.596443   7.013965
    34  H    3.668213   3.754092   3.360157   5.366740   6.637709
    35  H    4.776564   4.866149   4.021205   7.029555   8.448488
    36  H    5.199541   4.623494   3.643633   8.448095   9.785328
    37  H    4.721176   4.016897   3.209693   7.789262   9.043693
    38  H    4.333036   5.403836   6.195586   3.307730   3.056936
    39  H    4.779234   5.982775   6.338993   1.070000   2.030690
    40  H    4.435923   5.824334   6.205772   1.070000   2.030690
    41  H    3.159501   4.085237   4.671549   2.141872   2.868326
    42  H    2.751295   4.080659   4.652873   2.791780   3.468436
    43  H    2.073708   2.458499   3.383192   4.103308   4.672193
    44  H    1.070000   2.065994   2.245243   4.615211   5.706040
    45  H    2.171785   2.608818   2.821804   3.910872   5.027904
                   11         12         13         14         15
    11  H    0.000000
    12  C    3.275131   0.000000
    13  O    4.238929   1.434608   0.000000
    14  C    5.469910   2.333026   1.434716   0.000000
    15  O    6.439127   3.535681   2.241530   1.435093   0.000000
    16  C    7.070958   4.450405   3.197605   2.455169   1.435252
    17  C    6.817121   4.795950   3.520487   3.375192   2.466003
    18  O    5.462118   3.873730   2.765881   3.175979   2.783067
    19  H    4.964743   3.024191   1.809649   2.394726   2.199079
    20  C    7.898049   6.143542   4.960227   4.747321   3.855003
    21  O    8.111373   6.862686   5.721042   5.805330   4.947288
    22  H    8.920624   7.709115   6.602268   6.589190   5.734352
    23  C    9.331573   6.341256   5.212282   4.016301   3.046321
    24  O    9.046615   5.864322   4.882925   3.578376   2.900882
    25  H    9.929671   6.704864   5.804181   4.471166   3.888490
    26  C    8.567822   5.863804   4.582219   3.693722   2.467017
    27  O    9.280815   6.817386   5.591565   4.778993   3.694692
    28  C    9.220926   7.140737   5.863962   5.375027   4.241832
    29  O   10.130433   8.155851   6.980113   6.419106   5.424873
    30  H   10.860154   8.972666   7.756113   7.252517   6.181978
    31  H    9.679174   7.622898   6.267375   5.861090   4.587250
    32  H    7.853456   6.164300   5.142127   4.848355   4.199290
    33  H    7.203793   5.206474   3.826970   3.788423   2.642217
    34  H    6.999663   4.393023   3.381754   2.487447   2.043081
    35  H    8.835207   6.207953   4.832634   4.128556   2.730714
    36  H   10.299053   7.318306   6.139100   4.994740   3.917468
    37  H    9.534237   6.589885   5.587189   4.323757   3.598552
    38  H    4.030410   3.042721   4.146490   4.789046   5.963093
    39  H    2.050913   2.104511   2.524723   3.780569   4.566726
    40  H    2.460222   2.104511   2.468410   3.865236   4.576004
    41  H    3.500705   1.070000   2.065320   2.498264   3.824735
    42  H    4.370314   2.115747   2.532510   3.168067   4.090392
    43  H    5.540073   2.662733   3.211105   2.693310   4.018703
    44  H    6.505700   3.393086   2.745252   2.139794   2.432381
    45  H    5.586395   2.617463   2.096038   1.070000   2.092494
                   16         17         18         19         20
    16  C    0.000000
    17  C    1.519745   0.000000
    18  O    2.428942   1.435446   0.000000
    19  H    2.392278   1.967841   0.999997   0.000000
    20  C    2.598862   1.520038   2.536825   3.346836   0.000000
    21  O    3.869327   2.489261   3.003990   3.942366   1.435105
    22  H    4.530422   3.295768   3.901693   4.854895   1.935048
    23  C    2.556846   3.818766   4.967964   4.868638   4.299573
    24  O    3.083668   4.527717   5.406889   5.040696   5.348306
    25  H    4.047990   5.481016   6.398914   6.037939   6.201331
    26  C    1.519836   2.411667   3.698676   3.778874   2.883783
    27  O    2.401481   2.735928   4.123681   4.510167   2.384118
    28  C    2.937622   2.455867   3.797264   4.422102   1.519225
    29  O    4.025817   3.624383   4.840451   5.555615   2.350002
    30  H    4.825672   4.304782   5.506362   6.255457   2.978682
    31  H    3.480164   2.920543   4.229295   4.799369   2.218466
    32  H    2.875868   2.112064   2.858129   3.670953   1.070000
    33  H    2.042372   1.070000   1.969604   2.310697   2.035067
    34  H    1.070000   2.118016   2.776146   2.796520   2.872078
    35  H    2.129791   2.632668   3.900289   3.950265   3.160412
    36  H    3.430697   4.504671   5.758421   5.709680   4.810827
    37  H    2.901334   4.149068   5.265639   5.251608   4.419493
    38  H    7.169206   7.666773   6.783644   5.859162   9.094280
    39  H    5.070790   4.767644   3.429794   2.937521   5.881476
    40  H    5.468504   5.315371   4.120711   3.353641   6.645845
    41  H    4.510213   4.938673   4.078033   3.385567   6.145617
    42  H    5.399760   5.919248   5.208081   4.218532   7.412116
    43  H    4.995502   6.005975   5.624723   4.815268   7.281833
    44  H    3.823522   4.847076   4.825139   3.938089   6.280544
    45  H    2.550300   3.508324   3.341889   2.782415   4.668984
                   21         22         23         24         25
    21  O    0.000000
    22  H    1.000058   0.000000
    23  C    5.643120   6.036118   0.000000
    24  O    6.679819   7.195062   1.434809   0.000000
    25  H    7.543808   7.998179   1.992538   0.999646   0.000000
    26  C    4.173836   4.648834   1.519891   2.588075   3.388507
    27  O    3.653940   3.834761   2.349239   3.703479   4.336860
    28  C    2.420855   2.543133   3.646042   4.922158   5.629398
    29  O    2.990104   2.606748   4.393421   5.772435   6.357260
    30  H    3.252080   2.703110   5.078117   6.480439   7.022547
    31  H    2.685751   2.861201   3.998996   5.225758   5.899727
    32  H    2.037609   2.213153   4.518588   5.564034   6.383425
    33  H    2.646319   3.521207   3.972955   4.643213   5.577859
    34  H    4.216157   4.750556   2.773660   3.275230   4.164015
    35  H    4.208480   4.752550   2.129864   2.997032   3.748629
    36  H    6.059327   6.375131   1.070000   2.020697   2.180875
    37  H    5.824375   6.097141   1.070000   2.020697   2.362878
    38  H    9.785171  10.675217   8.595030   7.723118   8.359186
    39  H    6.190610   7.026279   7.425394   7.291499   8.225368
    40  H    6.974607   7.908356   7.614365   7.258822   8.157899
    41  H    6.946678   7.706407   6.336749   5.916221   6.720985
    42  H    8.138188   9.057810   6.819860   6.013939   6.732285
    43  H    8.361007   9.095243   5.873085   4.973164   5.516063
    44  H    7.302409   8.134778   4.443279   3.458841   4.124313
    45  H    5.806682   6.486993   4.056222   3.759732   4.598252
                   26         27         28         29         30
    26  C    0.000000
    27  O    1.435626   0.000000
    28  C    2.372243   1.434918   0.000000
    29  O    3.431231   2.077078   1.435086   0.000000
    30  H    4.121947   2.821193   1.974722   0.960000   0.000000
    31  H    2.735467   2.130874   1.070000   2.127761   2.226001
    32  H    3.301668   2.615488   2.112462   2.374388   3.152269
    33  H    2.519038   3.026687   2.573056   3.937882   4.446770
    34  H    2.118085   2.609479   3.321610   4.094484   4.997109
    35  H    1.070000   2.056096   2.521535   3.775854   4.275804
    36  H    2.094462   2.646457   3.855317   4.521260   5.046657
    37  H    2.094462   2.385019   3.809325   4.242854   5.003449
    38  H    8.407972   9.548366   9.979995  11.071286  11.877316
    39  H    6.566326   7.248392   7.176542   8.118316   8.849883
    40  H    6.845609   7.783826   7.764469   8.900518   9.589541
    41  H    5.942635   6.759135   7.166425   8.032201   8.900022
    42  H    6.547256   7.767166   8.170757   9.359096  10.116807
    43  H    6.058413   7.101719   7.900509   8.787050   9.680298
    44  H    4.518245   5.885854   6.584761   7.772067   8.513652
    45  H    3.816461   4.667084   5.348849   6.197413   7.094126
                   31         32         33         34         35
    31  H    0.000000
    32  H    3.045544   0.000000
    33  H    2.620109   2.927173   0.000000
    34  H    4.092773   2.737802   2.936173   0.000000
    35  H    2.442401   3.851094   2.278206   3.000071   0.000000
    36  H    3.996469   5.130601   4.480973   3.762462   2.313307
    37  H    4.379317   4.388854   4.532405   2.720648   2.959360
    38  H   10.353482   9.181655   7.887282   7.183391   8.624826
    39  H    7.641962   5.887855   5.191178   5.056908   6.841181
    40  H    8.048051   6.877772   5.441648   5.705247   6.917919
    41  H    7.780161   5.982142   5.538883   4.196645   6.455367
    42  H    8.445508   7.653287   6.001245   5.622501   6.647399
    43  H    8.464124   7.176207   6.480646   4.694810   6.585447
    44  H    6.808441   6.603557   4.843644   4.184539   4.605377
    45  H    6.005377   4.532353   4.174326   2.119377   4.484276
                   36         37         38         39         40
    36  H    0.000000
    37  H    1.722268   0.000000
    38  H    9.487302   8.928578   0.000000
    39  H    8.375302   7.649710   4.352658   0.000000
    40  H    8.485524   8.037656   3.415130   1.728056   0.000000
    41  H    7.369837   6.409921   3.543721   2.414117   2.995948
    42  H    7.652855   7.298799   2.095663   3.728147   2.588088
    43  H    6.833469   5.958576   3.462272   4.690181   4.614286
    44  H    5.170416   5.048009   4.522656   5.154290   4.500014
    45  H    5.108975   4.091604   5.202573   3.923751   4.406281
                   41         42         43         44         45
    41  H    0.000000
    42  H    3.005881   0.000000
    43  H    2.432641   2.960455   0.000000
    44  H    3.921799   2.685178   2.971910   0.000000
    45  H    2.319373   3.901194   2.648156   3.034493   0.000000
 Stoichiometry    C12H22O11
 Framework group  C1[X(C12H22O11)]
 Deg. of freedom   129
 Full point group                 C1      NOp   1
 Largest Abelian subgroup         C1      NOp   1
 Largest concise Abelian subgroup C1      NOp   1
                         Standard orientation:                         
 ---------------------------------------------------------------------
 Center     Atomic      Atomic             Coordinates (Angstroms)
 Number     Number       Type             X           Y           Z
 ---------------------------------------------------------------------
      1          8           0       -5.015825   -0.337543    0.289922
      2          6           0       -3.686924   -0.115441   -0.203246
      3          6           0       -3.240310    1.282167    0.195545
      4          8           0       -4.193036    2.302195   -0.134603
      5          1           0       -5.048065    2.008080    0.291715
      6          6           0       -1.805488    1.527141   -0.241959
      7          8           0       -1.396277    2.719304    0.446049
      8          1           0       -0.478379    2.888747    0.087467
      9          6           0       -3.008639   -2.596976   -0.087449
     10          8           0       -4.241256   -3.190665    0.345923
     11          1           0       -4.017757   -4.154114    0.495069
     12          6           0       -2.704984   -1.159734    0.303239
     13          8           0       -1.461157   -0.881618   -0.355280
     14          6           0       -0.932026    0.349649    0.156982
     15          8           0        0.265577    0.524001   -0.614277
     16          6           0        1.516113    0.222074    0.022080
     17          6           0        2.048531   -1.156272   -0.333331
     18          8           0        1.002046   -2.135656   -0.254691
     19          1           0        0.158681   -1.670618   -0.523895
     20          6           0        3.426144   -1.532501    0.187387
     21          8           0        3.935801   -2.779230   -0.308036
     22          1           0        4.806672   -2.888339    0.171333
     23          6           0        2.369984    2.632129    0.023959
     24          8           0        1.104644    3.269996   -0.201243
     25          1           0        1.224663    4.257601   -0.103649
     26          6           0        2.628875    1.184380   -0.359535
     27          8           0        3.820526    0.813154    0.349817
     28          6           0        4.380198   -0.403836   -0.164664
     29          8           0        5.401158   -0.440820    0.843179
     30          1           0        6.250386   -0.617981    0.432051
     31          1           0        4.730868   -0.364726   -1.174813
     32          1           0        3.369695   -1.599384    1.253802
     33          1           0        2.218882   -1.078826   -1.386841
     34          1           0        1.375693    0.268751    1.081798
     35          1           0        2.807623    1.121842   -1.412644
     36          1           0        3.104661    3.220206   -0.485271
     37          1           0        2.571588    2.712449    1.071721
     38          1           0       -5.594656   -0.565142   -0.441346
     39          1           0       -2.211515   -3.205496    0.285641
     40          1           0       -2.985874   -2.650038   -1.155890
     41          1           0       -2.588729   -1.078712    1.363814
     42          1           0       -3.711805   -0.168542   -1.271638
     43          1           0       -3.207018    1.271967    1.264979
     44          1           0       -1.762656    1.678124   -1.300387
     45          1           0       -0.739419    0.312521    1.208849
 ---------------------------------------------------------------------
 Rotational constants (GHZ):      0.4130621      0.1458142      0.1105218
 Standard basis: 6-31+G(2d,p) (6D, 7F)
 There are   685 symmetry adapted basis functions of A   symmetry.
 Integral buffers will be    131072 words long.
 Raffenetti 2 integral format.
 Two-electron integral symmetry is turned on.
   685 basis functions,  1028 primitive gaussians,   685 cartesian basis functions
    91 alpha electrons       91 beta electrons
       nuclear repulsion energy      2292.7375542924 Hartrees.
 NAtoms=   45 NActive=   45 NUniq=   45 SFac= 1.00D+00 NAtFMM=   50 NAOKFM=F Big=F
 One-electron integrals computed using PRISM.
 NBasis=   685 RedAO= T  NBF=   685
 NBsUse=   685 1.00D-06 NBFU=   685
 Harris functional with IExCor=  402 diagonalized for initial guess.
 ExpMin= 4.38D-02 ExpMax= 5.48D+03 ExpMxC= 8.25D+02 IAcc=2 IRadAn=         0 AccDes= 0.00D+00
 HarFok:  IExCor=  402 AccDes= 0.00D+00 IRadAn=         0 IDoV= 1
 ScaDFX=  1.000000  1.000000  1.000000  1.000000
 FoFCou: FMM=F IPFlag=           0 FMFlag=      100000 FMFlg1=           0
         NFxFlg=           0 DoJE=T BraDBF=F KetDBF=T FulRan=T
         Omega=  0.000000  0.000000  1.000000  0.000000  0.000000 ICntrl=     500 IOpCl=  0
         NMat0=    1 NMatS0=    1 NMatT0=    0 NMatD0=    1 NMtDS0=    0 NMtDT0=    0
         I1Cent=           4 NGrid=           0.
 Petite list used in FoFCou.
 Initial guess orbital symmetries:
       Occupied  (A) (A) (A) (A) (A) (A) (A) (A) (A) (A) (A) (A)
                 (A) (A) (A) (A) (A) (A) (A) (A) (A) (A) (A) (A)
                 (A) (A) (A) (A) (A) (A) (A) (A) (A) (A) (A) (A)
                 (A) (A) (A) (A) (A) (A) (A) (A) (A) (A) (A) (A)
                 (A) (A) (A) (A) (A) (A) (A) (A) (A) (A) (A) (A)
                 (A) (A) (A) (A) (A) (A) (A) (A) (A) (A) (A) (A)
                 (A) (A) (A) (A) (A) (A) (A) (A) (A) (A) (A) (A)
                 (A) (A) (A) (A) (A) (A) (A)
       Virtual   (A) (A) (A) (A) (A) (A) (A) (A) (A) (A) (A) (A)
                 (A) (A) (A) (A) (A) (A) (A) (A) (A) (A) (A) (A)
                 (A) (A) (A) (A) (A) (A) (A) (A) (A) (A) (A) (A)
                 (A) (A) (A) (A) (A) (A) (A) (A) (A) (A) (A) (A)
                 (A) (A) (A) (A) (A) (A) (A) (A) (A) (A) (A) (A)
                 (A) (A) (A) (A) (A) (A) (A) (A) (A) (A) (A) (A)
                 (A) (A) (A) (A) (A) (A) (A) (A) (A) (A) (A) (A)
                 (A) (A) (A) (A) (A) (A) (A) (A) (A) (A) (A) (A)
                 (A) (A) (A) (A) (A) (A) (A) (A) (A) (A) (A) (A)
                 (A) (A) (A) (A) (A) (A) (A) (A) (A) (A) (A) (A)
                 (A) (A) (A) (A) (A) (A) (A) (A) (A) (A) (A) (A)
                 (A) (A) (A) (A) (A) (A) (A) (A) (A) (A) (A) (A)
                 (A) (A) (A) (A) (A) (A) (A) (A) (A) (A) (A) (A)
                 (A) (A) (A) (A) (A) (A) (A) (A) (A) (A) (A) (A)
                 (A) (A) (A) (A) (A) (A) (A) (A) (A) (A) (A) (A)
                 (A) (A) (A) (A) (A) (A) (A) (A) (A) (A) (A) (A)
                 (A) (A) (A) (A) (A) (A) (A) (A) (A) (A) (A) (A)
                 (A) (A) (A) (A) (A) (A) (A) (A) (A) (A) (A) (A)
                 (A) (A) (A) (A) (A) (A) (A) (A) (A) (A) (A) (A)
                 (A) (A) (A) (A) (A) (A) (A) (A) (A) (A) (A) (A)
                 (A) (A) (A) (A) (A) (A) (A) (A) (A) (A) (A) (A)
                 (A) (A) (A) (A) (A) (A) (A) (A) (A) (A) (A) (A)
                 (A) (A) (A) (A) (A) (A) (A) (A) (A) (A) (A) (A)
                 (A) (A) (A) (A) (A) (A) (A) (A) (A) (A) (A) (A)
                 (A) (A) (A) (A) (A) (A) (A) (A) (A) (A) (A) (A)
                 (A) (A) (A) (A) (A) (A) (A) (A) (A) (A) (A) (A)
                 (A) (A) (A) (A) (A) (A) (A) (A) (A) (A) (A) (A)
                 (A) (A) (A) (A) (A) (A) (A) (A) (A) (A) (A) (A)
                 (A) (A) (A) (A) (A) (A) (A) (A) (A) (A) (A) (A)
                 (A) (A) (A) (A) (A) (A) (A) (A) (A) (A) (A) (A)
                 (A) (A) (A) (A) (A) (A) (A) (A) (A) (A) (A) (A)
                 (A) (A) (A) (A) (A) (A) (A) (A) (A) (A) (A) (A)
                 (A) (A) (A) (A) (A) (A) (A) (A) (A) (A) (A) (A)
                 (A) (A) (A) (A) (A) (A) (A) (A) (A) (A) (A) (A)
                 (A) (A) (A) (A) (A) (A) (A) (A) (A) (A) (A) (A)
                 (A) (A) (A) (A) (A) (A) (A) (A) (A) (A) (A) (A)
                 (A) (A) (A) (A) (A) (A) (A) (A) (A) (A) (A) (A)
                 (A) (A) (A) (A) (A) (A) (A) (A) (A) (A) (A) (A)
                 (A) (A) (A) (A) (A) (A) (A) (A) (A) (A) (A) (A)
                 (A) (A) (A) (A) (A) (A) (A) (A) (A) (A) (A) (A)
                 (A) (A) (A) (A) (A) (A) (A) (A) (A) (A) (A) (A)
                 (A) (A) (A) (A) (A) (A) (A) (A) (A) (A) (A) (A)
                 (A) (A) (A) (A) (A) (A) (A) (A) (A) (A) (A) (A)
                 (A) (A) (A) (A) (A) (A) (A) (A) (A) (A) (A) (A)
                 (A) (A) (A) (A) (A) (A) (A) (A) (A) (A) (A) (A)
                 (A) (A) (A) (A) (A) (A) (A) (A) (A) (A) (A) (A)
                 (A) (A) (A) (A) (A) (A) (A) (A) (A) (A) (A) (A)
                 (A) (A) (A) (A) (A) (A) (A) (A) (A) (A) (A) (A)
                 (A) (A) (A) (A) (A) (A) (A) (A) (A) (A) (A) (A)
                 (A) (A) (A) (A) (A) (A)
 The electronic state of the initial guess is 1-A.
 Requested convergence on RMS density matrix=1.00D-08 within 128 cycles.
 Requested convergence on MAX density matrix=1.00D-06.
 Requested convergence on             energy=1.00D-06.
 No special actions if energy rises.
 SCF Done:  E(RB3LYP) =  -1297.97431468     A.U. after   13 cycles
             Convg  =    0.4317D-08             -V/T =  2.0062
 Range of M.O.s used for correlation:     1   685
 NBasis=   685 NAE=    91 NBE=    91 NFC=     0 NFV=     0
 NROrb=    685 NOA=    91 NOB=    91 NVA=   594 NVB=   594

 **** Warning!!: The largest alpha MO coefficient is  0.69432634D+02

          Differentiating once with respect to electric field.
                with respect to dipole field.
          Electric field/nuclear overlap derivatives assumed to be zero.
          There are     3 degrees of freedom in the 1st order CPHF.  IDoFFX=0.
      3 vectors produced by pass  0 Test12= 1.80D-12 3.33D-08 XBig12= 1.23D+02 1.44D+00.
 AX will form     3 AO Fock derivatives at one time.
      3 vectors produced by pass  1 Test12= 1.80D-12 3.33D-08 XBig12= 2.61D+01 3.86D-01.
      3 vectors produced by pass  2 Test12= 1.80D-12 3.33D-08 XBig12= 1.11D+01 2.14D-01.
      3 vectors produced by pass  3 Test12= 1.80D-12 3.33D-08 XBig12= 1.19D+00 1.01D-01.
      3 vectors produced by pass  4 Test12= 1.80D-12 3.33D-08 XBig12= 3.87D-01 4.57D-02.
      3 vectors produced by pass  5 Test12= 1.80D-12 3.33D-08 XBig12= 6.34D-02 2.28D-02.
      3 vectors produced by pass  6 Test12= 1.80D-12 3.33D-08 XBig12= 2.33D-02 2.00D-02.
      3 vectors produced by pass  7 Test12= 1.80D-12 3.33D-08 XBig12= 3.06D-03 1.07D-02.
      3 vectors produced by pass  8 Test12= 1.80D-12 3.33D-08 XBig12= 5.84D-04 3.22D-03.
      3 vectors produced by pass  9 Test12= 1.80D-12 3.33D-08 XBig12= 1.62D-04 1.87D-03.
      3 vectors produced by pass 10 Test12= 1.80D-12 3.33D-08 XBig12= 4.10D-05 9.00D-04.
      3 vectors produced by pass 11 Test12= 1.80D-12 3.33D-08 XBig12= 9.97D-06 4.56D-04.
      3 vectors produced by pass 12 Test12= 1.80D-12 3.33D-08 XBig12= 1.99D-06 1.32D-04.
      3 vectors produced by pass 13 Test12= 1.80D-12 3.33D-08 XBig12= 6.86D-07 6.32D-05.
      3 vectors produced by pass 14 Test12= 1.80D-12 3.33D-08 XBig12= 7.26D-08 2.43D-05.
      3 vectors produced by pass 15 Test12= 1.80D-12 3.33D-08 XBig12= 1.20D-08 7.56D-06.
      3 vectors produced by pass 16 Test12= 1.80D-12 3.33D-08 XBig12= 2.16D-09 3.08D-06.
      3 vectors produced by pass 17 Test12= 1.80D-12 3.33D-08 XBig12= 1.78D-10 8.15D-07.
      3 vectors produced by pass 18 Test12= 1.80D-12 3.33D-08 XBig12= 4.11D-11 3.43D-07.
      3 vectors produced by pass 19 Test12= 1.80D-12 3.33D-08 XBig12= 1.53D-11 2.23D-07.
      3 vectors produced by pass 20 Test12= 1.80D-12 3.33D-08 XBig12= 3.75D-12 1.19D-07.
      1 vectors produced by pass 21 Test12= 1.80D-12 3.33D-08 XBig12= 1.30D-12 8.18D-08.
 Inverted reduced A of dimension    64 with in-core refinement.
 End of Minotr Frequency-dependent properties file   721 does not exist.
 End of Minotr Frequency-dependent properties file   722 does not exist.
 Symmetrizing basis deriv contribution to polar:
 IMax=3 JMax=2 DiffMx= 0.00D+00
 G2DrvN: will do    16 centers at a time, making    3 passes doing MaxLOS=2.
 Calling FoFCou, ICntrl=  3107 FMM=F I1Cent=   0 AccDes= 0.00D+00.
 Calling FoFCou, ICntrl=  3107 FMM=F I1Cent=   0 AccDes= 0.00D+00.
 Calling FoFCou, ICntrl=  3107 FMM=F I1Cent=   0 AccDes= 0.00D+00.
 FoFDir/FoFCou used for L=0 through L=2.
 End of G2Drv Frequency-dependent properties file   721 does not exist.
 End of G2Drv Frequency-dependent properties file   722 does not exist.
          IDoAtm=111111111111111111111111111111111111111111111
          Differentiating once with respect to electric field.
                with respect to dipole field.
          Differentiating once with respect to nuclear coordinates.
          There are   138 degrees of freedom in the 1st order CPHF.  IDoFFX=5.
 Will reuse    3 saved solutions.
    135 vectors produced by pass  0 Test12= 5.41D-14 1.00D-09 XBig12= 1.55D-01 8.28D-02.
 AX will form    45 AO Fock derivatives at one time.
    135 vectors produced by pass  1 Test12= 5.41D-14 1.00D-09 XBig12= 1.72D-02 1.21D-02.
    132 vectors produced by pass  2 Test12= 5.41D-14 1.00D-09 XBig12= 1.18D-04 1.46D-03.
    132 vectors produced by pass  3 Test12= 5.41D-14 1.00D-09 XBig12= 4.39D-07 5.73D-05.
    132 vectors produced by pass  4 Test12= 5.41D-14 1.00D-09 XBig12= 1.00D-09 3.06D-06.
    132 vectors produced by pass  5 Test12= 5.41D-14 1.00D-09 XBig12= 2.57D-12 9.77D-08.
     79 vectors produced by pass  6 Test12= 5.41D-14 1.00D-09 XBig12= 9.60D-14 2.30D-08.
 Inverted reduced A of dimension   877 with in-core refinement.
 Isotropic polarizability for W=    0.000000      191.52 Bohr**3.
 End of Minotr Frequency-dependent properties file   721 does not exist.
 End of Minotr Frequency-dependent properties file   722 does not exist.

 **********************************************************************

            Population analysis using the SCF density.

 **********************************************************************

 Orbital symmetries:
       Occupied  (A) (A) (A) (A) (A) (A) (A) (A) (A) (A) (A) (A)
                 (A) (A) (A) (A) (A) (A) (A) (A) (A) (A) (A) (A)
                 (A) (A) (A) (A) (A) (A) (A) (A) (A) (A) (A) (A)
                 (A) (A) (A) (A) (A) (A) (A) (A) (A) (A) (A) (A)
                 (A) (A) (A) (A) (A) (A) (A) (A) (A) (A) (A) (A)
                 (A) (A) (A) (A) (A) (A) (A) (A) (A) (A) (A) (A)
                 (A) (A) (A) (A) (A) (A) (A) (A) (A) (A) (A) (A)
                 (A) (A) (A) (A) (A) (A) (A)
       Virtual   (A) (A) (A) (A) (A) (A) (A) (A) (A) (A) (A) (A)
                 (A) (A) (A) (A) (A) (A) (A) (A) (A) (A) (A) (A)
                 (A) (A) (A) (A) (A) (A) (A) (A) (A) (A) (A) (A)
                 (A) (A) (A) (A) (A) (A) (A) (A) (A) (A) (A) (A)
                 (A) (A) (A) (A) (A) (A) (A) (A) (A) (A) (A) (A)
                 (A) (A) (A) (A) (A) (A) (A) (A) (A) (A) (A) (A)
                 (A) (A) (A) (A) (A) (A) (A) (A) (A) (A) (A) (A)
                 (A) (A) (A) (A) (A) (A) (A) (A) (A) (A) (A) (A)
                 (A) (A) (A) (A) (A) (A) (A) (A) (A) (A) (A) (A)
                 (A) (A) (A) (A) (A) (A) (A) (A) (A) (A) (A) (A)
                 (A) (A) (A) (A) (A) (A) (A) (A) (A) (A) (A) (A)
                 (A) (A) (A) (A) (A) (A) (A) (A) (A) (A) (A) (A)
                 (A) (A) (A) (A) (A) (A) (A) (A) (A) (A) (A) (A)
                 (A) (A) (A) (A) (A) (A) (A) (A) (A) (A) (A) (A)
                 (A) (A) (A) (A) (A) (A) (A) (A) (A) (A) (A) (A)
                 (A) (A) (A) (A) (A) (A) (A) (A) (A) (A) (A) (A)
                 (A) (A) (A) (A) (A) (A) (A) (A) (A) (A) (A) (A)
                 (A) (A) (A) (A) (A) (A) (A) (A) (A) (A) (A) (A)
                 (A) (A) (A) (A) (A) (A) (A) (A) (A) (A) (A) (A)
                 (A) (A) (A) (A) (A) (A) (A) (A) (A) (A) (A) (A)
                 (A) (A) (A) (A) (A) (A) (A) (A) (A) (A) (A) (A)
                 (A) (A) (A) (A) (A) (A) (A) (A) (A) (A) (A) (A)
                 (A) (A) (A) (A) (A) (A) (A) (A) (A) (A) (A) (A)
                 (A) (A) (A) (A) (A) (A) (A) (A) (A) (A) (A) (A)
                 (A) (A) (A) (A) (A) (A) (A) (A) (A) (A) (A) (A)
                 (A) (A) (A) (A) (A) (A) (A) (A) (A) (A) (A) (A)
                 (A) (A) (A) (A) (A) (A) (A) (A) (A) (A) (A) (A)
                 (A) (A) (A) (A) (A) (A) (A) (A) (A) (A) (A) (A)
                 (A) (A) (A) (A) (A) (A) (A) (A) (A) (A) (A) (A)
                 (A) (A) (A) (A) (A) (A) (A) (A) (A) (A) (A) (A)
                 (A) (A) (A) (A) (A) (A) (A) (A) (A) (A) (A) (A)
                 (A) (A) (A) (A) (A) (A) (A) (A) (A) (A) (A) (A)
                 (A) (A) (A) (A) (A) (A) (A) (A) (A) (A) (A) (A)
                 (A) (A) (A) (A) (A) (A) (A) (A) (A) (A) (A) (A)
                 (A) (A) (A) (A) (A) (A) (A) (A) (A) (A) (A) (A)
                 (A) (A) (A) (A) (A) (A) (A) (A) (A) (A) (A) (A)
                 (A) (A) (A) (A) (A) (A) (A) (A) (A) (A) (A) (A)
                 (A) (A) (A) (A) (A) (A) (A) (A) (A) (A) (A) (A)
                 (A) (A) (A) (A) (A) (A) (A) (A) (A) (A) (A) (A)
                 (A) (A) (A) (A) (A) (A) (A) (A) (A) (A) (A) (A)
                 (A) (A) (A) (A) (A) (A) (A) (A) (A) (A) (A) (A)
                 (A) (A) (A) (A) (A) (A) (A) (A) (A) (A) (A) (A)
                 (A) (A) (A) (A) (A) (A) (A) (A) (A) (A) (A) (A)
                 (A) (A) (A) (A) (A) (A) (A) (A) (A) (A) (A) (A)
                 (A) (A) (A) (A) (A) (A) (A) (A) (A) (A) (A) (A)
                 (A) (A) (A) (A) (A) (A) (A) (A) (A) (A) (A) (A)
                 (A) (A) (A) (A) (A) (A) (A) (A) (A) (A) (A) (A)
                 (A) (A) (A) (A) (A) (A) (A) (A) (A) (A) (A) (A)
                 (A) (A) (A) (A) (A) (A) (A) (A) (A) (A) (A) (A)
                 (A) (A) (A) (A) (A) (A)
 The electronic state is 1-A.
 Alpha  occ. eigenvalues --  -19.18891 -19.18577 -19.18218 -19.18182 -19.17855
 Alpha  occ. eigenvalues --  -19.16857 -19.16042 -19.16005 -19.14630 -19.13476
 Alpha  occ. eigenvalues --  -19.12920 -10.31013 -10.30534 -10.26108 -10.25566
 Alpha  occ. eigenvalues --  -10.25312 -10.25305 -10.25152 -10.24225 -10.23963
 Alpha  occ. eigenvalues --  -10.23802 -10.23732 -10.23226  -1.10602  -1.10162
 Alpha  occ. eigenvalues --   -1.05745  -1.04850  -1.03863  -1.03762  -1.02643
 Alpha  occ. eigenvalues --   -1.02460  -1.01437  -1.00408  -0.99684  -0.82191
 Alpha  occ. eigenvalues --   -0.79781  -0.79625  -0.78062  -0.72020  -0.69730
 Alpha  occ. eigenvalues --   -0.67036  -0.64757  -0.63384  -0.62107  -0.61587
 Alpha  occ. eigenvalues --   -0.60275  -0.57046  -0.55649  -0.54999  -0.54179
 Alpha  occ. eigenvalues --   -0.53580  -0.53405  -0.52581  -0.51792  -0.51326
 Alpha  occ. eigenvalues --   -0.50754  -0.49663  -0.48941  -0.47826  -0.46830
 Alpha  occ. eigenvalues --   -0.46276  -0.45119  -0.44220  -0.43501  -0.42819
 Alpha  occ. eigenvalues --   -0.42389  -0.41755  -0.40662  -0.40166  -0.39608
 Alpha  occ. eigenvalues --   -0.39203  -0.38804  -0.37906  -0.36035  -0.35957
 Alpha  occ. eigenvalues --   -0.35505  -0.34672  -0.34337  -0.33797  -0.33409
 Alpha  occ. eigenvalues --   -0.32742  -0.31404  -0.31073  -0.30733  -0.29923
 Alpha  occ. eigenvalues --   -0.28705  -0.28531  -0.28170  -0.27326  -0.26298
 Alpha  occ. eigenvalues --   -0.26059
 Alpha virt. eigenvalues --   -0.02178  -0.02104  -0.01349  -0.00286   0.00359
 Alpha virt. eigenvalues --    0.01020   0.01878   0.02318   0.02817   0.03643
 Alpha virt. eigenvalues --    0.03878   0.04171   0.04791   0.05494   0.05605
 Alpha virt. eigenvalues --    0.06028   0.06816   0.07424   0.07695   0.07827
 Alpha virt. eigenvalues --    0.08398   0.08669   0.08827   0.09419   0.10102
 Alpha virt. eigenvalues --    0.10489   0.11085   0.11598   0.11849   0.12028
 Alpha virt. eigenvalues --    0.12480   0.12621   0.13079   0.13590   0.13637
 Alpha virt. eigenvalues --    0.13822   0.14327   0.14530   0.14921   0.15594
 Alpha virt. eigenvalues --    0.15857   0.16257   0.16958   0.17088   0.17244
 Alpha virt. eigenvalues --    0.17404   0.17685   0.17899   0.18331   0.18563
 Alpha virt. eigenvalues --    0.18920   0.19241   0.19405   0.19784   0.20163
 Alpha virt. eigenvalues --    0.20698   0.20889   0.21126   0.21595   0.21654
 Alpha virt. eigenvalues --    0.22176   0.22529   0.22723   0.23174   0.23247
 Alpha virt. eigenvalues --    0.23711   0.23991   0.24312   0.24377   0.24529
 Alpha virt. eigenvalues --    0.24879   0.25106   0.25533   0.25870   0.25996
 Alpha virt. eigenvalues --    0.26221   0.26349   0.27020   0.27117   0.27426
 Alpha virt. eigenvalues --    0.27701   0.27971   0.28211   0.28530   0.28714
 Alpha virt. eigenvalues --    0.29095   0.29827   0.30140   0.30489   0.30810
 Alpha virt. eigenvalues --    0.31258   0.31462   0.31758   0.32160   0.32510
 Alpha virt. eigenvalues --    0.32673   0.32913   0.33090   0.33497   0.33885
 Alpha virt. eigenvalues --    0.34155   0.34652   0.34698   0.35455   0.35807
 Alpha virt. eigenvalues --    0.36046   0.36608   0.36722   0.37149   0.37224
 Alpha virt. eigenvalues --    0.37620   0.37945   0.38619   0.38870   0.39272
 Alpha virt. eigenvalues --    0.39853   0.39955   0.40360   0.41270   0.41962
 Alpha virt. eigenvalues --    0.42109   0.43030   0.43389   0.43775   0.44177
 Alpha virt. eigenvalues --    0.44507   0.45173   0.46273   0.46832   0.47175
 Alpha virt. eigenvalues --    0.47284   0.48368   0.48744   0.49746   0.50395
 Alpha virt. eigenvalues --    0.51210   0.51613   0.53017   0.57618   0.59238
 Alpha virt. eigenvalues --    0.59815   0.60139   0.61096   0.61322   0.62160
 Alpha virt. eigenvalues --    0.63079   0.63802   0.64874   0.65736   0.67312
 Alpha virt. eigenvalues --    0.67661   0.68722   0.69052   0.69797   0.70332
 Alpha virt. eigenvalues --    0.70981   0.71636   0.72421   0.73536   0.74388
 Alpha virt. eigenvalues --    0.74799   0.74908   0.75814   0.76835   0.77990
 Alpha virt. eigenvalues --    0.78291   0.78632   0.79901   0.80573   0.81346
 Alpha virt. eigenvalues --    0.83038   0.83253   0.83482   0.84101   0.85756
 Alpha virt. eigenvalues --    0.86253   0.87130   0.88734   0.89585   0.89720
 Alpha virt. eigenvalues --    0.90317   0.90672   0.91162   0.91766   0.91845
 Alpha virt. eigenvalues --    0.92522   0.93309   0.93769   0.94245   0.94630
 Alpha virt. eigenvalues --    0.95026   0.95329   0.96388   0.96727   0.97020
 Alpha virt. eigenvalues --    0.97589   0.97864   0.98966   0.99137   0.99690
 Alpha virt. eigenvalues --    1.00056   1.00620   1.01017   1.02066   1.02826
 Alpha virt. eigenvalues --    1.04159   1.04794   1.05153   1.05354   1.05750
 Alpha virt. eigenvalues --    1.06028   1.07190   1.07606   1.08481   1.08931
 Alpha virt. eigenvalues --    1.09465   1.09723   1.10523   1.11804   1.11987
 Alpha virt. eigenvalues --    1.12936   1.13334   1.13852   1.14102   1.14851
 Alpha virt. eigenvalues --    1.15551   1.15988   1.16292   1.16680   1.17253
 Alpha virt. eigenvalues --    1.17876   1.18823   1.19692   1.19950   1.20439
 Alpha virt. eigenvalues --    1.21092   1.21332   1.21884   1.22564   1.22757
 Alpha virt. eigenvalues --    1.23213   1.23986   1.24421   1.25555   1.25745
 Alpha virt. eigenvalues --    1.26042   1.26687   1.27571   1.27900   1.28507
 Alpha virt. eigenvalues --    1.29144   1.29376   1.29937   1.30926   1.31265
 Alpha virt. eigenvalues --    1.31781   1.33154   1.33848   1.33977   1.34861
 Alpha virt. eigenvalues --    1.35128   1.35937   1.36970   1.37021   1.38152
 Alpha virt. eigenvalues --    1.38336   1.39040   1.39330   1.40208   1.40838
 Alpha virt. eigenvalues --    1.41742   1.42133   1.43299   1.43747   1.44061
 Alpha virt. eigenvalues --    1.45371   1.46309   1.46659   1.46721   1.47762
 Alpha virt. eigenvalues --    1.48470   1.49300   1.50197   1.51449   1.52761
 Alpha virt. eigenvalues --    1.53842   1.54587   1.54934   1.55674   1.57341
 Alpha virt. eigenvalues --    1.57571   1.59642   1.59899   1.60870   1.62225
 Alpha virt. eigenvalues --    1.62413   1.62903   1.63642   1.64985   1.65631
 Alpha virt. eigenvalues --    1.66798   1.67572   1.68289   1.68971   1.70094
 Alpha virt. eigenvalues --    1.70629   1.71170   1.71796   1.73093   1.74136
 Alpha virt. eigenvalues --    1.74664   1.75032   1.76844   1.77368   1.78157
 Alpha virt. eigenvalues --    1.79354   1.80476   1.81458   1.82377   1.83926
 Alpha virt. eigenvalues --    1.83963   1.86153   1.87176   1.88945   1.90292
 Alpha virt. eigenvalues --    1.90452   1.91884   1.92823   1.93739   1.94510
 Alpha virt. eigenvalues --    1.96598   1.97148   1.98443   1.99659   2.00286
 Alpha virt. eigenvalues --    2.00979   2.02031   2.02482   2.05248   2.05783
 Alpha virt. eigenvalues --    2.07092   2.07506   2.08917   2.10185   2.11080
 Alpha virt. eigenvalues --    2.12462   2.13100   2.14135   2.14985   2.17994
 Alpha virt. eigenvalues --    2.18446   2.21220   2.24642   2.25092   2.25907
 Alpha virt. eigenvalues --    2.26823   2.29119   2.29644   2.30328   2.31362
 Alpha virt. eigenvalues --    2.32187   2.33521   2.35318   2.36327   2.38939
 Alpha virt. eigenvalues --    2.40576   2.42202   2.42718   2.50857   2.51704
 Alpha virt. eigenvalues --    2.53863   2.54108   2.55133   2.59947   2.61352
 Alpha virt. eigenvalues --    2.62509   2.64616   2.65582   2.67298   2.67931
 Alpha virt. eigenvalues --    2.68369   2.69824   2.70834   2.71782   2.72521
 Alpha virt. eigenvalues --    2.74709   2.76106   2.76309   2.77907   2.80072
 Alpha virt. eigenvalues --    2.81104   2.81520   2.83544   2.84081   2.84651
 Alpha virt. eigenvalues --    2.85044   2.88547   2.89528   2.90783   2.92910
 Alpha virt. eigenvalues --    2.93250   2.93728   2.93946   2.96672   2.97527
 Alpha virt. eigenvalues --    2.98267   2.98726   2.99547   3.00051   3.00801
 Alpha virt. eigenvalues --    3.02303   3.03334   3.03477   3.04212   3.04737
 Alpha virt. eigenvalues --    3.05589   3.06890   3.07161   3.07828   3.08738
 Alpha virt. eigenvalues --    3.09841   3.09957   3.12347   3.12586   3.14002
 Alpha virt. eigenvalues --    3.14863   3.17620   3.20180   3.21711   3.24249
 Alpha virt. eigenvalues --    3.25564   3.31050   3.35970   3.77767   3.79153
 Alpha virt. eigenvalues --    3.97824   4.04453   4.08204   4.10412   4.12243
 Alpha virt. eigenvalues --    4.12940   4.13632   4.14659   4.16622   4.16965
 Alpha virt. eigenvalues --    4.17888   4.19054   4.19482   4.21354   4.23378
 Alpha virt. eigenvalues --    4.24587   4.24892   4.25297   4.25923   4.27724
 Alpha virt. eigenvalues --    4.28287   4.29527   4.29911   4.30161   4.30880
 Alpha virt. eigenvalues --    4.31483   4.32352   4.32468   4.33034   4.33923
 Alpha virt. eigenvalues --    4.34039   4.34411   4.34908   4.36156   4.36242
 Alpha virt. eigenvalues --    4.36505   4.37229   4.37890   4.38650   4.39378
 Alpha virt. eigenvalues --    4.39857   4.41049   4.41986   4.42411   4.44502
 Alpha virt. eigenvalues --    4.45540   4.46193   4.47057   4.48257   4.49084
 Alpha virt. eigenvalues --    4.51092   4.51426   4.53791   4.54071   4.55337
 Alpha virt. eigenvalues --    4.56408   4.56763   4.57627   4.58110   4.59819
 Alpha virt. eigenvalues --    4.61284   4.62039   4.62691   4.63272   4.64302
 Alpha virt. eigenvalues --    4.64817   4.65124   4.65556   4.66678   4.67550
 Alpha virt. eigenvalues --    4.67724   4.67857   4.68843   4.70584   4.71021
 Alpha virt. eigenvalues --    4.71858   4.72412   4.73475   4.74301   4.75322
 Alpha virt. eigenvalues --    4.75827   4.76334   4.76783   4.77611   4.78048
 Alpha virt. eigenvalues --    4.78937   4.79162   4.79841   4.80333   4.80705
 Alpha virt. eigenvalues --    4.81470   4.83224   4.85150   4.85896   4.86968
 Alpha virt. eigenvalues --    4.88675   4.89132   4.90239   4.90604   4.92366
 Alpha virt. eigenvalues --    4.94523   4.94673   4.96813   4.97420   4.99163
 Alpha virt. eigenvalues --    5.00114   5.01847   5.03183   5.04665   5.07096
 Alpha virt. eigenvalues --    5.09027   5.09981   5.12563   5.13084   5.16424
 Alpha virt. eigenvalues --    5.21881   5.26913   5.27832   5.30648   5.44401
 Alpha virt. eigenvalues --    5.52109   5.91060   6.07990   6.41921   6.61643
 Alpha virt. eigenvalues --    6.74573   6.76820   6.78401   6.83117   6.86694
 Alpha virt. eigenvalues --    6.89647   6.93250   6.95029   7.05188   7.07909
 Alpha virt. eigenvalues --    7.13430  11.87512  11.93750  12.07510  12.14094
 Alpha virt. eigenvalues --   12.27109  12.36692  12.62554  12.76699  12.90790
 Alpha virt. eigenvalues --   13.02268  13.13212  13.17228  13.28065  13.28640
 Alpha virt. eigenvalues --   13.33017  13.37107  13.38788  13.42339  13.44887
 Alpha virt. eigenvalues --   13.55771  13.68683  13.82568  13.93321
          Condensed to atoms (all electrons):
              1          2          3          4          5          6
     1  O    8.224199   0.279684  -0.138386  -0.011248   0.017272   0.030053
     2  C    0.279684   6.185836   0.275228  -0.043573  -0.062757  -0.749138
     3  C   -0.138386   0.275228   6.238233   0.224632   0.001143  -0.209592
     4  O   -0.011248  -0.043573   0.224632   8.206628   0.242562  -0.055025
     5  H    0.017272  -0.062757   0.001143   0.242562   0.418055   0.040022
     6  C    0.030053  -0.749138  -0.209592  -0.055025   0.040022   7.599866
     7  O    0.000218   0.003453  -0.064754  -0.000746  -0.000475   0.187823
     8  H    0.000016  -0.003795  -0.000070  -0.000319   0.000013   0.045832
     9  C   -0.001874  -0.248346  -0.394669   0.008130  -0.001653   0.456441
    10  O   -0.014841   0.038178   0.014982  -0.000071  -0.000010  -0.004716
    11  H    0.001814  -0.017058  -0.001375   0.000000   0.000000   0.000745
    12  C   -0.103213  -0.287631  -0.254710   0.026833   0.001269   0.162196
    13  O    0.000971  -0.056094  -0.045742  -0.002151   0.000028   0.009103
    14  C    0.008818   0.197551   0.258124  -0.014156   0.004187  -1.602225
    15  O   -0.000093  -0.005472  -0.018226   0.000737  -0.000032   0.011238
    16  C    0.000855   0.082076  -0.041645  -0.004054   0.000541  -0.141380
    17  C    0.000352  -0.041274   0.005256   0.000162   0.000008  -0.006911
    18  O    0.000009   0.007732  -0.000485  -0.000007   0.000000   0.000516
    19  H   -0.000027  -0.006515   0.005943   0.000002   0.000000   0.005444
    20  C    0.000018   0.007695  -0.006180  -0.000031   0.000001   0.044789
    21  O    0.000000   0.000007  -0.000009   0.000000   0.000000  -0.000191
    22  H    0.000000   0.000000   0.000002   0.000000   0.000000  -0.000032
    23  C   -0.000040   0.012504  -0.005689   0.000199  -0.000014  -0.037776
    24  O    0.000004  -0.000105  -0.004196  -0.000181  -0.000002  -0.001759
    25  H    0.000000   0.000014   0.001757   0.000005   0.000000   0.002009
    26  C    0.000035  -0.005890  -0.041537  -0.000330   0.000027   0.032958
    27  O    0.000000  -0.000211   0.000190   0.000000   0.000000   0.002999
    28  C    0.000002  -0.001226   0.000766   0.000000   0.000000  -0.007181
    29  O    0.000000   0.000004   0.000027   0.000000   0.000000  -0.000348
    30  H    0.000000   0.000000   0.000000   0.000000   0.000000   0.000000
    31  H    0.000000   0.000003   0.000004   0.000000   0.000000  -0.000045
    32  H    0.000000   0.000098  -0.000007   0.000000   0.000000   0.000876
    33  H    0.000000   0.000471   0.000429   0.000000   0.000000   0.008442
    34  H   -0.000001  -0.002288   0.005709   0.000003   0.000000   0.009380
    35  H    0.000000  -0.000084   0.000971   0.000000   0.000000  -0.000975
    36  H    0.000000  -0.000013  -0.000001   0.000000   0.000000   0.000213
    37  H    0.000000   0.000080   0.000289   0.000000   0.000000  -0.004581
    38  H    0.262673   0.032364  -0.015507   0.000058  -0.001581  -0.002665
    39  H   -0.000271  -0.005253   0.001504   0.000010   0.000000  -0.000155
    40  H    0.001552  -0.005580  -0.010651   0.000008   0.000000   0.014358
    41  H    0.007659   0.044238  -0.029447   0.000217   0.000018  -0.011926
    42  H   -0.010164   0.314216  -0.017530   0.001168   0.000209  -0.015080
    43  H    0.002695  -0.054202   0.311433  -0.027751  -0.005042  -0.152955
    44  H   -0.000305   0.023750  -0.085811   0.002547  -0.000153   0.330212
    45  H    0.000097  -0.011581  -0.037400  -0.000023   0.000003   0.035682
              7          8          9         10         11         12
     1  O    0.000218   0.000016  -0.001874  -0.014841   0.001814  -0.103213
     2  C    0.003453  -0.003795  -0.248346   0.038178  -0.017058  -0.287631
     3  C   -0.064754  -0.000070  -0.394669   0.014982  -0.001375  -0.254710
     4  O   -0.000746  -0.000319   0.008130  -0.000071   0.000000   0.026833
     5  H   -0.000475   0.000013  -0.001653  -0.000010   0.000000   0.001269
     6  C    0.187823   0.045832   0.456441  -0.004716   0.000745   0.162196
     7  O    8.248930   0.250104  -0.000604  -0.000003   0.000000   0.006166
     8  H    0.250104   0.347374   0.000259   0.000000   0.000000   0.000701
     9  C   -0.000604   0.000259   7.881806   0.068029   0.012288  -1.724734
    10  O   -0.000003   0.000000   0.068029   8.260616   0.226133  -0.007520
    11  H    0.000000   0.000000   0.012288   0.226133   0.446926   0.013403
    12  C    0.006166   0.000701  -1.724734  -0.007520   0.013403   8.942672
    13  O    0.001605  -0.000458   0.005590  -0.001957  -0.000244  -0.001930
    14  C   -0.002211  -0.066132  -0.729186   0.008840  -0.003606  -0.641372
    15  O    0.004613   0.005689   0.001142   0.000044   0.000002  -0.003207
    16  C   -0.001105   0.018318  -0.138905  -0.000751  -0.000225  -0.053247
    17  C   -0.000389   0.002039   0.010320   0.000238   0.000015  -0.098193
    18  O   -0.000022  -0.000029  -0.000695  -0.000058  -0.000008  -0.011263
    19  H   -0.000072  -0.000001   0.003472  -0.000001   0.000000  -0.006505
    20  C    0.001313   0.000522   0.002820   0.000030   0.000003  -0.006544
    21  O   -0.000001   0.000000   0.000116   0.000000   0.000000  -0.000047
    22  H    0.000000   0.000000  -0.000002   0.000000   0.000000   0.000014
    23  C    0.007599   0.007523   0.001316   0.000005   0.000000  -0.003726
    24  O   -0.044281  -0.009053  -0.000078   0.000000   0.000000   0.003183
    25  H    0.005070  -0.002934  -0.000023   0.000000   0.000000  -0.000493
    26  C   -0.001302  -0.016391   0.002476  -0.000018  -0.000003   0.011792
    27  O   -0.000046  -0.000010   0.000079   0.000000   0.000000   0.000858
    28  C   -0.000208   0.000023  -0.001300  -0.000002   0.000000   0.002596
    29  O   -0.000006   0.000000  -0.000018   0.000000   0.000000   0.000060
    30  H    0.000000   0.000000   0.000000   0.000000   0.000000  -0.000002
    31  H    0.000000   0.000000  -0.000002   0.000000   0.000000   0.000041
    32  H    0.000002   0.000000  -0.000108   0.000000   0.000000   0.000127
    33  H    0.000000  -0.000001  -0.000168   0.000000   0.000000  -0.002811
    34  H   -0.001321  -0.000117  -0.000683   0.000001   0.000000  -0.001027
    35  H   -0.000098   0.000001   0.000030   0.000000   0.000000   0.000428
    36  H   -0.000508   0.000155   0.000003   0.000000   0.000000   0.000156
    37  H    0.000387   0.000135  -0.000005   0.000000   0.000000  -0.000141
    38  H   -0.000023   0.000000   0.003858  -0.001042  -0.000040  -0.019596
    39  H   -0.000010   0.000000   0.404079  -0.016465  -0.015416  -0.034998
    40  H    0.000011   0.000000   0.654655  -0.057011   0.001514  -0.288049
    41  H    0.000049   0.000003   0.036356   0.002486  -0.000300   0.056395
    42  H    0.000712   0.000001  -0.034843  -0.001476  -0.000012  -0.056958
    43  H    0.005772  -0.000134   0.013104  -0.000160   0.000000   0.056299
    44  H   -0.025005  -0.006124   0.011910   0.000012   0.000000   0.047935
    45  H   -0.000402  -0.000101   0.015683   0.000046   0.000000   0.060039
             13         14         15         16         17         18
     1  O    0.000971   0.008818  -0.000093   0.000855   0.000352   0.000009
     2  C   -0.056094   0.197551  -0.005472   0.082076  -0.041274   0.007732
     3  C   -0.045742   0.258124  -0.018226  -0.041645   0.005256  -0.000485
     4  O   -0.002151  -0.014156   0.000737  -0.004054   0.000162  -0.000007
     5  H    0.000028   0.004187  -0.000032   0.000541   0.000008   0.000000
     6  C    0.009103  -1.602225   0.011238  -0.141380  -0.006911   0.000516
     7  O    0.001605  -0.002211   0.004613  -0.001105  -0.000389  -0.000022
     8  H   -0.000458  -0.066132   0.005689   0.018318   0.002039  -0.000029
     9  C    0.005590  -0.729186   0.001142  -0.138905   0.010320  -0.000695
    10  O   -0.001957   0.008840   0.000044  -0.000751   0.000238  -0.000058
    11  H   -0.000244  -0.003606   0.000002  -0.000225   0.000015  -0.000008
    12  C   -0.001930  -0.641372  -0.003207  -0.053247  -0.098193  -0.011263
    13  O    8.170228   0.242642  -0.018017   0.019786  -0.021885  -0.009743
    14  C    0.242642   8.749444   0.226364  -0.575822   0.144758  -0.014674
    15  O   -0.018017   0.226364   8.083160   0.109551  -0.001969  -0.007853
    16  C    0.019786  -0.575822   0.109551  10.757777  -1.439585   0.000578
    17  C   -0.021885   0.144758  -0.001969  -1.439585   7.303664   0.206145
    18  O   -0.009743  -0.014674  -0.007853   0.000578   0.206145   8.263024
    19  H    0.014569   0.022605   0.019530  -0.092808   0.053249   0.228892
    20  C   -0.011118  -0.205834   0.008408  -0.908088  -0.219017  -0.043940
    21  O   -0.000052   0.001660   0.000144   0.068599  -0.097895   0.008131
    22  H    0.000002  -0.000179  -0.000010  -0.009123   0.009973  -0.000212
    23  C    0.003813  -0.038611  -0.053862   0.164808  -0.230494   0.012965
    24  O    0.000687   0.069441  -0.022429   0.007592   0.004241   0.000063
    25  H   -0.000018  -0.013834   0.002449  -0.011621  -0.001288  -0.000003
    26  C   -0.018769  -0.787724  -0.032047  -2.961490  -0.091415   0.008306
    27  O    0.000035   0.031321   0.002133   0.146629   0.011254  -0.001119
    28  C    0.000529   0.055199   0.005651   0.750378   0.172172  -0.014993
    29  O    0.000031   0.002663  -0.000150   0.008752  -0.051580   0.000164
    30  H    0.000000  -0.000179   0.000000  -0.008859   0.014672  -0.000019
    31  H    0.000012   0.000885   0.000292   0.041974  -0.018620  -0.000010
    32  H    0.000057  -0.011343   0.000159   0.045860  -0.159445   0.005068
    33  H   -0.000672  -0.027941  -0.006300  -0.210627   0.306495  -0.037532
    34  H   -0.002027  -0.064736  -0.034440   0.087903   0.044795  -0.002494
    35  H   -0.000165   0.025418  -0.001095   0.012564  -0.023188   0.000496
    36  H    0.000016   0.013201   0.000742   0.030294   0.003537   0.000017
    37  H    0.000056  -0.003824   0.000744   0.057150  -0.003974   0.000045
    38  H   -0.000658   0.000018  -0.000001   0.000203  -0.000050   0.000000
    39  H   -0.001523  -0.004776  -0.000153   0.004688  -0.001297  -0.000178
    40  H   -0.001482   0.002500  -0.000263  -0.006502   0.002858  -0.000039
    41  H   -0.021184   0.168513  -0.000543  -0.005230   0.008041  -0.000278
    42  H    0.004676   0.084076   0.000319  -0.006256   0.001837   0.000049
    43  H    0.003930   0.079785   0.000935  -0.006865   0.001459   0.000049
    44  H    0.007614  -0.013779  -0.011116  -0.025530   0.001503   0.000171
    45  H   -0.029490   0.246364  -0.034295  -0.011815   0.015394  -0.002015
             19         20         21         22         23         24
     1  O   -0.000027   0.000018   0.000000   0.000000  -0.000040   0.000004
     2  C   -0.006515   0.007695   0.000007   0.000000   0.012504  -0.000105
     3  C    0.005943  -0.006180  -0.000009   0.000002  -0.005689  -0.004196
     4  O    0.000002  -0.000031   0.000000   0.000000   0.000199  -0.000181
     5  H    0.000000   0.000001   0.000000   0.000000  -0.000014  -0.000002
     6  C    0.005444   0.044789  -0.000191  -0.000032  -0.037776  -0.001759
     7  O   -0.000072   0.001313  -0.000001   0.000000   0.007599  -0.044281
     8  H   -0.000001   0.000522   0.000000   0.000000   0.007523  -0.009053
     9  C    0.003472   0.002820   0.000116  -0.000002   0.001316  -0.000078
    10  O   -0.000001   0.000030   0.000000   0.000000   0.000005   0.000000
    11  H    0.000000   0.000003   0.000000   0.000000   0.000000   0.000000
    12  C   -0.006505  -0.006544  -0.000047   0.000014  -0.003726   0.003183
    13  O    0.014569  -0.011118  -0.000052   0.000002   0.003813   0.000687
    14  C    0.022605  -0.205834   0.001660  -0.000179  -0.038611   0.069441
    15  O    0.019530   0.008408   0.000144  -0.000010  -0.053862  -0.022429
    16  C   -0.092808  -0.908088   0.068599  -0.009123   0.164808   0.007592
    17  C    0.053249  -0.219017  -0.097895   0.009973  -0.230494   0.004241
    18  O    0.228892  -0.043940   0.008131  -0.000212   0.012965   0.000063
    19  H    0.368736   0.001275  -0.000296   0.000010  -0.004987  -0.000021
    20  C    0.001275   6.764255   0.148073  -0.013615   0.110064  -0.006059
    21  O   -0.000296   0.148073   8.203940   0.234493  -0.003074   0.000017
    22  H    0.000010  -0.013615   0.234493   0.440355  -0.000084   0.000000
    23  C   -0.004987   0.110064  -0.003074  -0.000084   6.426852   0.045524
    24  O   -0.000021  -0.006059   0.000017   0.000000   0.045524   8.348587
    25  H    0.000000   0.000833   0.000000   0.000000  -0.037303   0.248763
    26  C   -0.009509   0.828411  -0.034016   0.005027  -0.929075   0.004792
    27  O    0.000013  -0.181231   0.001984  -0.000663  -0.092234   0.000617
    28  C    0.004913  -0.706742   0.033601  -0.002268  -0.156751   0.004994
    29  O   -0.000004   0.049063  -0.004868   0.013771   0.020730  -0.000049
    30  H    0.000000  -0.035677  -0.001310  -0.001248  -0.000242  -0.000002
    31  H    0.000003  -0.088022   0.004010   0.000357  -0.003366   0.000023
    32  H   -0.000112   0.368530  -0.026828  -0.007147   0.008495   0.000015
    33  H   -0.003185   0.026375  -0.005200  -0.000222   0.024657  -0.000106
    34  H    0.000574   0.049607  -0.000495   0.000005  -0.012003   0.000683
    35  H    0.000025  -0.036980  -0.000061   0.000002   0.043292   0.002414
    36  H    0.000000  -0.004197  -0.000001   0.000000   0.387674  -0.027218
    37  H    0.000000   0.000325  -0.000004   0.000000   0.626215  -0.057596
    38  H    0.000000   0.000001   0.000000   0.000000   0.000002   0.000000
    39  H    0.000185  -0.000520  -0.000001   0.000000   0.000009   0.000000
    40  H    0.000031   0.000120   0.000000   0.000000  -0.000015   0.000000
    41  H    0.000032   0.000219   0.000000   0.000000  -0.000031  -0.000001
    42  H   -0.000018  -0.000024   0.000000   0.000000  -0.000014   0.000012
    43  H   -0.000003  -0.000036   0.000000   0.000000   0.000294   0.000133
    44  H   -0.000049   0.000325   0.000000   0.000000   0.002251   0.000866
    45  H   -0.000181   0.009947   0.000003   0.000000   0.000798   0.000159
             25         26         27         28         29         30
     1  O    0.000000   0.000035   0.000000   0.000002   0.000000   0.000000
     2  C    0.000014  -0.005890  -0.000211  -0.001226   0.000004   0.000000
     3  C    0.001757  -0.041537   0.000190   0.000766   0.000027   0.000000
     4  O    0.000005  -0.000330   0.000000   0.000000   0.000000   0.000000
     5  H    0.000000   0.000027   0.000000   0.000000   0.000000   0.000000
     6  C    0.002009   0.032958   0.002999  -0.007181  -0.000348   0.000000
     7  O    0.005070  -0.001302  -0.000046  -0.000208  -0.000006   0.000000
     8  H   -0.002934  -0.016391  -0.000010   0.000023   0.000000   0.000000
     9  C   -0.000023   0.002476   0.000079  -0.001300  -0.000018   0.000000
    10  O    0.000000  -0.000018   0.000000  -0.000002   0.000000   0.000000
    11  H    0.000000  -0.000003   0.000000   0.000000   0.000000   0.000000
    12  C   -0.000493   0.011792   0.000858   0.002596   0.000060  -0.000002
    13  O   -0.000018  -0.018769   0.000035   0.000529   0.000031   0.000000
    14  C   -0.013834  -0.787724   0.031321   0.055199   0.002663  -0.000179
    15  O    0.002449  -0.032047   0.002133   0.005651  -0.000150   0.000000
    16  C   -0.011621  -2.961490   0.146629   0.750378   0.008752  -0.008859
    17  C   -0.001288  -0.091415   0.011254   0.172172  -0.051580   0.014672
    18  O   -0.000003   0.008306  -0.001119  -0.014993   0.000164  -0.000019
    19  H    0.000000  -0.009509   0.000013   0.004913  -0.000004   0.000000
    20  C    0.000833   0.828411  -0.181231  -0.706742   0.049063  -0.035677
    21  O    0.000000  -0.034016   0.001984   0.033601  -0.004868  -0.001310
    22  H    0.000000   0.005027  -0.000663  -0.002268   0.013771  -0.001248
    23  C   -0.037303  -0.929075  -0.092234  -0.156751   0.020730  -0.000242
    24  O    0.248763   0.004792   0.000617   0.004994  -0.000049  -0.000002
    25  H    0.409026   0.047183  -0.000588  -0.001097  -0.000004   0.000000
    26  C    0.047183  10.942433  -0.034602  -0.956039  -0.029743   0.001304
    27  O   -0.000588  -0.034602   8.196390   0.270415  -0.118924   0.008152
    28  C   -0.001097  -0.956039   0.270415   5.763043   0.210924   0.022303
    29  O   -0.000004  -0.029743  -0.118924   0.210924   8.190345   0.252685
    30  H    0.000000   0.001304   0.008152   0.022303   0.252685   0.431997
    31  H    0.000000  -0.005170  -0.034690   0.405537  -0.017426  -0.008152
    32  H    0.000000   0.028186  -0.001338   0.006013  -0.005343   0.000239
    33  H    0.000000   0.185939  -0.000598  -0.058137   0.001053   0.000013
    34  H   -0.000030   0.168393   0.003582  -0.003047  -0.000545   0.000004
    35  H   -0.000200   0.202015  -0.027871   0.056578  -0.001567   0.000038
    36  H   -0.009641  -0.079763   0.001524   0.008573  -0.000004  -0.000001
    37  H   -0.001958  -0.298181  -0.001985   0.000143  -0.000495   0.000003
    38  H    0.000000  -0.000002   0.000000   0.000000   0.000000   0.000000
    39  H    0.000000   0.000280   0.000000   0.000045   0.000000   0.000000
    40  H    0.000000  -0.000222   0.000000  -0.000010   0.000000   0.000000
    41  H    0.000000  -0.001143   0.000000  -0.000003   0.000000   0.000000
    42  H    0.000000  -0.000563   0.000000  -0.000001   0.000000   0.000000
    43  H    0.000000  -0.000436   0.000000  -0.000004   0.000000   0.000000
    44  H   -0.000001  -0.004273   0.000000  -0.000019   0.000000   0.000000
    45  H    0.000010   0.013555   0.000180  -0.000772  -0.000006   0.000000
             31         32         33         34         35         36
     1  O    0.000000   0.000000   0.000000  -0.000001   0.000000   0.000000
     2  C    0.000003   0.000098   0.000471  -0.002288  -0.000084  -0.000013
     3  C    0.000004  -0.000007   0.000429   0.005709   0.000971  -0.000001
     4  O    0.000000   0.000000   0.000000   0.000003   0.000000   0.000000
     5  H    0.000000   0.000000   0.000000   0.000000   0.000000   0.000000
     6  C   -0.000045   0.000876   0.008442   0.009380  -0.000975   0.000213
     7  O    0.000000   0.000002   0.000000  -0.001321  -0.000098  -0.000508
     8  H    0.000000   0.000000  -0.000001  -0.000117   0.000001   0.000155
     9  C   -0.000002  -0.000108  -0.000168  -0.000683   0.000030   0.000003
    10  O    0.000000   0.000000   0.000000   0.000001   0.000000   0.000000
    11  H    0.000000   0.000000   0.000000   0.000000   0.000000   0.000000
    12  C    0.000041   0.000127  -0.002811  -0.001027   0.000428   0.000156
    13  O    0.000012   0.000057  -0.000672  -0.002027  -0.000165   0.000016
    14  C    0.000885  -0.011343  -0.027941  -0.064736   0.025418   0.013201
    15  O    0.000292   0.000159  -0.006300  -0.034440  -0.001095   0.000742
    16  C    0.041974   0.045860  -0.210627   0.087903   0.012564   0.030294
    17  C   -0.018620  -0.159445   0.306495   0.044795  -0.023188   0.003537
    18  O   -0.000010   0.005068  -0.037532  -0.002494   0.000496   0.000017
    19  H    0.000003  -0.000112  -0.003185   0.000574   0.000025   0.000000
    20  C   -0.088022   0.368530   0.026375   0.049607  -0.036980  -0.004197
    21  O    0.004010  -0.026828  -0.005200  -0.000495  -0.000061  -0.000001
    22  H    0.000357  -0.007147  -0.000222   0.000005   0.000002   0.000000
    23  C   -0.003366   0.008495   0.024657  -0.012003   0.043292   0.387674
    24  O    0.000023   0.000015  -0.000106   0.000683   0.002414  -0.027218
    25  H    0.000000   0.000000   0.000000  -0.000030  -0.000200  -0.009641
    26  C   -0.005170   0.028186   0.185939   0.168393   0.202015  -0.079763
    27  O   -0.034690  -0.001338  -0.000598   0.003582  -0.027871   0.001524
    28  C    0.405537   0.006013  -0.058137  -0.003047   0.056578   0.008573
    29  O   -0.017426  -0.005343   0.001053  -0.000545  -0.001567  -0.000004
    30  H   -0.008152   0.000239   0.000013   0.000004   0.000038  -0.000001
    31  H    0.564773   0.004442   0.002342  -0.000040   0.002709   0.000009
    32  H    0.004442   0.598192   0.008011   0.002019  -0.000044   0.000001
    33  H    0.002342   0.008011   0.680403   0.007686   0.003237   0.000004
    34  H   -0.000040   0.002019   0.007686   0.622170   0.006046   0.000004
    35  H    0.002709  -0.000044   0.003237   0.006046   0.619698  -0.007858
    36  H    0.000009   0.000001   0.000004   0.000004  -0.007858   0.585114
    37  H   -0.000015  -0.000022  -0.000019   0.001683   0.006238  -0.044272
    38  H    0.000000   0.000000   0.000000   0.000000   0.000000   0.000000
    39  H    0.000000   0.000000   0.000000  -0.000001   0.000000   0.000000
    40  H    0.000000   0.000000   0.000000   0.000000   0.000000   0.000000
    41  H    0.000000   0.000000   0.000000  -0.000013   0.000000   0.000000
    42  H    0.000000   0.000000   0.000000   0.000000   0.000000   0.000000
    43  H    0.000000   0.000000   0.000000  -0.000004   0.000000   0.000000
    44  H    0.000000   0.000000  -0.000005  -0.000014  -0.000002   0.000000
    45  H    0.000000  -0.000003  -0.000011   0.007423  -0.000002  -0.000001
             37         38         39         40         41         42
     1  O    0.000000   0.262673  -0.000271   0.001552   0.007659  -0.010164
     2  C    0.000080   0.032364  -0.005253  -0.005580   0.044238   0.314216
     3  C    0.000289  -0.015507   0.001504  -0.010651  -0.029447  -0.017530
     4  O    0.000000   0.000058   0.000010   0.000008   0.000217   0.001168
     5  H    0.000000  -0.001581   0.000000   0.000000   0.000018   0.000209
     6  C   -0.004581  -0.002665  -0.000155   0.014358  -0.011926  -0.015080
     7  O    0.000387  -0.000023  -0.000010   0.000011   0.000049   0.000712
     8  H    0.000135   0.000000   0.000000   0.000000   0.000003   0.000001
     9  C   -0.000005   0.003858   0.404079   0.654655   0.036356  -0.034843
    10  O    0.000000  -0.001042  -0.016465  -0.057011   0.002486  -0.001476
    11  H    0.000000  -0.000040  -0.015416   0.001514  -0.000300  -0.000012
    12  C   -0.000141  -0.019596  -0.034998  -0.288049   0.056395  -0.056958
    13  O    0.000056  -0.000658  -0.001523  -0.001482  -0.021184   0.004676
    14  C   -0.003824   0.000018  -0.004776   0.002500   0.168513   0.084076
    15  O    0.000744  -0.000001  -0.000153  -0.000263  -0.000543   0.000319
    16  C    0.057150   0.000203   0.004688  -0.006502  -0.005230  -0.006256
    17  C   -0.003974  -0.000050  -0.001297   0.002858   0.008041   0.001837
    18  O    0.000045   0.000000  -0.000178  -0.000039  -0.000278   0.000049
    19  H    0.000000   0.000000   0.000185   0.000031   0.000032  -0.000018
    20  C    0.000325   0.000001  -0.000520   0.000120   0.000219  -0.000024
    21  O   -0.000004   0.000000  -0.000001   0.000000   0.000000   0.000000
    22  H    0.000000   0.000000   0.000000   0.000000   0.000000   0.000000
    23  C    0.626215   0.000002   0.000009  -0.000015  -0.000031  -0.000014
    24  O   -0.057596   0.000000   0.000000   0.000000  -0.000001   0.000012
    25  H   -0.001958   0.000000   0.000000   0.000000   0.000000   0.000000
    26  C   -0.298181  -0.000002   0.000280  -0.000222  -0.001143  -0.000563
    27  O   -0.001985   0.000000   0.000000   0.000000   0.000000   0.000000
    28  C    0.000143   0.000000   0.000045  -0.000010  -0.000003  -0.000001
    29  O   -0.000495   0.000000   0.000000   0.000000   0.000000   0.000000
    30  H    0.000003   0.000000   0.000000   0.000000   0.000000   0.000000
    31  H   -0.000015   0.000000   0.000000   0.000000   0.000000   0.000000
    32  H   -0.000022   0.000000   0.000000   0.000000   0.000000   0.000000
    33  H   -0.000019   0.000000   0.000000   0.000000   0.000000   0.000000
    34  H    0.001683   0.000000  -0.000001   0.000000  -0.000013   0.000000
    35  H    0.006238   0.000000   0.000000   0.000000   0.000000   0.000000
    36  H   -0.044272   0.000000   0.000000   0.000000   0.000000   0.000000
    37  H    0.567115   0.000000   0.000000   0.000000   0.000000   0.000000
    38  H    0.000000   0.416899   0.000006  -0.000121  -0.000275  -0.013779
    39  H    0.000000   0.000006   0.571555  -0.045690  -0.005523   0.000002
    40  H    0.000000  -0.000121  -0.045690   0.583874   0.006209   0.003096
    41  H    0.000000  -0.000275  -0.005523   0.006209   0.623004   0.006213
    42  H    0.000000  -0.013779   0.000002   0.003096   0.006213   0.617233
    43  H    0.000000  -0.000174   0.000005  -0.000001   0.003181   0.006995
    44  H    0.000001   0.000017   0.000000  -0.000013  -0.000084   0.001836
    45  H    0.000009   0.000002  -0.000007  -0.000024   0.002318  -0.000068
             43         44         45
     1  O    0.002695  -0.000305   0.000097
     2  C   -0.054202   0.023750  -0.011581
     3  C    0.311433  -0.085811  -0.037400
     4  O   -0.027751   0.002547  -0.000023
     5  H   -0.005042  -0.000153   0.000003
     6  C   -0.152955   0.330212   0.035682
     7  O    0.005772  -0.025005  -0.000402
     8  H   -0.000134  -0.006124  -0.000101
     9  C    0.013104   0.011910   0.015683
    10  O   -0.000160   0.000012   0.000046
    11  H    0.000000   0.000000   0.000000
    12  C    0.056299   0.047935   0.060039
    13  O    0.003930   0.007614  -0.029490
    14  C    0.079785  -0.013779   0.246364
    15  O    0.000935  -0.011116  -0.034295
    16  C   -0.006865  -0.025530  -0.011815
    17  C    0.001459   0.001503   0.015394
    18  O    0.000049   0.000171  -0.002015
    19  H   -0.000003  -0.000049  -0.000181
    20  C   -0.000036   0.000325   0.009947
    21  O    0.000000   0.000000   0.000003
    22  H    0.000000   0.000000   0.000000
    23  C    0.000294   0.002251   0.000798
    24  O    0.000133   0.000866   0.000159
    25  H    0.000000  -0.000001   0.000010
    26  C   -0.000436  -0.004273   0.013555
[...]
 66,0.00000432,-0.00999189,-0.00032818,0.00082883,0.00249117,0.00106882
 ,-0.00043401,-0.00018937,0.00016423,0.00009921,0.00009721,-0.00003202,
 0.00013679,0.00000107,0.00000273,-0.00000117,-0.00002318,0.00002416,0.
 00002306,0.00003501,-0.00002070,-0.00004416,-0.00002167,0.00001329,0.0
 0004735,-0.00000901,-0.00000489,0.00000223,0.00000939,-0.00000288,0.00
 000105,-0.00000234,-0.00000086,-0.00000120,-0.00000684,0.00001518,-0.0
 0000804,0.00003335,-0.00000291,0.00006114,-0.00001506,-0.00000222,-0.0
 0000182,-0.00001880,-0.00000317,-0.00000007,0.00001449,-0.00000633,0.0
 0000378,-0.00001223,0.00000988,-0.00000044,0.00000736,-0.00000209,-0.0
 0000556,-0.00000159,-0.00000010,0.00000124,0.00000224,0.00000009,0.000
 00141,0.00000425,0.00000190,-0.00000311,0.00000673,-0.00000018,0.00000
 650,0.00001158,0.00000253,-0.00000863,0.00000742,-0.00000039,0.0000060
 5,0.00000036,-0.00000247,0.00000800,0.00000272,-0.00000136,-0.00000180
 ,0.00140925,0.00009490,-0.00075882,0.00030996,0.00002653,-0.00001391,0
 .00054536,-0.00075763,-0.00000812,0.00048080,-0.00086995,0.00078032,0.
 37737850,-0.00830562,0.00021376,-0.00444003,-0.01897186,-0.04597400,0.
 00400098,0.03396509,0.00055059,-0.00549800,-0.00273915,0.00285846,0.00
 010624,0.00025188,0.00000705,0.00007317,0.00055374,0.00121061,0.001011
 33,-0.00045551,-0.00026347,-0.00005577,-0.00011271,-0.00000428,0.00008
 312,-0.00158555,0.00157972,-0.00069615,0.00025854,-0.00009865,0.000102
 58,-0.00000316,-0.00004142,-0.00003562,-0.02858501,-0.00385800,0.00649
 594,0.00108815,0.00112908,-0.00257094,0.00011169,-0.00037612,-0.000103
 02,0.00001519,0.00009944,-0.00001978,-0.00003607,0.00002357,-0.0000156
 3,0.00000320,0.00001142,-0.00000557,0.00002798,0.00000307,-0.00005233,
 -0.00000725,-0.00000404,0.00006120,-0.00000885,-0.00000185,0.00000013,
 0.00000403,0.00000135,-0.00000128,-0.00000123,-0.00000068,-0.00000080,
 0.00000068,-0.00001661,0.00000889,-0.00001918,0.00000115,-0.00006279,0
 .00000899,0.00000313,-0.00000123,0.00000522,-0.00000496,0.00000284,-0.
 00000288,0.00000367,-0.00000227,0.00000178,-0.00000060,0.00000329,0.00
 000243,0.,-0.00000442,-0.00000012,0.00000020,0.00000062,0.00000001,0.0
 0000072,-0.00000001,0.00000182,-0.00000023,-0.00000155,0.00000162,0.00
 000144,0.00000179,0.00000204,-0.00000642,0.00000529,-0.00000107,0.0000
 0194,-0.00000022,-0.00000029,0.00000231,-0.00000781,0.00000050,0.00000
 056,0.00000016,-0.00062215,0.00149800,0.00008091,0.00039240,0.00032552
 ,-0.00004810,0.00089970,-0.00023926,-0.00003921,-0.00069722,-0.0030404
 0,0.00358659,0.02258817,0.04967987,-0.04157684,-0.00663361,-0.01721946
 ,0.03775863,0.00369979,-0.04411910,0.01334726,0.00066577,-0.00087451,-
 0.00120895,-0.00027362,0.00096247,-0.00012077,-0.00042873,-0.00021708,
 0.00085230,0.00029344,0.00046915,-0.00031874,-0.00006334,-0.00009266,0
 .00000080,0.00003433,0.00004632,0.00009627,-0.00117124,0.00052007,-0.0
 0005245,0.00006926,0.00012469,0.00001164,-0.00002583,0.00006012,0.0221
 1372,0.00307747,-0.00336820,0.00010467,0.00014201,0.00215074,0.0005216
 7,-0.00031750,-0.00025171,-0.00009540,0.00002777,-0.00014603,-0.000000
 28,-0.00003088,0.00000432,0.00001623,0.00000025,0.00001081,-0.00005726
 ,-0.00000984,0.00000842,0.00006250,0.00001953,-0.00004109,0.00000574,-
 0.00000435,0.00000691,-0.00000961,0.00000796,-0.00000882,0.00000256,-0
 .00000043,0.00000233,0.00000422,-0.00000501,0.00000596,-0.00001965,-0.
 00000495,-0.00003552,0.00000712,0.00000336,0.00000136,0.00001329,0.000
 01035,0.00000870,-0.00001104,0.00000440,-0.00001470,0.00000749,-0.0000
 0658,0.00001425,0.00000119,0.00000045,-0.00000917,0.00000020,0.0000004
 8,0.00000140,-0.00000151,-0.00000040,-0.00000226,-0.00000391,-0.000000
 50,0.00000376,-0.00000950,-0.00000536,-0.00001282,-0.00001207,-0.00000
 047,0.00001391,-0.00000587,-0.00000143,-0.00000634,-0.00000133,-0.0000
 0151,-0.00000519,-0.00000107,0.00000170,0.00000232,-0.00330043,0.00047
 195,0.00311520,-0.00013707,-0.00017941,-0.00000718,-0.00054741,0.00025
 399,0.00015043,0.00041029,0.00264970,-0.00292890,-0.02805814,0.0003824
 6,0.06212097,0.00190976,-0.00000469,0.00013106,-0.01898040,0.00171673,
 0.00027581,-0.34264443,-0.03372782,0.01867523,-0.00018541,-0.00780915,
 0.00859176,0.00066376,-0.00087753,0.00004747,-0.01652902,-0.00084820,-
 0.00166977,0.00240136,0.00088891,0.00158181,0.00036401,0.00023780,-0.0
 0001299,0.00058055,0.00031577,-0.00014209,0.00004154,-0.00002178,-0.00
 002270,-0.00000927,0.00000771,-0.00000199,-0.00058995,-0.00147504,0.00
 067220,0.00037985,0.00049248,-0.00009495,-0.00116001,-0.00105779,0.000
 55749,0.00060160,0.00015970,-0.00026083,-0.00008707,0.00008627,-0.0000
 7571,0.00001569,-0.00000404,-0.00005899,0.00004642,0.00000748,0.000007
 87,-0.00002739,-0.00001207,0.00002700,-0.00002463,0.00000972,0.0000032
 3,0.00001503,0.00000250,0.00000012,-0.00000585,-0.00000001,-0.00000402
 ,-0.00002492,0.00001176,0.00003120,0.00005448,0.00001824,0.00012668,-0
 .00002446,-0.00000687,0.00001043,-0.00001266,0.00000671,-0.00000389,0.
 00001700,0.00000037,-0.00000819,-0.00000825,-0.00000356,-0.00000111,0.
 00000648,0.00000357,-0.00000186,-0.00000131,-0.00000109,-0.00000009,0.
 00000261,0.00000071,0.00000191,0.00000623,0.00000136,-0.00000385,0.000
 01345,-0.00000200,0.00000972,0.00002078,0.00000625,-0.00005091,0.00001
 099,-0.00000196,0.00001115,0.00000332,-0.00000294,0.00001092,0.0000071
 2,-0.00000119,-0.00001066,0.00040058,-0.00037477,-0.00024871,-0.000015
 97,0.00013440,0.00001315,0.00016031,-0.00033241,-0.00000462,0.00098456
 ,0.00099903,-0.00071020,0.00008310,0.00240723,0.00067264,0.37076659,-0
 .00204542,0.00200459,0.00162109,0.03419173,-0.00258233,-0.00318884,-0.
 03150482,-0.03988313,-0.00269457,-0.03110100,-0.01865731,0.02117557,-0
 .00028648,0.00021296,-0.00107005,-0.01097608,-0.00010943,-0.00205907,-
 0.00032902,0.00067740,0.00091720,0.00003516,-0.00004257,-0.00007486,0.
 00011425,-0.00002830,-0.00006907,-0.00005065,-0.00000779,-0.00003741,-
 0.00000211,0.00001233,0.00000610,0.00183699,0.00218109,-0.00083699,-0.
 00023178,-0.00033975,0.00036467,0.00067498,-0.00037158,0.00066876,0.00
 015395,0.00000320,-0.00021272,-0.00002254,0.00005595,-0.00002479,0.000
 01573,-0.00001533,-0.00004054,-0.00000955,-0.00000234,0.00004505,0.000
 00350,0.00000660,-0.00005315,-0.00000697,0.00001144,0.00000375,0.00000
 336,-0.00000213,-0.00000264,-0.00000166,0.00000225,-0.00000123,-0.0000
 0822,0.00003321,-0.00001769,0.00007496,-0.00000230,0.00013992,-0.00002
 920,-0.00000691,-0.00000711,-0.00001263,0.00002843,0.00000317,0.000010
 08,-0.00001808,-0.00000198,-0.00000485,0.00000588,-0.00000523,-0.00000
 120,-0.00000123,0.00000432,0.00000006,-0.00000026,-0.00000076,0.000000
 90,-0.00000065,0.00000054,0.00000098,-0.00000010,0.00000003,0.00000209
 ,-0.00000092,0.00000187,0.00000341,0.00000841,-0.00001378,0.00000380,-
 0.00000525,0.00000190,0.00000235,-0.00000645,0.00001571,0.00000005,-0.
 00000087,-0.00000497,-0.00000137,0.00023725,0.00047630,-0.00010665,-0.
 00002320,-0.00000918,-0.00025090,0.00002741,0.00003654,-0.00042762,-0.
 00042003,0.00023374,0.00225192,-0.00502285,-0.00239850,0.03838620,0.06
 179077,-0.00052374,0.00107400,0.00167095,0.01530807,-0.00265434,0.0000
 4213,0.01863516,-0.00340305,-0.04120493,0.02661382,0.02113230,-0.01452
 758,0.00164200,0.00071799,0.00069493,-0.03534146,-0.00602429,-0.002959
 12,0.00093996,0.00181766,0.00269026,-0.00032628,0.00032307,-0.00001707
 ,-0.00008618,-0.00011539,0.00000742,-0.00001672,0.00001642,-0.00000219
 ,-0.00000082,0.00000851,-0.00000017,-0.00073257,0.00098853,-0.00011586
 ,0.00007835,0.00040192,-0.00036275,-0.00123038,-0.00038337,0.00094360,
 0.00040777,0.00007880,-0.00004068,0.00007769,0.00006873,0.00006546,0.0
 0001789,-0.00000662,-0.00002902,0.00001230,0.00001829,-0.00001271,-0.0
 0001056,-0.00002876,0.00001735,-0.00001260,-0.00000108,0.00001320,0.00
 000089,0.00001215,-0.00001490,-0.00000188,-0.00000023,-0.00000032,-0.0
 0000508,0.00003097,0.00002495,0.00010319,-0.00002023,0.00017551,-0.000
 01644,0.00000849,-0.00001965,-0.00001783,0.00002372,0.00002800,0.00000
 696,-0.00000242,-0.00002695,0.00000062,-0.00000874,0.00001906,0.000008
 77,0.00000153,-0.00001554,-0.00000118,0.00000095,0.00000187,0.00000017
 ,0.00000071,-0.00000069,0.00000069,0.00000176,-0.00000134,0.00000329,-
 0.00000355,0.00000515,0.00003027,0.00001754,-0.00006189,0.00000736,-0.
 00000499,0.00000714,-0.00000039,-0.00000999,0.00001517,0.00000408,0.00
 000075,-0.00001045,-0.00008783,0.00038591,0.00014439,-0.00003958,-0.00
 006477,-0.00000823,-0.00006638,0.00009195,-0.00002581,-0.00027103,0.00
 002367,0.00037255,0.00108167,-0.00201569,-0.00055269,-0.02530928,-0.01
 119789,0.05894706,0.00040523,-0.00000138,-0.00001439,-0.00065622,0.000
 64767,0.00000687,-0.01008200,-0.00459130,-0.00110540,0.00109177,0.0006
 6255,-0.00011002,0.00013355,0.00006777,0.00011472,-0.32930203,-0.09092
 485,0.00158935,-0.02056744,0.00919497,0.00651401,-0.00015901,0.0001466
 8,-0.00200879,-0.00000975,-0.00002294,-0.00000264,0.00003144,0.0000317
 2,0.00001948,-0.00000943,-0.00000286,0.00000192,0.00008183,0.00007187,
 0.00013313,0.00140710,-0.00104912,-0.00028414,-0.00519542,-0.00060792,
 -0.00124851,0.00114114,0.00088884,-0.00141521,0.00032072,0.00024613,0.
 00020961,0.00005741,0.00003102,-0.00006043,0.00002845,0.00002445,-0.00
 005152,-0.00003070,-0.00006643,-0.00001271,-0.00003587,0.00002094,0.00
 004091,0.00001177,0.00000606,-0.00003443,-0.00000661,0.00000395,-0.000
 00108,-0.00002446,0.00020933,-0.00010575,0.00037306,-0.00010518,0.0007
 9955,-0.00007955,-0.00002176,-0.00007340,-0.00007333,0.00010255,0.0000
 5994,0.00003720,-0.00007600,-0.00003381,-0.00002148,0.00002859,0.00001
 750,0.00001521,-0.00001045,-0.00002049,-0.00000239,0.00000191,0.000003
 67,0.00000375,-0.00000194,0.00000079,0.00000587,0.00000291,-0.00000202
 ,0.00000284,-0.00001556,0.00001131,0.00002553,0.00006045,-0.00030009,0
 .00001867,-0.00001836,0.00000580,0.00000756,-0.00004441,0.00007916,-0.
 00000217,-0.00000846,-0.00001584,-0.00003248,-0.00010363,-0.00008265,0
 .00000456,0.00000161,-0.00001091,0.00002716,-0.00002585,-0.00000563,0.
 00004674,0.00013074,-0.00001303,0.00064247,-0.00042705,-0.00023572,0.0
 0026531,-0.00046358,-0.00123216,0.35985966,0.00025083,0.00000160,-0.00
 002294,-0.00088308,0.00032494,0.00041874,-0.00802352,-0.00127378,0.000
 30755,0.00086659,0.00073318,-0.00064148,-0.00003121,-0.00006344,0.0001
 0344,-0.09043536,-0.06781021,0.00233412,0.03704861,-0.00245013,-0.0058
 2521,0.00052524,0.00143386,0.00207924,-0.00006879,0.00005723,0.0000568
 6,0.00001335,-0.00003314,-0.00001253,-0.00000146,0.00000582,-0.0000014
 1,-0.00006419,-0.00009552,0.00001382,0.00129253,0.00163689,-0.00020521
 ,-0.02804421,-0.00808055,0.00111281,0.00058532,0.00123279,-0.00227124,
 -0.00017106,0.00040653,0.00005349,0.00007132,-0.00003656,-0.00022115,0
 .00013916,-0.00000491,0.00009453,-0.00015641,0.00000678,-0.00007272,-0
 .00003404,0.00004025,0.00001640,0.00001181,0.00002123,-0.00001692,-0.0
 0000596,0.,-0.00000442,-0.00004952,-0.00011119,0.00010253,-0.00030169,
 -0.00010414,-0.00039743,0.00011050,0.00002863,-0.00002547,0.00007528,-
 0.00006152,0.00001435,-0.00001519,0.00004485,-0.00003818,0.00001484,-0
 .00004505,0.00002255,0.00000544,0.00001433,-0.00000991,-0.00000043,-0.
 00000014,0.00000092,-0.00000171,0.00000470,0.00000082,0.00000613,0.000
 00240,-0.00000727,0.00003224,-0.00001325,0.00003663,0.00023901,0.00001
 638,-0.00010587,0.00000688,0.00002475,0.00002807,-0.00000363,0.0000251
 0,-0.00005492,0.00000873,-0.00000716,0.00001929,-0.00000268,0.00000054
 ,-0.00003100,0.00001306,-0.00002187,-0.00000382,0.00003932,-0.00004432
 ,-0.00001614,0.00016079,0.00012992,0.00001674,0.00024485,-0.00009675,-
 0.00024180,0.00007842,0.00000098,-0.00165208,0.08607840,0.07736472,0.0
 0064264,0.00011917,-0.00036905,-0.00136068,0.00156211,0.00115377,-0.03
 334932,-0.01146710,-0.00073660,0.00228198,0.00086801,0.00252523,0.0002
 4046,-0.00023195,0.00045749,-0.00272301,0.00129468,-0.04332154,0.01499
 554,-0.00364622,0.00035279,0.00138180,0.00049381,0.00091776,-0.0000525
 3,-0.00001654,0.00005472,0.00001807,0.00001692,0.00001982,0.00000271,-
 0.00000135,0.00000663,-0.00036037,-0.00023681,-0.00053104,-0.00120620,
 -0.00038850,0.00048901,0.02136243,0.00959861,-0.00210364,0.00071840,-0
 .00039760,0.00157181,0.00045361,-0.00009204,-0.00017316,-0.00004286,0.
 00004427,0.00020165,-0.00010540,-0.00002916,-0.00010094,0.00012103,0.0
 0002702,0.00012854,0.00002484,-0.00003384,-0.00002280,-0.00000902,-0.0
 0002792,0.00002205,0.00000556,0.00000012,0.00000417,0.00002349,0.00003
 296,-0.00011025,-0.00026741,-0.00006568,-0.00007174,0.00004723,-0.0000
 1409,0.00004880,-0.00003072,-0.00000225,-0.00001871,-0.00002339,-0.000
 03479,0.00009046,-0.00000943,0.00005705,-0.00003880,-0.00001410,-0.000
 01659,0.00002208,0.00000195,-0.00000116,-0.00000287,0.00000056,-0.0000
 0441,-0.00000163,-0.00000586,-0.00000552,0.00000907,-0.00004672,0.0000
 1985,-0.00002960,-0.00030490,-0.00005468,-0.00000193,-0.00003741,-0.00
 001187,-0.00005733,-0.00000032,0.00000111,-0.00000382,-0.00002028,-0.0
 0001185,0.00005050,0.00006034,-0.00015603,-0.00010819,0.00001147,-0.00
 003236,0.00000362,0.00001950,-0.00001551,0.00000052,0.00010920,0.00003
 611,-0.00012963,0.00064956,-0.00027569,-0.00001288,-0.00218589,-0.0016
 7121,-0.00556321,-0.00113683,0.00218573,0.04758632,0.00009017,-0.00011
 956,0.00023033,0.00009251,0.00040166,-0.00002178,-0.00033803,-0.000229
 79,0.00008785,0.00022621,0.00009098,-0.00017489,-0.00004840,0.00001528
 ,0.00007003,-0.00258953,0.00103660,0.00077440,0.00175421,-0.00008522,-
 0.00106851,-0.00028921,-0.00025431,-0.00003374,0.00062395,-0.00005199,
 0.00005859,0.00000299,0.00019920,0.00009024,-0.00000446,0.00000050,0.0
 0002746,-0.00029615,-0.00090001,-0.00138189,-0.01138238,0.00707877,0.0
 0662856,-0.32942893,-0.05637394,0.07260589,-0.01888190,-0.00565012,-0.
 00513159,0.00004134,-0.00056219,0.00398123,0.00019243,0.00022275,-0.00
 028742,0.00061903,-0.00006885,-0.00030625,-0.00051662,-0.00033270,0.00
 075384,-0.00006073,0.00009215,0.00001614,0.00003436,0.00000545,-0.0000
 2346,-0.00001382,0.00000463,-0.00000999,-0.00012345,0.00003283,0.00001
 339,0.00012360,-0.00002130,0.00006379,0.00001164,-0.00001699,-0.000017
 34,0.00056433,0.00008581,-0.00006446,0.00001408,-0.00009363,-0.0002150
 9,0.00000382,-0.00002878,0.00000914,0.00000975,0.00001088,-0.00001522,
 -0.00000003,0.00000268,0.00000028,0.00000088,0.00000566,0.00000348,0.0
 0002353,0.00001488,-0.00003123,0.00012246,-0.00019139,0.00017291,0.001
 45005,0.00045747,-0.00101583,0.00009705,0.00013250,0.00027000,0.000021
 14,0.00000486,0.00000457,0.00003328,-0.00002666,-0.00003153,0.00000594
 ,-0.00000203,-0.00000499,-0.00002601,0.00000388,0.00000415,0.00013555,
 -0.00027542,-0.00011292,0.00088154,0.00035464,0.00084278,0.00006342,-0
 .00001021,-0.00022540,0.00050853,0.00010784,0.00034942,0.00024431,0.00
 037548,0.00012028,0.35600757,-0.00007779,0.00035118,-0.00024817,-0.000
 27374,-0.00059560,-0.00012883,-0.00130976,-0.00044506,-0.00131621,0.00
 055426,0.00011899,0.00040131,0.00009100,-0.00014803,0.00006784,-0.0238
 7305,-0.00294520,0.00731664,0.00099358,0.00331119,-0.00113459,-0.00051
 426,-0.00033685,-0.00009166,0.00038022,0.00014405,0.00008695,-0.000227
 33,-0.00024173,-0.00017367,0.00000695,0.00002675,-0.00002849,0.0042103
 7,0.00153895,0.00396545,0.03247052,-0.00611258,-0.01600777,-0.05912187
 ,-0.05387158,0.01703533,-0.00780371,0.00178864,-0.00148280,0.00023648,
 -0.00030408,0.00137241,0.00025900,-0.00004410,-0.00003011,-0.00030504,
 0.00006314,0.00030051,0.00012494,0.00009879,-0.00108333,0.00001811,0.0
 0004075,0.00008724,-0.00001904,0.00004691,-0.00006618,-0.00000349,0.00
 000128,0.00000334,-0.00010394,0.00005939,-0.00010342,0.00011522,-0.000
 03172,0.00009738,-0.00002474,-0.00002035,-0.00000768,-0.00001006,0.000
 12888,0.00004238,0.00000908,-0.00004368,-0.00013628,0.00000154,-0.0000
 2466,0.00007808,0.00002102,0.00000396,-0.00004660,-0.00000276,0.000002
 64,0.00000718,-0.00000098,-0.00000220,-0.00000708,-0.00001082,0.000002
 88,0.00000399,0.00002166,-0.00007122,0.00003644,0.00049144,0.00036274,
 -0.00021673,0.00001791,-0.00000799,0.00004057,0.00002362,-0.00002047,0
 .00001135,0.00001845,-0.00001923,-0.00004324,-0.00001390,0.00001347,0.
 00001896,0.00001248,-0.00003368,0.00001074,-0.00027586,-0.00004646,-0.
 00004290,-0.00111834,0.00016134,-0.00002858,-0.00005863,-0.00015605,-0
 .00001111,0.00058558,0.00025093,0.00035117,-0.00007204,-0.00320473,0.0
 0258517,0.05455772,0.06021039,-0.00006022,-0.00003604,-0.00029182,-0.0
 0019863,0.00026488,-0.00011358,0.00141946,-0.00015285,0.00129502,-0.00
 053889,-0.00001554,-0.00011051,-0.00001411,0.00001340,-0.00004329,0.02
 125837,0.00392517,-0.00132620,-0.00196671,-0.00156315,0.00122296,-0.00
 010748,0.00005339,-0.00016064,0.00006959,-0.00003323,0.00000969,-0.000
 12275,-0.00015505,-0.00013197,0.00002013,0.00001125,-0.00001297,0.0034
 8843,0.00025981,0.00266213,0.01258279,-0.00565982,-0.00404194,0.079445
 96,0.02034552,-0.06503001,-0.03242393,-0.00660384,-0.00753632,-0.00588
 934,-0.00204940,0.00464692,0.00012062,0.00014163,-0.00051632,0.0000403
 9,0.00012170,0.00032694,-0.00014796,-0.00013586,-0.00056223,-0.0000076
 5,0.00008721,0.00007133,0.00001116,0.00004607,-0.00004525,-0.00000860,
 0.00000295,-0.00000621,-0.00008769,0.00010239,0.00007050,0.00008777,-0
 .00010564,0.00009565,0.00002133,-0.00001820,-0.00004379,-0.00008368,-0
 .00005384,-0.00005737,0.00011252,0.00004412,-0.00016470,0.00002338,-0.
 00007961,0.00007100,0.00001908,0.00002291,-0.00004692,-0.00000165,0.00
 000399,0.00000428,-0.00000190,0.00000213,0.00000562,0.00001603,0.00002
 304,-0.00005204,0.00026701,-0.00005446,0.00004597,0.00116392,0.0001204
 7,-0.00052540,0.00018329,0.00006482,0.00005050,0.00001137,-0.00000772,
 -0.00000016,0.00002345,-0.00003989,-0.00002275,-0.00002374,-0.00000402
 ,0.00000552,-0.00000716,0.00000209,-0.00001258,-0.00020001,0.00002122,
 -0.00002748,-0.00073591,-0.00021189,-0.00017113,-0.00018708,-0.0000536
 1,0.00012172,-0.00057560,-0.00002197,-0.00031240,0.00000991,0.00286048
 ,-0.00220742,-0.07700525,-0.01148500,0.07286766\\0.00680047,-0.0042003
 5,-0.00418275,0.00161832,-0.00236319,0.01912165,0.00964552,0.00617041,
 0.01152933,-0.00184465,0.01466298,0.00979236,-0.01397575,-0.00848081,-
 0.02504131,0.03193497,-0.02517621,0.02365556,-0.02136122,0.01109005,-0
 .01925431,0.01471564,-0.00035009,0.01523762,-0.00013165,0.00934137,0.0
 0887063,0.00761923,0.02304709,-0.00981657,0.00080083,-0.03226970,0.011
 94908,-0.01491196,0.00632510,0.01422802,0.02014154,-0.00711980,0.00267
 151,-0.05758869,-0.00766243,-0.01543140,0.01223361,0.00353490,-0.01140
 247,0.00888037,0.00574319,-0.00998889,-0.04298987,0.01941999,0.0321281
 3,0.01442528,-0.00513406,-0.00003032,0.00355408,0.01670141,-0.01996955
 ,-0.00337292,0.00899441,0.01267496,0.00996462,-0.00528977,-0.01795181,
 -0.01273074,-0.00125826,0.02755713,0.01042168,-0.01635566,-0.00890620,
 -0.00847606,-0.02050016,-0.00169178,-0.00671107,0.03244853,0.00170007,
 0.01165283,-0.01268593,0.02271536,-0.03235938,-0.01678135,0.02937280,0
 .08820495,-0.00999946,-0.00515042,-0.02571038,0.02254108,-0.02070040,-
 0.00047477,-0.00090325,-0.00637203,-0.01555141,-0.00407096,-0.00422000
 ,0.01920180,-0.00017514,-0.00495480,-0.02746039,-0.00644762,-0.0031071
 8,0.02030759,-0.00152065,0.00140836,-0.02001647,-0.00078474,-0.0004050
 6,-0.00707155,-0.00942192,-0.01471663,0.01852491,0.00363940,-0.0070632
 1,-0.00042815,0.00292829,-0.00013674,0.00282857,0.00633310,-0.01747349
 ,-0.02038015,-0.00335445,-0.00187271,0.01960089,0.00143096,-0.00286584
 ,-0.01993840,0.00077821,-0.00007067,0.02298789,0.00355587,-0.00465081,
 -0.01890377,-0.00128112,-0.00290647,0.01632384,0.00490071,-0.00427876\
 \\@


 Everywhere is walking distance if you have the time.
                                    -- Steven Wright
 Job cpu time:  1 days  7 hours 43 minutes 46.5 seconds.
 File lengths (MBytes):  RWF=   1769 Int=      0 D2E=      0 Chk=     28 Scr=      1
 Normal termination of Gaussian 09 at Mon Mar 21 22:49:29 2016.
Gaussian '09 finished on node006 at Mon Mar 21 22:49:29 EDT 2016.
