Gaussian '09 started on node031 at Mon Feb 29 14:22:25 EST 2016.
 Entering Gaussian System, Link 0=/usr/local/gaussian/g09/g09
 Initial command:
 /usr/local/gaussian/g09/l1.exe /home/srmcgrat/thesis/gaussian/cellobiose/280/10000/2/gdp/gaussian30086/Gau-30122.inp -scrdir=/home/srmcgrat/thesis/gaussian/cellobiose/280/10000/2/gdp/gaussian30086/
 Entering Link 1 = /usr/local/gaussian/g09/l1.exe PID=     30124.
  
 Copyright (c) 1988,1990,1992,1993,1995,1998,2003,2009,2010,
            Gaussian, Inc.  All Rights Reserved.
  
 This is part of the Gaussian(R) 09 program.  It is based on
 the Gaussian(R) 03 system (copyright 2003, Gaussian, Inc.),
 the Gaussian(R) 98 system (copyright 1998, Gaussian, Inc.),
 the Gaussian(R) 94 system (copyright 1995, Gaussian, Inc.),
 the Gaussian 92(TM) system (copyright 1992, Gaussian, Inc.),
 the Gaussian 90(TM) system (copyright 1990, Gaussian, Inc.),
 the Gaussian 88(TM) system (copyright 1988, Gaussian, Inc.),
 the Gaussian 86(TM) system (copyright 1986, Carnegie Mellon
 University), and the Gaussian 82(TM) system (copyright 1983,
 Carnegie Mellon University). Gaussian is a federally registered
 trademark of Gaussian, Inc.
  
 This software contains proprietary and confidential information,
 including trade secrets, belonging to Gaussian, Inc.
  
 This software is provided under written license and may be
 used, copied, transmitted, or stored only in accord with that
 written license.
  
 The following legend is applicable only to US Government
 contracts under FAR:
  
                    RESTRICTED RIGHTS LEGEND
  
 Use, reproduction and disclosure by the US Government is
 subject to restrictions as set forth in subparagraphs (a)
 and (c) of the Commercial Computer Software - Restricted
 Rights clause in FAR 52.227-19.
  
 Gaussian, Inc.
 340 Quinnipiac St., Bldg. 40, Wallingford CT 06492
  
  
 ---------------------------------------------------------------
 Warning -- This program may not be used in any manner that
 competes with the business of Gaussian, Inc. or will provide
 assistance to any competitor of Gaussian, Inc.  The licensee
 of this program is prohibited from giving any competitor of
 Gaussian, Inc. access to this program.  By using this program,
 the user acknowledges that Gaussian, Inc. is engaged in the
 business of creating and licensing software in the field of
 computational chemistry and represents and warrants to the
 licensee that it is not a competitor of Gaussian, Inc. and that
 it will not use this program in any manner prohibited above.
 ---------------------------------------------------------------
  

 Cite this work as:
 Gaussian 09, Revision B.01,
 M. J. Frisch, G. W. Trucks, H. B. Schlegel, G. E. Scuseria, 
 M. A. Robb, J. R. Cheeseman, G. Scalmani, V. Barone, B. Mennucci, 
 G. A. Petersson, H. Nakatsuji, M. Caricato, X. Li, H. P. Hratchian, 
 A. F. Izmaylov, J. Bloino, G. Zheng, J. L. Sonnenberg, M. Hada, 
 M. Ehara, K. Toyota, R. Fukuda, J. Hasegawa, M. Ishida, T. Nakajima, 
 Y. Honda, O. Kitao, H. Nakai, T. Vreven, J. A. Montgomery, Jr., 
 J. E. Peralta, F. Ogliaro, M. Bearpark, J. J. Heyd, E. Brothers, 
 K. N. Kudin, V. N. Staroverov, T. Keith, R. Kobayashi, J. Normand, 
 K. Raghavachari, A. Rendell, J. C. Burant, S. S. Iyengar, J. Tomasi, 
 M. Cossi, N. Rega, J. M. Millam, M. Klene, J. E. Knox, J. B. Cross, 
 V. Bakken, C. Adamo, J. Jaramillo, R. Gomperts, R. E. Stratmann, 
 O. Yazyev, A. J. Austin, R. Cammi, C. Pomelli, J. W. Ochterski, 
 R. L. Martin, K. Morokuma, V. G. Zakrzewski, G. A. Voth, 
 P. Salvador, J. J. Dannenberg, S. Dapprich, A. D. Daniels, 
 O. Farkas, J. B. Foresman, J. V. Ortiz, J. Cioslowski, 
 and D. J. Fox, Gaussian, Inc., Wallingford CT, 2010.
 
 ******************************************
 Gaussian 09:  EM64L-G09RevB.01 12-Aug-2010
                29-Feb-2016 
 ******************************************
 ------------------------------------------------
 # freq=raman b3lyp/6-31+g(d,p) geom=connectivity
 ------------------------------------------------
 1/10=4,30=1,38=1,57=2/1,3;
 2/12=2,17=6,18=5,40=1/2;
 3/5=1,6=6,7=111,11=2,16=1,25=1,30=1,71=2,74=-5/1,2,3;
 4//1;
 5/5=2,38=5,98=1/2;
 8/6=4,10=90,11=11/1;
 10/13=10,15=4/2;
 11/6=3,8=1,9=11,15=111,16=1/1,2,10;
 10/6=1/2;
 6/7=2,8=2,9=2,10=2,18=1,28=1/1;
 7/8=1,10=1,25=1/1,2,3,16;
 1/10=4,30=1/3;
 99//99;
 -------------
 280 10000.com
 -------------
 Symbolic Z-matrix:
 Charge =  0 Multiplicity = 1
 O                     7.553     7.516     22.819 
 C                     8.202     7.943     24.025 
 C                     7.627     9.238     24.575 
 O                     7.722     10.327    23.645 
 H                     7.677     10.05     22.685 
 C                     8.293     9.609     25.89 
 O                     7.664     10.764    26.466 
 H                     8.036     10.813    27.393 
 C                     8.547     5.543     24.693 
 O                     7.846     4.773     23.706 
 H                     8.094     3.82      23.88 
 C                     7.932     6.88      25.077 
 O                     8.547     7.144     26.347 
 C                     8.251     8.447     26.869 
 O                     9.055     8.676     28.036 
 C                     8.3       8.312     29.2 
 C                     8.757     6.985     29.785 
 O                     8.685     5.975     28.769 
 H                     8.708     6.474     27.903 
 C                     8.232     6.612     31.162 
 O                     8.682     5.285     31.473 
 H                     8.365     5.06      32.394 
 C                     8.22      10.72     29.968 
 O                     8.671     11.517    28.863 
 H                     8.439     12.466    29.074 
 C                     8.711     9.313     30.268 
 O                     8.062     8.98      31.503 
 C                     8.55      7.768     32.097 
 O                     7.716     7.477     33.228 
 H                     8.21541   7.28409   22.164 
 H                     8.26659   7.28104   33.98961 
 H                     8.41265   11.29637   30.84867 
 H                     7.15689   10.64937   29.86947 
 H                     9.77355   9.30876   30.39401 
 H                     7.24539   8.33145   29.0202 
 H                     9.80653   7.11934   29.94418 
 H                     7.16569   6.56318   31.08791 
 H                     9.58776   7.81818   32.3528 
 H                     8.62601   4.94932   25.57968 
 H                     9.53533   5.72743   24.32682 
 H                     6.87625   6.76451   25.20723 
 H                     9.25491   8.04413   23.86356 
 H                     6.58872   9.0719    24.77321 
 H                     9.31757   9.8465    25.69313 
 H                     7.2394    8.39833   27.21425 
 

 GradGradGradGradGradGradGradGradGradGradGradGradGradGradGradGradGradGrad
 Berny optimization.
 Initialization pass.
 Trust Radius=3.00D-01 FncErr=1.00D-07 GrdErr=1.00D-07
 Number of steps in this run=      2 maximum allowed number of steps=      2.
 GradGradGradGradGradGradGradGradGradGradGradGradGradGradGradGradGradGrad

                          Input orientation:                          
 ---------------------------------------------------------------------
 Center     Atomic      Atomic             Coordinates (Angstroms)
 Number     Number       Type             X           Y           Z
 ---------------------------------------------------------------------
      1          8           0        7.553000    7.516000   22.819000
      2          6           0        8.202000    7.943000   24.025000
      3          6           0        7.627000    9.238000   24.575000
      4          8           0        7.722000   10.327000   23.645000
      5          1           0        7.677000   10.050000   22.685000
      6          6           0        8.293000    9.609000   25.890000
      7          8           0        7.664000   10.764000   26.466000
      8          1           0        8.036000   10.813000   27.393000
      9          6           0        8.547000    5.543000   24.693000
     10          8           0        7.846000    4.773000   23.706000
     11          1           0        8.094000    3.820000   23.880000
     12          6           0        7.932000    6.880000   25.077000
     13          8           0        8.547000    7.144000   26.347000
     14          6           0        8.251000    8.447000   26.869000
     15          8           0        9.055000    8.676000   28.036000
     16          6           0        8.300000    8.312000   29.200000
     17          6           0        8.757000    6.985000   29.785000
     18          8           0        8.685000    5.975000   28.769000
     19          1           0        8.708000    6.474000   27.903000
     20          6           0        8.232000    6.612000   31.162000
     21          8           0        8.682000    5.285000   31.473000
     22          1           0        8.365000    5.060000   32.394000
     23          6           0        8.220000   10.720000   29.968000
     24          8           0        8.671000   11.517000   28.863000
     25          1           0        8.439000   12.466000   29.074000
     26          6           0        8.711000    9.313000   30.268000
     27          8           0        8.062000    8.980000   31.503000
     28          6           0        8.550000    7.768000   32.097000
     29          8           0        7.716000    7.477000   33.228000
     30          1           0        8.215408    7.284087   22.163995
     31          1           0        8.266587    7.281041   33.989613
     32          1           0        8.412651   11.296371   30.848671
     33          1           0        7.156890   10.649365   29.869475
     34          1           0        9.773545    9.308760   30.394014
     35          1           0        7.245393    8.331452   29.020204
     36          1           0        9.806532    7.119337   29.944176
     37          1           0        7.165685    6.563178   31.087908
     38          1           0        9.587760    7.818181   32.352804
     39          1           0        8.626011    4.949323   25.579682
     40          1           0        9.535330    5.727431   24.326818
     41          1           0        6.876252    6.764514   25.207228
     42          1           0        9.254906    8.044128   23.863561
     43          1           0        6.588722    9.071896   24.773214
     44          1           0        9.317565    9.846502   25.693129
     45          1           0        7.239400    8.398332   27.214248
 ---------------------------------------------------------------------
                    Distance matrix (angstroms):
                    1          2          3          4          5
     1  O    0.000000
     2  C    1.434561   0.000000
     3  C    2.460548   1.519918   0.000000
     4  O    2.934716   2.461352   1.435216   0.000000
     5  H    2.540568   2.551602   2.057655   1.000177   0.000000
     6  C    3.789365   2.502411   1.520007   2.425199   3.293321
     7  O    4.884919   3.769080   2.430211   2.855236   3.847847
     8  H    5.659061   4.428079   3.254079   3.792400   4.782919
     9  C    2.897006   2.515005   3.809639   4.966446   5.010191
    10  O    2.897700   3.205838   4.554047   5.555719   5.377521
    11  H    3.883145   4.126962   5.482320   6.521860   6.357265
    12  C    2.376279   1.519728   2.430060   3.738520   3.979396
    13  O    3.684183   2.479740   2.893306   4.255927   4.755206
    14  C    4.213842   2.888729   2.505493   3.769405   4.517183
    15  O    5.551459   4.165696   3.785967   4.876840   5.693853
    16  C    6.473700   5.189064   4.764560   5.937368   6.771558
    17  C    7.089198   5.865440   5.787660   7.066809   7.808369
    18  O    6.249688   5.158667   5.418133   6.791366   7.391667
    19  H    5.316657   4.177665   4.459130   5.826523   6.409232
    20  C    8.419258   7.260112   7.116914   8.400394   9.164464
    21  O    9.007981   7.922630   8.020077   9.360606  10.047099
    22  H    9.918261   8.853159   8.895903  10.232289  10.937921
    23  C    7.862487   6.559825   5.624271   6.354745   7.333883
    24  O    7.334021   6.033215   4.966963   5.435460   6.427115
    25  H    8.025741   6.782780   5.596457   5.879069   6.872919
    26  C    7.749695   6.411788   5.795768   6.772772   7.688577
    27  O    8.821238   7.550858   6.946436   7.979860   8.891021
    28  C    9.334816   8.081393   7.719671   8.869632   9.723960
    29  O   10.410349   9.227598   8.830824   9.997821  10.852497
    30  H    0.960000   1.974256   3.158630   3.419963   2.865590
    31  H   11.195848   9.986785   9.637100  10.797475  11.653713
    32  H    8.916604   7.606048   6.649292   7.301339   8.290968
    33  H    7.725547   6.524918   5.499492   6.258383   7.228169
    34  H    8.094791   6.700701   6.202708   7.127050   8.023331
    35  H    6.262149   5.100789   4.552724   5.753450   6.578336
    36  H    7.483574   6.187858   6.169857   7.369803   8.112911
    37  H    8.332630   7.270662   7.055880   8.358990   9.111983
    38  H    9.753203   8.443236   8.145839   9.252085  10.104378
    39  H    3.919254   3.399842   4.516654   5.786160   5.941104
    40  H    3.066289   2.603384   4.003425   4.990899   4.983328
    41  H    2.593521   2.131689   2.661103   3.980848   4.218679
    42  H    2.065553   1.070000   2.140456   2.758455   2.811106
    43  H    2.677610   2.106394   1.070000   2.032848   2.549838
    44  H    4.099457   2.765947   2.116246   2.640367   3.432449
    45  H    4.493892   3.362325   2.796589   4.085609   4.840826
                    6          7          8          9         10
     6  C    0.000000
     7  O    1.435772   0.000000
     8  H    1.942852   1.000057   0.000000
     9  C    4.246137   5.584090   5.943401   0.000000
    10  O    5.325088   6.598697   7.078960   1.434737   0.000000
    11  H    6.131250   7.422360   7.826020   1.958292   0.999994
    12  C    2.870319   4.133594   4.565431   1.520937   2.515251
    13  O    2.519839   3.728036   3.849259   2.301938   3.617723
    14  C    1.520016   2.423936   2.432850   3.640853   4.864861
    15  O    2.460985   2.959649   2.453279   4.609707   5.953486
    16  C    3.555047   3.727138   3.096764   5.295415   6.550929
    17  C    4.719290   5.146965   4.571115   5.296407   6.532772
    18  O    4.652769   5.411171   5.071570   4.101152   5.270929
    19  H    3.748682   4.643168   4.420249   3.346159   4.609908
    20  C    6.064628   6.293977   5.647316   6.564293   7.689139
    21  O    7.072354   7.491716   6.900906   6.786250   7.828622
    22  H    7.937292   8.256404   7.629892   7.718278   8.708219
    23  C    4.227261   3.546135   2.583240   7.398235   8.644034
    24  O    3.552756   2.706782   1.749212   7.286491   8.529760
    25  H    4.280376   3.209220   2.391773   8.193458   9.399432
    26  C    4.407859   4.202001   3.312288   6.732044   8.026186
    27  O    5.652855   5.358398   4.500296   7.643579   8.862207
    28  C    6.479366   6.439656   5.627063   7.731096   8.937255
    29  O    7.663198   7.518758   6.728932   8.790742   9.899343
    30  H    4.392534   5.560674   6.310935   3.088236   2.969815
    31  H    8.427563   8.312573   7.486201   9.461841  10.593388
    32  H    5.239271   4.477913   3.509584   8.426839   9.689851
    33  H    4.267239   3.442955   2.632971   7.402922   8.543709
    34  H    4.750611   4.690117   3.779932   6.941680   8.307712
    35  H    3.539461   3.551969   3.070983   5.309834   6.423711
    36  H    4.992549   5.474643   4.825601   5.625487   6.947217
    37  H    6.129120   6.265561   5.698313   6.621453   7.626279
    38  H    6.830173   6.858073   5.998046   8.058053   9.331349
    39  H    4.681857   5.959991   6.165951   1.070000   2.037201
    40  H    4.365031   5.783165   6.124743   1.070000   2.037201
    41  H    3.250301   4.266256   4.744771   2.132586   2.675859
    42  H    2.735058   4.086732   4.648583   2.728505   3.565125
    43  H    2.107191   2.623921   3.462562   4.036631   4.604367
    44  H    1.070000   2.042893   2.337967   4.484881   5.643989
    45  H    2.080727   2.517250   2.548950   4.027336   5.081220
                   11         12         13         14         15
    11  H    0.000000
    12  C    3.289780   0.000000
    13  O    4.164165   1.435556   0.000000
    14  C    5.510708   2.401773   1.434541   0.000000
    15  O    6.463481   3.639014   2.336195   1.435530   0.000000
    16  C    6.965838   4.380089   3.092708   2.335420   1.434370
    17  C    6.732445   4.780891   3.448076   3.300990   2.450977
    18  O    5.375465   3.875164   2.692896   3.147879   2.823046
    19  H    4.858523   2.958596   1.701751   2.273925   2.233137
    20  C    7.800117   6.098282   4.854531   4.668772   3.835271
    21  O    7.755361   6.634406   5.454354   5.601859   4.842621
    22  H    8.608091   7.552376   6.398624   6.481542   5.704710
    23  C    9.202696   6.224984   5.099642   3.843344   2.933903
    24  O    9.187330   6.031723   5.046658   3.684744   2.983734
    25  H   10.092075   6.887413   5.980960   4.587998   3.977562
    26  C    8.447502   5.785569   4.483938   3.537620   2.346472
    27  O    9.205257   6.761684   5.494584   4.668379   3.619192
    28  C    9.127635   7.102877   5.783760   5.280381   4.191803
    29  O   10.044981   8.175687   6.938992   6.454766   5.494305
    30  H    3.867727   2.954523   4.198465   4.846721   6.092846
    31  H   10.687042   8.927903   7.648983   7.215458   6.165470
    32  H   10.225461   7.283375   6.125788   4.897227   3.897445
    33  H    9.131934   6.146277   5.160215   3.879476   3.295242
    34  H    8.682150   6.128687   4.750676   3.935289   2.544980
    35  H    6.891663   4.257581   3.201600   2.377451   2.088551
    36  H    7.112849   5.221164   3.811391   3.693112   2.574710
    37  H    7.767929   6.067835   4.972081   4.746143   4.165053
    38  H    9.487106   7.520575   6.132486   5.679300   4.433338
    39  H    2.108868   2.112310   2.326291   3.746561   4.483933
    40  H    2.432154   2.112310   2.657931   3.938051   4.762647
    41  H    3.451754   1.070000   2.057787   2.735357   4.050022
    42  H    4.380779   2.139558   2.734745   3.194182   4.224745
    43  H    5.535892   2.588646   3.166771   2.746995   4.109140
    44  H    6.411184   3.331597   2.885279   2.116327   2.632121
    45  H    5.727886   2.711615   2.008802   1.070000   2.012158
                   16         17         18         19         20
    16  C    0.000000
    17  C    1.520527   0.000000
    18  O    2.407396   1.434413   0.000000
    19  H    2.286245   1.950755   0.999743   0.000000
    20  C    2.596934   1.520159   2.517425   3.296468   0.000000
    21  O    3.804626   2.396866   2.790650   3.762884   1.435322
    22  H    4.558658   3.265910   3.752366   4.720818   1.986005
    23  C    2.528772   3.777841   4.916183   4.746671   4.278019
    24  O    3.243954   4.625636   5.542815   5.133694   5.434809
    25  H    4.158234   5.536064   6.502816   6.111274   6.218674
    26  C    1.520377   2.378022   3.659224   3.695018   2.885148
    27  O    2.409705   2.722972   4.110099   4.433661   2.398459
    28  C    2.958217   2.449751   3.782679   4.391929   1.520423
    29  O    4.154884   3.630426   4.803920   5.508693   2.298442
    30  H    7.111197   7.646077   6.749838   5.816792   9.023085
    31  H    4.899427   4.243456   5.397742   6.155731   2.905892
    32  H    3.411346   4.453975   5.719808   5.658575   4.698313
    33  H    2.686666   3.999383   5.039430   4.868946   4.373420
    34  H    2.142553   2.608471   3.865172   3.921275   3.199793
    35  H    1.070000   2.163978   2.772803   2.614859   2.918424
    36  H    2.060553   1.070000   1.987053   2.406165   2.054175
    37  H    2.812338   2.099472   2.834008   3.539820   1.070000
    38  H    3.441272   2.824530   4.129884   4.730915   2.170477
    39  H    4.951827   4.673954   3.350708   2.780139   5.837981
    40  H    5.652781   5.655000   4.529606   3.745786   7.014331
    41  H    4.512649   4.953971   4.071993   3.272138   6.109061
    42  H    5.427816   6.035984   5.354383   4.368235   7.507632
    43  H    4.806490   5.845901   5.472792   4.586498   7.040457
    44  H    3.960844   5.024524   4.984943   4.077851   6.445852
    45  H    2.252895   3.302935   3.221731   2.516787   4.445332
                   21         22         23         24         25
    21  O    0.000000
    22  H    0.999677   0.000000
    23  C    5.658418   6.159716   0.000000
    24  O    6.756482   7.365762   1.435143   0.000000
    25  H    7.575025   8.116447   1.973756   0.999473   0.000000
    26  C    4.204480   4.767347   1.520109   2.614047   3.382459
    27  O    3.746775   4.031388   2.325680   3.711718   4.265485
    28  C    2.563609   2.730512   3.654565   4.952615   5.587670
    29  O    2.969519   2.637925   4.625869   6.023857   6.532118
    30  H    9.532661  10.470050   8.526899   7.937366   8.640045
    31  H    3.238841   2.736547   5.291690   6.662512   7.146802
    32  H    6.049704   6.425157   1.070000   2.014525   2.125602
    33  H    5.802902   6.250901   1.070000   2.014525   2.361514
    34  H    4.306544   4.902642   2.141633   2.904468   3.673093
    35  H    4.166643   4.830985   2.748334   3.493535   4.303729
    36  H    2.639445   3.510060   3.934771   4.668812   5.586962
    37  H    2.020209   2.324603   4.432261   5.635294   6.365568
    38  H    2.830453   3.017350   3.997325   5.167247   5.802795
    39  H    5.903136   6.820213   7.261054   7.342792   8.291301
    40  H    7.210536   8.178909   7.647141   7.405614   8.315407
    41  H    6.686523   7.534682   6.333757   6.258747   7.064068
    42  H    8.114467   9.081043   6.745035   6.115241   6.882393
    43  H    7.975558   8.793569   5.688859   5.200074   5.782753
    44  H    7.390410   8.289732   4.499130   3.640974   4.366227
    45  H    5.469086   6.264285   3.732944   3.807092   4.630728
                   26         27         28         29         30
    26  C    0.000000
    27  O    1.434334   0.000000
    28  C    2.399622   1.435244   0.000000
    29  O    3.622502   2.313947   1.435060   0.000000
    30  H    8.368811   9.492980   9.950412  11.076950   0.000000
    31  H    4.263422   3.018536   1.974699   0.960000  11.825729
    32  H    2.088050   2.432422   3.745209   4.553474   9.568747
    33  H    2.088050   2.504877   3.899345   4.653622   8.474667
    34  H    1.070000   2.065749   2.602146   3.952254   8.617442
    35  H    2.160656   2.692905   3.389122   4.319387   7.003249
    36  H    2.473299   2.989212   2.575711   3.909187   7.942923
    37  H    3.259105   2.610883   2.094323   2.391216   9.014313
    38  H    2.711014   2.097602   1.070000   2.094244  10.294680
    39  H    6.405407   7.186805   7.101138   8.106420   4.157720
    40  H    6.988095   8.015453   8.093857   9.252134   2.973748
    41  H    5.955879   6.778726   7.160823   8.096024   3.365198
    42  H    6.551542   7.788447   8.268171   9.506975   2.132309
    43  H    5.895326   6.889776   7.693152   8.677434   3.556739
    44  H    4.645642   6.006819   6.776348   8.059394   4.498389
    45  H    3.511072   4.405497   5.094728   6.102558   5.263002
                   31         32         33         34         35
    31  H    0.000000
    32  H    5.099973   0.000000
    33  H    5.436228   1.718831   0.000000
    34  H    4.394417   2.451397   2.986512   0.000000
    35  H    5.180852   3.673763   2.470186   3.038756   0.000000
    36  H    4.331644   4.495401   4.414440   2.235400   2.980331
    37  H    3.185468   4.900538   4.263987   3.849758   2.721864
    38  H    2.170982   3.967506   4.482372   2.468440   4.105649
    39  H    8.734589   8.251836   7.283620   6.595402   5.018176
    40  H    9.868790   8.649166   7.784822   7.049364   5.835461
    41  H    8.906746   7.397577   6.075144   6.462991   4.138882
    42  H   10.202745   7.751016   6.874586   6.671964   5.541810
    43  H    9.537526   6.722067   5.364988   6.464719   4.360780
    44  H    8.747445   5.431446   4.770217   4.753463   4.202226
    45  H    6.943272   4.794182   3.481980   4.166735   1.807204
                   36         37         38         39         40
    36  H    0.000000
    37  H    2.931127   0.000000
    38  H    2.517485   3.006899   0.000000
    39  H    5.015118   5.922637   7.418254   0.000000
    40  H    5.793588   7.212906   8.294000   1.732623   0.000000
    41  H    5.581319   5.891240   7.715034   2.548587   2.986864
    42  H    6.175225   7.664805   8.498770   3.594217   2.379145
    43  H    6.395751   6.819231   8.247194   4.668677   4.479644
    44  H    5.074241   6.671915   6.966948   4.947069   4.345224
    45  H    3.959608   4.287011   5.679448   4.060808   4.554367
                   41         42         43         44         45
    41  H    0.000000
    42  H    3.016761   0.000000
    43  H    2.365386   2.998718   0.000000
    44  H    3.961662   2.569007   2.982087   0.000000
    45  H    2.613306   3.926173   2.614521   2.954619   0.000000
 Stoichiometry    C12H22O11
 Framework group  C1[X(C12H22O11)]
 Deg. of freedom   129
 Full point group                 C1      NOp   1
 Largest Abelian subgroup         C1      NOp   1
 Largest concise Abelian subgroup C1      NOp   1
                         Standard orientation:                         
 ---------------------------------------------------------------------
 Center     Atomic      Atomic             Coordinates (Angstroms)
 Number     Number       Type             X           Y           Z
 ---------------------------------------------------------------------
      1          8           0        4.969036   -0.449943   -0.444139
      2          6           0        3.721838   -0.067836    0.152902
      3          6           0        3.181515    1.240383   -0.400960
      4          8           0        4.085529    2.338984   -0.212063
      5          1           0        5.051288    2.078875   -0.214343
      6          6           0        1.825553    1.564178    0.204800
      7          8           0        1.264712    2.734275   -0.409833
      8          1           0        0.317945    2.754076   -0.088346
      9          6           0        3.078331   -2.489718    0.366537
     10          8           0        4.115805   -3.215825   -0.307916
     11          1           0        3.945276   -4.180525   -0.107259
     12          6           0        2.705190   -1.135376   -0.216364
     13          8           0        1.398843   -0.915756    0.336851
     14          6           0        0.870996    0.389774    0.063214
     15          8           0       -0.342294    0.568490    0.809360
     16          6           0       -1.456428    0.216901   -0.022811
     17          6           0       -2.042161   -1.136138    0.348946
     18          8           0       -1.006078   -2.126637    0.294314
     19          1           0       -0.151591   -1.615618    0.384852
     20          6           0       -3.381424   -1.509175   -0.265954
     21          8           0       -3.693229   -2.857699    0.114060
     22          1           0       -4.591298   -3.084106   -0.262195
     23          6           0       -2.261234    2.614013   -0.051620
     24          8           0       -1.196931    3.409404    0.490824
     25          1           0       -1.411569    4.363517    0.284560
     26          6           0       -2.562900    1.184099    0.366797
     27          8           0       -3.754289    0.858162   -0.362361
     28          6           0       -4.352741   -0.381358    0.044299
     29          8           0       -5.430875   -0.656355   -0.862013
     30          1           0        5.590627   -0.697905    0.244148
     31          1           0       -6.218026   -0.885846   -0.362687
     32          1           0       -3.161196    3.168565    0.114035
     33          1           0       -2.103187    2.587319   -1.109546
     34          1           0       -2.747038    1.135583    1.419717
     35          1           0       -1.219303    0.281129   -1.064226
     36          1           0       -2.261135   -1.046197    1.392431
     37          1           0       -3.247978   -1.514326   -1.327587
     38          1           0       -4.666049   -0.376521    1.067390
     39          1           0        2.199260   -3.099711    0.372938
     40          1           0        3.386320   -2.339167    1.380133
     41          1           0        2.635252   -1.210711   -1.281415
     42          1           0        3.823345   -0.006251    1.216295
     43          1           0        3.043637    1.112729   -1.454332
     44          1           0        1.961585    1.763690    1.247196
     45          1           0        0.582790    0.376113   -0.967150
 ---------------------------------------------------------------------
 Rotational constants (GHZ):      0.4014139      0.1494527      0.1122148
 Standard basis: 6-31+G(d,p) (6D, 7F)
 There are   547 symmetry adapted basis functions of A   symmetry.
 Integral buffers will be    131072 words long.
 Raffenetti 2 integral format.
 Two-electron integral symmetry is turned on.
   547 basis functions,   890 primitive gaussians,   547 cartesian basis functions
    91 alpha electrons       91 beta electrons
       nuclear repulsion energy      2296.7494272618 Hartrees.
 NAtoms=   45 NActive=   45 NUniq=   45 SFac= 1.00D+00 NAtFMM=   50 NAOKFM=F Big=F
 One-electron integrals computed using PRISM.
 NBasis=   547 RedAO= T  NBF=   547
 NBsUse=   547 1.00D-06 NBFU=   547
 Harris functional with IExCor=  402 diagonalized for initial guess.
 ExpMin= 4.38D-02 ExpMax= 5.48D+03 ExpMxC= 8.25D+02 IAcc=2 IRadAn=         0 AccDes= 0.00D+00
 HarFok:  IExCor=  402 AccDes= 0.00D+00 IRadAn=         0 IDoV= 1
 ScaDFX=  1.000000  1.000000  1.000000  1.000000
 FoFCou: FMM=F IPFlag=           0 FMFlag=      100000 FMFlg1=           0
         NFxFlg=           0 DoJE=T BraDBF=F KetDBF=T FulRan=T
         Omega=  0.000000  0.000000  1.000000  0.000000  0.000000 ICntrl=     500 IOpCl=  0
         NMat0=    1 NMatS0=    1 NMatT0=    0 NMatD0=    1 NMtDS0=    0 NMtDT0=    0
         I1Cent=           4 NGrid=           0.
 Petite list used in FoFCou.
 Initial guess orbital symmetries:
       Occupied  (A) (A) (A) (A) (A) (A) (A) (A) (A) (A) (A) (A)
                 (A) (A) (A) (A) (A) (A) (A) (A) (A) (A) (A) (A)
                 (A) (A) (A) (A) (A) (A) (A) (A) (A) (A) (A) (A)
                 (A) (A) (A) (A) (A) (A) (A) (A) (A) (A) (A) (A)
                 (A) (A) (A) (A) (A) (A) (A) (A) (A) (A) (A) (A)
                 (A) (A) (A) (A) (A) (A) (A) (A) (A) (A) (A) (A)
                 (A) (A) (A) (A) (A) (A) (A) (A) (A) (A) (A) (A)
                 (A) (A) (A) (A) (A) (A) (A)
       Virtual   (A) (A) (A) (A) (A) (A) (A) (A) (A) (A) (A) (A)
                 (A) (A) (A) (A) (A) (A) (A) (A) (A) (A) (A) (A)
                 (A) (A) (A) (A) (A) (A) (A) (A) (A) (A) (A) (A)
                 (A) (A) (A) (A) (A) (A) (A) (A) (A) (A) (A) (A)
                 (A) (A) (A) (A) (A) (A) (A) (A) (A) (A) (A) (A)
                 (A) (A) (A) (A) (A) (A) (A) (A) (A) (A) (A) (A)
                 (A) (A) (A) (A) (A) (A) (A) (A) (A) (A) (A) (A)
                 (A) (A) (A) (A) (A) (A) (A) (A) (A) (A) (A) (A)
                 (A) (A) (A) (A) (A) (A) (A) (A) (A) (A) (A) (A)
                 (A) (A) (A) (A) (A) (A) (A) (A) (A) (A) (A) (A)
                 (A) (A) (A) (A) (A) (A) (A) (A) (A) (A) (A) (A)
                 (A) (A) (A) (A) (A) (A) (A) (A) (A) (A) (A) (A)
                 (A) (A) (A) (A) (A) (A) (A) (A) (A) (A) (A) (A)
                 (A) (A) (A) (A) (A) (A) (A) (A) (A) (A) (A) (A)
                 (A) (A) (A) (A) (A) (A) (A) (A) (A) (A) (A) (A)
                 (A) (A) (A) (A) (A) (A) (A) (A) (A) (A) (A) (A)
                 (A) (A) (A) (A) (A) (A) (A) (A) (A) (A) (A) (A)
                 (A) (A) (A) (A) (A) (A) (A) (A) (A) (A) (A) (A)
                 (A) (A) (A) (A) (A) (A) (A) (A) (A) (A) (A) (A)
                 (A) (A) (A) (A) (A) (A) (A) (A) (A) (A) (A) (A)
                 (A) (A) (A) (A) (A) (A) (A) (A) (A) (A) (A) (A)
                 (A) (A) (A) (A) (A) (A) (A) (A) (A) (A) (A) (A)
                 (A) (A) (A) (A) (A) (A) (A) (A) (A) (A) (A) (A)
                 (A) (A) (A) (A) (A) (A) (A) (A) (A) (A) (A) (A)
                 (A) (A) (A) (A) (A) (A) (A) (A) (A) (A) (A) (A)
                 (A) (A) (A) (A) (A) (A) (A) (A) (A) (A) (A) (A)
                 (A) (A) (A) (A) (A) (A) (A) (A) (A) (A) (A) (A)
                 (A) (A) (A) (A) (A) (A) (A) (A) (A) (A) (A) (A)
                 (A) (A) (A) (A) (A) (A) (A) (A) (A) (A) (A) (A)
                 (A) (A) (A) (A) (A) (A) (A) (A) (A) (A) (A) (A)
                 (A) (A) (A) (A) (A) (A) (A) (A) (A) (A) (A) (A)
                 (A) (A) (A) (A) (A) (A) (A) (A) (A) (A) (A) (A)
                 (A) (A) (A) (A) (A) (A) (A) (A) (A) (A) (A) (A)
                 (A) (A) (A) (A) (A) (A) (A) (A) (A) (A) (A) (A)
                 (A) (A) (A) (A) (A) (A) (A) (A) (A) (A) (A) (A)
                 (A) (A) (A) (A) (A) (A) (A) (A) (A) (A) (A) (A)
                 (A) (A) (A) (A) (A) (A) (A) (A) (A) (A) (A) (A)
                 (A) (A) (A) (A) (A) (A) (A) (A) (A) (A) (A) (A)
 The electronic state of the initial guess is 1-A.
 Requested convergence on RMS density matrix=1.00D-08 within 128 cycles.
 Requested convergence on MAX density matrix=1.00D-06.
 Requested convergence on             energy=1.00D-06.
 No special actions if energy rises.
 SCF Done:  E(RB3LYP) =  -1297.92713703     A.U. after   14 cycles
             Convg  =    0.2729D-08             -V/T =  2.0086
 Range of M.O.s used for correlation:     1   547
 NBasis=   547 NAE=    91 NBE=    91 NFC=     0 NFV=     0
 NROrb=    547 NOA=    91 NOB=    91 NVA=   456 NVB=   456

 **** Warning!!: The largest alpha MO coefficient is  0.75545111D+02

          Differentiating once with respect to electric field.
                with respect to dipole field.
          Electric field/nuclear overlap derivatives assumed to be zero.
          There are     3 degrees of freedom in the 1st order CPHF.  IDoFFX=0.
      3 vectors produced by pass  0 Test12= 1.38D-12 3.33D-08 XBig12= 1.19D+02 9.27D-01.
 AX will form     3 AO Fock derivatives at one time.
      3 vectors produced by pass  1 Test12= 1.38D-12 3.33D-08 XBig12= 2.25D+01 3.80D-01.
      3 vectors produced by pass  2 Test12= 1.38D-12 3.33D-08 XBig12= 9.43D+00 2.08D-01.
      3 vectors produced by pass  3 Test12= 1.38D-12 3.33D-08 XBig12= 9.38D-01 8.91D-02.
      3 vectors produced by pass  4 Test12= 1.38D-12 3.33D-08 XBig12= 3.02D-01 5.12D-02.
      3 vectors produced by pass  5 Test12= 1.38D-12 3.33D-08 XBig12= 5.59D-02 2.14D-02.
      3 vectors produced by pass  6 Test12= 1.38D-12 3.33D-08 XBig12= 1.85D-02 1.71D-02.
      3 vectors produced by pass  7 Test12= 1.38D-12 3.33D-08 XBig12= 2.49D-03 6.89D-03.
      3 vectors produced by pass  8 Test12= 1.38D-12 3.33D-08 XBig12= 4.09D-04 1.90D-03.
      3 vectors produced by pass  9 Test12= 1.38D-12 3.33D-08 XBig12= 1.26D-04 1.38D-03.
      3 vectors produced by pass 10 Test12= 1.38D-12 3.33D-08 XBig12= 2.71D-05 4.51D-04.
      3 vectors produced by pass 11 Test12= 1.38D-12 3.33D-08 XBig12= 7.91D-06 2.29D-04.
      3 vectors produced by pass 12 Test12= 1.38D-12 3.33D-08 XBig12= 6.41D-07 7.93D-05.
      3 vectors produced by pass 13 Test12= 1.38D-12 3.33D-08 XBig12= 1.71D-07 2.82D-05.
      3 vectors produced by pass 14 Test12= 1.38D-12 3.33D-08 XBig12= 4.51D-08 1.63D-05.
      3 vectors produced by pass 15 Test12= 1.38D-12 3.33D-08 XBig12= 1.22D-08 7.96D-06.
      3 vectors produced by pass 16 Test12= 1.38D-12 3.33D-08 XBig12= 9.55D-10 2.75D-06.
      3 vectors produced by pass 17 Test12= 1.38D-12 3.33D-08 XBig12= 1.62D-10 9.60D-07.
      3 vectors produced by pass 18 Test12= 1.38D-12 3.33D-08 XBig12= 5.46D-11 4.52D-07.
      3 vectors produced by pass 19 Test12= 1.38D-12 3.33D-08 XBig12= 1.15D-11 2.98D-07.
      2 vectors produced by pass 20 Test12= 1.38D-12 3.33D-08 XBig12= 4.61D-12 2.38D-07.
      2 vectors produced by pass 21 Test12= 1.38D-12 3.33D-08 XBig12= 1.26D-12 8.01D-08.
 Inverted reduced A of dimension    64 with in-core refinement.
 End of Minotr Frequency-dependent properties file   721 does not exist.
 End of Minotr Frequency-dependent properties file   722 does not exist.
 Symmetrizing basis deriv contribution to polar:
 IMax=3 JMax=2 DiffMx= 0.00D+00
 G2DrvN: will do    23 centers at a time, making    2 passes doing MaxLOS=2.
 Calling FoFCou, ICntrl=  3107 FMM=F I1Cent=   0 AccDes= 0.00D+00.
 Calling FoFCou, ICntrl=  3107 FMM=F I1Cent=   0 AccDes= 0.00D+00.
 FoFDir/FoFCou used for L=0 through L=2.
 End of G2Drv Frequency-dependent properties file   721 does not exist.
 End of G2Drv Frequency-dependent properties file   722 does not exist.
          IDoAtm=111111111111111111111111111111111111111111111
          Differentiating once with respect to electric field.
                with respect to dipole field.
          Differentiating once with respect to nuclear coordinates.
          There are   138 degrees of freedom in the 1st order CPHF.  IDoFFX=5.
 Will reuse    3 saved solutions.
    135 vectors produced by pass  0 Test12= 4.15D-14 1.00D-09 XBig12= 2.58D-01 1.31D-01.
 AX will form    68 AO Fock derivatives at one time.
    135 vectors produced by pass  1 Test12= 4.15D-14 1.00D-09 XBig12= 4.19D-02 1.70D-02.
    132 vectors produced by pass  2 Test12= 4.15D-14 1.00D-09 XBig12= 2.44D-04 1.51D-03.
    132 vectors produced by pass  3 Test12= 4.15D-14 1.00D-09 XBig12= 9.08D-07 1.13D-04.
    132 vectors produced by pass  4 Test12= 4.15D-14 1.00D-09 XBig12= 1.31D-09 3.05D-06.
    132 vectors produced by pass  5 Test12= 4.15D-14 1.00D-09 XBig12= 5.06D-12 1.62D-07.
     78 vectors produced by pass  6 Test12= 4.15D-14 1.00D-09 XBig12= 1.23D-13 2.20D-08.
 Inverted reduced A of dimension   876 with in-core refinement.
 Isotropic polarizability for W=    0.000000      186.84 Bohr**3.
 End of Minotr Frequency-dependent properties file   721 does not exist.
 End of Minotr Frequency-dependent properties file   722 does not exist.

 **********************************************************************

            Population analysis using the SCF density.

 **********************************************************************

 Orbital symmetries:
       Occupied  (A) (A) (A) (A) (A) (A) (A) (A) (A) (A) (A) (A)
                 (A) (A) (A) (A) (A) (A) (A) (A) (A) (A) (A) (A)
                 (A) (A) (A) (A) (A) (A) (A) (A) (A) (A) (A) (A)
                 (A) (A) (A) (A) (A) (A) (A) (A) (A) (A) (A) (A)
                 (A) (A) (A) (A) (A) (A) (A) (A) (A) (A) (A) (A)
                 (A) (A) (A) (A) (A) (A) (A) (A) (A) (A) (A) (A)
                 (A) (A) (A) (A) (A) (A) (A) (A) (A) (A) (A) (A)
                 (A) (A) (A) (A) (A) (A) (A)
       Virtual   (A) (A) (A) (A) (A) (A) (A) (A) (A) (A) (A) (A)
                 (A) (A) (A) (A) (A) (A) (A) (A) (A) (A) (A) (A)
                 (A) (A) (A) (A) (A) (A) (A) (A) (A) (A) (A) (A)
                 (A) (A) (A) (A) (A) (A) (A) (A) (A) (A) (A) (A)
                 (A) (A) (A) (A) (A) (A) (A) (A) (A) (A) (A) (A)
                 (A) (A) (A) (A) (A) (A) (A) (A) (A) (A) (A) (A)
                 (A) (A) (A) (A) (A) (A) (A) (A) (A) (A) (A) (A)
                 (A) (A) (A) (A) (A) (A) (A) (A) (A) (A) (A) (A)
                 (A) (A) (A) (A) (A) (A) (A) (A) (A) (A) (A) (A)
                 (A) (A) (A) (A) (A) (A) (A) (A) (A) (A) (A) (A)
                 (A) (A) (A) (A) (A) (A) (A) (A) (A) (A) (A) (A)
                 (A) (A) (A) (A) (A) (A) (A) (A) (A) (A) (A) (A)
                 (A) (A) (A) (A) (A) (A) (A) (A) (A) (A) (A) (A)
                 (A) (A) (A) (A) (A) (A) (A) (A) (A) (A) (A) (A)
                 (A) (A) (A) (A) (A) (A) (A) (A) (A) (A) (A) (A)
                 (A) (A) (A) (A) (A) (A) (A) (A) (A) (A) (A) (A)
                 (A) (A) (A) (A) (A) (A) (A) (A) (A) (A) (A) (A)
                 (A) (A) (A) (A) (A) (A) (A) (A) (A) (A) (A) (A)
                 (A) (A) (A) (A) (A) (A) (A) (A) (A) (A) (A) (A)
                 (A) (A) (A) (A) (A) (A) (A) (A) (A) (A) (A) (A)
                 (A) (A) (A) (A) (A) (A) (A) (A) (A) (A) (A) (A)
                 (A) (A) (A) (A) (A) (A) (A) (A) (A) (A) (A) (A)
                 (A) (A) (A) (A) (A) (A) (A) (A) (A) (A) (A) (A)
                 (A) (A) (A) (A) (A) (A) (A) (A) (A) (A) (A) (A)
                 (A) (A) (A) (A) (A) (A) (A) (A) (A) (A) (A) (A)
                 (A) (A) (A) (A) (A) (A) (A) (A) (A) (A) (A) (A)
                 (A) (A) (A) (A) (A) (A) (A) (A) (A) (A) (A) (A)
                 (A) (A) (A) (A) (A) (A) (A) (A) (A) (A) (A) (A)
                 (A) (A) (A) (A) (A) (A) (A) (A) (A) (A) (A) (A)
                 (A) (A) (A) (A) (A) (A) (A) (A) (A) (A) (A) (A)
                 (A) (A) (A) (A) (A) (A) (A) (A) (A) (A) (A) (A)
                 (A) (A) (A) (A) (A) (A) (A) (A) (A) (A) (A) (A)
                 (A) (A) (A) (A) (A) (A) (A) (A) (A) (A) (A) (A)
                 (A) (A) (A) (A) (A) (A) (A) (A) (A) (A) (A) (A)
                 (A) (A) (A) (A) (A) (A) (A) (A) (A) (A) (A) (A)
                 (A) (A) (A) (A) (A) (A) (A) (A) (A) (A) (A) (A)
                 (A) (A) (A) (A) (A) (A) (A) (A) (A) (A) (A) (A)
                 (A) (A) (A) (A) (A) (A) (A) (A) (A) (A) (A) (A)
 The electronic state is 1-A.
 Alpha  occ. eigenvalues --  -19.20378 -19.20059 -19.19661 -19.19602 -19.19303
 Alpha  occ. eigenvalues --  -19.18096 -19.17388 -19.16900 -19.15772 -19.14728
 Alpha  occ. eigenvalues --  -19.13523 -10.31854 -10.31124 -10.26915 -10.26108
 Alpha  occ. eigenvalues --  -10.26048 -10.25996 -10.25505 -10.24926 -10.24891
 Alpha  occ. eigenvalues --  -10.24867 -10.24208 -10.23826  -1.10964  -1.09692
 Alpha  occ. eigenvalues --   -1.06143  -1.05504  -1.04854  -1.04216  -1.02963
 Alpha  occ. eigenvalues --   -1.02644  -1.02124  -1.00434  -0.99906  -0.82484
 Alpha  occ. eigenvalues --   -0.81113  -0.79792  -0.78560  -0.71951  -0.70112
 Alpha  occ. eigenvalues --   -0.67564  -0.65618  -0.63397  -0.63085  -0.61742
 Alpha  occ. eigenvalues --   -0.60683  -0.57067  -0.56403  -0.55333  -0.55197
 Alpha  occ. eigenvalues --   -0.54471  -0.53490  -0.53339  -0.51225  -0.51103
 Alpha  occ. eigenvalues --   -0.50562  -0.50268  -0.49639  -0.48760  -0.46787
 Alpha  occ. eigenvalues --   -0.46576  -0.45413  -0.44406  -0.43608  -0.43238
 Alpha  occ. eigenvalues --   -0.42771  -0.41993  -0.41213  -0.40083  -0.39703
 Alpha  occ. eigenvalues --   -0.39548  -0.38357  -0.37794  -0.36942  -0.36362
 Alpha  occ. eigenvalues --   -0.35847  -0.35709  -0.34853  -0.34166  -0.33939
 Alpha  occ. eigenvalues --   -0.33308  -0.31232  -0.31098  -0.30521  -0.30099
 Alpha  occ. eigenvalues --   -0.29554  -0.28723  -0.27993  -0.27620  -0.27067
 Alpha  occ. eigenvalues --   -0.25805
 Alpha virt. eigenvalues --   -0.02306  -0.02089  -0.01975  -0.00179   0.00128
 Alpha virt. eigenvalues --    0.00875   0.01666   0.02117   0.03053   0.03528
 Alpha virt. eigenvalues --    0.03922   0.04474   0.05017   0.05420   0.05744
 Alpha virt. eigenvalues --    0.06007   0.06641   0.07482   0.07729   0.08064
 Alpha virt. eigenvalues --    0.08339   0.08878   0.09014   0.09451   0.09993
 Alpha virt. eigenvalues --    0.10610   0.11036   0.11444   0.11874   0.12146
 Alpha virt. eigenvalues --    0.12385   0.12951   0.13505   0.13659   0.13757
 Alpha virt. eigenvalues --    0.14070   0.14456   0.14655   0.15154   0.15228
 Alpha virt. eigenvalues --    0.15754   0.16462   0.16866   0.17085   0.17170
 Alpha virt. eigenvalues --    0.17254   0.17646   0.17914   0.18178   0.18361
 Alpha virt. eigenvalues --    0.18823   0.19037   0.19444   0.20164   0.20302
 Alpha virt. eigenvalues --    0.20808   0.20935   0.21100   0.21275   0.21766
 Alpha virt. eigenvalues --    0.21881   0.22302   0.22718   0.23212   0.23304
 Alpha virt. eigenvalues --    0.23568   0.23842   0.24071   0.24138   0.24619
 Alpha virt. eigenvalues --    0.24730   0.25135   0.25333   0.25843   0.26151
 Alpha virt. eigenvalues --    0.26200   0.26703   0.26879   0.27126   0.27207
 Alpha virt. eigenvalues --    0.27302   0.27956   0.28134   0.28545   0.28971
 Alpha virt. eigenvalues --    0.29241   0.29605   0.29943   0.30367   0.30808
 Alpha virt. eigenvalues --    0.31127   0.31696   0.32010   0.32183   0.32317
 Alpha virt. eigenvalues --    0.32660   0.32799   0.33508   0.33702   0.34146
 Alpha virt. eigenvalues --    0.34357   0.34737   0.35132   0.35638   0.35866
 Alpha virt. eigenvalues --    0.36230   0.36549   0.36758   0.37250   0.37749
 Alpha virt. eigenvalues --    0.38270   0.38921   0.39161   0.39527   0.39670
 Alpha virt. eigenvalues --    0.39888   0.40662   0.41427   0.41636   0.42294
 Alpha virt. eigenvalues --    0.42644   0.42796   0.42967   0.43309   0.44026
 Alpha virt. eigenvalues --    0.45249   0.45898   0.46656   0.47363   0.47554
 Alpha virt. eigenvalues --    0.48108   0.49849   0.50077   0.50497   0.50765
 Alpha virt. eigenvalues --    0.51341   0.52562   0.55559   0.62646   0.63679
 Alpha virt. eigenvalues --    0.64412   0.66819   0.67969   0.68572   0.69834
 Alpha virt. eigenvalues --    0.70415   0.71746   0.72186   0.73178   0.73707
 Alpha virt. eigenvalues --    0.74611   0.75834   0.76019   0.76542   0.79363
 Alpha virt. eigenvalues --    0.80287   0.80868   0.81518   0.81731   0.83392
 Alpha virt. eigenvalues --    0.85360   0.86465   0.87499   0.89666   0.90289
 Alpha virt. eigenvalues --    0.91543   0.92829   0.93284   0.94050   0.94869
 Alpha virt. eigenvalues --    0.96007   0.96598   0.98174   0.99344   1.00273
 Alpha virt. eigenvalues --    1.01701   1.02098   1.03252   1.03800   1.04261
 Alpha virt. eigenvalues --    1.04513   1.05265   1.06702   1.07111   1.07593
 Alpha virt. eigenvalues --    1.08326   1.08523   1.09477   1.10060   1.10315
 Alpha virt. eigenvalues --    1.11821   1.12158   1.13528   1.15054   1.15704
 Alpha virt. eigenvalues --    1.16694   1.18177   1.19069   1.19557   1.21417
 Alpha virt. eigenvalues --    1.22699   1.22987   1.24288   1.25027   1.25219
 Alpha virt. eigenvalues --    1.26137   1.26872   1.27567   1.28443   1.28746
 Alpha virt. eigenvalues --    1.29097   1.29746   1.30805   1.31116   1.31944
 Alpha virt. eigenvalues --    1.32669   1.33418   1.33854   1.34627   1.35136
 Alpha virt. eigenvalues --    1.35832   1.36315   1.36620   1.37466   1.38044
 Alpha virt. eigenvalues --    1.39793   1.40793   1.41804   1.41999   1.43105
 Alpha virt. eigenvalues --    1.43995   1.45853   1.46161   1.47275   1.48173
 Alpha virt. eigenvalues --    1.48324   1.50093   1.50353   1.52143   1.52618
 Alpha virt. eigenvalues --    1.53363   1.55387   1.55980   1.57409   1.57583
 Alpha virt. eigenvalues --    1.58166   1.58379   1.59379   1.59881   1.60158
 Alpha virt. eigenvalues --    1.62628   1.62663   1.64742   1.65420   1.66900
 Alpha virt. eigenvalues --    1.67320   1.67863   1.68328   1.69836   1.69922
 Alpha virt. eigenvalues --    1.71001   1.71651   1.72495   1.72704   1.74179
 Alpha virt. eigenvalues --    1.74631   1.75424   1.76765   1.76983   1.77799
 Alpha virt. eigenvalues --    1.78428   1.78741   1.79425   1.81100   1.81732
 Alpha virt. eigenvalues --    1.83821   1.84575   1.85602   1.85735   1.86292
 Alpha virt. eigenvalues --    1.87001   1.88516   1.89431   1.89659   1.90248
 Alpha virt. eigenvalues --    1.91221   1.91782   1.91992   1.93449   1.94105
 Alpha virt. eigenvalues --    1.95320   1.96124   1.96918   1.97201   1.98727
 Alpha virt. eigenvalues --    2.00152   2.00621   2.01140   2.02028   2.02243
 Alpha virt. eigenvalues --    2.03842   2.04837   2.05642   2.06139   2.06915
 Alpha virt. eigenvalues --    2.08853   2.09211   2.09842   2.10964   2.12983
 Alpha virt. eigenvalues --    2.13138   2.14360   2.14790   2.15371   2.17065
 Alpha virt. eigenvalues --    2.17384   2.18223   2.19175   2.19906   2.21106
 Alpha virt. eigenvalues --    2.21673   2.23148   2.24785   2.26307   2.26867
 Alpha virt. eigenvalues --    2.29887   2.32321   2.32548   2.33651   2.34986
 Alpha virt. eigenvalues --    2.36573   2.37571   2.37950   2.39987   2.40238
 Alpha virt. eigenvalues --    2.40684   2.41855   2.42427   2.42750   2.45485
 Alpha virt. eigenvalues --    2.46043   2.47461   2.47941   2.48927   2.50024
 Alpha virt. eigenvalues --    2.51467   2.52421   2.54507   2.54944   2.55469
 Alpha virt. eigenvalues --    2.57145   2.58351   2.59178   2.60144   2.60940
 Alpha virt. eigenvalues --    2.61523   2.62171   2.62449   2.64035   2.65501
 Alpha virt. eigenvalues --    2.66487   2.68148   2.68487   2.69006   2.69181
 Alpha virt. eigenvalues --    2.70494   2.72288   2.73425   2.74015   2.75091
 Alpha virt. eigenvalues --    2.77459   2.77537   2.78426   2.80125   2.80646
 Alpha virt. eigenvalues --    2.81961   2.83422   2.84396   2.84750   2.85844
 Alpha virt. eigenvalues --    2.86658   2.87846   2.88257   2.88962   2.90134
 Alpha virt. eigenvalues --    2.90295   2.91230   2.91876   2.92543   2.94382
 Alpha virt. eigenvalues --    2.94766   2.96253   2.97156   2.98727   2.99490
 Alpha virt. eigenvalues --    3.01544   3.02257   3.04594   3.05421   3.06373
 Alpha virt. eigenvalues --    3.07099   3.08553   3.10443   3.11021   3.12868
 Alpha virt. eigenvalues --    3.17399   3.19219   3.23279   3.25127   3.30127
 Alpha virt. eigenvalues --    3.31861   3.37208   3.37570   3.39264   3.41049
 Alpha virt. eigenvalues --    3.44358   3.45509   3.46436   3.47431   3.48327
 Alpha virt. eigenvalues --    3.49440   3.50534   3.53476   3.53579   3.54423
 Alpha virt. eigenvalues --    3.56309   3.57781   3.61231   3.61949   3.65116
 Alpha virt. eigenvalues --    3.65570   3.73732   3.78567   4.30495   4.34183
 Alpha virt. eigenvalues --    4.35161   4.36063   4.41970   4.44737   4.46184
 Alpha virt. eigenvalues --    4.48982   4.50085   4.54188   4.56761   4.57390
 Alpha virt. eigenvalues --    4.57949   4.60713   4.64582   4.66496   4.73090
 Alpha virt. eigenvalues --    4.77639   4.82030   4.84874   4.87044   4.89444
 Alpha virt. eigenvalues --    4.94844
          Condensed to atoms (all electrons):
              1          2          3          4          5          6
     1  O    8.261989   0.184337  -0.055063  -0.010334   0.023903   0.116629
     2  C    0.184337   9.736401  -1.029501   0.054033  -0.117916  -3.372311
     3  C   -0.055063  -1.029501   8.474551   0.189542   0.088216  -0.011333
     4  O   -0.010334   0.054033   0.189542   8.250984   0.197375  -0.177276
     5  H    0.023903  -0.117916   0.088216   0.197375   0.426874  -0.003959
     6  C    0.116629  -3.372311  -0.011333  -0.177276  -0.003959  17.378042
     7  O   -0.001707   0.072686  -0.182973   0.019055  -0.000690   0.249075
     8  H    0.000027  -0.015139   0.026943  -0.001262   0.000008   0.050976
     9  C    0.048806   0.717294  -0.341848   0.008136  -0.001668   0.013491
    10  O   -0.003716   0.009588   0.010287   0.000042  -0.000019  -0.006592
    11  H    0.000723  -0.009661  -0.001497   0.000002   0.000000   0.001077
    12  C   -0.249747  -2.339872  -0.448720  -0.002597   0.025722   0.686944
    13  O    0.008002   0.031916  -0.017366   0.000752  -0.000183  -0.122881
    14  C   -0.003684   1.556334  -0.657747   0.033800   0.007648  -6.608930
    15  O    0.000122  -0.042264   0.034469  -0.000433   0.000047   0.129895
    16  C    0.002237  -0.074067   0.004706  -0.002210   0.000812  -0.976994
    17  C   -0.000903   0.048620   0.009032   0.001985   0.000052  -0.293235
    18  O    0.000032   0.008598  -0.005150   0.000010   0.000000  -0.013698
    19  H   -0.000032  -0.008437   0.007749  -0.000016   0.000000   0.055901
    20  C    0.000018   0.008012   0.001922   0.000066   0.000001  -0.104451
    21  O    0.000000  -0.000071  -0.000157   0.000000   0.000000  -0.000438
    22  H    0.000000   0.000001  -0.000001   0.000000   0.000000  -0.000126
    23  C   -0.000004   0.012539  -0.024295   0.000366  -0.000067  -0.403257
    24  O    0.000000   0.006926  -0.010112  -0.000008  -0.000003   0.010662
    25  H    0.000000  -0.000117   0.000974  -0.000005   0.000000  -0.005992
    26  C   -0.000117  -0.033869  -0.048994  -0.000473   0.000095  -0.113792
    27  O    0.000000  -0.000304   0.000803   0.000000   0.000000   0.009352
    28  C    0.000009  -0.003637   0.001383   0.000021   0.000000   0.013627
    29  O    0.000000  -0.000002   0.000008   0.000000   0.000000  -0.000122
    30  H    0.232588   0.075973  -0.011904   0.000283  -0.002014  -0.005774
    31  H    0.000000   0.000000   0.000000   0.000000   0.000000   0.000011
    32  H    0.000000   0.000030   0.000032   0.000000   0.000000  -0.000691
    33  H    0.000000  -0.000187   0.000644   0.000005   0.000000   0.001489
    34  H    0.000000   0.000203  -0.000178   0.000000   0.000000   0.002776
    35  H    0.000000  -0.000192  -0.002720   0.000022   0.000000   0.013081
    36  H    0.000000   0.000353  -0.000446   0.000000   0.000000   0.003246
    37  H    0.000000   0.000007   0.000024   0.000000   0.000000   0.000533
    38  H    0.000000   0.000002  -0.000002   0.000000   0.000000   0.000457
    39  H    0.000331  -0.023420  -0.003145   0.000032   0.000000  -0.001911
    40  H    0.004070   0.017801  -0.005086  -0.000050   0.000002   0.016482
    41  H    0.007173   0.019650  -0.039320   0.000145   0.000007  -0.024478
    42  H   -0.044135   0.457131  -0.098250   0.001536  -0.000559  -0.029911
    43  H   -0.008930   0.165334   0.317908  -0.047107  -0.000647  -0.423233
    44  H   -0.001166   0.114044  -0.193072   0.008341  -0.000011   0.103513
    45  H   -0.000103   0.038769  -0.056129   0.000223   0.000002  -0.217708
              7          8          9         10         11         12
     1  O   -0.001707   0.000027   0.048806  -0.003716   0.000723  -0.249747
     2  C    0.072686  -0.015139   0.717294   0.009588  -0.009661  -2.339872
     3  C   -0.182973   0.026943  -0.341848   0.010287  -0.001497  -0.448720
     4  O    0.019055  -0.001262   0.008136   0.000042   0.000002  -0.002597
     5  H   -0.000690   0.000008  -0.001668  -0.000019   0.000000   0.025722
     6  C    0.249075   0.050976   0.013491  -0.006592   0.001077   0.686944
     7  O    8.214415   0.190843   0.004638   0.000023   0.000000   0.019265
     8  H    0.190843   0.363042  -0.000022   0.000000   0.000000  -0.000216
     9  C    0.004638  -0.000022   7.272782   0.048795   0.027066  -2.614037
    10  O    0.000023   0.000000   0.048795   8.340737   0.190451   0.020964
    11  H    0.000000   0.000000   0.027066   0.190451   0.447006   0.012521
    12  C    0.019265  -0.000216  -2.614037   0.020964   0.012521  12.313494
    13  O    0.007581   0.001559   0.071253   0.001350  -0.000591  -0.360553
    14  C   -0.049986  -0.060255  -0.289164   0.021601  -0.005609  -0.916648
    15  O   -0.015813   0.024041  -0.018365  -0.000034   0.000003   0.048382
    16  C    0.024556   0.015529  -0.068404  -0.003303  -0.000329  -0.146143
    17  C    0.016831  -0.001589   0.009364   0.000668   0.000023  -0.031552
    18  O   -0.000042  -0.000038   0.013710   0.000010  -0.000003  -0.034674
    19  H   -0.000028  -0.000032  -0.010587  -0.000034  -0.000004   0.021746
    20  C    0.004430   0.001071  -0.003065   0.000079   0.000008   0.004917
    21  O   -0.000010  -0.000001   0.000357  -0.000001   0.000000  -0.000639
    22  H    0.000000   0.000000  -0.000006   0.000000   0.000000   0.000081
    23  C    0.004131   0.012439   0.000397  -0.000021  -0.000001  -0.002586
    24  O   -0.038935  -0.008489   0.000367   0.000000   0.000000  -0.002396
    25  H    0.001905  -0.002273  -0.000001   0.000000   0.000000  -0.000095
    26  C   -0.007956  -0.030987   0.009009  -0.000143   0.000008   0.111809
    27  O    0.000158   0.000039   0.000113   0.000000   0.000000   0.000846
    28  C   -0.000406  -0.000062  -0.001692  -0.000001  -0.000001   0.002697
    29  O   -0.000005  -0.000001   0.000008   0.000000   0.000000   0.000159
    30  H    0.000003   0.000000  -0.014878   0.000538  -0.000020  -0.027850
    31  H    0.000000   0.000000   0.000000   0.000000   0.000000  -0.000001
    32  H   -0.000679   0.000387  -0.000004   0.000000   0.000000  -0.000053
    33  H    0.002142   0.000793  -0.000015   0.000000   0.000000   0.000631
    34  H    0.000064   0.000030   0.000022   0.000000   0.000000   0.000826
    35  H   -0.001052  -0.000060   0.000405   0.000003   0.000000   0.008324
    36  H    0.000018   0.000005  -0.000058   0.000000   0.000000  -0.000804
    37  H    0.000001   0.000000  -0.000103   0.000000   0.000000   0.000328
    38  H    0.000000   0.000000  -0.000002   0.000000   0.000000  -0.000011
    39  H   -0.000015   0.000000   0.405928  -0.039295  -0.014002  -0.000468
    40  H    0.000001   0.000000   0.608226  -0.067970  -0.000578  -0.288867
    41  H    0.000088   0.000003   0.086393   0.007200  -0.000151   0.134078
    42  H    0.000317   0.000003   0.033654   0.000595  -0.000002  -0.156403
    43  H    0.011320  -0.000147   0.028441   0.000036   0.000000  -0.050915
    44  H   -0.038924  -0.004689   0.018091   0.000024   0.000000  -0.015045
    45  H    0.004924  -0.002239   0.024044   0.000184   0.000000   0.000262
             13         14         15         16         17         18
     1  O    0.008002  -0.003684   0.000122   0.002237  -0.000903   0.000032
     2  C    0.031916   1.556334  -0.042264  -0.074067   0.048620   0.008598
     3  C   -0.017366  -0.657747   0.034469   0.004706   0.009032  -0.005150
     4  O    0.000752   0.033800  -0.000433  -0.002210   0.001985   0.000010
     5  H   -0.000183   0.007648   0.000047   0.000812   0.000052   0.000000
     6  C   -0.122881  -6.608930   0.129895  -0.976994  -0.293235  -0.013698
     7  O    0.007581  -0.049986  -0.015813   0.024556   0.016831  -0.000042
     8  H    0.001559  -0.060255   0.024041   0.015529  -0.001589  -0.000038
     9  C    0.071253  -0.289164  -0.018365  -0.068404   0.009364   0.013710
    10  O    0.001350   0.021601  -0.000034  -0.003303   0.000668   0.000010
    11  H   -0.000591  -0.005609   0.000003  -0.000329   0.000023  -0.000003
    12  C   -0.360553  -0.916648   0.048382  -0.146143  -0.031552  -0.034674
    13  O    8.540993   0.196255  -0.028551   0.206304  -0.119400   0.042718
    14  C    0.196255  13.475557   0.151519  -1.437741   0.497143  -0.084439
    15  O   -0.028551   0.151519   8.314125  -0.277295   0.128487  -0.005506
    16  C    0.206304  -1.437741  -0.277295  15.441519  -3.309680  -0.022368
    17  C   -0.119400   0.497143   0.128487  -3.309680  10.324837   0.337007
    18  O    0.042718  -0.084439  -0.005506  -0.022368   0.337007   8.293007
    19  H   -0.010993   0.030520   0.030187  -0.150551   0.035475   0.157026
    20  C   -0.004687  -0.624983   0.067228  -1.768698  -1.106154  -0.147618
    21  O    0.000005   0.005757   0.000177   0.037541  -0.070876   0.018757
    22  H    0.000004  -0.000564   0.000043  -0.012345  -0.005997  -0.000587
    23  C    0.033137   0.205422  -0.065170   0.415347  -0.593060   0.008403
    24  O   -0.001836   0.028629  -0.009300   0.011055   0.000383   0.000106
    25  H    0.000020  -0.001986   0.000944  -0.004926  -0.001425   0.000001
    26  C   -0.034655  -0.778857  -0.002251  -2.915790   0.021439   0.045485
    27  O    0.000218   0.030358   0.010432  -0.050603  -0.053011   0.001294
    28  C    0.003621  -0.048852   0.013703   0.692092  -0.023658   0.002665
    29  O    0.000018   0.004285   0.000213   0.006407  -0.027470  -0.001013
    30  H   -0.000915   0.004628  -0.000001   0.000524  -0.000068   0.000000
    31  H    0.000000   0.000352  -0.000005  -0.001157   0.024127  -0.000023
    32  H   -0.000004   0.003663   0.000258   0.020429  -0.006922   0.000053
    33  H    0.000183   0.009933   0.004559  -0.028522   0.013533  -0.000044
    34  H   -0.000120   0.067146   0.006731  -0.041384   0.004337  -0.000329
    35  H    0.002019  -0.018922  -0.061546   0.257224   0.007643   0.000565
    36  H    0.002174   0.026407  -0.019445   0.043057   0.264612  -0.062430
    37  H    0.000440  -0.004685  -0.001144   0.086340  -0.244959   0.004709
    38  H   -0.000005   0.006036   0.000122   0.090468  -0.012105  -0.001002
    39  H   -0.008407   0.000435  -0.000057   0.006328  -0.000224  -0.000628
    40  H    0.005750  -0.004417  -0.000367  -0.002531  -0.000139   0.000205
    41  H   -0.026082   0.080212  -0.000923   0.005080   0.006352   0.000642
    42  H    0.015983   0.061490  -0.000694  -0.004256   0.001802   0.000108
    43  H    0.007758   0.206179  -0.001180   0.010228   0.004212   0.000112
    44  H    0.013334   0.166104  -0.013118   0.050125   0.008724   0.000250
    45  H   -0.064349   0.422976  -0.080809  -0.001349   0.063140   0.003217
             19         20         21         22         23         24
     1  O   -0.000032   0.000018   0.000000   0.000000  -0.000004   0.000000
     2  C   -0.008437   0.008012  -0.000071   0.000001   0.012539   0.006926
     3  C    0.007749   0.001922  -0.000157  -0.000001  -0.024295  -0.010112
     4  O   -0.000016   0.000066   0.000000   0.000000   0.000366  -0.000008
     5  H    0.000000   0.000001   0.000000   0.000000  -0.000067  -0.000003
     6  C    0.055901  -0.104451  -0.000438  -0.000126  -0.403257   0.010662
     7  O   -0.000028   0.004430  -0.000010   0.000000   0.004131  -0.038935
     8  H   -0.000032   0.001071  -0.000001   0.000000   0.012439  -0.008489
     9  C   -0.010587  -0.003065   0.000357  -0.000006   0.000397   0.000367
    10  O   -0.000034   0.000079  -0.000001   0.000000  -0.000021   0.000000
    11  H   -0.000004   0.000008   0.000000   0.000000  -0.000001   0.000000
    12  C    0.021746   0.004917  -0.000639   0.000081  -0.002586  -0.002396
    13  O   -0.010993  -0.004687   0.000005   0.000004   0.033137  -0.001836
    14  C    0.030520  -0.624983   0.005757  -0.000564   0.205422   0.028629
    15  O    0.030187   0.067228   0.000177   0.000043  -0.065170  -0.009300
    16  C   -0.150551  -1.768698   0.037541  -0.012345   0.415347   0.011055
    17  C    0.035475  -1.106154  -0.070876  -0.005997  -0.593060   0.000383
    18  O    0.157026  -0.147618   0.018757  -0.000587   0.008403   0.000106
    19  H    0.384834   0.028376  -0.001836   0.000009  -0.010314  -0.000013
    20  C    0.028376   9.768679   0.125744   0.046914   0.068503  -0.003788
    21  O   -0.001836   0.125744   8.272673   0.181908   0.001011   0.000017
    22  H    0.000009   0.046914   0.181908   0.446102  -0.000301   0.000000
    23  C   -0.010314   0.068503   0.001011  -0.000301   6.488855  -0.074437
    24  O   -0.000013  -0.003788   0.000017   0.000000  -0.074437   8.502797
    25  H    0.000000   0.000401   0.000000   0.000000   0.013703   0.207045
    26  C    0.010791   0.841221   0.013456  -0.002496  -0.906806   0.084081
    27  O   -0.000026  -0.174994   0.005656   0.000072  -0.086764  -0.000537
    28  C   -0.001567  -1.073495  -0.042295  -0.010593  -0.082004   0.006213
    29  O    0.000045  -0.123530  -0.003954   0.018254  -0.004412   0.000047
    30  H    0.000000   0.000002   0.000000   0.000000   0.000006   0.000000
    31  H    0.000000  -0.044546   0.000357  -0.002037   0.001076   0.000000
    32  H    0.000000   0.002163  -0.000007   0.000000   0.478942  -0.043644
    33  H    0.000001  -0.002089  -0.000002   0.000000   0.530400  -0.083246
    34  H    0.000037  -0.034286  -0.000041   0.000005   0.022947   0.004937
    35  H   -0.000949   0.024988  -0.000462   0.000006   0.020497  -0.000103
    36  H   -0.002751  -0.131065   0.000791  -0.000263   0.042595  -0.000080
    37  H   -0.000055   0.457658  -0.047988  -0.006751   0.017171  -0.000004
    38  H    0.000004  -0.135807   0.004794  -0.000352  -0.001860   0.000034
    39  H    0.000538  -0.000466  -0.000004   0.000000   0.000024   0.000000
    40  H    0.000004  -0.000015   0.000000   0.000000  -0.000003   0.000000
    41  H    0.000093   0.000516   0.000001   0.000000   0.000037   0.000006
    42  H   -0.000014   0.000015   0.000000   0.000000   0.000075   0.000011
    43  H    0.000001   0.000169   0.000000   0.000000   0.000764   0.000102
    44  H   -0.000051   0.001057   0.000000   0.000000   0.009213   0.001009
    45  H   -0.002321   0.017871   0.000031   0.000000   0.006400   0.001559
             25         26         27         28         29         30
     1  O    0.000000  -0.000117   0.000000   0.000009   0.000000   0.232588
     2  C   -0.000117  -0.033869  -0.000304  -0.003637  -0.000002   0.075973
     3  C    0.000974  -0.048994   0.000803   0.001383   0.000008  -0.011904
     4  O   -0.000005  -0.000473   0.000000   0.000021   0.000000   0.000283
     5  H    0.000000   0.000095   0.000000   0.000000   0.000000  -0.002014
     6  C   -0.005992  -0.113792   0.009352   0.013627  -0.000122  -0.005774
     7  O    0.001905  -0.007956   0.000158  -0.000406  -0.000005   0.000003
     8  H   -0.002273  -0.030987   0.000039  -0.000062  -0.000001   0.000000
     9  C   -0.000001   0.009009   0.000113  -0.001692   0.000008  -0.014878
    10  O    0.000000  -0.000143   0.000000  -0.000001   0.000000   0.000538
    11  H    0.000000   0.000008   0.000000  -0.000001   0.000000  -0.000020
    12  C   -0.000095   0.111809   0.000846   0.002697   0.000159  -0.027850
    13  O    0.000020  -0.034655   0.000218   0.003621   0.000018  -0.000915
    14  C   -0.001986  -0.778857   0.030358  -0.048852   0.004285   0.004628
    15  O    0.000944  -0.002251   0.010432   0.013703   0.000213  -0.000001
    16  C   -0.004926  -2.915790  -0.050603   0.692092   0.006407   0.000524
    17  C   -0.001425   0.021439  -0.053011  -0.023658  -0.027470  -0.000068
    18  O    0.000001   0.045485   0.001294   0.002665  -0.001013   0.000000
    19  H    0.000000   0.010791  -0.000026  -0.001567   0.000045   0.000000
    20  C    0.000401   0.841221  -0.174994  -1.073495  -0.123530   0.000002
    21  O    0.000000   0.013456   0.005656  -0.042295  -0.003954   0.000000
    22  H    0.000000  -0.002496   0.000072  -0.010593   0.018254   0.000000
    23  C    0.013703  -0.906806  -0.086764  -0.082004  -0.004412   0.000006
    24  O    0.207045   0.084081  -0.000537   0.006213   0.000047   0.000000
    25  H    0.405369   0.018694  -0.000203  -0.001465   0.000001   0.000000
    26  C    0.018694  10.520581   0.232165  -0.685879  -0.058558  -0.000016
    27  O   -0.000203   0.232165   8.313683   0.180853  -0.034603   0.000000
    28  C   -0.001465  -0.685879   0.180853   5.922278   0.356835   0.000000
    29  O    0.000001  -0.058558  -0.034603   0.356835   8.251858   0.000000
    30  H    0.000000  -0.000016   0.000000   0.000000   0.000000   0.392083
    31  H    0.000000   0.007461  -0.000097   0.021732   0.231357   0.000000
    32  H   -0.011020  -0.114501  -0.004975  -0.001194  -0.000244   0.000000
    33  H   -0.002036  -0.198321   0.011709   0.013217  -0.000071   0.000000
    34  H   -0.000137   0.202359  -0.031581   0.038412  -0.000216   0.000000
    35  H   -0.000008  -0.040834   0.007303   0.004406  -0.000342   0.000000
    36  H    0.000000   0.035424   0.002029  -0.020458  -0.000003   0.000000
    37  H    0.000000   0.016377   0.003031  -0.038596  -0.012222   0.000000
    38  H    0.000000  -0.064453  -0.057338   0.451481  -0.046881   0.000000
    39  H    0.000000   0.000118   0.000000   0.000040   0.000000  -0.000012
    40  H    0.000000  -0.000227   0.000000   0.000003   0.000000  -0.000245
    41  H    0.000000  -0.000028   0.000000  -0.000050   0.000000   0.000014
    42  H    0.000000  -0.000094   0.000000  -0.000007   0.000000  -0.011289
    43  H    0.000000  -0.000684   0.000000  -0.000044   0.000000   0.000076
    44  H   -0.000003  -0.007421  -0.000001  -0.000236   0.000000   0.000020
    45  H    0.000013   0.021447   0.000413  -0.002140  -0.000006   0.000003
             31         32         33         34         35         36
     1  O    0.000000   0.000000   0.000000   0.000000   0.000000   0.000000
     2  C    0.000000   0.000030  -0.000187   0.000203  -0.000192   0.000353
     3  C    0.000000   0.000032   0.000644  -0.000178  -0.002720  -0.000446
     4  O    0.000000   0.000000   0.000005   0.000000   0.000022   0.000000
     5  H    0.000000   0.000000   0.000000   0.000000   0.000000   0.000000
     6  C    0.000011  -0.000691   0.001489   0.002776   0.013081   0.003246
     7  O    0.000000  -0.000679   0.002142   0.000064  -0.001052   0.000018
     8  H    0.000000   0.000387   0.000793   0.000030  -0.000060   0.000005
     9  C    0.000000  -0.000004  -0.000015   0.000022   0.000405  -0.000058
    10  O    0.000000   0.000000   0.000000   0.000000   0.000003   0.000000
    11  H    0.000000   0.000000   0.000000   0.000000   0.000000   0.000000
    12  C   -0.000001  -0.000053   0.000631   0.000826   0.008324  -0.000804
    13  O    0.000000  -0.000004   0.000183  -0.000120   0.002019   0.002174
    14  C    0.000352   0.003663   0.009933   0.067146  -0.018922   0.026407
    15  O   -0.000005   0.000258   0.004559   0.006731  -0.061546  -0.019445
    16  C   -0.001157   0.020429  -0.028522  -0.041384   0.257224   0.043057
    17  C    0.024127  -0.006922   0.013533   0.004337   0.007643   0.264612
    18  O   -0.000023   0.000053  -0.000044  -0.000329   0.000565  -0.062430
    19  H    0.000000   0.000000   0.000001   0.000037  -0.000949  -0.002751
    20  C   -0.044546   0.002163  -0.002089  -0.034286   0.024988  -0.131065
    21  O    0.000357  -0.000007  -0.000002  -0.000041  -0.000462   0.000791
    22  H   -0.002037   0.000000   0.000000   0.000005   0.000006  -0.000263
    23  C    0.001076   0.478942   0.530400   0.022947   0.020497   0.042595
    24  O    0.000000  -0.043644  -0.083246   0.004937  -0.000103  -0.000080
    25  H    0.000000  -0.011020  -0.002036  -0.000137  -0.000008   0.000000
    26  C    0.007461  -0.114501  -0.198321   0.202359  -0.040834   0.035424
    27  O   -0.000097  -0.004975   0.011709  -0.031581   0.007303   0.002029
    28  C    0.021732  -0.001194   0.013217   0.038412   0.004406  -0.020458
    29  O    0.231357  -0.000244  -0.000071  -0.000216  -0.000342  -0.000003
    30  H    0.000000   0.000000   0.000000   0.000000   0.000000   0.000000
    31  H    0.407189  -0.000001  -0.000001   0.000002   0.000001   0.000024
    32  H   -0.000001   0.590892  -0.044032  -0.006389   0.000146   0.000005
    33  H   -0.000001  -0.044032   0.608996   0.006483   0.005152  -0.000005
    34  H    0.000002  -0.006389   0.006483   0.597040   0.005253   0.003924
    35  H    0.000001   0.000146   0.005152   0.005253   0.606392   0.007071
    36  H    0.000024   0.000005  -0.000005   0.003924   0.007071   0.675721
    37  H    0.000754   0.000002  -0.000012   0.000020   0.003198   0.008751
    38  H   -0.007849  -0.000021  -0.000008   0.005742  -0.000020   0.004340
    39  H    0.000000   0.000000   0.000000   0.000000   0.000000   0.000000
    40  H    0.000000   0.000000   0.000000   0.000000   0.000000   0.000000
    41  H    0.000000   0.000000   0.000000   0.000000   0.000003   0.000000
    42  H    0.000000   0.000000   0.000000   0.000000   0.000000   0.000000
    43  H    0.000000   0.000000  -0.000001   0.000000  -0.000009   0.000000
    44  H    0.000000   0.000001  -0.000013  -0.000009  -0.000031  -0.000004
    45  H    0.000000   0.000007  -0.000022  -0.000041   0.016608  -0.000079
             37         38         39         40         41         42
     1  O    0.000000   0.000000   0.000331   0.004070   0.007173  -0.044135
     2  C    0.000007   0.000002  -0.023420   0.017801   0.019650   0.457131
     3  C    0.000024  -0.000002  -0.003145  -0.005086  -0.039320  -0.098250
     4  O    0.000000   0.000000   0.000032  -0.000050   0.000145   0.001536
     5  H    0.000000   0.000000   0.000000   0.000002   0.000007  -0.000559
     6  C    0.000533   0.000457  -0.001911   0.016482  -0.024478  -0.029911
     7  O    0.000001   0.000000  -0.000015   0.000001   0.000088   0.000317
     8  H    0.000000   0.000000   0.000000   0.000000   0.000003   0.000003
     9  C   -0.000103  -0.000002   0.405928   0.608226   0.086393   0.033654
    10  O    0.000000   0.000000  -0.039295  -0.067970   0.007200   0.000595
    11  H    0.000000   0.000000  -0.014002  -0.000578  -0.000151  -0.000002
    12  C    0.000328  -0.000011  -0.000468  -0.288867   0.134078  -0.156403
    13  O    0.000440  -0.000005  -0.008407   0.005750  -0.026082   0.015983
    14  C   -0.004685   0.006036   0.000435  -0.004417   0.080212   0.061490
    15  O   -0.001144   0.000122  -0.000057  -0.000367  -0.000923  -0.000694
    16  C    0.086340   0.090468   0.006328  -0.002531   0.005080  -0.004256
    17  C   -0.244959  -0.012105  -0.000224  -0.000139   0.006352   0.001802
    18  O    0.004709  -0.001002  -0.000628   0.000205   0.000642   0.000108
    19  H   -0.000055   0.000004   0.000538   0.000004   0.000093  -0.000014
    20  C    0.457658  -0.135807  -0.000466  -0.000015   0.000516   0.000015
    21  O   -0.047988   0.004794  -0.000004   0.000000   0.000001   0.000000
    22  H   -0.006751  -0.000352   0.000000   0.000000   0.000000   0.000000
    23  C    0.017171  -0.001860   0.000024  -0.000003   0.000037   0.000075
    24  O   -0.000004   0.000034   0.000000   0.000000   0.000006   0.000011
    25  H    0.000000   0.000000   0.000000   0.000000   0.000000   0.000000
    26  C    0.016377  -0.064453   0.000118  -0.000227  -0.000028  -0.000094
    27  O    0.003031  -0.057338   0.000000   0.000000   0.000000   0.000000
    28  C   -0.038596   0.451481   0.000040   0.000003  -0.000050  -0.000007
    29  O   -0.012222  -0.046881   0.000000   0.000000   0.000000   0.000000
    30  H    0.000000   0.000000  -0.000012  -0.000245   0.000014  -0.011289
    31  H    0.000754  -0.007849   0.000000   0.000000   0.000000   0.000000
    32  H    0.000002  -0.000021   0.000000   0.000000   0.000000   0.000000
    33  H   -0.000012  -0.000008   0.000000   0.000000   0.000000   0.000000
    34  H    0.000020   0.005742   0.000000   0.000000   0.000000   0.000000
    35  H    0.003198  -0.000020   0.000000   0.000000   0.000003   0.000000
    36  H    0.008751   0.004340   0.000000   0.000000   0.000000   0.000000
    37  H    0.604632   0.005269   0.000000   0.000000   0.000000   0.000000
    38  H    0.005269   0.623005   0.000000   0.000000   0.000000   0.000000
    39  H    0.000000   0.000000   0.584695  -0.048540  -0.004520   0.000181
    40  H    0.000000   0.000000  -0.048540   0.629939   0.005966   0.004617
    41  H    0.000000   0.000000  -0.004520   0.005966   0.578381   0.005487
    42  H    0.000000   0.000000   0.000181   0.004617   0.005487   0.614215
    43  H    0.000000   0.000000   0.000004  -0.000004   0.003382   0.006395
    44  H    0.000000   0.000000   0.000000  -0.000015   0.000046   0.003957
    45  H   -0.000031   0.000000  -0.000062  -0.000007   0.005654   0.000103
             43         44         45
     1  O   -0.008930  -0.001166  -0.000103
     2  C    0.165334   0.114044   0.038769
     3  C    0.317908  -0.193072  -0.056129
     4  O   -0.047107   0.008341   0.000223
     5  H   -0.000647  -0.000011   0.000002
     6  C   -0.423233   0.103513  -0.217708
     7  O    0.011320  -0.038924   0.004924
     8  H   -0.000147  -0.004689  -0.002239
     9  C    0.028441   0.018091   0.024044
    10  O    0.000036   0.000024   0.000184
    11  H    0.000000   0.000000   0.000000
    12  C   -0.050915  -0.015045   0.000262
    13  O    0.007758   0.013334  -0.064349
    14  C    0.206179   0.166104   0.422976
    15  O   -0.001180  -0.013118  -0.080809
    16  C    0.010228   0.050125  -0.001349
    17  C    0.004212   0.008724   0.063140
    18  O    0.000112   0.000250   0.003217
    19  H    0.000001  -0.000051  -0.002321
    20  C    0.000169   0.001057   0.017871
    21  O    0.000000   0.000000   0.000031
    22  H    0.000000   0.000000   0.000000
    23  C    0.000764   0.009213   0.006400
    24  O    0.000102   0.001009   0.001559
    25  H    0.000000  -0.000003   0.000013
    26  C   -0.000684  -0.007421   0.021447
    27  O    0.000000  -0.000001   0.000413
    28  C   -0.000044  -0.000236  -0.002140
    29  O    0.000000   0.000000  -0.000006
    30  H    0.000076   0.000020   0.000003
    31  H    0.000000   0.000000   0.000000
    32  H    0.000000   0.000001   0.000007
    33  H   -0.000001  -0.000013  -0.000022
    34  H    0.000000  -0.000009  -0.000041
    35  H   -0.000009  -0.000031   0.016608
    36  H    0.000000  -0.000004  -0.000079
    37  H    0.000000   0.000000  -0.000031
    38  H    0.000000   0.000000   0.000000
    39  H    0.000004   0.000000  -0.000062
    40  H   -0.000004  -0.000015  -0.000007
    41  H    0.003382   0.000046   0.005654
    42  H    0.006395   0.003957   0.000103
    43  H    0.625151   0.007318   0.004259
    44  H    0.007318   0.617158   0.007220
    45  H    0.004259   0.007220   0.679113
 Mulliken atomic charges:
              1
     1  O   -0.511352
     2  C   -0.265615
     3  C    0.075817
     4  O   -0.524984
     5  H    0.356971
     6  C    0.061835
     7  O   -0.509248
     8  H    0.439762
     9  C   -0.086870
    10  O   -0.532045
    11  H    0.353561
    12  C    0.276895
    13  O   -0.391770
    14  C    0.297079
    15  O   -0.321417
    16  C   -0.127261
    17  C    0.072599
    18  O   -0.559096
    19  H    0.437273
    20  C    0.011708
    21  O   -0.500255
    22  H    0.349020
    23  C   -0.139040
    24  O   -0.589056
    25  H    0.382620
    26  C   -0.143818
    27  O   -0.315489
    28  C    0.313041
    29  O   -0.555843
    30  H    0.368247
    31  H    0.361274
    32  H    0.137372
    33  H    0.148757
    34  H    0.145415
    35  H    0.136936
    36  H    0.117343
    37  H    0.147305
    38  H    0.135962
    39  H    0.146520
    40  H    0.125997
    41  H    0.148947
    42  H    0.137937
    43  H    0.133753
    44  H    0.144261
    45  H    0.108952
 Sum of Mulliken atomic charges =   0.00000
 Mulliken charges with hydrogens summed into heavy atoms:
              1
     1  O   -0.143105
     2  C   -0.127678
     3  C    0.209570
     4  O   -0.168013
     6  C    0.206095
     7  O   -0.069486
     9  C    0.185648
    10  O   -0.178484
    12  C    0.425842
    13  O   -0.391770
    14  C    0.406032
    15  O   -0.321417
    16  C    0.009676
    17  C    0.189942
    18  O   -0.121823
    20  C    0.159013
    21  O   -0.151235
    23  C    0.147089
    24  O   -0.206436
    26  C    0.001598
    27  O   -0.315489
    28  C    0.449003
    29  O   -0.194569
 Sum of Mulliken charges with hydrogens summed into heavy atoms =   0.00000
 APT atomic charges:
              1
     1  O   -0.628358
     2  C    0.396053
     3  C    0.442152
     4  O   -0.652227
     5  H    0.266993
     6  C    0.352128
     7  O   -0.695765
     8  H    0.441441
     9  C    0.477177
    10  O   -0.606836
    11  H    0.243114
    12  C    0.448832
    13  O   -0.902836
    14  C    0.899814
    15  O   -0.837477
    16  C    0.406569
    17  C    0.365454
    18  O   -0.729921
    19  H    0.433059
    20  C    0.409662
    21  O   -0.586370
    22  H    0.245366
    23  C    0.440463
    24  O   -0.664948
    25  H    0.263140
    26  C    0.476801
    27  O   -0.792591
    28  C    0.888540
    29  O   -0.668744
    30  H    0.267118
    31  H    0.265885
    32  H   -0.043925
    33  H   -0.034243
    34  H   -0.042785
    35  H   -0.021278
    36  H   -0.073254
    37  H   -0.045938
    38  H   -0.073091
    39  H   -0.029242
    40  H   -0.061881
    41  H   -0.040586
    42  H   -0.043738
    43  H   -0.050487
    44  H   -0.044513
    45  H   -0.058728
 Sum of APT charges=   0.00000
 APT Atomic charges with hydrogens summed into heavy atoms:
              1
     1  O   -0.361240
     2  C    0.352314
     3  C    0.391665
     4  O   -0.385235
[...]
 0000118,0.00003860,-0.00002237,0.00001493,-0.00003554,0.00003938,-0.00
 003267,-0.00000738,0.00000156,0.00000209,0.00000980,-0.00000113,0.0000
 0170,-0.00000348,-0.00000082,-0.00000164,-0.00001650,-0.00000800,0.000
 00804,0.00003076,0.00001958,0.00001412,-0.00000917,-0.00000196,0.00000
 212,-0.00001307,-0.00000517,0.00000238,0.00001143,0.00000420,-0.000001
 38,-0.00000870,-0.00000124,0.00000092,0.00000562,0.00000085,-0.0000026
 9,0.00104819,0.00016236,-0.00040172,-0.00000137,-0.00000026,0.00000038
 ,0.00000040,0.00000029,0.00000014,0.00000579,0.00000126,-0.00000272,0.
 00000527,-0.00000083,0.00000493,0.00000873,-0.00000108,-0.00001158,0.0
 0000713,0.00000139,0.00000690,0.00000455,0.00000028,-0.00000256,0.0000
 0269,0.00000065,0.00000131,0.00039107,0.00007897,-0.00008989,0.0008341
 3,-0.00070060,-0.00036592,0.00049577,-0.00025675,0.00034593,0.37437818
 ,-0.01112945,-0.00123900,-0.00461803,-0.02401944,-0.04727180,0.0054597
 0,0.03150039,0.00271665,-0.00738387,-0.00231201,0.00280612,0.00005564,
 0.00035834,-0.00021357,0.00050097,0.00105125,0.00118550,0.00099329,-0.
 00048607,-0.00021059,-0.00000817,-0.00007487,0.00001704,0.00007164,-0.
 00280210,0.00129193,0.00013535,0.00060628,0.00007928,0.00008301,-0.000
 02886,-0.00007648,0.00001565,-0.02599880,-0.00395106,0.00584386,0.0015
 7862,0.00141756,-0.00118061,0.00009524,-0.00045236,-0.00003215,-0.0000
 0551,0.00012050,-0.00001733,-0.00002617,0.00001388,-0.00000470,0.00000
 626,0.00000632,-0.00000585,0.00002655,-0.00000829,-0.00002997,-0.00001
 444,0.00001083,0.00001766,-0.00000948,-0.00000084,0.00000164,0.0000039
 3,0.00000270,-0.00000100,-0.00000151,-0.00000043,-0.00000110,0.0000054
 2,-0.00000215,0.00000513,-0.00002048,-0.00001895,-0.00003471,0.0000047
 8,0.00000362,-0.00000325,0.00000091,-0.00000415,0.00000525,-0.00000065
 ,0.00000371,-0.00000412,-0.00000010,-0.00000196,0.00000511,0.00000225,
 0.00000005,-0.00000485,-0.00110738,0.00131396,0.00015927,-0.00000017,0
 .00000021,0.00000101,-0.00000075,0.00000057,-0.00000270,-0.00000163,-0
 .00000043,0.00000299,-0.00000033,0.00000167,-0.00000093,0.00000206,-0.
 00000748,0.00000722,0.00000159,0.00000225,0.00000196,0.00000173,-0.000
 00101,-0.00000066,0.00000013,0.00000101,0.00000027,0.00032582,0.000242
 97,-0.00016701,0.00091092,-0.00022383,-0.00026054,-0.00060546,-0.00296
 859,0.00305997,0.03099148,0.05048666,-0.03937983,-0.00890781,-0.009829
 06,0.05835652,0.00575644,-0.05388511,0.01208384,0.00217205,-0.00198765
 ,-0.00112759,-0.00026698,0.00102557,-0.00031508,-0.00034532,-0.0000265
 8,0.00143296,0.00004232,0.00028445,-0.00041688,-0.00000107,-0.00004158
 ,0.00002536,0.00002307,0.00001915,0.00051032,-0.00163790,0.00024095,-0
 .00018803,-0.00005156,0.00018038,0.00004013,-0.00002760,0.00007033,0.0
 2436082,0.00301284,-0.00334321,-0.00110675,-0.00062526,0.00228272,0.00
 030949,-0.00006527,-0.00030604,-0.00010203,-0.00000401,-0.00015352,0.0
 0001380,-0.00002937,-0.00000514,0.00001654,0.00000362,0.00001750,-0.00
 004982,-0.00001042,0.00000998,0.00004524,0.00001920,-0.00001956,0.0000
 0903,-0.00000726,0.00000497,-0.00000954,0.00000786,-0.00001027,0.00000
 350,-0.00000117,0.00000310,0.00001379,0.00000577,-0.00000266,-0.000021
 85,-0.00001634,-0.00001570,0.00000586,0.00000251,0.00000084,0.00000864
 ,0.00000735,0.00000709,-0.00000801,0.00000365,-0.00001550,0.00000593,-
 0.00000453,0.00001586,-0.00000019,0.00000076,-0.00000979,-0.00249508,0
 .00085789,0.00330149,0.00000087,0.00000016,0.00000196,-0.00000157,-0.0
 0000225,-0.00000161,-0.00000443,0.00000061,0.00000300,-0.00000441,0.00
 000012,-0.00000537,-0.00000926,0.00000504,0.00001164,-0.00000855,-0.00
 000408,-0.00001322,-0.00000539,0.00000017,0.00000379,-0.00000237,-0.00
 000046,-0.00000242,-0.00013653,-0.00018451,0.00001446,-0.00074858,0.00
 024524,0.00038074,0.00032675,0.00289318,-0.00312177,-0.05154642,-0.000
 28241,0.06542021,0.00161732,0.00020307,-0.00001259,-0.01543055,-0.0003
 4301,0.00161764,-0.34293711,-0.03925526,0.04872200,0.00499172,-0.00590
 199,0.00633576,-0.00028677,-0.00054717,-0.00042942,-0.01901987,-0.0011
 1532,0.00055371,0.00251230,0.00045969,0.00062994,0.00016849,0.00011144
 ,0.00004506,0.00052249,0.00039632,-0.00012833,0.00002713,0.00000421,-0
 .00002239,0.00000010,0.00001461,0.00000358,-0.00101713,-0.00163583,0.0
 0057118,0.00040688,0.00060522,-0.00014830,-0.00121822,-0.00141215,0.00
 128858,0.00060468,0.00018838,-0.00024140,-0.00012721,0.00006992,-0.000
 06920,0.00001641,-0.00002239,-0.00007122,0.00005722,0.00001337,0.00004
 197,-0.00005504,-0.00000094,-0.00000931,-0.00002206,0.00001873,-0.0000
 0367,0.00001896,0.00000075,0.00000939,-0.00000795,0.00000037,-0.000005
 11,-0.00004944,-0.00003759,0.00004897,0.00005106,0.00005929,0.00001137
 ,-0.00001362,-0.00000845,0.00001370,0.00000543,-0.00000858,-0.00000483
 ,0.00001596,0.00001356,-0.00000746,-0.00000526,-0.00001512,-0.00000730
 ,0.00000259,0.00000543,0.00000810,0.00026726,-0.00026695,-0.00017181,-
 0.00000075,-0.00000127,-0.00000230,0.00000638,0.00000428,-0.00000141,0
 .00001813,0.00000209,-0.00001271,0.00000813,-0.00000048,0.00001293,0.0
 0003004,0.00000032,-0.00005464,0.00001660,-0.00000097,0.00001255,0.000
 00745,-0.00000038,-0.00000391,0.00000338,0.00000174,0.00000237,0.00001
 350,0.00007133,-0.00000318,0.00021525,-0.00033193,-0.00006210,0.001261
 13,0.00052332,-0.00059653,0.00006595,0.00182601,0.00056262,0.36702446,
 -0.00186934,0.00166856,0.00137533,0.03187804,0.00020364,-0.00519268,-0
 .04063182,-0.04371765,0.00122386,-0.02534105,-0.01649298,0.02122019,-0
 .00202614,-0.00105749,-0.00036745,-0.01129409,0.00083869,-0.00088889,0
 .00036018,0.00087335,0.00134425,0.00004224,0.00002847,-0.00004994,0.00
 044193,0.00005886,-0.00017801,-0.00014941,-0.00004954,-0.00004878,0.00
 000553,0.00001792,-0.00000436,0.00201764,0.00102461,-0.00092279,-0.000
 32375,-0.00007996,0.00013087,0.00010436,-0.00053876,0.00039896,0.00019
 810,0.00005506,-0.00031898,-0.00007654,0.00003088,-0.00000641,0.000021
 36,-0.00001297,-0.00004099,-0.00000749,0.00000425,0.00002097,0.0000019
 4,0.00000090,-0.00002255,-0.00001181,0.00000521,0.00000931,0.00000213,
 0.00000201,-0.00000865,-0.00000089,0.00000224,-0.00000033,-0.00003077,
 0.00000852,-0.00001176,0.00007816,0.00004214,0.00008287,-0.00002286,-0
 .00000805,0.00000642,-0.00000433,0.00003551,0.00001072,0.00000909,-0.0
 0001324,-0.00001449,-0.00000232,0.00000284,0.00000048,0.00000140,-0.00
 000115,-0.00000227,0.00001633,0.00027232,0.00041185,0.00000009,0.00000
 001,-0.00000035,0.00000451,-0.00000405,0.00000321,0.00000977,0.0000055
 7,-0.00001092,0.00000428,-0.00000684,0.00000249,0.00000427,0.00001059,
 -0.00001762,0.00000184,-0.00000278,0.00000226,0.00000161,0.00000117,-0
 .00000061,0.00000093,-0.00000052,0.00000064,-0.00013236,0.00002022,0.0
 0004322,-0.00029675,-0.00013479,0.00013529,-0.00035194,-0.00074125,0.0
 0035424,0.00192863,-0.00468797,-0.00222145,0.04610226,0.06220574,-0.00
 062493,0.00112000,0.00137538,0.01596761,-0.00131921,-0.00109217,0.0499
 0571,0.00073747,-0.04987802,0.02205307,0.01885444,-0.01375890,0.002184
 06,0.00094914,-0.00024779,-0.03307854,-0.00495569,0.00233827,0.0018596
 6,0.00156212,0.00252305,-0.00011856,0.00032128,0.00002557,-0.00011198,
 -0.00018877,0.00001474,-0.00003271,-0.00000830,-0.00000616,-0.00000390
 ,0.00000355,-0.00000642,-0.00056932,0.00132602,-0.00018952,0.00007151,
 0.00015597,-0.00018069,-0.00102619,-0.00092216,0.00169907,0.00050015,0
 .00003360,-0.00015139,-0.00001300,0.00004499,0.00001811,0.00002147,-0.
 00000891,-0.00002969,0.00001385,0.00001165,-0.00000281,-0.00002706,-0.
 00001197,0.00000164,-0.00001100,0.00000509,0.00001037,0.00000250,0.000
 00899,-0.00000911,-0.00000161,0.00000087,-0.00000055,-0.00001687,0.000
 01117,-0.00000092,0.00008852,0.00002984,0.00011147,-0.00000127,0.00000
 707,-0.00000746,-0.00000495,0.00002427,0.00002561,0.00000752,-0.000003
 84,-0.00002894,0.00000008,-0.00000817,0.00001660,0.00000539,-0.0000009
 7,-0.00001190,-0.00012969,0.00037397,0.00010921,-0.00000037,0.00000150
 ,0.00000253,0.00000215,-0.00000539,0.00000158,0.00000848,0.00000216,-0
 .00001000,0.00000371,-0.00000379,0.00000831,0.00002567,0.00001151,-0.0
 0004669,0.00000244,-0.00000483,0.00000404,0.00000095,0.00000082,-0.000
 00096,0.00000018,0.00000113,-0.00000070,-0.00005045,-0.00006177,0.0000
 1290,-0.00013608,0.00011847,0.00002129,-0.00052656,0.00002109,0.000319
 61,0.00092630,-0.00219339,-0.00062392,-0.05520733,-0.01484789,0.063179
 16,0.00066263,0.00007282,-0.00020039,-0.00106053,0.00123642,0.00067841
 ,-0.01681967,-0.00721940,0.00156725,0.00229855,0.00055860,0.00089799,0
 .00012031,0.00009397,0.00008337,-0.32562668,-0.07851270,0.04977881,-0.
 01562664,0.01173444,0.01114060,-0.00075271,0.00006738,-0.00144005,-0.0
 0009029,-0.00004579,0.00003749,0.00006031,0.00002012,-0.00000440,-0.00
 001175,-0.00000481,0.00000224,-0.00001679,-0.00003460,0.00024399,0.000
 63144,-0.00181495,-0.00018720,-0.00128943,-0.00039614,-0.00018668,0.00
 090056,-0.00021269,0.00039931,0.00029234,0.00006542,0.00016656,0.00002
 381,0.00005029,0.00001972,0.00003471,-0.00001449,-0.00003580,-0.000032
 05,-0.00003307,-0.00003271,-0.00001476,0.00001888,0.00000954,0.0000147
 0,-0.00002415,-0.00000613,-0.00000457,0.00000567,-0.00000164,-0.000030
 84,0.00016969,-0.00015460,0.00038237,0.00008842,0.00065147,-0.00006694
 ,-0.00004751,-0.00004009,-0.00008237,0.00010090,0.00001162,0.00003453,
 -0.00009559,0.00003985,-0.00002918,0.00006577,-0.00003226,0.00000294,-
 0.00001907,0.00001107,-0.00003600,-0.00017324,-0.00012218,-0.00000260,
 0.00000153,-0.00000241,0.00001147,-0.00003145,0.00005136,0.00002978,0.
 00000102,-0.00005525,0.00001392,-0.00002383,0.00001244,0.00000021,0.00
 006484,-0.00026817,0.00000002,-0.00001320,0.00001500,0.00000667,0.0000
 0047,-0.00000005,0.00000732,-0.00000580,0.00000422,0.00000948,0.000001
 42,-0.00001814,0.00005913,-0.00003365,-0.00003025,0.00005707,0.0001769
 5,-0.00008535,0.00090446,-0.00053675,-0.00032191,-0.00042168,-0.000827
 84,-0.00236624,0.35488075,0.00025599,0.00003822,-0.00001755,-0.0012003
 5,0.00027689,0.00026334,-0.00865766,-0.00137657,0.00158161,0.00109548,
 0.00047325,-0.00008151,0.00008383,0.00000265,0.00000027,-0.07884021,-0
 .05952515,0.01659822,0.03767678,-0.00604959,-0.01483979,0.00102936,0.0
 0079767,0.00131380,-0.00011861,0.00001675,0.00003035,0.00004329,-0.000
 02999,-0.00001870,-0.00000673,-0.00000271,-0.00000363,0.00000732,-0.00
 019363,0.00016424,0.00159917,0.00130751,-0.00086693,-0.02984165,-0.006
 98268,0.00718306,0.00163171,0.00129219,-0.00171576,-0.00036540,0.00024
 838,0.00014729,0.00010315,0.00001274,-0.00014652,0.00012103,-0.0000254
 0,0.00003180,-0.00015351,0.00008190,-0.00002982,-0.00002148,0.00004104
 ,-0.00000968,0.00001240,0.00000287,0.00000458,-0.00000488,0.00000052,-
 0.00000355,0.00000433,-0.00010467,0.00018765,-0.00036606,-0.00022583,-
 0.00041546,0.00007637,0.00004707,-0.00001969,0.00016417,-0.00009961,-0
 .00001759,-0.00001865,0.00005286,-0.00003009,0.00000903,-0.00004632,0.
 00000080,-0.00000255,0.00001450,0.00000907,0.00000432,-0.00002229,-0.0
 0003270,0.00000072,-0.00000102,-0.00000114,-0.00001298,0.00002046,-0.0
 0002461,-0.00002120,-0.00001591,0.00004965,0.00000455,0.00004545,0.000
 04370,0.00032872,-0.00001913,-0.00003941,0.00003419,-0.00003320,0.0000
 3778,0.00000746,0.00000222,-0.00000642,-0.00000159,0.00000549,0.000001
 07,0.00001004,-0.00000766,-0.00000977,0.00005602,-0.00004307,-0.000038
 66,0.00009799,0.00013474,-0.00001446,0.00022052,-0.00025259,-0.0003743
 5,-0.00028523,-0.00010843,-0.00148239,0.07500194,0.07365699,0.00040939
 ,0.00008102,-0.00030520,-0.00122212,0.00114265,0.00119988,-0.03168236,
 -0.01018126,0.00305397,0.00205964,-0.00013032,0.00280582,0.00011316,-0
 .00015560,0.00027892,0.04950701,0.01701307,-0.05323756,0.01823769,-0.0
 0676555,-0.00379868,0.00137963,0.00028009,0.00050813,0.00002956,-0.000
 01430,0.00008596,-0.00000557,0.00001270,0.00002445,0.00000950,0.000001
 50,0.00000346,-0.00048471,-0.00010113,-0.00067468,-0.00133159,0.000517
 45,0.00089236,0.02517648,0.00959434,-0.00565995,-0.00074754,-0.0012697
 3,0.00258366,0.00063321,-0.00028053,-0.00030793,-0.00011656,-0.0000198
 8,0.00018725,-0.00011641,0.00001093,-0.00003033,0.00016056,-0.00003011
 ,0.00010493,0.00003573,-0.00006713,-0.00000284,-0.00001622,0.00000234,
 0.00001030,0.00000509,-0.00000584,0.00000448,0.00012018,0.00005720,-0.
 00001174,-0.00035546,-0.00016455,-0.00020919,0.00003644,0.00001146,0.0
 0005859,-0.00010868,-0.00000590,-0.00001011,-0.00003339,0.00001706,0.0
 0005425,0.00000928,0.00001196,0.00000447,-0.00000318,-0.00000164,-0.00
 000860,0.00007922,-0.00008624,-0.00005022,0.00000156,-0.00000087,0.000
 00110,-0.00002312,-0.00001255,0.00000316,-0.00005118,-0.00000801,0.000
 05620,-0.00003723,-0.00001289,-0.00007716,-0.00039592,-0.00003196,-0.0
 0001077,-0.00004652,0.00004134,-0.00003403,-0.00000973,-0.00000348,0.0
 0000647,-0.00000306,-0.00000135,-0.00000401,0.00001895,-0.00004542,0.0
 0000963,-0.00000394,-0.00001757,0.00001004,0.00015023,0.00002973,-0.00
 009244,0.00041504,-0.00023144,-0.00006132,-0.00250600,-0.00140083,-0.0
 0511322,-0.05969426,-0.01068491,0.06049059,0.00009410,-0.00009243,0.00
 018768,-0.00001263,0.00044436,-0.00014413,-0.00030768,-0.00039746,-0.0
 0020601,0.00021808,0.00008080,-0.00009542,0.00001983,-0.00000095,0.000
 06574,-0.00332662,-0.00009004,0.00401091,0.00212365,0.00059312,-0.0019
 3840,-0.00056867,-0.00043070,-0.00004060,0.00041527,-0.00001393,0.0001
 9986,-0.00000730,0.00024700,0.00012743,-0.00000123,-0.00000370,0.00003
 277,-0.00018087,-0.00004777,-0.00031768,-0.00316974,0.01111201,0.00735
 028,-0.31262461,-0.02248247,0.09235691,-0.03056431,-0.00506829,-0.0109
 4729,-0.00142479,-0.00119523,0.00688216,0.00048428,0.00050253,-0.00018
 840,0.00053394,-0.00009370,-0.00059114,-0.00075905,-0.00015359,0.00084
 377,-0.00006881,0.00014582,0.00001685,0.00004591,-0.00001792,-0.000033
 85,-0.00001606,0.00001182,-0.00001389,-0.00034925,0.00001510,0.0001089
 7,0.00017049,-0.00002019,0.00001441,0.00000087,-0.00003607,-0.00003508
 ,0.00109614,-0.00011018,0.00003767,0.00006012,-0.00011264,-0.00034775,
 -0.00000551,-0.00000882,-0.00000526,0.00000807,-0.00000260,-0.00001361
 ,-0.00000434,-0.00000155,-0.00002007,0.00000017,0.00000412,-0.00000161
 ,0.00006711,0.00001576,0.00000237,0.00012239,-0.00003997,-0.00003897,0
 .00023048,0.00026409,0.00045751,0.00324630,0.00017763,0.00011585,0.000
 18186,-0.00036721,0.00025941,0.00004660,0.00002152,-0.00004409,0.00000
 569,0.00000685,0.00000707,0.00001806,-0.00007325,-0.00000440,0.0000216
 0,-0.00014937,-0.00010659,0.00010263,0.00045598,0.00119674,0.00001579,
 -0.00011757,-0.00012192,0.00065625,0.00016490,0.00040764,0.00057600,0.
 00023885,0.00040715,0.34282983,-0.00008889,0.00037526,-0.00034561,-0.0
 0030492,-0.00081461,-0.00016766,-0.00106402,-0.00021617,-0.00115705,0.
 00048030,-0.00003513,0.00034876,0.00014745,-0.00005436,0.00003657,-0.0
 2444130,-0.00406021,0.01367147,0.00039406,0.00343895,-0.00064502,-0.00
 078378,-0.00068820,-0.00013204,-0.00027886,0.00018701,0.00006615,-0.00
 013803,-0.00040863,-0.00026187,-0.00001795,0.00002010,-0.00003707,0.00
 390377,0.00115543,0.00364695,0.03782873,-0.02073942,-0.02506450,-0.025
 10701,-0.04196140,0.01256664,-0.00802975,0.00428861,-0.00227427,0.0000
 4207,0.00040764,0.00157732,0.00025089,-0.00001212,-0.00001583,-0.00044
 313,0.00011163,0.00034021,0.00078262,-0.00025051,-0.00131665,0.0000050
 2,0.00002805,0.00010357,-0.00001205,0.00006058,-0.00007727,0.00000027,
 0.00000348,0.00000166,-0.00013504,0.00000493,-0.00008647,0.00009631,-0
 .00001580,0.00006416,-0.00002149,-0.00001504,-0.00001408,0.00001488,0.
 00011752,0.00006624,0.00001023,-0.00005571,-0.00010841,0.00000228,0.00
 000212,0.00007639,0.00001949,-0.00000293,-0.00005461,-0.00001216,-0.00
 000138,0.00002952,-0.00000140,0.00000135,0.00000939,0.00003979,-0.0000
 2069,0.00000932,0.00004186,-0.00004065,-0.00006088,0.00002325,-0.00000
 419,0.00006137,0.00052285,0.00096253,0.00033661,0.00001338,-0.00003835
 ,0.00001620,-0.00001622,0.00000191,0.00000737,-0.00000208,-0.00000346,
 -0.00000474,0.00000997,0.00008848,-0.00001550,-0.00014798,0.00010181,0
 .00008004,-0.00126477,0.00022651,-0.00002821,0.00003699,-0.00013144,0.
 00001154,0.00049530,0.00023915,0.00028929,0.00052374,-0.00340690,0.002
 90613,0.01662535,0.06115424,-0.00010649,-0.00002753,-0.00025509,-0.000
 05191,0.00005572,-0.00004586,0.00179875,0.00001853,0.00102052,-0.00066
 493,0.00002276,0.00008070,-0.00003418,-0.00008153,0.00000938,0.0259766
 0,0.00676847,-0.00856022,-0.00216551,-0.00254207,0.00179452,0.00012080
 ,0.00036318,0.00016068,-0.00013019,-0.00004202,0.00014165,-0.00010179,
 -0.00016841,-0.00013332,0.00000538,0.00001377,-0.00000742,0.00207286,0
 .00059513,0.00250765,0.01464550,-0.01300458,-0.00497866,0.10608633,0.0
 1440085,-0.07620990,-0.03373385,-0.00390593,-0.01249652,-0.01184840,-0
 .00161924,-0.00276475,0.00019579,0.00010440,-0.00060949,0.00006837,0.0
 0007541,0.00051039,-0.00018828,0.00006394,-0.00056802,0.00000615,0.000
 08164,0.00002476,0.00001472,0.00003173,-0.00000635,-0.00000299,0.00000
 314,-0.00000465,-0.00008120,0.00008063,0.00013161,0.00004135,-0.000095
 14,-0.00002295,0.00002541,-0.00000566,-0.00002803,-0.00099192,-0.00005
 392,-0.00019366,0.00021805,0.00015188,-0.00011082,0.00002165,-0.000139
 15,0.00006431,0.00000883,0.00003201,-0.00001846,-0.00001948,-0.0000033
 1,0.00001381,0.00000124,0.00000146,0.00000294,0.00002334,0.00000785,-0
 .00000013,0.00004568,-0.00007268,-0.00000846,0.00023000,-0.00008874,-0
 .00021006,0.00045549,0.00016405,-0.00333575,0.00030883,-0.00001771,0.0
 0002730,0.00003016,0.00001755,-0.00004003,-0.00000492,0.00000143,0.000
 01543,-0.00000073,0.00007206,-0.00000580,-0.00014603,0.00010137,0.0000
 4335,-0.00088387,-0.00002671,-0.00023164,-0.00016651,0.00004219,0.0001
 8086,-0.00070900,-0.00019844,-0.00042055,-0.00053611,0.00327674,-0.002
 73809,-0.09983301,-0.00445513,0.10727481\\0.00353265,-0.01645697,-0.00
 593867,0.01536007,0.00273011,-0.00971496,-0.00168311,-0.01189620,0.028
 56116,-0.00812447,-0.00046567,0.01674928,0.00273450,0.00270567,-0.0332
 9301,-0.00393727,-0.01340952,0.00174682,-0.00712280,0.02365313,-0.0128
 1061,0.00514676,-0.01325283,0.01840322,0.00554656,0.01401341,0.0073339
 7,-0.00159138,0.02242304,-0.00601217,0.00951417,-0.02929333,0.00730905
 ,-0.01341193,0.02530547,0.00588312,-0.01363418,-0.02604348,0.00855590,
 0.00212608,0.00152897,-0.00647406,0.02518684,0.01170393,0.02464597,-0.
 03303160,-0.00373687,-0.04165792,-0.02206647,0.02440170,0.03490372,0.0
 1519185,-0.00832247,0.00162177,-0.00228260,0.02533062,-0.01732060,0.00
 769573,0.01251195,0.03928174,-0.00270087,-0.01201992,-0.03324472,-0.00
 605308,-0.00749710,0.02683019,0.01342994,-0.02179832,-0.01439183,-0.01
 010242,-0.01052024,-0.00194857,-0.00679347,0.02990946,0.00799704,0.016
 18241,-0.01501555,0.01356811,-0.00726701,0.00489711,-0.01057890,0.0421
 2688,0.01967998,-0.00436046,-0.01046127,-0.01223818,0.00323202,-0.0021
 2188,0.00401823,0.00176661,-0.00309116,-0.00486598,-0.00629996,-0.0022
 0530,-0.00636522,-0.01815145,0.02082654,0.00333805,-0.00187283,-0.0196
 1507,0.00187154,-0.00019255,0.01567375,-0.00262250,0.00224202,-0.02546
 218,-0.00429550,-0.00317626,0.02152112,-0.00300724,-0.00447512,-0.0183
 6327,-0.00552745,-0.00622883,-0.00224529,0.00568169,-0.01726279,-0.020
 45019,-0.00430857,0.00391301,0.02023870,0.00088982,-0.00146147,-0.0188
 8577,-0.00229033,0.00216385,0.02149190,0.00309442,-0.00313911,-0.02103
 727,-0.00434849,0.00555033,0.02021487,-0.00009038,-0.00225204\\\@


 MATERIAL COPIED FROM ONE SCHOLARLY BOOK WITHOUT CREDIT COMPRISES PLAGIARISM.
 MATERIAL COPIED FROM TWO SCHOLARLY BOOKS COMPRISES AN ESSAY.
 MATERIAL COPIED FROM THREE SCHOLARLY BOOKS COMPRISES A DISSERTATION.
 MATERIAL COPIED FROM FOUR SCHOLARLY BOOKS COMPRISES A FIFTH SCHOLARLY BOOK.

                               -- C&EN, 25 FEB 1980
 Job cpu time:  0 days 13 hours  8 minutes  8.2 seconds.
 File lengths (MBytes):  RWF=   1324 Int=      0 D2E=      0 Chk=     19 Scr=      1
 Normal termination of Gaussian 09 at Tue Mar  1 03:31:26 2016.
Gaussian '09 finished on node031 at Tue Mar  1 03:31:26 EST 2016.
