Gaussian '09 started on node004 at Mon Feb 29 14:22:29 EST 2016.
 Entering Gaussian System, Link 0=/usr/local/gaussian/g09/g09
 Initial command:
 /usr/local/gaussian/g09/l1.exe /home/srmcgrat/thesis/gaussian/cellobiose/320/6000/2/gdp/gaussian31627/Gau-31663.inp -scrdir=/home/srmcgrat/thesis/gaussian/cellobiose/320/6000/2/gdp/gaussian31627/
 Entering Link 1 = /usr/local/gaussian/g09/l1.exe PID=     31665.
  
 Copyright (c) 1988,1990,1992,1993,1995,1998,2003,2009,2010,
            Gaussian, Inc.  All Rights Reserved.
  
 This is part of the Gaussian(R) 09 program.  It is based on
 the Gaussian(R) 03 system (copyright 2003, Gaussian, Inc.),
 the Gaussian(R) 98 system (copyright 1998, Gaussian, Inc.),
 the Gaussian(R) 94 system (copyright 1995, Gaussian, Inc.),
 the Gaussian 92(TM) system (copyright 1992, Gaussian, Inc.),
 the Gaussian 90(TM) system (copyright 1990, Gaussian, Inc.),
 the Gaussian 88(TM) system (copyright 1988, Gaussian, Inc.),
 the Gaussian 86(TM) system (copyright 1986, Carnegie Mellon
 University), and the Gaussian 82(TM) system (copyright 1983,
 Carnegie Mellon University). Gaussian is a federally registered
 trademark of Gaussian, Inc.
  
 This software contains proprietary and confidential information,
 including trade secrets, belonging to Gaussian, Inc.
  
 This software is provided under written license and may be
 used, copied, transmitted, or stored only in accord with that
 written license.
  
 The following legend is applicable only to US Government
 contracts under FAR:
  
                    RESTRICTED RIGHTS LEGEND
  
 Use, reproduction and disclosure by the US Government is
 subject to restrictions as set forth in subparagraphs (a)
 and (c) of the Commercial Computer Software - Restricted
 Rights clause in FAR 52.227-19.
  
 Gaussian, Inc.
 340 Quinnipiac St., Bldg. 40, Wallingford CT 06492
  
  
 ---------------------------------------------------------------
 Warning -- This program may not be used in any manner that
 competes with the business of Gaussian, Inc. or will provide
 assistance to any competitor of Gaussian, Inc.  The licensee
 of this program is prohibited from giving any competitor of
 Gaussian, Inc. access to this program.  By using this program,
 the user acknowledges that Gaussian, Inc. is engaged in the
 business of creating and licensing software in the field of
 computational chemistry and represents and warrants to the
 licensee that it is not a competitor of Gaussian, Inc. and that
 it will not use this program in any manner prohibited above.
 ---------------------------------------------------------------
  

 Cite this work as:
 Gaussian 09, Revision B.01,
 M. J. Frisch, G. W. Trucks, H. B. Schlegel, G. E. Scuseria, 
 M. A. Robb, J. R. Cheeseman, G. Scalmani, V. Barone, B. Mennucci, 
 G. A. Petersson, H. Nakatsuji, M. Caricato, X. Li, H. P. Hratchian, 
 A. F. Izmaylov, J. Bloino, G. Zheng, J. L. Sonnenberg, M. Hada, 
 M. Ehara, K. Toyota, R. Fukuda, J. Hasegawa, M. Ishida, T. Nakajima, 
 Y. Honda, O. Kitao, H. Nakai, T. Vreven, J. A. Montgomery, Jr., 
 J. E. Peralta, F. Ogliaro, M. Bearpark, J. J. Heyd, E. Brothers, 
 K. N. Kudin, V. N. Staroverov, T. Keith, R. Kobayashi, J. Normand, 
 K. Raghavachari, A. Rendell, J. C. Burant, S. S. Iyengar, J. Tomasi, 
 M. Cossi, N. Rega, J. M. Millam, M. Klene, J. E. Knox, J. B. Cross, 
 V. Bakken, C. Adamo, J. Jaramillo, R. Gomperts, R. E. Stratmann, 
 O. Yazyev, A. J. Austin, R. Cammi, C. Pomelli, J. W. Ochterski, 
 R. L. Martin, K. Morokuma, V. G. Zakrzewski, G. A. Voth, 
 P. Salvador, J. J. Dannenberg, S. Dapprich, A. D. Daniels, 
 O. Farkas, J. B. Foresman, J. V. Ortiz, J. Cioslowski, 
 and D. J. Fox, Gaussian, Inc., Wallingford CT, 2010.
 
 ******************************************
 Gaussian 09:  EM64L-G09RevB.01 12-Aug-2010
                29-Feb-2016 
 ******************************************
 ------------------------------------------------
 # freq=raman b3lyp/6-31+g(d,p) geom=connectivity
 ------------------------------------------------
 1/10=4,30=1,38=1,57=2/1,3;
 2/12=2,17=6,18=5,40=1/2;
 3/5=1,6=6,7=111,11=2,16=1,25=1,30=1,71=2,74=-5/1,2,3;
 4//1;
 5/5=2,38=5,98=1/2;
 8/6=4,10=90,11=11/1;
 10/13=10,15=4/2;
 11/6=3,8=1,9=11,15=111,16=1/1,2,10;
 10/6=1/2;
 6/7=2,8=2,9=2,10=2,18=1,28=1/1;
 7/8=1,10=1,25=1/1,2,3,16;
 1/10=4,30=1/3;
 99//99;
 ------------
 320 6000.com
 ------------
 Symbolic Z-matrix:
 Charge =  0 Multiplicity = 1
 O                     7.84      7.565     22.839 
 C                     8.376     7.94      24.117 
 C                     7.866     9.287     24.601 
 O                     8.077     10.307    23.613 
 H                     7.851     9.848     22.754 
 C                     8.483     9.531     25.968 
 O                     8.079     10.81     26.478 
 H                     8.287     10.878    27.454 
 C                     8.697     5.517     24.746 
 O                     8.488     4.882     23.477 
 H                     8.551     3.895     23.626 
 C                     8.068     6.847     25.127 
 O                     8.631     7.215     26.395 
 C                     8.237     8.451     27.008 
 O                     9.061     8.656     28.164 
 C                     8.458     8.478     29.454 
 C                     9.063     7.143     29.855 
 O                     8.731     6.015     29.032 
 H                     8.723     6.347     28.089 
 C                     8.486     6.948     31.248 
 O                     9.036     5.764     31.842 
 H                     8.574     5.435     32.666 
 C                     8.101     10.928    30.159 
 O                     8.712     11.532    29.01 
 H                     8.672     12.518    29.172 
 C                     8.757     9.587     30.449 
 O                     8.358     9.329     31.803 
 C                     8.825     8.045     32.244 
 O                     7.977     8.097     33.4 
 H                     8.5179    8.13264   34.19231 
 H                     9.86293   8.06335   32.50337 
 H                     7.42283   6.84856   31.17956 
 H                     10.12687   7.23774   29.91909 
 H                     7.39906   8.37228   29.3428 
 H                     9.81622   9.73851   30.44759 
 H                     8.22074   11.57229   31.00485 
 H                     7.05827   10.77986   29.97013 
 H                     8.56018   7.38628   22.22991 
 H                     8.3892    4.81287   25.49055 
 H                     9.75451   5.64181   24.8509 
 H                     7.00855   6.73133   25.22237 
 H                     9.43941   8.00793   24.01983 
 H                     6.80904   9.19735   24.74132 
 H                     9.54182   9.5778    25.82099 
 H                     7.20324   8.42135   27.28254 
 

 GradGradGradGradGradGradGradGradGradGradGradGradGradGradGradGradGradGrad
 Berny optimization.
 Initialization pass.
 Trust Radius=3.00D-01 FncErr=1.00D-07 GrdErr=1.00D-07
 Number of steps in this run=      2 maximum allowed number of steps=      2.
 GradGradGradGradGradGradGradGradGradGradGradGradGradGradGradGradGradGrad

                          Input orientation:                          
 ---------------------------------------------------------------------
 Center     Atomic      Atomic             Coordinates (Angstroms)
 Number     Number       Type             X           Y           Z
 ---------------------------------------------------------------------
      1          8           0        7.840000    7.565000   22.839000
      2          6           0        8.376000    7.940000   24.117000
      3          6           0        7.866000    9.287000   24.601000
      4          8           0        8.077000   10.307000   23.613000
      5          1           0        7.851000    9.848000   22.754000
      6          6           0        8.483000    9.531000   25.968000
      7          8           0        8.079000   10.810000   26.478000
      8          1           0        8.287000   10.878000   27.454000
      9          6           0        8.697000    5.517000   24.746000
     10          8           0        8.488000    4.882000   23.477000
     11          1           0        8.551000    3.895000   23.626000
     12          6           0        8.068000    6.847000   25.127000
     13          8           0        8.631000    7.215000   26.395000
     14          6           0        8.237000    8.451000   27.008000
     15          8           0        9.061000    8.656000   28.164000
     16          6           0        8.458000    8.478000   29.454000
     17          6           0        9.063000    7.143000   29.855000
     18          8           0        8.731000    6.015000   29.032000
     19          1           0        8.723000    6.347000   28.089000
     20          6           0        8.486000    6.948000   31.248000
     21          8           0        9.036000    5.764000   31.842000
     22          1           0        8.574000    5.435000   32.666000
     23          6           0        8.101000   10.928000   30.159000
     24          8           0        8.712000   11.532000   29.010000
     25          1           0        8.672000   12.518000   29.172000
     26          6           0        8.757000    9.587000   30.449000
     27          8           0        8.358000    9.329000   31.803000
     28          6           0        8.825000    8.045000   32.244000
     29          8           0        7.977000    8.097000   33.400000
     30          1           0        8.517901    8.132640   34.192310
     31          1           0        9.862925    8.063346   32.503374
     32          1           0        7.422832    6.848559   31.179558
     33          1           0       10.126869    7.237739   29.919088
     34          1           0        7.399059    8.372278   29.342797
     35          1           0        9.816218    9.738510   30.447590
     36          1           0        8.220736   11.572285   31.004849
     37          1           0        7.058272   10.779858   29.970130
     38          1           0        8.560185    7.386276   22.229909
     39          1           0        8.389198    4.812872   25.490555
     40          1           0        9.754506    5.641810   24.850897
     41          1           0        7.008555    6.731329   25.222370
     42          1           0        9.439411    8.007927   24.019827
     43          1           0        6.809035    9.197353   24.741318
     44          1           0        9.541819    9.577795   25.820989
     45          1           0        7.203244    8.421347   27.282536
 ---------------------------------------------------------------------
                    Distance matrix (angstroms):
                    1          2          3          4          5
     1  O    0.000000
     2  C    1.435690   0.000000
     3  C    2.463860   1.519462   0.000000
     4  O    2.858987   2.438464   1.435641   0.000000
     5  H    2.284608   2.402885   1.930377   0.999819   0.000000
     6  C    3.750899   2.443140   1.519511   2.512576   3.290852
     7  O    4.881544   3.728194   2.426526   2.908821   3.852999
     8  H    5.698597   4.446947   3.293650   3.888884   4.831252
     9  C    2.926671   2.523809   3.863222   4.961067   4.841626
    10  O    2.832920   3.126261   4.588495   5.442246   5.058622
    11  H    3.820182   4.078447   5.522093   6.429509   6.057111
    12  C    2.408828   1.519741   2.504212   3.776755   3.831999
    13  O    3.659688   2.404149   2.845496   4.196058   4.560479
    14  C    4.280557   2.939102   2.574915   3.872514   4.494121
    15  O    5.571063   4.166544   3.810663   4.940208   5.670367
    16  C    6.706245   5.364675   4.955457   6.132510   6.865519
    17  C    7.134288   5.833680   5.799488   7.067224   7.694814
    18  O    6.445900   5.290451   5.575659   6.943669   7.408075
    19  H    5.461292   4.293581   4.641572   6.011114   6.440467
    20  C    8.456316   7.200509   7.073749   8.351251   8.997848
    21  O    9.258943   8.052714   8.137107   9.448543  10.033694
    22  H   10.081944   8.910647   8.965679  10.292726  10.874054
    23  C    8.059795   6.746075   5.799954   6.575434   7.487518
    24  O    7.387741   6.079211   5.019464   5.570589   6.535649
    25  H    8.082779   6.826326   5.655355   6.012073   6.999547
    26  C    7.927261   6.553777   5.923089   6.907365   7.752547
    27  O    9.150591   7.810521   7.218908   8.252972   9.078040
    28  C    9.468614   8.140071   7.802416   8.953787   9.708738
    29  O   10.575278   9.292897   8.879799  10.033916  10.789773
    30  H   11.387687  10.078151   9.682497  10.809442  11.585429
    31  H    9.886389   8.518065   8.242121   9.341427  10.113512
    32  H    8.381660   7.209681   7.029923   8.345151   8.953770
    33  H    7.447450   6.101060   6.131318   7.306783   7.958111
    34  H    6.568523   5.333876   4.851741   6.085501   6.767145
    35  H    8.155993   6.736857   6.179792   7.075287   7.941373
    36  H    9.104086   7.788457   6.808645   7.500735   8.437201
    37  H    7.861262   6.637796   5.631040   6.455580   7.319106
    38  H    0.960000   1.975259   3.117165   3.267573   2.614899
    39  H    3.860903   3.415517   4.591608   5.814475   5.755945
    40  H    3.378124   2.778589   4.112944   5.109835   5.070734
    41  H    2.658338   2.133691   2.766364   4.064120   4.064014
    42  H    2.036824   1.070000   2.109363   2.703222   2.740664
    43  H    2.710402   2.103827   1.070000   2.027844   2.336336
    44  H    3.979923   2.635353   2.093157   2.748208   3.512592
    45  H    4.569880   3.409937   2.894691   4.217183   4.791927
                    6          7          8          9         10
     6  C    0.000000
     7  O    1.434976   0.000000
     8  H    2.015198   1.000232   0.000000
     9  C    4.201342   5.603356   6.020107   0.000000
    10  O    5.274306   6.656911   7.197843   1.434318   0.000000
    11  H    6.103612   7.494926   7.967783   1.976512   1.000169
    12  C    2.843125   4.186967   4.659598   1.519770   2.600024
    13  O    2.359680   3.638079   3.828497   2.367860   3.738725
    14  C    1.519380   2.422962   2.468146   3.733176   5.026800
    15  O    2.433542   2.906310   2.457735   4.654948   6.044781
    16  C    3.641652   3.799795   3.128776   5.566858   6.975432
    17  C    4.598664   5.081267   4.507461   5.373985   6.791291
    18  O    4.670316   5.471750   5.131860   4.314969   5.674572
    19  H    3.833288   4.788364   4.596007   3.444594   4.844790
    20  C    5.877950   6.150902   5.466163   6.660952   8.040945
    21  O    6.999998   7.426336   6.780010   7.108386   8.429202
    22  H    7.851669   8.211394   7.541456   7.921379   9.206027
    23  C    4.434187   3.682957   2.711848   7.676894   9.019590
    24  O    3.648316   2.707951   1.740539   7.373069   8.653714
    25  H    4.384462   3.244464   2.406107   8.282759   9.527611
    26  C    4.489719   4.210018   3.295088   7.006619   8.415353
    27  O    5.839833   5.534151   4.617168   8.027921   9.440073
    28  C    6.458586   6.438051   5.591014   7.913733   9.326223
    29  O    7.585975   7.435379   6.571528   9.059057  10.443336
    30  H    8.342416   8.177498   7.279776   9.803389  11.197564
    31  H    6.838809   6.857961   5.991827   8.247430   9.668857
    32  H    5.956491   6.182897   5.555444   6.692325   8.020682
    33  H    4.855147   5.366182   4.765845   5.636161   7.052368
    34  H    3.729185   3.822547   3.261079   5.564872   6.911975
    35  H    4.678382   4.463593   3.549440   7.182056   8.598778
    36  H    5.441091   4.592769   3.618694   8.721611  10.074714
    37  H    4.427928   3.638374   2.801842   7.594382   8.887609
    38  H    4.310351   5.477198   6.289506   3.137455   2.798543
    39  H    4.743152   6.085788   6.375841   1.070000   2.017162
    40  H    4.241514   5.671417   6.028881   1.070000   2.017162
    41  H    3.250863   4.399775   4.879496   2.133629   2.941954
    42  H    2.651387   3.967990   4.621570   2.698744   3.312290
    43  H    2.101958   2.688773   3.516759   4.136355   4.799968
    44  H    1.070000   2.022333   2.435535   4.284785   5.353066
    45  H    2.144087   2.668312   2.690552   4.135282   5.353474
                   11         12         13         14         15
    11  H    0.000000
    12  C    3.346729   0.000000
    13  O    4.323906   1.435346   0.000000
    14  C    5.682751   2.477809   1.434817   0.000000
    15  O    6.597019   3.671771   2.321797   1.434342   0.000000
    16  C    7.414723   4.640602   3.313997   2.456112   1.435059
    17  C    7.043585   4.840622   3.487608   3.240146   2.269065
    18  O    5.809616   4.047322   2.898925   3.205419   2.799501
    19  H    5.095121   3.074487   1.905656   2.414865   2.334813
    20  C    8.210963   6.136087   4.862502   4.505398   3.571967
    21  O    8.439848   6.870308   5.651481   5.588016   4.678886
    22  H    9.170263   7.686761   6.518979   6.420498   5.556979
    23  C    9.609666   6.478941   5.313658   4.010340   3.172319
    24  O    9.345435   6.118958   5.047898   3.704887   3.018094
    25  H   10.253238   6.991930   5.986253   4.627376   4.010290
    26  C    8.887892   6.025446   4.698636   3.660789   2.486041
    27  O    9.819824   7.128352   5.812916   4.876223   3.766890
    28  C    9.569091   7.256717   5.910781   5.284532   4.132241
    29  O   10.654452   8.367396   7.090533   6.407073   5.376173
    30  H   11.384446   9.167068   7.851936   7.196845   6.075309
    31  H    9.894646   7.688442   6.288844   5.743957   4.452470
    32  H    8.188560   6.086846   4.948327   4.542310   3.878663
    33  H    7.297960   5.230270   3.828490   3.676689   2.495571
    34  H    7.352194   4.532869   3.398011   2.481858   2.057209
    35  H    9.070914   6.302839   4.918977   3.997798   2.637606
    36  H   10.653506   7.543259   6.356489   5.071241   4.157064
    37  H    9.480375   6.320035   5.288029   3.948062   3.432754
    38  H    3.760075   2.987675   4.169213   4.905939   6.089043
    39  H    2.084522   2.091176   2.578121   3.944842   4.729510
    40  H    2.449520   2.091176   2.474155   3.853241   4.532432
    41  H    3.601707   1.070000   2.059448   2.766735   4.070636
    42  H    4.226173   2.110533   2.631294   3.251351   4.211575
    43  H    5.691513   2.694049   3.159738   2.781002   4.132694
    44  H    6.172022   3.179781   2.596513   2.093135   2.563317
    45  H    5.972815   2.805835   2.069174   1.070000   2.069612
                   16         17         18         19         20
    16  C    0.000000
    17  C    1.519556   0.000000
    18  O    2.513759   1.435248   0.000000
    19  H    2.544526   1.966716   0.999768   0.000000
    20  C    2.357991   1.520330   2.416851   3.224384   0.000000
    21  O    3.660932   2.418789   2.837627   3.810888   1.434291
    22  H    4.426087   3.325373   3.683342   4.669355   2.075485
    23  C    2.574291   3.917153   5.079823   5.065308   4.144218
    24  O    3.096541   4.483363   5.517077   5.266174   5.106151
    25  H    4.055480   5.432310   6.504774   6.265519   5.947207
    26  C    1.519640   2.533695   3.842883   4.008535   2.770589
    27  O    2.500400   3.011698   4.335916   4.776960   2.448177
    28  C    2.847153   2.564677   3.800879   4.489725   1.519982
    29  O    3.993424   3.828386   4.897210   5.641430   2.492065
    30  H    4.751257   4.482051   5.581990   6.362466   3.173855
    31  H    3.382962   2.915613   4.186575   4.871547   2.171608
    32  H    2.589247   2.128685   2.649175   3.390213   1.070000
    33  H    2.130652   1.070000   2.056810   2.472546   2.131292
    34  H    1.070000   2.131238   2.725330   2.725175   2.615303
    35  H    2.102585   2.766799   4.128695   4.273221   3.193287
    36  H    3.469298   4.652970   5.919115   6.004835   4.638265
    37  H    2.743024   4.154387   5.136339   5.095116   4.284215
    38  H    7.306832   7.645523   6.941039   5.952777   9.029039
    39  H    5.398777   4.993184   3.755500   3.035933   6.141362
    40  H    5.559987   5.269990   4.320701   3.470822   6.651178
    41  H    4.801921   5.084435   4.241842   3.362231   6.207899
    42  H    5.542055   5.910924   5.440173   4.453099   7.367423
    43  H    5.044395   5.954029   5.677259   4.795284   7.085810
    44  H    3.947529   4.736110   4.864312   4.031424   6.122338
    45  H    2.508560   3.422051   3.344423   2.694987   4.420533
                   21         22         23         24         25
    21  O    0.000000
    22  H    1.000330   0.000000
    23  C    5.511226   6.056552   0.000000
    24  O    6.433896   7.110470   1.434691   0.000000
    25  H    7.271720   7.898514   1.956607   1.000020   0.000000
    26  C    4.078433   4.710380   1.520762   2.419870   3.198236
    27  O    3.629109   3.994329   2.307723   3.574825   4.146140
    28  C    2.325744   2.655783   3.630853   4.757173   5.428473
    29  O    2.998622   2.825139   4.305115   5.622415   6.156643
    30  H    3.376809   3.100005   4.924981   6.200779   6.667731
    31  H    2.531444   2.931889   4.099599   5.055675   5.688611
    32  H    2.053633   2.352201   4.259494   5.320109   6.142741
    33  H    2.656970   3.634115   4.216602   4.611830   5.527743
    34  H    3.965944   4.588221   2.773197   3.437792   4.340111
    35  H    4.283673   4.998465   2.107164   2.550013   3.265261
    36  H    5.924665   6.367927   1.070000   2.054844   2.111244
    37  H    5.707376   6.175164   1.070000   2.054844   2.502452
    38  H    9.759635  10.616952   8.696272   7.948566   8.633639
    39  H    6.454755   7.204735   7.698846   7.591929   8.544122
    40  H    7.028990   7.906466   7.671626   7.285554   8.193030
    41  H    6.990405   7.716133   6.570829   6.347780   7.200847
    42  H    8.147658   9.062295   6.928753   6.152239   6.890179
    43  H    8.195545   8.948239   5.832288   5.224317   5.841941
    44  H    7.145170   8.059380   4.766272   3.831097   4.542099
    45  H    5.586519   6.307053   3.919607   3.864794   4.744458
                   26         27         28         29         30
    26  C    0.000000
    27  O    1.434950   0.000000
    28  C    2.367364   1.435697   0.000000
    29  O    3.396601   2.052655   1.434623   0.000000
    30  H    4.023021   2.676873   1.974311   0.960000   0.000000
    31  H    2.786583   2.087392   1.070000   2.088489   2.160184
    32  H    3.132536   2.723198   2.128517   2.606928   3.453219
    33  H    2.770627   3.324364   2.784196   4.180552   4.652962
    34  H    2.131488   2.808467   3.249215   4.107395   4.982672
    35  H    1.070000   2.032544   2.660372   3.846297   4.276374
    36  H    2.130236   2.384998   3.787133   4.227738   4.698870
    37  H    2.130236   2.674639   3.971305   4.450370   5.192792
    38  H    8.510898   9.770319  10.039226  11.207862  11.985737
    39  H    6.893023   7.761659   7.499707   8.574073   9.314396
    40  H    6.920859   7.992330   7.829257   9.070537   9.746560
    41  H    6.207220   7.202332   7.370786   8.347249   9.203348
    42  H    6.655330   7.968216   8.247175   9.493904  10.214898
    43  H    6.043511   7.230765   7.853806   8.806116   9.663078
    44  H    4.694093   6.103096   6.642165   7.879265   8.556629
    45  H    3.714754   4.753092   5.233340   6.174727   7.039648
                   31         32         33         34         35
    31  H    0.000000
    32  H    3.030223   0.000000
    33  H    2.725771   3.008665   0.000000
    34  H    4.019369   2.386624   3.010023   0.000000
    35  H    2.652283   3.823074   2.574816   2.988280   0.000000
    36  H    4.153917   4.793826   4.858036   3.698326   2.493758
    37  H    4.654336   4.129253   4.686737   2.511200   2.986409
    38  H   10.377843   9.037639   7.848569   7.274172   8.639497
    39  H    7.868741   6.119039   5.339606   5.337557   7.132356
    40  H    8.027203   6.851634   5.326556   5.760273   6.936118
    41  H    7.933140   5.972725   5.660344   4.452316   6.650492
    42  H    8.494292   7.528112   5.988912   5.712249   6.667311
    43  H    8.417940   6.880734   6.454255   4.711951   6.472830
    44  H    6.859368   6.375978   4.755267   4.295093   4.637517
    45  H    5.870197   4.208165   4.110950   2.070126   4.310466
                   36         37         38         39         40
    36  H    0.000000
    37  H    1.746398   0.000000
    38  H    9.728179   8.583890   0.000000
    39  H    8.724992   7.579109   4.157338   0.000000
    40  H    8.682978   7.737943   3.367364   1.720572   0.000000
    41  H    7.638148   6.239735   3.433852   2.378776   2.977464
    42  H    7.936016   6.982803   2.088851   3.670744   2.527542
    43  H    6.845802   5.468721   3.557204   4.720376   4.618408
    44  H    5.709260   4.982804   4.319979   4.913473   4.059346
    45  H    4.981898   3.578652   5.333076   4.199855   4.488611
                   41         42         43         44         45
    41  H    0.000000
    42  H    2.997478   0.000000
    43  H    2.520416   2.975594   0.000000
    44  H    3.857220   2.391476   2.962859   0.000000
    45  H    2.671769   3.977012   2.686145   2.990389   0.000000
 Stoichiometry    C12H22O11
 Framework group  C1[X(C12H22O11)]
 Deg. of freedom   129
 Full point group                 C1      NOp   1
 Largest Abelian subgroup         C1      NOp   1
 Largest concise Abelian subgroup C1      NOp   1
                         Standard orientation:                         
 ---------------------------------------------------------------------
 Center     Atomic      Atomic             Coordinates (Angstroms)
 Number     Number       Type             X           Y           Z
 ---------------------------------------------------------------------
      1          8           0       -5.076959   -0.173411    0.415073
      2          6           0       -3.750268    0.051516   -0.085431
      3          6           0       -3.174440    1.390538    0.343759
      4          8           0       -4.061791    2.468173    0.008530
      5          1           0       -4.965628    2.100711    0.226907
      6          6           0       -1.766987    1.471568   -0.223183
      7          8           0       -1.166670    2.732463    0.106849
      8          1           0       -0.180597    2.703316   -0.058300
      9          6           0       -3.318191   -2.432790   -0.191016
     10          8           0       -4.644523   -2.942783    0.003961
     11          1           0       -4.578082   -3.940557    0.023253
     12          6           0       -2.851321   -1.092723    0.353003
     13          8           0       -1.534056   -0.876079   -0.174344
     14          6           0       -0.834473    0.332844    0.153966
     15          8           0        0.368250    0.375975   -0.626377
     16          6           0        1.611946    0.141227    0.050015
     17          6           0        1.922088   -1.266106   -0.431933
     18          8           0        0.992374   -2.292694   -0.055520
     19          1           0        0.081758   -1.884805   -0.118296
     20          6           0        3.267946   -1.528270    0.224831
     21          8           0        3.780842   -2.797063   -0.204462
     22          1           0        4.553620   -3.154782    0.320431
     23          6           0        2.508607    2.545685    0.253872
     24          8           0        1.442081    3.191422   -0.455974
     25          1           0        1.686100    4.160835   -0.483069
     26          6           0        2.709872    1.137444   -0.283778
     27          8           0        4.018950    0.801725    0.198599
     28          6           0        4.367511   -0.547241   -0.147842
     29          8           0        5.487275   -0.522989    0.748643
     30          1           0        6.301632   -0.595705    0.245518
     31          1           0        4.670642   -0.632949   -1.170420
     32          1           0        3.146880   -1.536794    1.287926
     33          1           0        2.038447   -1.261952   -1.495579
     34          1           0        1.447952    0.129639    1.107310
     35          1           0        2.765697    1.203746   -1.350262
     36          1           0        3.410779    3.106755    0.126645
     37          1           0        2.264345    2.497041    1.294483
     38          1           0       -5.668493   -0.358287   -0.318077
     39          1           0       -2.650175   -3.168928    0.204908
     40          1           0       -3.158900   -2.401605   -1.248634
     41          1           0       -2.810554   -1.131118    1.421537
     42          1           0       -3.796752    0.042311   -1.154381
     43          1           0       -3.086597    1.374109    1.410021
     44          1           0       -1.865083    1.445829   -1.288366
     45          1           0       -0.606916    0.363147    1.199050
 ---------------------------------------------------------------------
 Rotational constants (GHZ):      0.4236633      0.1414271      0.1084579
 Standard basis: 6-31+G(d,p) (6D, 7F)
 There are   547 symmetry adapted basis functions of A   symmetry.
 Integral buffers will be    131072 words long.
 Raffenetti 2 integral format.
 Two-electron integral symmetry is turned on.
   547 basis functions,   890 primitive gaussians,   547 cartesian basis functions
    91 alpha electrons       91 beta electrons
       nuclear repulsion energy      2284.0047198012 Hartrees.
 NAtoms=   45 NActive=   45 NUniq=   45 SFac= 1.00D+00 NAtFMM=   50 NAOKFM=F Big=F
 One-electron integrals computed using PRISM.
 NBasis=   547 RedAO= T  NBF=   547
 NBsUse=   547 1.00D-06 NBFU=   547
 Harris functional with IExCor=  402 diagonalized for initial guess.
 ExpMin= 4.38D-02 ExpMax= 5.48D+03 ExpMxC= 8.25D+02 IAcc=2 IRadAn=         0 AccDes= 0.00D+00
 HarFok:  IExCor=  402 AccDes= 0.00D+00 IRadAn=         0 IDoV= 1
 ScaDFX=  1.000000  1.000000  1.000000  1.000000
 FoFCou: FMM=F IPFlag=           0 FMFlag=      100000 FMFlg1=           0
         NFxFlg=           0 DoJE=T BraDBF=F KetDBF=T FulRan=T
         Omega=  0.000000  0.000000  1.000000  0.000000  0.000000 ICntrl=     500 IOpCl=  0
         NMat0=    1 NMatS0=    1 NMatT0=    0 NMatD0=    1 NMtDS0=    0 NMtDT0=    0
         I1Cent=           4 NGrid=           0.
 Petite list used in FoFCou.
 Initial guess orbital symmetries:
       Occupied  (A) (A) (A) (A) (A) (A) (A) (A) (A) (A) (A) (A)
                 (A) (A) (A) (A) (A) (A) (A) (A) (A) (A) (A) (A)
                 (A) (A) (A) (A) (A) (A) (A) (A) (A) (A) (A) (A)
                 (A) (A) (A) (A) (A) (A) (A) (A) (A) (A) (A) (A)
                 (A) (A) (A) (A) (A) (A) (A) (A) (A) (A) (A) (A)
                 (A) (A) (A) (A) (A) (A) (A) (A) (A) (A) (A) (A)
                 (A) (A) (A) (A) (A) (A) (A) (A) (A) (A) (A) (A)
                 (A) (A) (A) (A) (A) (A) (A)
       Virtual   (A) (A) (A) (A) (A) (A) (A) (A) (A) (A) (A) (A)
                 (A) (A) (A) (A) (A) (A) (A) (A) (A) (A) (A) (A)
                 (A) (A) (A) (A) (A) (A) (A) (A) (A) (A) (A) (A)
                 (A) (A) (A) (A) (A) (A) (A) (A) (A) (A) (A) (A)
                 (A) (A) (A) (A) (A) (A) (A) (A) (A) (A) (A) (A)
                 (A) (A) (A) (A) (A) (A) (A) (A) (A) (A) (A) (A)
                 (A) (A) (A) (A) (A) (A) (A) (A) (A) (A) (A) (A)
                 (A) (A) (A) (A) (A) (A) (A) (A) (A) (A) (A) (A)
                 (A) (A) (A) (A) (A) (A) (A) (A) (A) (A) (A) (A)
                 (A) (A) (A) (A) (A) (A) (A) (A) (A) (A) (A) (A)
                 (A) (A) (A) (A) (A) (A) (A) (A) (A) (A) (A) (A)
                 (A) (A) (A) (A) (A) (A) (A) (A) (A) (A) (A) (A)
                 (A) (A) (A) (A) (A) (A) (A) (A) (A) (A) (A) (A)
                 (A) (A) (A) (A) (A) (A) (A) (A) (A) (A) (A) (A)
                 (A) (A) (A) (A) (A) (A) (A) (A) (A) (A) (A) (A)
                 (A) (A) (A) (A) (A) (A) (A) (A) (A) (A) (A) (A)
                 (A) (A) (A) (A) (A) (A) (A) (A) (A) (A) (A) (A)
                 (A) (A) (A) (A) (A) (A) (A) (A) (A) (A) (A) (A)
                 (A) (A) (A) (A) (A) (A) (A) (A) (A) (A) (A) (A)
                 (A) (A) (A) (A) (A) (A) (A) (A) (A) (A) (A) (A)
                 (A) (A) (A) (A) (A) (A) (A) (A) (A) (A) (A) (A)
                 (A) (A) (A) (A) (A) (A) (A) (A) (A) (A) (A) (A)
                 (A) (A) (A) (A) (A) (A) (A) (A) (A) (A) (A) (A)
                 (A) (A) (A) (A) (A) (A) (A) (A) (A) (A) (A) (A)
                 (A) (A) (A) (A) (A) (A) (A) (A) (A) (A) (A) (A)
                 (A) (A) (A) (A) (A) (A) (A) (A) (A) (A) (A) (A)
                 (A) (A) (A) (A) (A) (A) (A) (A) (A) (A) (A) (A)
                 (A) (A) (A) (A) (A) (A) (A) (A) (A) (A) (A) (A)
                 (A) (A) (A) (A) (A) (A) (A) (A) (A) (A) (A) (A)
                 (A) (A) (A) (A) (A) (A) (A) (A) (A) (A) (A) (A)
                 (A) (A) (A) (A) (A) (A) (A) (A) (A) (A) (A) (A)
                 (A) (A) (A) (A) (A) (A) (A) (A) (A) (A) (A) (A)
                 (A) (A) (A) (A) (A) (A) (A) (A) (A) (A) (A) (A)
                 (A) (A) (A) (A) (A) (A) (A) (A) (A) (A) (A) (A)
                 (A) (A) (A) (A) (A) (A) (A) (A) (A) (A) (A) (A)
                 (A) (A) (A) (A) (A) (A) (A) (A) (A) (A) (A) (A)
                 (A) (A) (A) (A) (A) (A) (A) (A) (A) (A) (A) (A)
                 (A) (A) (A) (A) (A) (A) (A) (A) (A) (A) (A) (A)
 The electronic state of the initial guess is 1-A.
 Requested convergence on RMS density matrix=1.00D-08 within 128 cycles.
 Requested convergence on MAX density matrix=1.00D-06.
 Requested convergence on             energy=1.00D-06.
 No special actions if energy rises.
 SCF Done:  E(RB3LYP) =  -1297.93018391     A.U. after   14 cycles
             Convg  =    0.2799D-08             -V/T =  2.0086
 Range of M.O.s used for correlation:     1   547
 NBasis=   547 NAE=    91 NBE=    91 NFC=     0 NFV=     0
 NROrb=    547 NOA=    91 NOB=    91 NVA=   456 NVB=   456

 **** Warning!!: The largest alpha MO coefficient is  0.88944659D+02

          Differentiating once with respect to electric field.
                with respect to dipole field.
          Electric field/nuclear overlap derivatives assumed to be zero.
          There are     3 degrees of freedom in the 1st order CPHF.  IDoFFX=0.
      3 vectors produced by pass  0 Test12= 1.38D-12 3.33D-08 XBig12= 1.23D+02 1.06D+00.
 AX will form     3 AO Fock derivatives at one time.
      3 vectors produced by pass  1 Test12= 1.38D-12 3.33D-08 XBig12= 2.13D+01 4.01D-01.
      3 vectors produced by pass  2 Test12= 1.38D-12 3.33D-08 XBig12= 9.05D+00 2.45D-01.
      3 vectors produced by pass  3 Test12= 1.38D-12 3.33D-08 XBig12= 8.78D-01 1.08D-01.
      3 vectors produced by pass  4 Test12= 1.38D-12 3.33D-08 XBig12= 2.46D-01 3.64D-02.
      3 vectors produced by pass  5 Test12= 1.38D-12 3.33D-08 XBig12= 5.63D-02 1.94D-02.
      3 vectors produced by pass  6 Test12= 1.38D-12 3.33D-08 XBig12= 1.67D-02 1.76D-02.
      3 vectors produced by pass  7 Test12= 1.38D-12 3.33D-08 XBig12= 2.31D-03 9.81D-03.
      3 vectors produced by pass  8 Test12= 1.38D-12 3.33D-08 XBig12= 4.31D-04 3.03D-03.
      3 vectors produced by pass  9 Test12= 1.38D-12 3.33D-08 XBig12= 1.33D-04 1.98D-03.
      3 vectors produced by pass 10 Test12= 1.38D-12 3.33D-08 XBig12= 3.08D-05 7.79D-04.
      3 vectors produced by pass 11 Test12= 1.38D-12 3.33D-08 XBig12= 6.37D-06 4.62D-04.
      3 vectors produced by pass 12 Test12= 1.38D-12 3.33D-08 XBig12= 1.04D-06 1.18D-04.
      3 vectors produced by pass 13 Test12= 1.38D-12 3.33D-08 XBig12= 2.29D-07 3.88D-05.
      3 vectors produced by pass 14 Test12= 1.38D-12 3.33D-08 XBig12= 2.49D-08 1.38D-05.
      3 vectors produced by pass 15 Test12= 1.38D-12 3.33D-08 XBig12= 1.08D-08 8.05D-06.
      3 vectors produced by pass 16 Test12= 1.38D-12 3.33D-08 XBig12= 9.48D-10 3.03D-06.
      3 vectors produced by pass 17 Test12= 1.38D-12 3.33D-08 XBig12= 7.24D-11 5.82D-07.
      3 vectors produced by pass 18 Test12= 1.38D-12 3.33D-08 XBig12= 2.65D-11 2.65D-07.
      3 vectors produced by pass 19 Test12= 1.38D-12 3.33D-08 XBig12= 1.13D-11 3.03D-07.
      2 vectors produced by pass 20 Test12= 1.38D-12 3.33D-08 XBig12= 6.05D-12 1.97D-07.
      2 vectors produced by pass 21 Test12= 1.38D-12 3.33D-08 XBig12= 1.63D-12 9.47D-08.
      1 vectors produced by pass 22 Test12= 1.38D-12 3.33D-08 XBig12= 2.51D-13 3.94D-08.
 Inverted reduced A of dimension    65 with in-core refinement.
 End of Minotr Frequency-dependent properties file   721 does not exist.
 End of Minotr Frequency-dependent properties file   722 does not exist.
 Symmetrizing basis deriv contribution to polar:
 IMax=3 JMax=2 DiffMx= 0.00D+00
 G2DrvN: will do    23 centers at a time, making    2 passes doing MaxLOS=2.
 Calling FoFCou, ICntrl=  3107 FMM=F I1Cent=   0 AccDes= 0.00D+00.
 Calling FoFCou, ICntrl=  3107 FMM=F I1Cent=   0 AccDes= 0.00D+00.
 FoFDir/FoFCou used for L=0 through L=2.
 End of G2Drv Frequency-dependent properties file   721 does not exist.
 End of G2Drv Frequency-dependent properties file   722 does not exist.
          IDoAtm=111111111111111111111111111111111111111111111
          Differentiating once with respect to electric field.
                with respect to dipole field.
          Differentiating once with respect to nuclear coordinates.
          There are   138 degrees of freedom in the 1st order CPHF.  IDoFFX=5.
 Will reuse    3 saved solutions.
    135 vectors produced by pass  0 Test12= 4.15D-14 1.00D-09 XBig12= 2.24D-01 9.38D-02.
 AX will form    68 AO Fock derivatives at one time.
    135 vectors produced by pass  1 Test12= 4.15D-14 1.00D-09 XBig12= 3.78D-02 1.78D-02.
    132 vectors produced by pass  2 Test12= 4.15D-14 1.00D-09 XBig12= 2.44D-04 2.23D-03.
    132 vectors produced by pass  3 Test12= 4.15D-14 1.00D-09 XBig12= 7.20D-07 9.76D-05.
    132 vectors produced by pass  4 Test12= 4.15D-14 1.00D-09 XBig12= 1.36D-09 2.47D-06.
    132 vectors produced by pass  5 Test12= 4.15D-14 1.00D-09 XBig12= 2.77D-12 1.35D-07.
     77 vectors produced by pass  6 Test12= 4.15D-14 1.00D-09 XBig12= 1.12D-13 2.72D-08.
 Inverted reduced A of dimension   875 with in-core refinement.
 Isotropic polarizability for W=    0.000000      188.32 Bohr**3.
 End of Minotr Frequency-dependent properties file   721 does not exist.
 End of Minotr Frequency-dependent properties file   722 does not exist.

 **********************************************************************

            Population analysis using the SCF density.

 **********************************************************************

 Orbital symmetries:
       Occupied  (A) (A) (A) (A) (A) (A) (A) (A) (A) (A) (A) (A)
                 (A) (A) (A) (A) (A) (A) (A) (A) (A) (A) (A) (A)
                 (A) (A) (A) (A) (A) (A) (A) (A) (A) (A) (A) (A)
                 (A) (A) (A) (A) (A) (A) (A) (A) (A) (A) (A) (A)
                 (A) (A) (A) (A) (A) (A) (A) (A) (A) (A) (A) (A)
                 (A) (A) (A) (A) (A) (A) (A) (A) (A) (A) (A) (A)
                 (A) (A) (A) (A) (A) (A) (A) (A) (A) (A) (A) (A)
                 (A) (A) (A) (A) (A) (A) (A)
       Virtual   (A) (A) (A) (A) (A) (A) (A) (A) (A) (A) (A) (A)
                 (A) (A) (A) (A) (A) (A) (A) (A) (A) (A) (A) (A)
                 (A) (A) (A) (A) (A) (A) (A) (A) (A) (A) (A) (A)
                 (A) (A) (A) (A) (A) (A) (A) (A) (A) (A) (A) (A)
                 (A) (A) (A) (A) (A) (A) (A) (A) (A) (A) (A) (A)
                 (A) (A) (A) (A) (A) (A) (A) (A) (A) (A) (A) (A)
                 (A) (A) (A) (A) (A) (A) (A) (A) (A) (A) (A) (A)
                 (A) (A) (A) (A) (A) (A) (A) (A) (A) (A) (A) (A)
                 (A) (A) (A) (A) (A) (A) (A) (A) (A) (A) (A) (A)
                 (A) (A) (A) (A) (A) (A) (A) (A) (A) (A) (A) (A)
                 (A) (A) (A) (A) (A) (A) (A) (A) (A) (A) (A) (A)
                 (A) (A) (A) (A) (A) (A) (A) (A) (A) (A) (A) (A)
                 (A) (A) (A) (A) (A) (A) (A) (A) (A) (A) (A) (A)
                 (A) (A) (A) (A) (A) (A) (A) (A) (A) (A) (A) (A)
                 (A) (A) (A) (A) (A) (A) (A) (A) (A) (A) (A) (A)
                 (A) (A) (A) (A) (A) (A) (A) (A) (A) (A) (A) (A)
                 (A) (A) (A) (A) (A) (A) (A) (A) (A) (A) (A) (A)
                 (A) (A) (A) (A) (A) (A) (A) (A) (A) (A) (A) (A)
                 (A) (A) (A) (A) (A) (A) (A) (A) (A) (A) (A) (A)
                 (A) (A) (A) (A) (A) (A) (A) (A) (A) (A) (A) (A)
                 (A) (A) (A) (A) (A) (A) (A) (A) (A) (A) (A) (A)
                 (A) (A) (A) (A) (A) (A) (A) (A) (A) (A) (A) (A)
                 (A) (A) (A) (A) (A) (A) (A) (A) (A) (A) (A) (A)
                 (A) (A) (A) (A) (A) (A) (A) (A) (A) (A) (A) (A)
                 (A) (A) (A) (A) (A) (A) (A) (A) (A) (A) (A) (A)
                 (A) (A) (A) (A) (A) (A) (A) (A) (A) (A) (A) (A)
                 (A) (A) (A) (A) (A) (A) (A) (A) (A) (A) (A) (A)
                 (A) (A) (A) (A) (A) (A) (A) (A) (A) (A) (A) (A)
                 (A) (A) (A) (A) (A) (A) (A) (A) (A) (A) (A) (A)
                 (A) (A) (A) (A) (A) (A) (A) (A) (A) (A) (A) (A)
                 (A) (A) (A) (A) (A) (A) (A) (A) (A) (A) (A) (A)
                 (A) (A) (A) (A) (A) (A) (A) (A) (A) (A) (A) (A)
                 (A) (A) (A) (A) (A) (A) (A) (A) (A) (A) (A) (A)
                 (A) (A) (A) (A) (A) (A) (A) (A) (A) (A) (A) (A)
                 (A) (A) (A) (A) (A) (A) (A) (A) (A) (A) (A) (A)
                 (A) (A) (A) (A) (A) (A) (A) (A) (A) (A) (A) (A)
                 (A) (A) (A) (A) (A) (A) (A) (A) (A) (A) (A) (A)
                 (A) (A) (A) (A) (A) (A) (A) (A) (A) (A) (A) (A)
 The electronic state is 1-A.
 Alpha  occ. eigenvalues --  -19.19757 -19.19549 -19.19489 -19.18171 -19.18017
 Alpha  occ. eigenvalues --  -19.17643 -19.17539 -19.16488 -19.15956 -19.15739
 Alpha  occ. eigenvalues --  -19.13561 -10.31899 -10.30760 -10.26726 -10.26578
 Alpha  occ. eigenvalues --  -10.25995 -10.25601 -10.25360 -10.25275 -10.25108
 Alpha  occ. eigenvalues --  -10.24756 -10.24497 -10.24266  -1.10370  -1.09644
 Alpha  occ. eigenvalues --   -1.05854  -1.05463  -1.04537  -1.03165  -1.03030
 Alpha  occ. eigenvalues --   -1.01938  -1.01736  -1.00947  -0.99689  -0.82976
 Alpha  occ. eigenvalues --   -0.80569  -0.79344  -0.78798  -0.72018  -0.69762
 Alpha  occ. eigenvalues --   -0.67367  -0.65569  -0.63595  -0.62841  -0.61714
 Alpha  occ. eigenvalues --   -0.60448  -0.56924  -0.56238  -0.55301  -0.54683
 Alpha  occ. eigenvalues --   -0.54201  -0.53454  -0.53208  -0.52121  -0.51650
 Alpha  occ. eigenvalues --   -0.50883  -0.49856  -0.49499  -0.48898  -0.46667
 Alpha  occ. eigenvalues --   -0.45774  -0.45121  -0.44991  -0.43763  -0.43476
 Alpha  occ. eigenvalues --   -0.42529  -0.41698  -0.41362  -0.40138  -0.39058
 Alpha  occ. eigenvalues --   -0.38741  -0.38190  -0.37650  -0.36473  -0.36119
 Alpha  occ. eigenvalues --   -0.35422  -0.35198  -0.34551  -0.34459  -0.33628
 Alpha  occ. eigenvalues --   -0.32256  -0.31189  -0.30727  -0.30156  -0.29845
 Alpha  occ. eigenvalues --   -0.29328  -0.29082  -0.28707  -0.27432  -0.27145
 Alpha  occ. eigenvalues --   -0.26259
 Alpha virt. eigenvalues --   -0.02030  -0.01852  -0.01512  -0.00396   0.00181
 Alpha virt. eigenvalues --    0.00677   0.01864   0.02141   0.02429   0.03291
 Alpha virt. eigenvalues --    0.03795   0.04400   0.04511   0.05213   0.05527
 Alpha virt. eigenvalues --    0.06207   0.06384   0.06950   0.07458   0.07902
 Alpha virt. eigenvalues --    0.08572   0.08760   0.08925   0.09354   0.10099
 Alpha virt. eigenvalues --    0.10407   0.10706   0.11147   0.11931   0.12412
 Alpha virt. eigenvalues --    0.12602   0.12683   0.13185   0.13307   0.13650
 Alpha virt. eigenvalues --    0.13994   0.14243   0.14542   0.14841   0.15027
 Alpha virt. eigenvalues --    0.15884   0.16086   0.16600   0.17269   0.17476
 Alpha virt. eigenvalues --    0.17561   0.17803   0.17962   0.18273   0.18369
 Alpha virt. eigenvalues --    0.18800   0.19266   0.19734   0.19811   0.20218
 Alpha virt. eigenvalues --    0.20668   0.20826   0.21020   0.21446   0.21539
 Alpha virt. eigenvalues --    0.22055   0.22299   0.22511   0.22793   0.23130
 Alpha virt. eigenvalues --    0.23383   0.23648   0.24041   0.24310   0.24371
 Alpha virt. eigenvalues --    0.24982   0.25074   0.25507   0.25766   0.25823
 Alpha virt. eigenvalues --    0.26116   0.26634   0.26806   0.26935   0.27125
 Alpha virt. eigenvalues --    0.27741   0.28079   0.28156   0.28330   0.28747
 Alpha virt. eigenvalues --    0.29094   0.29363   0.29698   0.30001   0.30390
 Alpha virt. eigenvalues --    0.31086   0.31303   0.31813   0.32288   0.32644
 Alpha virt. eigenvalues --    0.32814   0.33129   0.33180   0.33741   0.33849
 Alpha virt. eigenvalues --    0.34152   0.34728   0.34934   0.35604   0.35765
 Alpha virt. eigenvalues --    0.36149   0.36582   0.37316   0.37629   0.37852
 Alpha virt. eigenvalues --    0.37906   0.38154   0.38867   0.39541   0.39859
 Alpha virt. eigenvalues --    0.40253   0.40694   0.41171   0.41212   0.42019
 Alpha virt. eigenvalues --    0.42369   0.42666   0.43326   0.44022   0.44479
 Alpha virt. eigenvalues --    0.45174   0.45582   0.46144   0.46844   0.47387
 Alpha virt. eigenvalues --    0.47880   0.48637   0.49007   0.49439   0.50220
 Alpha virt. eigenvalues --    0.50710   0.52100   0.56367   0.62835   0.63100
 Alpha virt. eigenvalues --    0.63728   0.64404   0.66852   0.68282   0.69980
 Alpha virt. eigenvalues --    0.70482   0.70498   0.71671   0.72557   0.73656
 Alpha virt. eigenvalues --    0.74129   0.75298   0.75851   0.77497   0.79146
 Alpha virt. eigenvalues --    0.80043   0.80501   0.81532   0.82745   0.83755
 Alpha virt. eigenvalues --    0.84853   0.87085   0.88282   0.88572   0.89933
 Alpha virt. eigenvalues --    0.91246   0.92092   0.93175   0.94462   0.95170
 Alpha virt. eigenvalues --    0.95708   0.96407   0.98277   0.99289   1.00706
 Alpha virt. eigenvalues --    1.01160   1.01596   1.02766   1.03539   1.04119
 Alpha virt. eigenvalues --    1.04935   1.05648   1.06446   1.06735   1.07523
 Alpha virt. eigenvalues --    1.07933   1.08446   1.08752   1.10015   1.11287
 Alpha virt. eigenvalues --    1.12528   1.12742   1.13314   1.14794   1.16566
 Alpha virt. eigenvalues --    1.17320   1.18260   1.19144   1.19186   1.21251
 Alpha virt. eigenvalues --    1.22264   1.23339   1.23753   1.24555   1.25185
 Alpha virt. eigenvalues --    1.25738   1.26329   1.26644   1.27727   1.28555
 Alpha virt. eigenvalues --    1.29043   1.29831   1.30496   1.30842   1.32062
 Alpha virt. eigenvalues --    1.32434   1.33013   1.33938   1.34749   1.34862
 Alpha virt. eigenvalues --    1.35072   1.35608   1.35946   1.36832   1.38000
 Alpha virt. eigenvalues --    1.38518   1.39160   1.40883   1.41925   1.42916
 Alpha virt. eigenvalues --    1.43944   1.44838   1.46080   1.47092   1.47996
 Alpha virt. eigenvalues --    1.49003   1.50841   1.51873   1.52154   1.52793
 Alpha virt. eigenvalues --    1.54168   1.55861   1.56763   1.57201   1.58258
 Alpha virt. eigenvalues --    1.59201   1.59953   1.60220   1.60931   1.61272
 Alpha virt. eigenvalues --    1.61552   1.63236   1.64243   1.64708   1.65622
 Alpha virt. eigenvalues --    1.66568   1.66974   1.68732   1.68895   1.69835
 Alpha virt. eigenvalues --    1.70640   1.71208   1.72622   1.72982   1.73716
 Alpha virt. eigenvalues --    1.74504   1.75424   1.75637   1.76745   1.77798
 Alpha virt. eigenvalues --    1.79472   1.79891   1.80324   1.82052   1.82511
 Alpha virt. eigenvalues --    1.83305   1.84220   1.84910   1.86169   1.86785
 Alpha virt. eigenvalues --    1.87655   1.88360   1.89216   1.89751   1.89928
 Alpha virt. eigenvalues --    1.91499   1.92438   1.92812   1.93795   1.93917
 Alpha virt. eigenvalues --    1.94222   1.96328   1.96696   1.98196   1.99363
 Alpha virt. eigenvalues --    1.99555   2.00347   2.00953   2.01176   2.01792
 Alpha virt. eigenvalues --    2.03576   2.04131   2.04909   2.05626   2.06847
 Alpha virt. eigenvalues --    2.08418   2.08826   2.09815   2.10746   2.10989
 Alpha virt. eigenvalues --    2.12010   2.13435   2.13931   2.14574   2.16147
 Alpha virt. eigenvalues --    2.17385   2.17537   2.18257   2.19222   2.20296
 Alpha virt. eigenvalues --    2.20846   2.22272   2.25242   2.26755   2.27559
 Alpha virt. eigenvalues --    2.29605   2.30437   2.32467   2.33923   2.35686
 Alpha virt. eigenvalues --    2.35864   2.36855   2.38226   2.39256   2.40025
 Alpha virt. eigenvalues --    2.40437   2.41414   2.42553   2.44104   2.44783
 Alpha virt. eigenvalues --    2.45564   2.47444   2.48521   2.49023   2.50272
 Alpha virt. eigenvalues --    2.50382   2.52295   2.53910   2.54864   2.55631
 Alpha virt. eigenvalues --    2.56099   2.57276   2.57531   2.59050   2.59954
 Alpha virt. eigenvalues --    2.60496   2.61451   2.62413   2.64026   2.64650
 Alpha virt. eigenvalues --    2.65597   2.66233   2.68064   2.68849   2.69056
 Alpha virt. eigenvalues --    2.69917   2.70526   2.71564   2.72422   2.74254
 Alpha virt. eigenvalues --    2.74727   2.75641   2.77458   2.78608   2.79664
 Alpha virt. eigenvalues --    2.82097   2.82658   2.83638   2.84279   2.86180
 Alpha virt. eigenvalues --    2.86482   2.87432   2.88172   2.88515   2.89136
 Alpha virt. eigenvalues --    2.90464   2.90571   2.92312   2.93463   2.94098
 Alpha virt. eigenvalues --    2.94906   2.95740   2.97050   2.97731   2.98587
 Alpha virt. eigenvalues --    3.00107   3.01294   3.04631   3.05862   3.06960
 Alpha virt. eigenvalues --    3.07555   3.08102   3.10220   3.12856   3.15937
 Alpha virt. eigenvalues --    3.17995   3.20794   3.21744   3.24263   3.31163
 Alpha virt. eigenvalues --    3.32397   3.35435   3.37610   3.38856   3.40501
 Alpha virt. eigenvalues --    3.42382   3.43921   3.45880   3.46694   3.47749
 Alpha virt. eigenvalues --    3.50280   3.51263   3.52423   3.52935   3.54666
 Alpha virt. eigenvalues --    3.56526   3.57170   3.60294   3.61176   3.64572
 Alpha virt. eigenvalues --    3.66115   3.71764   3.73953   4.29618   4.34546
 Alpha virt. eigenvalues --    4.35889   4.37106   4.42139   4.42972   4.45101
 Alpha virt. eigenvalues --    4.48416   4.52113   4.54855   4.55687   4.56728
 Alpha virt. eigenvalues --    4.57765   4.58931   4.63618   4.66703   4.71079
 Alpha virt. eigenvalues --    4.78557   4.82049   4.84339   4.86039   4.89412
 Alpha virt. eigenvalues --    4.91690
          Condensed to atoms (all electrons):
              1          2          3          4          5          6
     1  O    8.254375   0.280254  -0.075857  -0.024132   0.036099   0.061620
     2  C    0.280254   9.467166  -1.828540   0.028629  -0.128961  -3.198426
     3  C   -0.075857  -1.828540   9.354376   0.258633   0.055737   0.189165
     4  O   -0.024132   0.028629   0.258633   8.198252   0.190315  -0.182045
     5  H    0.036099  -0.128961   0.055737   0.190315   0.429105   0.051939
     6  C    0.061620  -3.198426   0.189165  -0.182045   0.051939  13.412551
     7  O   -0.001870   0.062141  -0.221308   0.017894  -0.001310   0.267438
     8  H    0.000025  -0.008950   0.034939  -0.000679   0.000006  -0.001050
     9  C   -0.035675   0.185520  -0.427424   0.013744  -0.005519   0.364291
    10  O   -0.000107   0.059679   0.022440   0.000212  -0.000079  -0.011263
    11  H    0.002388  -0.012146  -0.001699   0.000002   0.000000  -0.000017
    12  C   -0.182957  -1.270764   0.020201  -0.010278   0.027926   0.511514
    13  O    0.001753   0.027922  -0.047154   0.001243  -0.000219  -0.239212
    14  C    0.016612   1.615184  -0.922452   0.030621  -0.005887  -4.491375
    15  O    0.000525  -0.055400   0.049053  -0.000334   0.000094   0.249929
    16  C    0.005744  -0.001206  -0.141150  -0.001952   0.001352  -0.217526
    17  C   -0.000255   0.020508  -0.056185   0.001170   0.000044  -0.068691
    18  O    0.000027   0.006664   0.000072  -0.000006   0.000000  -0.004917
    19  H   -0.000037  -0.005111   0.006597  -0.000006   0.000000   0.029377
    20  C    0.000112   0.000508  -0.001664  -0.000044   0.000005   0.108164
    21  O    0.000000   0.000001  -0.000062   0.000000   0.000000  -0.000650
    22  H    0.000000   0.000001   0.000001   0.000000   0.000000  -0.000056
    23  C    0.000028   0.007150   0.023938  -0.000013  -0.000014  -0.216871
    24  O   -0.000003   0.006789  -0.013005  -0.000125  -0.000004  -0.025152
    25  H    0.000000  -0.000061   0.001449   0.000000   0.000000  -0.001975
    26  C   -0.000008   0.047360  -0.092325   0.000430  -0.000007  -0.343718
    27  O    0.000000  -0.000296   0.000547   0.000001   0.000000   0.009450
    28  C    0.000002  -0.001856   0.000192   0.000004   0.000000   0.005696
    29  O    0.000000  -0.000002   0.000022   0.000000   0.000000  -0.000325
    30  H    0.000000   0.000000   0.000000   0.000000   0.000000   0.000002
    31  H    0.000000  -0.000003   0.000004   0.000000   0.000000   0.000279
    32  H    0.000000  -0.000028   0.000096   0.000000   0.000000   0.001005
    33  H    0.000000  -0.000438   0.000741  -0.000001   0.000000   0.004990
    34  H   -0.000002  -0.001352   0.003941   0.000003   0.000000   0.019373
    35  H    0.000000  -0.000054   0.000782   0.000000   0.000000   0.005896
    36  H    0.000000   0.000006   0.000010   0.000000   0.000000  -0.000179
    37  H    0.000000  -0.000179   0.000397   0.000002   0.000000   0.005701
    38  H    0.246785   0.033408  -0.003625   0.001757  -0.003597   0.005764
    39  H    0.000944  -0.000669  -0.003287   0.000022   0.000000   0.005084
    40  H   -0.000378  -0.008591  -0.005782  -0.000004  -0.000001   0.019886
    41  H    0.005922   0.044659  -0.056332   0.000240  -0.000010  -0.038013
    42  H   -0.052388   0.479037  -0.107386   0.002241  -0.000794  -0.057070
    43  H   -0.005258   0.203081   0.172322  -0.044490  -0.004087  -0.333755
    44  H   -0.001082   0.148324  -0.283142   0.006868  -0.000198   0.179818
    45  H    0.000050   0.036071  -0.048518   0.000014   0.000003  -0.155605
              7          8          9         10         11         12
     1  O   -0.001870   0.000025  -0.035675  -0.000107   0.002388  -0.182957
     2  C    0.062141  -0.008950   0.185520   0.059679  -0.012146  -1.270764
     3  C   -0.221308   0.034939  -0.427424   0.022440  -0.001699   0.020201
     4  O    0.017894  -0.000679   0.013744   0.000212   0.000002  -0.010278
     5  H   -0.001310   0.000006  -0.005519  -0.000079   0.000000   0.027926
     6  C    0.267438  -0.001050   0.364291  -0.011263  -0.000017   0.511514
     7  O    8.267973   0.200861   0.000157   0.000032   0.000000   0.026247
     8  H    0.200861   0.353686  -0.000016   0.000000   0.000000  -0.004241
     9  C    0.000157  -0.000016   7.731290   0.123723   0.021285  -2.440556
    10  O    0.000032   0.000000   0.123723   8.363451   0.195845  -0.101387
    11  H    0.000000   0.000000   0.021285   0.195845   0.434551   0.016500
    12  C    0.026247  -0.004241  -2.440556  -0.101387   0.016500  10.450802
    13  O    0.011925   0.001798   0.099966  -0.002357   0.000320  -0.237950
    14  C   -0.033304  -0.039666  -0.404275   0.006641  -0.002887  -0.563618
    15  O   -0.013402   0.024348  -0.020771  -0.000127   0.000001   0.031162
    16  C   -0.012405   0.013567  -0.243853  -0.000792  -0.000231  -0.041586
    17  C    0.010689  -0.005092   0.018244   0.000336   0.000005  -0.075891
    18  O   -0.000078  -0.000014   0.005803  -0.000015   0.000004  -0.017525
    19  H   -0.000128  -0.000019  -0.006786  -0.000028  -0.000002   0.011748
    20  C    0.003344   0.002643  -0.001801   0.000031  -0.000003  -0.046046
    21  O   -0.000010   0.000000   0.000124   0.000000   0.000000  -0.000247
    22  H    0.000000   0.000000  -0.000005   0.000000   0.000000   0.000052
    23  C    0.009570   0.034808  -0.001653  -0.000003   0.000000  -0.009696
    24  O   -0.023126  -0.012869   0.000470   0.000000   0.000000   0.001605
    25  H    0.001433  -0.000378  -0.000009   0.000000   0.000000  -0.000257
    26  C    0.003829  -0.037194  -0.004460   0.000024  -0.000002  -0.009609
    27  O    0.000048  -0.000130  -0.000093   0.000000   0.000000  -0.000178
    28  C   -0.000121  -0.000307  -0.002134  -0.000002   0.000000   0.005584
    29  O   -0.000006  -0.000002  -0.000001   0.000000   0.000000   0.000055
    30  H    0.000000   0.000000   0.000000   0.000000   0.000000  -0.000001
    31  H   -0.000001   0.000000   0.000003   0.000000   0.000000   0.000016
    32  H   -0.000001   0.000001  -0.000042   0.000000   0.000000   0.000148
    33  H   -0.000031   0.000010   0.000195   0.000000   0.000000   0.000963
    34  H   -0.000695   0.000152   0.000162   0.000000   0.000000   0.004262
    35  H   -0.000185   0.000080   0.000062   0.000000   0.000000   0.000861
    36  H   -0.000363   0.000187  -0.000002   0.000000   0.000000  -0.000017
    37  H    0.001204   0.000810   0.000002   0.000000   0.000000   0.000391
    38  H    0.000006   0.000000   0.004090  -0.001151  -0.000049  -0.027422
    39  H   -0.000014   0.000000   0.417533  -0.039622  -0.015214  -0.048917
    40  H    0.000000   0.000000   0.675478  -0.070583   0.000714  -0.321099
    41  H    0.000201   0.000001   0.046047   0.007131  -0.000073   0.164720
    42  H    0.000668  -0.000002   0.024140   0.000455   0.000014  -0.153432
    43  H    0.012991  -0.000153   0.026351   0.000145   0.000001  -0.016410
    44  H   -0.042833  -0.003205   0.018124   0.000055   0.000000  -0.007930
    45  H    0.007192  -0.001714   0.005436   0.000063   0.000000  -0.011327
             13         14         15         16         17         18
     1  O    0.001753   0.016612   0.000525   0.005744  -0.000255   0.000027
     2  C    0.027922   1.615184  -0.055400  -0.001206   0.020508   0.006664
     3  C   -0.047154  -0.922452   0.049053  -0.141150  -0.056185   0.000072
     4  O    0.001243   0.030621  -0.000334  -0.001952   0.001170  -0.000006
     5  H   -0.000219  -0.005887   0.000094   0.001352   0.000044   0.000000
     6  C   -0.239212  -4.491375   0.249929  -0.217526  -0.068691  -0.004917
     7  O    0.011925  -0.033304  -0.013402  -0.012405   0.010689  -0.000078
     8  H    0.001798  -0.039666   0.024348   0.013567  -0.005092  -0.000014
     9  C    0.099966  -0.404275  -0.020771  -0.243853   0.018244   0.005803
    10  O   -0.002357   0.006641  -0.000127  -0.000792   0.000336  -0.000015
    11  H    0.000320  -0.002887   0.000001  -0.000231   0.000005   0.000004
    12  C   -0.237950  -0.563618   0.031162  -0.041586  -0.075891  -0.017525
    13  O    8.516802   0.335489  -0.029187   0.020364  -0.024421   0.012968
    14  C    0.335489  12.366268  -0.154972  -0.772544  -0.452165  -0.038605
    15  O   -0.029187  -0.154972   8.329812   0.074393  -0.070865  -0.007164
    16  C    0.020364  -0.772544   0.074393  14.677630  -2.080748   0.002428
    17  C   -0.024421  -0.452165  -0.070865  -2.080748   7.680320   0.334369
    18  O    0.012968  -0.038605  -0.007164   0.002428   0.334369   8.214521
    19  H    0.019206  -0.005212   0.027491  -0.079992   0.031587   0.179023
    20  C   -0.016896  -0.727568   0.091169  -2.746911  -0.091269  -0.201632
    21  O    0.000107   0.003351  -0.000991  -0.017822  -0.101897   0.008461
    22  H    0.000000  -0.001025   0.000032  -0.012461   0.024131  -0.000813
    23  C    0.017050   0.003668  -0.002236   0.009147  -0.211272   0.008276
    24  O   -0.001262   0.084416  -0.005394   0.116498  -0.004230   0.000115
    25  H    0.000032  -0.008156   0.001330  -0.021195   0.000278   0.000003
    26  C   -0.031128  -1.031967  -0.024936  -4.897839   0.928770   0.038671
    27  O    0.000120   0.000398   0.007576  -0.002158  -0.042715   0.001616
    28  C    0.002818   0.087343  -0.000520   1.309223  -0.085283   0.016757
    29  O    0.000006   0.003259  -0.000200   0.020203   0.008591  -0.000139
    30  H    0.000000   0.000210  -0.000002  -0.001378   0.003188  -0.000037
    31  H    0.000007   0.006712  -0.000025   0.133961   0.004008  -0.000590
    32  H    0.000315   0.016189  -0.000803   0.154523  -0.074723   0.004122
    33  H    0.000350   0.086404  -0.013350   0.137348   0.389583  -0.042304
    34  H    0.002166   0.032700  -0.061511   0.404113   0.007498  -0.001306
    35  H   -0.000040   0.068487   0.007706   0.108325  -0.016570  -0.000193
    36  H   -0.000003  -0.000484   0.000013  -0.005201  -0.004939   0.000011
    37  H    0.000062   0.001994   0.002662   0.037426   0.002666   0.000044
    38  H   -0.000837  -0.002137  -0.000014   0.000129  -0.000047   0.000000
    39  H   -0.001964  -0.000357  -0.000101   0.004355  -0.000436  -0.000558
    40  H    0.010876  -0.006572  -0.000328  -0.007209   0.001491   0.000211
    41  H   -0.038509   0.097233  -0.001308   0.005661   0.003694   0.000298
    42  H    0.015450   0.080592  -0.000847  -0.001824   0.001359   0.000067
    43  H    0.011903   0.172069  -0.001578   0.003476   0.001961   0.000053
    44  H    0.023869   0.162263  -0.022222   0.014873   0.006141   0.000204
    45  H   -0.056250   0.389302  -0.076149   0.045756   0.026034  -0.000269
             19         20         21         22         23         24
     1  O   -0.000037   0.000112   0.000000   0.000000   0.000028  -0.000003
     2  C   -0.005111   0.000508   0.000001   0.000001   0.007150   0.006789
     3  C    0.006597  -0.001664  -0.000062   0.000001   0.023938  -0.013005
     4  O   -0.000006  -0.000044   0.000000   0.000000  -0.000013  -0.000125
     5  H    0.000000   0.000005   0.000000   0.000000  -0.000014  -0.000004
     6  C    0.029377   0.108164  -0.000650  -0.000056  -0.216871  -0.025152
     7  O   -0.000128   0.003344  -0.000010   0.000000   0.009570  -0.023126
     8  H   -0.000019   0.002643   0.000000   0.000000   0.034808  -0.012869
     9  C   -0.006786  -0.001801   0.000124  -0.000005  -0.001653   0.000470
    10  O   -0.000028   0.000031   0.000000   0.000000  -0.000003   0.000000
    11  H   -0.000002  -0.000003   0.000000   0.000000   0.000000   0.000000
    12  C    0.011748  -0.046046  -0.000247   0.000052  -0.009696   0.001605
    13  O    0.019206  -0.016896   0.000107   0.000000   0.017050  -0.001262
    14  C   -0.005212  -0.727568   0.003351  -0.001025   0.003668   0.084416
    15  O    0.027491   0.091169  -0.000991   0.000032  -0.002236  -0.005394
    16  C   -0.079992  -2.746911  -0.017822  -0.012461   0.009147   0.116498
    17  C    0.031587  -0.091269  -0.101897   0.024131  -0.211272  -0.004230
    18  O    0.179023  -0.201632   0.008461  -0.000813   0.008276   0.000115
    19  H    0.374944   0.019101  -0.001405   0.000019  -0.004108  -0.000010
    20  C    0.019101   9.888162   0.236746   0.004572  -0.051376  -0.006472
    21  O   -0.001405   0.236746   8.275267   0.211584   0.004795   0.000056
    22  H    0.000019   0.004572   0.211584   0.420419   0.000125   0.000001
    23  C   -0.004108  -0.051376   0.004795   0.000125   6.160283  -0.099881
    24  O   -0.000010  -0.006472   0.000056   0.000001  -0.099881   8.529916
    25  H    0.000000   0.000277   0.000001   0.000000   0.028792   0.200966
    26  C    0.003185   1.342694   0.021153   0.010018  -0.552971  -0.077166
    27  O    0.000020  -0.231343   0.009752  -0.000780  -0.090489   0.008243
    28  C   -0.002954  -1.460822  -0.089052  -0.012295  -0.049590   0.010185
    29  O    0.000022  -0.102107  -0.001174   0.010622  -0.005196  -0.000002
    30  H    0.000000  -0.002662  -0.003108  -0.000720   0.000826  -0.000002
    31  H    0.000001  -0.163227   0.000732  -0.000685  -0.002836   0.000044
    32  H    0.000077   0.262488  -0.036647  -0.007752   0.011512  -0.000018
    33  H   -0.001531  -0.219173   0.003782  -0.000111   0.013982  -0.000010
    34  H   -0.000633  -0.013576  -0.000620   0.000012   0.018839   0.000257
    35  H   -0.000001  -0.045365  -0.000226   0.000003  -0.001679   0.008144
    36  H    0.000000   0.003759  -0.000005   0.000000   0.415095  -0.036622
    37  H    0.000001  -0.001873  -0.000021   0.000000   0.520694  -0.066370
    38  H    0.000000   0.000001   0.000000   0.000000   0.000003   0.000000
    39  H    0.000494  -0.000567   0.000000   0.000000  -0.000006   0.000000
    40  H   -0.000152   0.000164   0.000000   0.000000   0.000000   0.000000
    41  H   -0.000036   0.000959   0.000000   0.000000   0.000258   0.000006
    42  H   -0.000011   0.000030   0.000000   0.000000   0.000081   0.000011
    43  H    0.000000  -0.000006   0.000000   0.000000   0.000768   0.000131
    44  H   -0.000036   0.000731   0.000000   0.000000   0.005167   0.000602
    45  H   -0.001023   0.018449   0.000002   0.000000   0.011641   0.000808
             25         26         27         28         29         30
     1  O    0.000000  -0.000008   0.000000   0.000002   0.000000   0.000000
     2  C   -0.000061   0.047360  -0.000296  -0.001856  -0.000002   0.000000
     3  C    0.001449  -0.092325   0.000547   0.000192   0.000022   0.000000
     4  O    0.000000   0.000430   0.000001   0.000004   0.000000   0.000000
     5  H    0.000000  -0.000007   0.000000   0.000000   0.000000   0.000000
     6  C   -0.001975  -0.343718   0.009450   0.005696  -0.000325   0.000002
     7  O    0.001433   0.003829   0.000048  -0.000121  -0.000006   0.000000
     8  H   -0.000378  -0.037194  -0.000130  -0.000307  -0.000002   0.000000
     9  C   -0.000009  -0.004460  -0.000093  -0.002134  -0.000001   0.000000
    10  O    0.000000   0.000024   0.000000  -0.000002   0.000000   0.000000
    11  H    0.000000  -0.000002   0.000000   0.000000   0.000000   0.000000
    12  C   -0.000257  -0.009609  -0.000178   0.005584   0.000055  -0.000001
    13  O    0.000032  -0.031128   0.000120   0.002818   0.000006   0.000000
    14  C   -0.008156  -1.031967   0.000398   0.087343   0.003259   0.000210
    15  O    0.001330  -0.024936   0.007576  -0.000520  -0.000200  -0.000002
    16  C   -0.021195  -4.897839  -0.002158   1.309223   0.020203  -0.001378
    17  C    0.000278   0.928770  -0.042715  -0.085283   0.008591   0.003188
    18  O    0.000003   0.038671   0.001616   0.016757  -0.000139  -0.000037
    19  H    0.000000   0.003185   0.000020  -0.002954   0.000022   0.000000
    20  C    0.000277   1.342694  -0.231343  -1.460822  -0.102107  -0.002662
    21  O    0.000001   0.021153   0.009752  -0.089052  -0.001174  -0.003108
    22  H    0.000000   0.010018  -0.000780  -0.012295   0.010622  -0.000720
    23  C    0.028792  -0.552971  -0.090489  -0.049590  -0.005196   0.000826
    24  O    0.200966  -0.077166   0.008243   0.010185  -0.000002  -0.000002
    25  H    0.403768   0.022689  -0.000592  -0.001281  -0.000003   0.000000
    26  C    0.022689  12.537436   0.166112  -1.168098  -0.074740  -0.001689
    27  O   -0.000592   0.166112   8.576991   0.129135  -0.209627  -0.000334
    28  C   -0.001281  -1.168098   0.129135   6.083276   0.435929   0.015069
    29  O   -0.000003  -0.074740  -0.209627   0.435929   8.298617   0.228554
    30  H    0.000000  -0.001689  -0.000334   0.015069   0.228554   0.412357
    31  H    0.000000  -0.102434  -0.045191   0.471797  -0.056014  -0.005933
    32  H    0.000000  -0.092432   0.010399   0.005435  -0.006207   0.000103
    33  H    0.000000  -0.152187   0.004258   0.035782  -0.000296   0.000003
    34  H   -0.000009  -0.218877   0.010653   0.019899  -0.000751   0.000002
    35  H   -0.000370   0.088610  -0.034137   0.045333  -0.002308   0.000061
    36  H   -0.011571  -0.011085  -0.012610  -0.003368  -0.000893  -0.000004
    37  H   -0.000849  -0.232085   0.010271   0.006723  -0.000147   0.000000
    38  H    0.000000  -0.000002   0.000000   0.000000   0.000000   0.000000
    39  H    0.000000   0.000049   0.000000   0.000023   0.000000   0.000000
    40  H    0.000000  -0.000154   0.000000  -0.000014   0.000000   0.000000
    41  H    0.000000   0.000397   0.000000  -0.000050   0.000000   0.000000
    42  H    0.000000   0.000124   0.000000  -0.000007   0.000000   0.000000
    43  H    0.000000   0.001010   0.000000  -0.000025   0.000000   0.000000
    44  H    0.000002   0.002661  -0.000005  -0.000169   0.000000   0.000000
    45  H    0.000010   0.015536   0.000095  -0.001925  -0.000003   0.000000
             31         32         33         34         35         36
     1  O    0.000000   0.000000   0.000000  -0.000002   0.000000   0.000000
     2  C   -0.000003  -0.000028  -0.000438  -0.001352  -0.000054   0.000006
     3  C    0.000004   0.000096   0.000741   0.003941   0.000782   0.000010
     4  O    0.000000   0.000000  -0.000001   0.000003   0.000000   0.000000
     5  H    0.000000   0.000000   0.000000   0.000000   0.000000   0.000000
     6  C    0.000279   0.001005   0.004990   0.019373   0.005896  -0.000179
     7  O   -0.000001  -0.000001  -0.000031  -0.000695  -0.000185  -0.000363
     8  H    0.000000   0.000001   0.000010   0.000152   0.000080   0.000187
     9  C    0.000003  -0.000042   0.000195   0.000162   0.000062  -0.000002
    10  O    0.000000   0.000000   0.000000   0.000000   0.000000   0.000000
    11  H    0.000000   0.000000   0.000000   0.000000   0.000000   0.000000
    12  C    0.000016   0.000148   0.000963   0.004262   0.000861  -0.000017
    13  O    0.000007   0.000315   0.000350   0.002166  -0.000040  -0.000003
    14  C    0.006712   0.016189   0.086404   0.032700   0.068487  -0.000484
    15  O   -0.000025  -0.000803  -0.013350  -0.061511   0.007706   0.000013
    16  C    0.133961   0.154523   0.137348   0.404113   0.108325  -0.005201
    17  C    0.004008  -0.074723   0.389583   0.007498  -0.016570  -0.004939
    18  O   -0.000590   0.004122  -0.042304  -0.001306  -0.000193   0.000011
    19  H    0.000001   0.000077  -0.001531  -0.000633  -0.000001   0.000000
    20  C   -0.163227   0.262488  -0.219173  -0.013576  -0.045365   0.003759
    21  O    0.000732  -0.036647   0.003782  -0.000620  -0.000226  -0.000005
    22  H   -0.000685  -0.007752  -0.000111   0.000012   0.000003   0.000000
    23  C   -0.002836   0.011512   0.013982   0.018839  -0.001679   0.415095
    24  O    0.000044  -0.000018  -0.000010   0.000257   0.008144  -0.036622
    25  H    0.000000   0.000000   0.000000  -0.000009  -0.000370  -0.011571
    26  C   -0.102434  -0.092432  -0.152187  -0.218877   0.088610  -0.011085
    27  O   -0.045191   0.010399   0.004258   0.010653  -0.034137  -0.012610
    28  C    0.471797   0.005435   0.035782   0.019899   0.045333  -0.003368
    29  O   -0.056014  -0.006207  -0.000296  -0.000751  -0.002308  -0.000893
    30  H   -0.005933   0.000103   0.000003   0.000002   0.000061  -0.000004
    31  H    0.609013   0.004623   0.002005   0.000009   0.004499  -0.000029
    32  H    0.004623   0.588844   0.005654   0.002306   0.000045   0.000005
    33  H    0.002005   0.005654   0.588906   0.005238   0.002664   0.000005
    34  H    0.000009   0.002306   0.005238   0.614393   0.006687   0.000039
    35  H    0.004499   0.000045   0.002664   0.006687   0.611390  -0.005317
    36  H   -0.000029   0.000005   0.000005   0.000039  -0.005317   0.569659
    37  H   -0.000009  -0.000014   0.000003   0.005087   0.005867  -0.040348
    38  H    0.000000   0.000000   0.000000   0.000000   0.000000   0.000000
    39  H    0.000000   0.000000   0.000000   0.000000   0.000000   0.000000
    40  H    0.000000   0.000000   0.000000   0.000000   0.000000   0.000000
    41  H    0.000000   0.000000   0.000000   0.000001   0.000000   0.000000
    42  H    0.000000   0.000000   0.000000   0.000000   0.000000   0.000000
    43  H    0.000000   0.000000   0.000000  -0.000004   0.000000   0.000000
    44  H    0.000000   0.000000  -0.000011  -0.000004  -0.000010   0.000000
    45  H    0.000000  -0.000055  -0.000084   0.012677  -0.000005   0.000001
             37         38         39         40         41         42
     1  O    0.000000   0.246785   0.000944  -0.000378   0.005922  -0.052388
     2  C   -0.000179   0.033408  -0.000669  -0.008591   0.044659   0.479037
     3  C    0.000397  -0.003625  -0.003287  -0.005782  -0.056332  -0.107386
     4  O    0.000002   0.001757   0.000022  -0.000004   0.000240   0.002241
     5  H    0.000000  -0.003597   0.000000  -0.000001  -0.000010  -0.000794
     6  C    0.005701   0.005764   0.005084   0.019886  -0.038013  -0.057070
     7  O    0.001204   0.000006  -0.000014   0.000000   0.000201   0.000668
     8  H    0.000810   0.000000   0.000000   0.000000   0.000001  -0.000002
     9  C    0.000002   0.004090   0.417533   0.675478   0.046047   0.024140
    10  O    0.000000  -0.001151  -0.039622  -0.070583   0.007131   0.000455
    11  H    0.000000  -0.000049  -0.015214   0.000714  -0.000073   0.000014
    12  C    0.000391  -0.027422  -0.048917  -0.321099   0.164720  -0.153432
    13  O    0.000062  -0.000837  -0.001964   0.010876  -0.038509   0.015450
    14  C    0.001994  -0.002137  -0.000357  -0.006572   0.097233   0.080592
    15  O    0.002662  -0.000014  -0.000101  -0.000328  -0.001308  -0.000847
    16  C    0.037426   0.000129   0.004355  -0.007209   0.005661  -0.001824
    17  C    0.002666  -0.000047  -0.000436   0.001491   0.003694   0.001359
    18  O    0.000044   0.000000  -0.000558   0.000211   0.000298   0.000067
    19  H    0.000001   0.000000   0.000494  -0.000152  -0.000036  -0.000011
    20  C   -0.001873   0.000001  -0.000567   0.000164   0.000959   0.000030
    21  O   -0.000021   0.000000   0.000000   0.000000   0.000000   0.000000
    22  H    0.000000   0.000000   0.000000   0.000000   0.000000   0.000000
    23  C    0.520694   0.000003  -0.000006   0.000000   0.000258   0.000081
    24  O   -0.066370   0.000000   0.000000   0.000000   0.000006   0.000011
    25  H   -0.000849   0.000000   0.000000   0.000000   0.000000   0.000000
    26  C   -0.232085  -0.000002   0.000049  -0.000154   0.000397   0.000124
    27  O    0.010271   0.000000   0.000000   0.000000   0.000000   0.000000
    28  C    0.006723   0.000000   0.000023  -0.000014  -0.000050  -0.000007
    29  O   -0.000147   0.000000   0.000000   0.000000   0.000000   0.000000
    30  H    0.000000   0.000000   0.000000   0.000000   0.000000   0.000000
    31  H   -0.000009   0.000000   0.000000   0.000000   0.000000   0.000000
    32  H   -0.000014   0.000000   0.000000   0.000000   0.000000   0.000000
    33  H    0.000003   0.000000   0.000000   0.000000   0.000000   0.000000
    34  H    0.005087   0.000000   0.000000   0.000000   0.000001   0.000000
    35  H    0.005867   0.000000   0.000000   0.000000   0.000000   0.000000
    36  H   -0.040348   0.000000   0.000000   0.000000   0.000000   0.000000
    37  H    0.592491   0.000000   0.000000   0.000000   0.000000   0.000000
    38  H    0.000000   0.377951  -0.000044   0.000224   0.000002  -0.010803
    39  H    0.000000  -0.000044   0.607601  -0.047291  -0.009086   0.000041
    40  H    0.000000   0.000224  -0.047291   0.602672   0.006886   0.004946
    41  H    0.000000   0.000002  -0.009086   0.006886   0.608395   0.006178
    42  H    0.000000  -0.010803   0.000041   0.004946   0.006178   0.620680
    43  H    0.000000   0.000001   0.000004   0.000000   0.003496   0.007037
    44  H   -0.000004   0.000033   0.000002  -0.000023   0.000041   0.005498
    45  H    0.000007   0.000002  -0.000004   0.000000   0.005010   0.000061
             43         44         45
     1  O   -0.005258  -0.001082   0.000050
     2  C    0.203081   0.148324   0.036071
     3  C    0.172322  -0.283142  -0.048518
     4  O   -0.044490   0.006868   0.000014
     5  H   -0.004087  -0.000198   0.000003
     6  C   -0.333755   0.179818  -0.155605
     7  O    0.012991  -0.042833   0.007192
     8  H   -0.000153  -0.003205  -0.001714
     9  C    0.026351   0.018124   0.005436
    10  O    0.000145   0.000055   0.000063
    11  H    0.000001   0.000000   0.000000
    12  C   -0.016410  -0.007930  -0.011327
    13  O    0.011903   0.023869  -0.056250
    14  C    0.172069   0.162263   0.389302
    15  O   -0.001578  -0.022222  -0.076149
    16  C    0.003476   0.014873   0.045756
    17  C    0.001961   0.006141   0.026034
    18  O    0.000053   0.000204  -0.000269
    19  H    0.000000  -0.000036  -0.001023
    20  C   -0.000006   0.000731   0.018449
    21  O    0.000000   0.000000   0.000002
    22  H    0.000000   0.000000   0.000000
    23  C    0.000768   0.005167   0.011641
    24  O    0.000131   0.000602   0.000808
    25  H    0.000000   0.000002   0.000010
    26  C    0.001010   0.002661   0.015536
    27  O    0.000000  -0.000005   0.000095
    28  C   -0.000025  -0.000169  -0.001925
    29  O    0.000000   0.000000  -0.000003
    30  H    0.000000   0.000000   0.000000
    31  H    0.000000   0.000000   0.000000
    32  H    0.000000   0.000000  -0.000055
    33  H    0.000000  -0.000011  -0.000084
    34  H   -0.000004  -0.000004   0.012677
    35  H    0.000000  -0.000010  -0.000005
    36  H    0.000000   0.000000   0.000001
    37  H    0.000000  -0.000004   0.000007
    38  H    0.000001   0.000033   0.000002
    39  H    0.000004   0.000002  -0.000004
    40  H    0.000000  -0.000023   0.000000
    41  H    0.003496   0.000041   0.005010
    42  H    0.007037   0.005498   0.000061
    43  H    0.651203   0.008361   0.004130
    44  H    0.008361   0.634499   0.006219
    45  H    0.004130   0.006219   0.646385
 Mulliken atomic charges:
              1
     1  O   -0.533256
     2  C   -0.237031
     3  C    0.141244
     4  O   -0.488185
     5  H    0.358063
     6  C    0.078958
     7  O   -0.554653
     8  H    0.447758
     9  C   -0.187165
    10  O   -0.552748
    11  H    0.360693
    12  C    0.324583
    13  O   -0.407501
    14  C   -0.002176
    15  O   -0.332560
    16  C    0.007488
    17  C   -0.038973
    18  O   -0.518626
    19  H    0.406329
    20  C    0.148297
    21  O   -0.521976
    22  H    0.355111
    23  C   -0.006608
    24  O   -0.597542
    25  H    0.385676
    26  C   -0.073642
    27  O   -0.275007
    28  C    0.193667
    29  O   -0.545735
    30  H    0.355494
    31  H    0.139264
    32  H    0.150833
    33  H    0.146662
    34  H    0.128871
    35  H    0.140958
    36  H    0.144251
    37  H    0.147393
    38  H    0.379573
    39  H    0.131985
    40  H    0.144631
    41  H    0.135985
    42  H    0.135853
    43  H    0.125272
    44  H    0.136519
    45  H    0.121977
 Sum of Mulliken atomic charges =   0.00000
 Mulliken charges with hydrogens summed into heavy atoms:
              1
     1  O   -0.153683
     2  C   -0.101178
     3  C    0.266516
     4  O   -0.130123
     6  C    0.215477
     7  O   -0.106896
     9  C    0.089451
    10  O   -0.192054
    12  C    0.460568
    13  O   -0.407501
    14  C    0.119801
    15  O   -0.332560
    16  C    0.136358
    17  C    0.107688
    18  O   -0.112297
    20  C    0.299130
    21  O   -0.166865
    23  C    0.285037
    24  O   -0.211866
    26  C    0.067316
    27  O   -0.275007
    28  C    0.332931
    29  O   -0.190242
 Sum of Mulliken charges with hydrogens summed into heavy atoms =   0.00000
 APT atomic charges:
              1
     1  O   -0.648351
     2  C    0.394134
     3  C    0.418477
     4  O   -0.623483
     5  H    0.276429
     6  C    0.360154
     7  O   -0.733030
     8  H    0.450020
     9  C    0.468725
    10  O   -0.614087
    11  H    0.252834
    12  C    0.493444
    13  O   -0.937673
    14  C    0.978016
    15  O   -0.872581
    16  C    0.419416
    17  C    0.406523
    18  O   -0.670471
    19  H    0.386235
    20  C    0.372022
    21  O   -0.639503
    22  H    0.250426
    23  C    0.446353
    24  O   -0.650919
    25  H    0.249403
    26  C    0.381958
    27  O   -0.696050
    28  C    0.870337
    29  O   -0.645971
    30  H    0.252891
    31  H   -0.070950
    32  H   -0.032853
    33  H   -0.035619
    34  H   -0.034730
    35  H   -0.054422
    36  H   -0.025268
    37  H   -0.033335
    38  H    0.270701
    39  H   -0.048508
    40  H   -0.045755
    41  H   -0.058991
    42  H   -0.045014
    43  H   -0.064984
    44  H   -0.049564
    45  H   -0.066388
 Sum of APT charges=   0.00000
 APT Atomic charges with hydrogens summed into heavy atoms:
              1
[...]
 00697,0.00000249,-0.00000198,0.00137339,0.00000923,-0.00068126,0.00035
 808,0.00010242,0.00002585,0.00069382,-0.00084068,0.00003838,0.00058922
 ,-0.00064283,0.00070571,0.37957740,-0.01009110,-0.00020242,-0.00557311
 ,-0.01518929,-0.04617116,0.00394898,0.03378668,-0.00046527,-0.00620566
 ,-0.00241364,0.00323281,-0.00028540,0.00046792,-0.00008308,0.00033200,
 0.00168176,0.00089771,0.00096548,-0.00062107,-0.00010724,0.00011009,-0
 .00008194,0.00005736,0.00003500,-0.00199911,0.00133711,-0.00063654,0.0
 0027600,-0.00012406,0.00014614,0.00000786,-0.00005459,-0.00004949,-0.0
 2827955,-0.00410842,0.00575409,0.00148891,0.00129527,-0.00185936,0.000
 14663,-0.00039613,-0.00007963,-0.00000053,0.00007761,-0.00001851,-0.00
 002056,0.00002104,-0.00000538,0.00000629,0.00001008,-0.00000541,0.0000
 2194,-0.00000732,-0.00003738,-0.00002623,-0.00000370,0.00004505,-0.000
 00646,0.00000026,-0.00000061,0.00000436,0.00000088,-0.00000073,-0.0000
 0175,-0.00000053,-0.00000127,0.00000761,0.00000060,-0.00000005,-0.0000
 1138,-0.00000937,-0.00001272,0.00000620,0.00000169,-0.00000331,0.00000
 179,-0.00000168,0.00000571,-0.00000186,0.00000069,-0.00000053,-0.00000
 021,0.00000187,0.00000285,0.00000119,-0.00000100,-0.00000338,-0.000000
 18,0.00000020,0.00000063,0.00000019,0.00000045,-0.00000003,0.00000124,
 -0.00000067,-0.00000067,0.00000103,0.00000366,0.00000225,0.00000130,-0
 .00000569,0.00000616,-0.00000095,0.00000097,-0.00000073,-0.00000088,0.
 00000011,-0.00000120,-0.00000279,-0.00000152,0.00000294,-0.00107127,0.
 00136871,-0.00011902,0.00034505,0.00041769,0.00000922,0.00087315,-0.00
 016340,0.00007764,-0.00083626,-0.00313079,0.00338606,0.02058490,0.0517
 2767,-0.04187400,-0.00831227,-0.01634699,0.04113287,0.00343061,-0.0461
 9947,0.01198339,0.00069533,-0.00086199,-0.00121492,-0.00012129,0.00097
 012,-0.00029811,-0.00049151,-0.00017243,0.00175575,-0.00042269,0.00020
 193,-0.00043917,0.00011634,-0.00006895,0.00004452,0.00002617,0.0000074
 8,0.00015402,-0.00135295,0.00072980,-0.00001703,0.00011965,0.00009343,
 0.00001355,-0.00002490,0.00007700,0.02417157,0.00352492,-0.00275521,-0
 .00074179,-0.00041703,0.00224890,0.00034119,-0.00008043,-0.00038813,-0
 .00007366,0.00000814,-0.00009203,0.00000316,-0.00001984,-0.00001600,0.
 00002050,0.00000859,0.00001607,-0.00003958,-0.00001187,0.00001277,0.00
 004854,0.00002324,-0.00002261,0.00000668,-0.00000554,0.00000267,-0.000
 00995,0.00000293,-0.00000919,0.00000411,0.00000073,0.00000329,0.000012
 35,0.00000470,-0.00000200,-0.00001675,-0.00001091,-0.00000861,0.000005
 17,0.00000138,-0.00000089,0.00000528,0.00000629,0.00000284,-0.00000779
 ,-0.00000054,-0.00000716,0.00000537,-0.00000129,0.00000949,-0.00000086
 ,-0.00000012,-0.00000618,0.00000051,-0.00000009,0.00000104,-0.00000176
 ,-0.00000077,-0.00000195,-0.00000383,0.00000053,0.00000375,-0.00000657
 ,-0.00000442,-0.00001185,-0.00001142,0.00000060,0.00001150,-0.00000504
 ,-0.00000181,-0.00000405,-0.00000155,-0.00000122,-0.00000052,-0.000004
 18,0.00000010,0.00000226,-0.00336723,0.00051311,0.00299806,-0.00011882
 ,-0.00027887,-0.00005328,-0.00064592,0.00029011,0.00010123,0.00037424,
 0.00293240,-0.00308593,-0.03111793,0.00259503,0.06340363,0.00157893,0.
 00035128,0.00030710,-0.01436417,0.00078786,0.00016363,-0.34789103,-0.0
 1718000,0.03170099,-0.00032419,-0.00808902,0.00965613,-0.00028367,-0.0
 0084721,-0.00008705,-0.01809808,0.00159278,-0.00052940,0.00237394,-0.0
 0020322,0.00039260,0.00013801,-0.00001146,0.00007555,0.00055284,0.0003
 3727,-0.00008972,0.00004105,-0.00004064,-0.00004531,-0.00001180,0.0000
 0588,-0.00000896,-0.00072630,-0.00109392,0.00053314,0.00028324,0.00063
 861,-0.00021886,-0.00090880,-0.00126926,0.00110596,0.00057362,0.000045
 24,-0.00036224,-0.00012262,0.00004841,-0.00001693,0.00000713,-0.000013
 23,-0.00005606,0.00005626,0.00001781,0.00000897,-0.00005208,-0.0000141
 1,0.00003241,-0.00003063,0.00001306,0.00000405,0.00001824,0.00000911,-
 0.00000292,-0.00000776,-0.00000088,-0.00000621,-0.00007620,-0.00003548
 ,0.00004198,0.00004817,0.00002455,-0.00004290,-0.00002300,-0.00000427,
 0.00000989,-0.00000071,0.00000703,0.00000389,0.00001497,0.00000745,-0.
 00001663,-0.00000858,-0.00001213,0.00000698,0.00001042,0.00000494,-0.0
 0000792,-0.00000155,-0.00000068,0.00000053,0.00000340,0.00000157,0.000
 00202,0.00000641,0.00000045,-0.00000390,0.00001070,-0.00000233,0.00001
 105,0.00002406,0.00000692,-0.00004786,0.00001427,-0.00000063,0.0000104
 9,0.00001122,0.00000344,-0.00000482,0.00002318,0.00000611,-0.00001240,
 0.00028642,-0.00029516,-0.00014900,-0.00002957,0.00013405,0.00001105,0
 .00016408,-0.00030721,-0.00000247,0.00093076,0.00073757,-0.00054282,0.
 00012983,0.00166307,0.00037728,0.37555044,-0.00217093,0.00186150,0.001
 20993,0.03416390,-0.00167969,-0.00318609,-0.01741528,-0.04047724,-0.00
 361761,-0.02947642,-0.01327733,0.02001286,-0.00072362,-0.00035227,-0.0
 0064810,-0.00963638,0.00172087,-0.00106162,0.00037510,0.00088472,0.001
 15128,0.00004164,0.00001251,-0.00002652,0.00012741,-0.00002436,-0.0000
 6090,-0.00004779,0.00001828,-0.00002212,-0.00000267,0.00001821,0.00001
 372,0.00125796,0.00206622,-0.00093323,-0.00026243,-0.00016239,0.000294
 24,0.00042531,-0.00017663,0.00061119,0.00012212,-0.00005706,-0.0002498
 0,-0.00003667,0.00002874,0.00001773,0.00000825,-0.00001563,-0.00003256
 ,-0.00000613,0.00000746,0.00002293,0.00000413,0.00000052,-0.00003329,-
 0.00000937,0.00000676,0.00000524,0.00000281,0.00000279,-0.00000569,-0.
 00000183,0.00000128,-0.00000179,-0.00002059,0.00001355,-0.00001627,0.0
 0004895,0.00001776,0.00007075,-0.00002116,-0.00000256,0.00000574,-0.00
 000332,0.00002810,0.00000414,0.00000625,-0.00001506,-0.00000540,-0.000
 00096,0.00000407,-0.00000004,0.00000012,-0.00000082,0.00000067,0.00000
 004,0.00000016,-0.00000062,0.00000059,-0.00000027,0.00000043,-0.000000
 28,0.00000034,0.00000121,0.00000098,0.00000075,0.00000062,0.00000193,0
 .00000713,-0.00000785,0.00000398,-0.00000528,0.00000108,0.00000242,-0.
 00000390,0.00000400,0.00000702,0.00000425,-0.00000719,-0.00000332,0.00
 025082,0.00043695,-0.00012640,-0.00004884,-0.00002609,-0.00026782,0.00
 003322,0.00000805,-0.00059321,-0.00032956,0.00033830,0.00229345,-0.005
 10057,-0.00218354,0.02254080,0.05446561,-0.00069906,0.00093070,0.00148
 777,0.01502488,-0.00245042,-0.00032939,0.03219723,-0.00396246,-0.04438
 129,0.02660321,0.01778663,-0.01456230,0.00143948,0.00061831,0.00024883
 ,-0.03507684,-0.00168879,0.00061047,0.00201621,0.00137506,0.00224160,0
 .00007257,0.00021906,-0.00002344,-0.00016586,-0.00012961,0.00002230,-0
 .00001519,0.00003218,0.00002535,-0.00000330,0.00000778,0.00000499,-0.0
 0045414,0.00084261,-0.00014801,0.00012735,0.00039802,-0.00018377,-0.00
 112761,-0.00091093,0.00166527,0.00040672,0.00000348,-0.00019442,0.0000
 5763,0.00002456,0.00005355,0.00000284,-0.00001346,-0.00000873,0.000014
 61,0.00001841,-0.00000655,-0.00001956,-0.00001863,0.00000861,-0.000006
 14,-0.00000112,0.00001289,0.00000037,0.00001383,-0.00001567,-0.0000013
 4,-0.00000006,-0.00000101,-0.00000726,0.00001994,-0.00000368,0.0000385
 9,0.00001008,0.00009447,-0.00000189,0.00000800,-0.00000163,-0.00000663
 ,0.00002457,0.00002451,0.00000357,-0.00000952,-0.00002739,-0.00000060,
 -0.00000726,0.00002226,0.00000791,0.00000027,-0.00001677,-0.00000097,0
 .00000095,0.00000274,0.00000032,0.00000057,-0.00000101,-0.00000083,0.0
 0000141,-0.00000089,0.00000226,-0.00000256,0.00000629,0.00002294,0.000
 01182,-0.00005615,0.00000607,-0.00000158,0.00000548,0.00000118,-0.0000
 0552,0.00000303,0.00000623,0.00000003,-0.00000591,-0.00008912,0.000408
 09,0.00010129,-0.00003088,-0.00009444,-0.00001621,-0.00006966,0.000108
 43,-0.00003231,-0.00031822,0.00003171,0.00036264,0.00091769,-0.0020586
 5,-0.00056773,-0.03873004,-0.01061048,0.05914506,0.00085865,0.00013651
 ,0.00004167,-0.00115112,0.00153449,0.00105218,-0.01942823,-0.00396945,
 -0.00019268,0.00203816,0.00070724,0.00000883,0.00003660,0.00008743,0.0
 0013470,-0.34763021,-0.02814487,0.03761518,-0.00659689,0.01450233,0.00
 805824,-0.00060696,0.00015487,-0.00127638,-0.00011945,-0.00005407,-0.0
 0000737,0.00006021,0.00004632,0.00004010,-0.00001370,-0.00001009,-0.00
 000625,-0.00001792,-0.00029448,-0.00005465,0.00210028,-0.00025988,-0.0
 0096489,-0.00963361,-0.00014129,0.00169924,0.00135170,0.00003629,-0.00
 079475,0.00028972,0.00010600,0.00012280,0.00000199,0.00008516,0.000005
 37,0.00005051,-0.00003776,-0.00011366,-0.00003867,-0.00004834,0.000100
 94,-0.00002019,0.00002513,0.00001205,0.00001497,-0.00002421,-0.0000179
 5,-0.00000441,0.00000515,-0.00000199,0.00003219,0.00019438,-0.00019069
 ,0.00018981,0.00001071,0.00060767,-0.00005810,-0.00002661,-0.00003307,
 -0.00005071,0.00008582,0.00001908,0.00004277,-0.00011883,0.00001461,-0
 .00002575,0.00007982,-0.00000986,0.00000479,-0.00002184,0.00000378,-0.
 00000141,0.00000299,0.00000071,0.00000668,-0.00000646,0.00000385,0.000
 00518,0.00000347,-0.00000339,0.00000368,-0.00002015,0.00002651,0.00003
 513,0.00005639,-0.00027927,0.00001595,-0.00000825,0.00001315,-0.000002
 00,-0.00003209,0.00004866,0.00001393,-0.00001210,-0.00002719,-0.000034
 15,-0.00016313,-0.00015509,0.00003074,-0.00000381,-0.00000712,0.000080
 01,-0.00005861,-0.00000219,0.00011756,0.00024171,-0.00001298,0.0012744
 6,-0.00062715,-0.00028212,-0.00038204,-0.00068668,-0.00270962,0.376727
 03,0.00013958,-0.00005042,0.00011251,-0.00138218,-0.00006115,-0.000523
 90,-0.00623016,0.00138105,-0.00009471,0.00063300,0.00043727,-0.0006253
 5,-0.00006821,-0.00000947,0.00003647,-0.02520104,-0.03779401,0.0077785
 5,0.03949571,-0.01793464,-0.01494953,0.00180358,0.00045164,0.00122810,
 -0.00007417,0.00002424,-0.00001824,0.00002591,-0.00000834,0.00001621,-
 0.00000080,-0.00000140,-0.00000419,-0.00016997,-0.00023044,-0.00008091
 ,0.00073536,0.00235813,-0.00011131,-0.02805070,-0.00370358,0.00653095,
 0.00119534,0.00079816,-0.00176745,-0.00017866,0.00019859,-0.00002946,0
 .00005393,0.00000258,-0.00017950,0.00012693,-0.00003243,0.00002061,-0.
 00015238,0.00008228,0.00006986,-0.00003131,0.00002841,0.00000243,0.000
 01382,0.00001719,0.00000187,-0.00000572,-0.00000095,-0.00000489,-0.000
 08651,-0.00017927,0.00023951,-0.00036764,-0.00013503,-0.00061425,0.000
 09844,0.00003586,-0.00000413,0.00012167,-0.00006612,-0.00000863,-0.000
 03402,0.00009212,-0.00001479,0.00001326,-0.00006641,0.00000658,0.00000
 342,0.00002027,-0.00000573,0.00000078,-0.00000166,-0.00000050,-0.00000
 203,0.00000722,0.00000008,0.00000836,0.00000153,-0.00000651,0.00001689
 ,-0.00001261,0.00002602,0.00019586,0.00000292,-0.00009094,-0.00000385,
 0.00003467,0.00001833,0.00000722,0.00002468,-0.00003937,0.00000005,-0.
 00000371,0.00004172,0.00000914,0.00001279,-0.00000748,0.00000970,-0.00
 000158,0.00000665,0.00004575,-0.00004623,-0.00001337,0.00013807,0.0000
 9955,0.00000115,0.00013679,-0.00017882,-0.00056393,-0.00014057,0.00012
 579,-0.00121219,0.01718959,0.05752030,0.00051701,0.00017392,-0.0001008
 5,-0.00190772,0.00093541,0.00083186,-0.03478141,-0.00511801,0.00041649
 ,0.00221997,0.00025826,0.00247892,0.00011624,-0.00024491,0.00035706,0.
 03686980,0.00826155,-0.04937207,0.01502712,-0.01064240,-0.00149674,0.0
 0128755,0.00009213,0.00039872,0.00000250,-0.00001093,0.00009345,0.0000
 0296,0.00001516,-0.00000241,0.00000253,0.00000131,0.00000718,-0.000309
 44,-0.00016320,-0.00040576,-0.00170873,-0.00145368,0.00088693,0.027880
 39,0.00621083,-0.00555843,-0.00047315,-0.00089588,0.00235714,0.0003538
 2,-0.00020271,-0.00025593,-0.00001214,-0.00001587,0.00017527,-0.000141
 30,0.00003363,-0.00000060,0.00015097,-0.00004729,-0.00002136,0.0000300
 2,-0.00005161,-0.00001357,-0.00002021,-0.00000376,0.00001326,0.0000053
 2,-0.00000551,0.00000810,0.00006165,-0.00000195,0.00003482,-0.00026630
 ,-0.00010945,-0.00024911,0.00003514,0.00000982,0.00002558,-0.00004453,
 -0.00003583,-0.00001951,-0.00003177,0.00002726,0.00003856,0.00001777,0
 .00000574,-0.00000158,-0.00000831,-0.00000183,-0.00000270,0.00000186,-
 0.00000104,0.00000016,-0.00000438,-0.00000086,-0.00000525,-0.00001151,
 -0.00000445,0.00001001,-0.00003841,0.00003370,-0.00003545,-0.00032551,
 -0.00005241,0.00007675,-0.00003450,-0.00002328,-0.00006388,-0.00001689
 ,-0.00000117,-0.00000524,-0.00003624,0.00000157,0.00003976,0.00007873,
 -0.00008581,-0.00004935,0.00000879,-0.00002642,0.00000429,0.00001087,-
 0.00002183,0.00000515,0.00010340,0.00002458,-0.00013965,0.00051724,-0.
 00047284,-0.00035039,-0.00261208,-0.00139784,-0.00541833,-0.04295479,0
 .00191081,0.05819417,0.00008550,-0.00007759,0.00021186,0.00005147,0.00
 033075,-0.00015787,-0.00013639,-0.00028544,-0.00010979,0.00020476,0.00
 003153,-0.00006885,-0.00002299,0.00001158,0.00004816,-0.00466311,0.000
 79988,0.00326432,0.00173888,-0.00031809,-0.00140976,-0.00063833,-0.000
 34451,-0.00000371,0.00034901,-0.00017468,0.00020866,-0.00000894,0.0002
 0210,0.00008630,-0.00001129,-0.00001224,0.00003067,-0.00009133,-0.0000
 6073,-0.00035588,-0.00348249,0.00852379,0.00606579,-0.33451607,-0.0176
 3919,0.07834717,-0.02375548,-0.00409849,-0.00718020,-0.00021650,-0.000
 61675,0.00501348,0.00029377,0.00018156,-0.00021033,0.00056076,-0.00016
 275,-0.00030862,-0.00070436,-0.00006424,0.00067016,-0.00004617,0.00016
 885,0.00001568,0.00005418,0.00001870,-0.00004929,-0.00002435,0.0000096
 1,-0.00002390,-0.00035160,-0.00000905,0.00000996,0.00016040,-0.0000379
 3,0.00001058,0.00000089,-0.00002906,-0.00001501,0.00067424,0.00015233,
 -0.00011817,0.00002884,-0.00013915,-0.00018652,-0.00001375,-0.00003299
 ,0.00004915,0.00002474,0.00001489,-0.00002874,-0.00000118,0.00000273,0
 .00000290,0.00000793,0.00000722,0.00000658,0.00003944,0.00002733,-0.00
 005963,0.00015689,-0.00028125,0.00022316,0.00183838,0.00047766,-0.0012
 5508,0.00011284,0.00022431,0.00029999,0.00007845,0.00000657,0.00000351
 ,0.00013644,-0.00001794,-0.00003317,-0.00000332,-0.00000058,-0.0000213
 2,-0.00000972,0.00000252,-0.00001596,0.00005770,-0.00016718,-0.0000967
 4,0.00010071,0.00051092,0.00110231,0.00001571,-0.00009090,-0.00016006,
 0.00049119,0.00007811,0.00056489,0.00043281,-0.00003824,0.00043769,0.3
 6100144,-0.00005614,0.00040631,-0.00032340,-0.00030463,-0.00083050,-0.
 00020071,-0.00107311,-0.00009815,-0.00145593,0.00041707,0.00001136,0.0
 0035431,0.00010345,-0.00013723,0.00001422,-0.02397221,0.00028819,0.009
 46167,0.00146644,0.00325826,-0.00095306,-0.00059007,-0.00037164,-0.000
 16129,0.00001716,0.00011235,-0.00019648,-0.00014833,-0.00038424,-0.000
 22626,-0.00000871,0.00002536,-0.00005323,0.00378984,0.00185419,0.00395
 963,0.03381526,-0.01302733,-0.01970754,-0.01956938,-0.04385467,0.00838
 168,-0.00596874,0.00427544,-0.00131967,0.00002087,-0.00032800,0.000782
 18,0.00008294,-0.00003830,0.00000978,-0.00031804,0.00010007,0.00027507
 ,0.00059688,-0.00006756,-0.00099104,0.00005521,0.00001408,0.00008026,-
 0.00001938,0.00005316,-0.00006564,-0.00000207,0.00000058,0.00000254,-0
 .00012493,0.00000523,-0.00007912,0.00004675,-0.00003542,0.00001831,-0.
 00001225,-0.00000673,-0.00001598,-0.00005315,0.00018072,0.00004588,-0.
 00000354,-0.00005145,-0.00008364,0.00000462,-0.00000816,0.00007652,0.0
 0001682,-0.00000036,-0.00004745,-0.00000113,0.00000070,0.00000752,-0.0
 0000224,-0.00000309,-0.00000651,-0.00001276,0.00000309,0.00000209,0.00
 002851,-0.00002637,0.00002072,0.00023708,0.00016449,-0.00000191,0.0000
 0091,-0.00003068,0.00001745,0.00003416,-0.00001069,0.00000680,0.000039
 21,-0.00002471,-0.00004281,-0.00001500,-0.00000498,0.00001858,0.000006
 52,-0.00000091,0.00003297,-0.00027068,0.00011057,-0.00001378,-0.001250
 42,0.00003391,-0.00010848,0.00002663,-0.00013700,0.00000692,0.00057617
 ,0.00014803,0.00028116,-0.00052164,-0.00323896,0.00309708,0.01291604,0
 .05167102,-0.00012263,-0.00002802,-0.00031800,0.00002434,0.00010824,-0
 .00004310,0.00174578,-0.00023997,0.00158877,-0.00063081,0.00004339,-0.
 00001687,-0.00000506,-0.00002834,-0.00000533,0.02456493,0.00210089,-0.
 00498347,-0.00222685,-0.00092853,0.00153740,-0.00005006,0.00032316,-0.
 00009028,-0.00008466,-0.00007236,-0.00000442,-0.00007611,-0.00018244,-
 0.00014538,0.00000906,0.00001932,-0.00001143,0.00207916,0.00081715,0.0
 0299322,0.01394414,-0.00993322,-0.00545697,0.08665427,0.00994170,-0.06
 726096,-0.03380940,-0.00275425,-0.00914704,-0.00697043,-0.00157472,0.0
 0373486,-0.00018669,-0.00005350,-0.00039930,0.00013159,0.00019391,0.00
 038247,-0.00018508,-0.00000686,-0.00060528,0.00001071,0.00006348,0.000
 07291,0.00002750,0.00008221,-0.00005503,-0.00001169,-0.00000012,-0.000
 01780,-0.00002471,0.00008958,0.00000691,0.00003589,-0.00011143,0.00010
 565,0.00003383,-0.00000160,-0.00004200,0.00000082,-0.00007489,-0.00012
 284,0.00007978,0.00001558,-0.00018286,0.00000100,-0.00009165,0.0001057
 2,0.00002677,0.00002640,-0.00006645,-0.00000034,-0.00000073,0.00000716
 ,-0.00000147,0.00000787,0.00000174,0.00003940,0.00001450,-0.00005745,0
 .00027991,0.00002069,-0.00004549,0.00098482,0.00017678,-0.00071624,0.0
 0020441,0.00009478,0.00002187,0.00001834,-0.00001030,0.00000346,0.0000
 1890,-0.00005990,-0.00000511,-0.00001730,-0.00000049,0.00002794,0.0000
 0144,0.00000432,0.00000177,-0.00019422,0.00010414,-0.00001080,-0.00089
 520,-0.00004795,-0.00015740,-0.00022914,0.00000629,0.00013627,-0.00085
 919,-0.00007646,-0.00014681,0.00046866,0.00292282,-0.00288544,-0.08480
 440,-0.00089947,0.08227144\\0.01049325,-0.01577573,-0.00510186,0.00240
 896,0.00689790,0.00875743,0.00895497,0.00747891,0.00925014,-0.00408497
 ,0.01760236,0.00733831,-0.00470363,-0.01330542,-0.02181427,-0.00661212
 ,-0.04708235,-0.01188859,0.00782905,0.00932694,-0.00964468,-0.00201803
 ,-0.00213608,0.02160688,-0.01263975,0.02224517,-0.00902841,0.01073672,
 0.01399117,0.00245067,0.00238594,-0.03272467,0.00386252,0.00079780,-0.
 01033957,0.01697041,-0.00993523,0.02025664,-0.01697353,-0.01746654,-0.
 00104906,0.01740201,0.01511511,-0.02161381,0.03426079,-0.01150130,0.02
 669034,0.02050094,0.02384088,0.01357726,-0.03100262,0.00494370,-0.0283
 8407,0.01151405,-0.00410316,0.01200772,-0.01711519,-0.01502933,0.03309
 473,-0.03580668,0.00110828,0.02254120,-0.01506550,-0.00623673,-0.01884
 170,0.02774024,-0.01100105,0.00798691,0.01672884,-0.00003722,-0.035450
 10,-0.01179135,-0.00246294,0.02938162,0.01314714,-0.00373795,-0.024830
 37,-0.00535378,-0.01790143,0.00785087,0.04820012,0.05614250,-0.0499825
 5,-0.01394308,-0.01037434,0.04510013,-0.00853422,-0.00295175,0.0017478
 8,-0.00544509,-0.01855468,0.00177135,-0.00307864,0.01925923,-0.0008856
 2,0.00191456,-0.01963332,-0.00328347,0.00069062,0.01969834,0.00186289,
 0.00203671,-0.02207173,-0.00431313,0.00328343,-0.00188203,-0.00571162,
 -0.01518784,0.01995409,0.00106832,0.00150711,-0.00225807,0.00487025,0.
 00119830,0.00372698,0.00875544,-0.01780592,-0.02027551,-0.00488224,-0.
 00547356,0.02099482,0.00066488,-0.00113029,-0.02032536,-0.00174266,-0.
 00020129,0.02352092,0.00102608,-0.00273297,-0.02294401,0.00232753,0.00
 142449,0.01883062,0.00220971,-0.00766635\\\@


 I WOULD TAKE COUNSEL OF MYSELF.
 I WOULD STOP AND LOOK WITHIN
 AND LOOKING WITHIN, LOOK BACK, ALSO
 THAT I MAY LOOK AHEAD WITH CLEARER UNDERSTANDING
 OF THE WAY I HAVE BEEN MOVING, AND IN WHAT DIRECTION.
 I NEED TO KNOW IF I AM GOING FORWARD OR RETREATING,
 WHETHER I HAVE BEEN WASTING, OR ENJOYING
 THE PRECIOUS MOMENTS OF LIFE.  THERE HAVE BEEN FRICTIONS,
 ANNOYANCES AND SOMETIMES WRATH,
 BUT WERE THEY BECAUSE I WAS RIGHT AND OTHERS WRONG.....
 HAVE I HAD MY THOUGHTS TOO SHARPLY FOCUSED
 ON THAT WHICH PLEASED ME, SERVED MY SELF-ESTEEM,
 UNDERGIRDED MY SECURITY,
 OF WHICH I DID NOT INQUIRE WHETHER IT SERVED OR HAMPERED OTHERS.....
 HAVE I BEEN TRYING TO STOP THE CLOCK
 TO HOLD THE WORLD
 IN PERPETUATION OF WHAT WAS AN IS ALREADY SLIPPING AWAY.....
 HAVE I BEEN CRITICAL OF OTHERS FOR WHAT REALLY NEEDED CHANGING IN ME...
 LET ME INDEED TAKE COUNSEL OF MYSELF
 AND SET MY DIRECTIONS STRAIGHT.

                          R.T. WESTON AS ADAPTED BY D. OSBORN 1967
 Job cpu time:  0 days 12 hours 51 minutes 47.0 seconds.
 File lengths (MBytes):  RWF=   1323 Int=      0 D2E=      0 Chk=     19 Scr=      1
 Normal termination of Gaussian 09 at Tue Mar  1 03:15:29 2016.
Gaussian '09 finished on node004 at Tue Mar  1 03:15:29 EST 2016.
