Gaussian '09 started on node024 at Tue Mar  1 03:22:30 EST 2016.
 Entering Gaussian System, Link 0=/usr/local/gaussian/g09/g09
 Initial command:
 /usr/local/gaussian/g09/l1.exe /home/srmcgrat/thesis/gaussian/cellobiose/400/9000/2/gdp/gaussian20329/Gau-20365.inp -scrdir=/home/srmcgrat/thesis/gaussian/cellobiose/400/9000/2/gdp/gaussian20329/
 Entering Link 1 = /usr/local/gaussian/g09/l1.exe PID=     20367.
  
 Copyright (c) 1988,1990,1992,1993,1995,1998,2003,2009,2010,
            Gaussian, Inc.  All Rights Reserved.
  
 This is part of the Gaussian(R) 09 program.  It is based on
 the Gaussian(R) 03 system (copyright 2003, Gaussian, Inc.),
 the Gaussian(R) 98 system (copyright 1998, Gaussian, Inc.),
 the Gaussian(R) 94 system (copyright 1995, Gaussian, Inc.),
 the Gaussian 92(TM) system (copyright 1992, Gaussian, Inc.),
 the Gaussian 90(TM) system (copyright 1990, Gaussian, Inc.),
 the Gaussian 88(TM) system (copyright 1988, Gaussian, Inc.),
 the Gaussian 86(TM) system (copyright 1986, Carnegie Mellon
 University), and the Gaussian 82(TM) system (copyright 1983,
 Carnegie Mellon University). Gaussian is a federally registered
 trademark of Gaussian, Inc.
  
 This software contains proprietary and confidential information,
 including trade secrets, belonging to Gaussian, Inc.
  
 This software is provided under written license and may be
 used, copied, transmitted, or stored only in accord with that
 written license.
  
 The following legend is applicable only to US Government
 contracts under FAR:
  
                    RESTRICTED RIGHTS LEGEND
  
 Use, reproduction and disclosure by the US Government is
 subject to restrictions as set forth in subparagraphs (a)
 and (c) of the Commercial Computer Software - Restricted
 Rights clause in FAR 52.227-19.
  
 Gaussian, Inc.
 340 Quinnipiac St., Bldg. 40, Wallingford CT 06492
  
  
 ---------------------------------------------------------------
 Warning -- This program may not be used in any manner that
 competes with the business of Gaussian, Inc. or will provide
 assistance to any competitor of Gaussian, Inc.  The licensee
 of this program is prohibited from giving any competitor of
 Gaussian, Inc. access to this program.  By using this program,
 the user acknowledges that Gaussian, Inc. is engaged in the
 business of creating and licensing software in the field of
 computational chemistry and represents and warrants to the
 licensee that it is not a competitor of Gaussian, Inc. and that
 it will not use this program in any manner prohibited above.
 ---------------------------------------------------------------
  

 Cite this work as:
 Gaussian 09, Revision B.01,
 M. J. Frisch, G. W. Trucks, H. B. Schlegel, G. E. Scuseria, 
 M. A. Robb, J. R. Cheeseman, G. Scalmani, V. Barone, B. Mennucci, 
 G. A. Petersson, H. Nakatsuji, M. Caricato, X. Li, H. P. Hratchian, 
 A. F. Izmaylov, J. Bloino, G. Zheng, J. L. Sonnenberg, M. Hada, 
 M. Ehara, K. Toyota, R. Fukuda, J. Hasegawa, M. Ishida, T. Nakajima, 
 Y. Honda, O. Kitao, H. Nakai, T. Vreven, J. A. Montgomery, Jr., 
 J. E. Peralta, F. Ogliaro, M. Bearpark, J. J. Heyd, E. Brothers, 
 K. N. Kudin, V. N. Staroverov, T. Keith, R. Kobayashi, J. Normand, 
 K. Raghavachari, A. Rendell, J. C. Burant, S. S. Iyengar, J. Tomasi, 
 M. Cossi, N. Rega, J. M. Millam, M. Klene, J. E. Knox, J. B. Cross, 
 V. Bakken, C. Adamo, J. Jaramillo, R. Gomperts, R. E. Stratmann, 
 O. Yazyev, A. J. Austin, R. Cammi, C. Pomelli, J. W. Ochterski, 
 R. L. Martin, K. Morokuma, V. G. Zakrzewski, G. A. Voth, 
 P. Salvador, J. J. Dannenberg, S. Dapprich, A. D. Daniels, 
 O. Farkas, J. B. Foresman, J. V. Ortiz, J. Cioslowski, 
 and D. J. Fox, Gaussian, Inc., Wallingford CT, 2010.
 
 ******************************************
 Gaussian 09:  EM64L-G09RevB.01 12-Aug-2010
                 1-Mar-2016 
 ******************************************
 ------------------------------------------------
 # freq=raman b3lyp/6-31+g(d,p) geom=connectivity
 ------------------------------------------------
 1/10=4,30=1,38=1,57=2/1,3;
 2/12=2,17=6,18=5,40=1/2;
 3/5=1,6=6,7=111,11=2,16=1,25=1,30=1,71=2,74=-5/1,2,3;
 4//1;
 5/5=2,38=5,98=1/2;
 8/6=4,10=90,11=11/1;
 10/13=10,15=4/2;
 11/6=3,8=1,9=11,15=111,16=1/1,2,10;
 10/6=1/2;
 6/7=2,8=2,9=2,10=2,18=1,28=1/1;
 7/8=1,10=1,25=1/1,2,3,16;
 1/10=4,30=1/3;
 99//99;
 ------------
 400 9000.com
 ------------
 Symbolic Z-matrix:
 Charge =  0 Multiplicity = 1
 O                     9.762     7.75      22.428 
 C                     10.537    7.738     23.636 
 C                     10.458    9.2       24.042 
 O                     11.205    10.062    23.17 
 H                     10.903    9.796     22.254 
 C                     10.953    9.486     25.45 
 O                     10.43     10.717    25.968 
 H                     10.817    10.927    26.866 
 C                     10.28     5.414     24.462 
 O                     9.598     4.874     23.32 
 H                     9.601     3.894     23.521 
 C                     9.999     6.876     24.767 
 O                     10.738    7.137     25.968 
 C                     10.449    8.457     26.449 
 O                     11.249    8.476     27.64 
 C                     10.478    8.293     28.837 
 C                     10.41     6.832     29.254 
 O                     9.857     6.041     28.192 
 H                     10.108    6.366     27.28 
 C                     9.815     6.507     30.614 
 O                     9.848     5.134     31.032 
 H                     9.666     4.966     32.001 
 C                     11.259    10.568    29.776 
 O                     11.502    11.311    28.573 
 H                     11.484    12.292    28.765 
 C                     11.183    9.06      29.944 
 O                     10.55     8.781     31.201 
 C                     10.548    7.403     31.599 
 O                     9.859     7.282     32.852 
 H                     10.35102   7.75753   21.66998 
 H                     10.00481   4.83561   25.31911 
 H                     11.33258   5.30227   24.30551 
 H                     8.95264   7.04319   24.91561 
 H                     11.5506   7.4719    23.41987 
 H                     9.43071   9.49499   23.99136 
 H                     12.02263   9.51141   25.46227 
 H                     9.40875   8.58206   26.6661 
 H                     10.49931   7.21325   33.56395 
 H                     12.02334   10.88363   30.45502 
 H                     10.32315   10.93456   30.14304 
 H                     12.1865   8.69271   29.99865 
 H                     9.49      8.67943   28.69765 
 H                     11.43163   6.52227   29.32637 
 H                     8.78956   6.81216   30.59828 
 H                     11.55593   7.06177   31.71094 
 

 GradGradGradGradGradGradGradGradGradGradGradGradGradGradGradGradGradGrad
 Berny optimization.
 Initialization pass.
 Trust Radius=3.00D-01 FncErr=1.00D-07 GrdErr=1.00D-07
 Number of steps in this run=      2 maximum allowed number of steps=      2.
 GradGradGradGradGradGradGradGradGradGradGradGradGradGradGradGradGradGrad

                          Input orientation:                          
 ---------------------------------------------------------------------
 Center     Atomic      Atomic             Coordinates (Angstroms)
 Number     Number       Type             X           Y           Z
 ---------------------------------------------------------------------
      1          8           0        9.762000    7.750000   22.428000
      2          6           0       10.537000    7.738000   23.636000
      3          6           0       10.458000    9.200000   24.042000
      4          8           0       11.205000   10.062000   23.170000
      5          1           0       10.903000    9.796000   22.254000
      6          6           0       10.953000    9.486000   25.450000
      7          8           0       10.430000   10.717000   25.968000
      8          1           0       10.817000   10.927000   26.866000
      9          6           0       10.280000    5.414000   24.462000
     10          8           0        9.598000    4.874000   23.320000
     11          1           0        9.601000    3.894000   23.521000
     12          6           0        9.999000    6.876000   24.767000
     13          8           0       10.738000    7.137000   25.968000
     14          6           0       10.449000    8.457000   26.449000
     15          8           0       11.249000    8.476000   27.640000
     16          6           0       10.478000    8.293000   28.837000
     17          6           0       10.410000    6.832000   29.254000
     18          8           0        9.857000    6.041000   28.192000
     19          1           0       10.108000    6.366000   27.280000
     20          6           0        9.815000    6.507000   30.614000
     21          8           0        9.848000    5.134000   31.032000
     22          1           0        9.666000    4.966000   32.001000
     23          6           0       11.259000   10.568000   29.776000
     24          8           0       11.502000   11.311000   28.573000
     25          1           0       11.484000   12.292000   28.765000
     26          6           0       11.183000    9.060000   29.944000
     27          8           0       10.550000    8.781000   31.201000
     28          6           0       10.548000    7.403000   31.599000
     29          8           0        9.859000    7.282000   32.852000
     30          1           0       10.351021    7.757530   21.669978
     31          1           0       10.004809    4.835611   25.319109
     32          1           0       11.332580    5.302268   24.305506
     33          1           0        8.952643    7.043189   24.915614
     34          1           0       11.550597    7.471904   23.419867
     35          1           0        9.430713    9.494986   23.991365
     36          1           0       12.022628    9.511407   25.462271
     37          1           0        9.408746    8.582058   26.666100
     38          1           0       10.499313    7.213248   33.563950
     39          1           0       12.023341   10.883628   30.455016
     40          1           0       10.323150   10.934559   30.143041
     41          1           0       12.186500    8.692712   29.998650
     42          1           0        9.489995    8.679428   28.697645
     43          1           0       11.431630    6.522265   29.326368
     44          1           0        8.789560    6.812163   30.598276
     45          1           0       11.555935    7.061771   31.710939
 ---------------------------------------------------------------------
                    Distance matrix (angstroms):
                    1          2          3          4          5
     1  O    0.000000
     2  C    1.435282   0.000000
     3  C    2.278577   1.519382   0.000000
     4  O    2.824563   2.462591   1.435771   0.000000
     5  H    2.349100   2.505842   1.936539   1.000508   0.000000
     6  C    3.683023   2.553264   1.519633   2.365096   3.211388
     7  O    4.667003   3.784721   2.451846   2.976316   3.855615
     8  H    5.558975   4.547639   3.329623   3.815650   4.749432
     9  C    3.140442   2.479778   3.813382   4.912107   4.946243
    10  O    3.015615   3.030524   4.469358   5.433258   5.202448
    11  H    4.011148   3.957986   5.399956   6.382808   6.175281
    12  C    2.508180   1.520411   2.477354   3.762372   3.957118
    13  O    3.722895   2.416573   2.836167   4.074619   4.570700
    14  C    4.140080   2.904767   2.519083   3.728190   4.426857
    15  O    5.468381   4.133232   3.754392   4.743230   5.556178
    16  C    6.471691   5.230861   4.880069   5.981035   6.765761
    17  C    6.917868   5.692002   5.724917   6.933973   7.617634
    18  O    6.012770   4.909108   5.250046   6.573129   7.103097
    19  H    5.057378   3.917290   4.317256   5.635240   6.136579
    20  C    8.280003   7.122438   7.131401   8.365600   9.049357
    21  O    8.993312   7.871236   8.109535   9.377509   9.995026
    22  H    9.970065   8.855272   9.049845  10.311367  10.948200
    23  C    8.010945   6.799249   5.949099   6.625571   7.569888
    24  O    7.312274   6.170213   5.106488   5.553433   6.525625
    25  H    7.984524   6.924043   5.737584   6.029491   6.997192
    26  C    7.760515   6.477335   5.948011   6.847742   7.730213
    27  O    8.868452   7.636573   7.171841   8.158857   9.011306
    28  C    9.211159   7.970051   7.768240   8.862842   9.653056
    29  O   10.434951   9.252150   9.036240  10.162738  10.942017
    30  H    0.960000   1.974896   2.778247   2.879224   2.191146
    31  H    4.112315   3.397050   4.569933   5.777047   5.899754
    32  H    3.461668   2.648392   4.003329   4.894967   4.958512
    33  H    2.709771   2.151827   2.771486   4.151325   4.297214
    34  H    2.064029   1.070000   2.137085   2.624970   2.679561
    35  H    2.366186   2.106456   1.070000   2.035741   2.297102
    36  H    4.173702   2.947427   2.135931   2.495230   3.409921
    37  H    4.333428   3.341691   2.892868   4.199937   4.813842
    38  H   11.173232   9.941880   9.727097  10.800351  11.608124
    39  H    8.908775   7.655270   6.812611   7.376734   8.348338
    40  H    8.365295   7.252951   6.344256   7.082536   7.991840
    41  H    8.005102   6.641961   6.223081   7.033403   7.927435
    42  H    6.343995   5.253833   4.783624   5.950429   6.690581
    43  H    7.202949   5.887161   6.003562   7.105065   7.811221
    44  H    8.281219   7.237679   7.174274   8.460205   9.110260
    45  H    9.479705   8.167016   8.036797   9.059369   9.865902
                    6          7          8          9         10
     6  C    0.000000
     7  O    1.434299   0.000000
     8  H    2.024854   1.000136   0.000000
     9  C    4.243849   5.514739   6.038274   0.000000
    10  O    5.257706   6.468754   7.120315   1.435579   0.000000
    11  H    6.067900   7.295778   7.882307   1.912308   1.000405
    12  C    2.861591   4.047400   4.635248   1.519681   2.502522
    13  O    2.415026   3.593225   3.895734   2.333780   3.665061
    14  C    1.520151   2.310697   2.531840   3.638211   4.832466
    15  O    2.429777   2.913490   2.606358   4.518240   5.861963
    16  C    3.622243   3.756227   3.307222   5.241037   6.549905
    17  C    4.670009   5.088361   4.757859   4.999089   6.301227
    18  O    4.537379   5.209557   5.152948   3.805911   5.016508
    19  H    3.714475   4.555900   4.634307   2.979431   4.262366
    20  C    6.069298   6.299813   5.881149   6.265619   7.477714
    21  O    7.163774   7.559941   7.200928   6.590138   7.720430
    22  H    8.062405   8.369874   7.951512   7.577217   8.681754
    23  C    4.469747   3.900039   2.965189   7.467312   8.767012
    24  O    3.658573   2.878896   1.878970   7.291654   8.523743
    25  H    4.375480   3.378572   2.431936   8.201970   9.393175
    26  C    4.520001   4.372783   3.618526   6.645378   7.994510
    27  O    5.808049   5.580930   4.844464   7.538150   8.847661
    28  C    6.504853   6.534882   5.906964   7.413819   8.708627
    29  O    7.800260   7.714579   7.073612   8.605740   9.834918
    30  H    4.199828   5.218975   6.104205   3.645897   3.406517
    31  H    4.747875   5.932334   6.336999   1.070000   2.040442
    32  H    4.354028   5.735666   6.201578   1.070000   2.040442
    33  H    3.202237   4.097193   4.729040   2.149860   2.769088
    34  H    2.921497   4.275438   4.934743   2.633520   3.251417
    35  H    2.108330   2.529620   3.497997   4.194906   4.672497
    36  H    1.070000   2.060505   2.329785   4.563555   5.654528
    37  H    2.163500   2.467444   2.742607   3.956479   4.998189
    38  H    8.438448   8.365377   7.665208   9.280672  10.546229
    39  H    5.305580   4.764432   3.786578   8.298934   9.638794
    40  H    4.951734   4.182071   3.314052   7.921657   9.154786
    41  H    4.779231   4.840370   4.084247   6.711125   8.117097
    42  H    3.652142   3.533592   3.188643   5.406276   6.588780
    43  H    4.902962   5.466049   5.082605   5.120213   6.492721
    44  H    6.191496   6.275209   5.913736   6.467623   7.575180
    45  H    6.740903   6.899983   6.241750   7.542564   8.889753
                   11         12         13         14         15
    11  H    0.000000
    12  C    3.256262   0.000000
    13  O    4.218723   1.434100   0.000000
    14  C    5.487555   2.351847   1.434323   0.000000
    15  O    6.377836   3.518043   2.202187   1.434867   0.000000
    16  C    6.955587   4.336154   3.104045   2.393801   1.435527
    17  C    6.492581   4.505999   3.316384   3.241939   2.451867
    18  O    5.147173   3.528174   2.631265   3.037362   2.858600
    19  H    4.527462   2.566544   1.647023   2.275769   2.425609
    20  C    7.562024   5.861521   4.778509   4.642379   3.844216
    21  O    7.616674   6.504428   5.517989   5.692751   4.963610
    22  H    8.547737   7.489309   6.500732   6.604913   5.817586
    23  C    9.296035   6.348901   5.152093   4.022605   2.989826
    24  O    9.173243   6.034391   4.979156   3.710189   2.995283
    25  H   10.078275   6.893641   5.912170   4.598076   3.985311
    26  C    8.393164   5.742216   4.438978   3.621794   2.377778
    27  O    9.152364   6.732680   5.488385   4.764103   3.641751
    28  C    8.857989   6.874253   5.640480   5.257682   4.161299
    29  O    9.930391   8.096398   6.941406   6.536600   5.524733
    30  H    4.349216   3.239222   4.359794   4.830933   6.079781
    31  H    2.069514   2.113776   2.501004   3.819479   4.492992
    32  H    2.365806   2.113776   2.546302   3.915050   4.604173
    33  H    3.504669   1.070000   2.074564   2.566948   3.840375
    34  H    4.075850   2.139468   2.695451   3.370398   4.348413
    35  H    5.623281   2.789919   3.343080   2.855573   4.202028
    36  H    6.417793   3.394678   2.746605   2.135817   2.532404
    37  H    5.648584   2.620231   2.083855   1.070000   2.084770
    38  H   10.615329   8.817617   7.600081   7.223016   6.103258
    39  H   10.139192   7.246555   5.985201   4.941177   3.784256
    40  H    9.692388   6.743796   5.659021   4.449727   3.628626
    41  H    8.465956   5.954475   4.556812   3.959102   2.547372
    42  H    7.050553   4.354470   3.374547   2.454704   2.062546
    43  H    6.630330   4.792222   3.483914   3.603888   2.587329
    44  H    7.698178   5.955720   5.034023   4.761903   4.191491
    45  H    8.996201   7.118767   5.801381   5.555175   4.320508
                   16         17         18         19         20
    16  C    0.000000
    17  C    1.520866   0.000000
    18  O    2.423462   1.435038   0.000000
    19  H    2.504891   2.050618   1.000185   0.000000
    20  C    2.605205   1.519622   2.466780   3.349819   0.000000
    21  O    3.897975   2.521970   2.981330   3.957642   1.435598
    22  H    4.662528   3.403160   3.962397   4.944007   2.078618
    23  C    2.582113   3.866650   4.996838   5.021118   4.390797
    24  O    3.197905   4.660222   5.533903   5.297935   5.485441
    25  H    4.124224   5.586072   6.484633   6.262274   6.298459
    26  C    1.520119   2.457155   3.733918   3.938294   2.972900
    27  O    2.414917   2.758443   4.128187   4.626211   2.460868
    28  C    2.902696   2.417459   3.733654   4.463489   1.519977
    29  O    4.186348   3.667657   4.822415   5.652278   2.368798
    30  H    7.188119   7.640516   6.762197   5.785133   9.046915
    31  H    4.955099   4.430927   3.119025   2.489545   5.555667
    32  H    5.496292   5.261067   4.222310   3.388029   6.599358
    33  H    4.389307   4.581494   3.543579   2.717307   5.788157
    34  H    5.583010   5.978926   5.262035   4.266701   7.463169
    35  H    5.101153   5.978782   5.455005   4.589596   7.275647
    36  H    3.906301   4.914977   4.917834   4.106522   6.359276
    37  H    2.437143   3.280616   2.997712   2.403485   4.478484
    38  H    4.848749   4.327701   5.535754   6.352872   3.109546
    39  H    3.423070   4.523384   5.767610   5.844503   4.904785
    40  H    2.950856   4.198681   5.288740   5.395834   4.481439
    41  H    2.104323   2.678191   3.965115   4.138214   3.283292
    42  H    1.070000   2.137506   2.711397   2.782732   2.915045
    43  H    2.069877   1.070000   1.999466   2.442137   2.066814
    44  H    2.854085   2.105540   2.743043   3.598375   1.070000
    45  H    3.307173   2.720755   4.038723   4.713155   2.131173
                   21         22         23         24         25
    21  O    0.000000
    22  H    1.000154   0.000000
    23  C    5.752983   6.234635   0.000000
    24  O    6.851111   7.441848   1.434680   0.000000
    25  H    7.684579   8.212618   2.011199   0.999774   0.000000
    26  C    4.287125   4.826321   1.519231   2.654883   3.453472
    27  O    3.717792   3.996959   2.393047   3.770091   4.374194
    28  C    2.441280   2.622689   3.721031   5.033811   5.727999
    29  O    2.815391   2.474936   4.713764   6.102633   6.666655
    30  H    9.735677  10.723428   8.627327   7.848797   8.496140
    31  H    5.722827   6.691746   7.368661   7.400004   8.346251
    32  H    6.890429   7.881066   7.593396   7.371911   8.292549
    33  H    6.469687   7.417971   6.431713   6.171702   6.983950
    34  H    8.143047   9.136034   7.076106   6.426181   7.197792
    35  H    8.292338   9.204419   6.160844   5.345981   5.901429
    36  H    7.410302   8.304782   4.506415   3.631285   4.350844
    37  H    5.580603   6.450055   4.127818   3.932570   4.740858
    38  H    3.340397   2.861354   5.116644   6.535023   7.056433
    39  H    6.174402   6.554803   1.070000   1.999106   2.265072
    40  H    5.887486   6.285503   1.070000   1.999106   2.255929
    41  H    4.381875   4.924501   2.103933   3.058832   3.869144
    42  H    4.259981   4.973196   2.803378   3.314946   4.126895
    43  H    2.710045   3.562733   4.074302   4.848144   5.797216
    44  H    2.030922   2.478730   4.569527   5.630151   6.375697
    45  H    2.663513   2.836943   4.015694   5.282567   6.003251
                   26         27         28         29         30
    26  C    0.000000
    27  O    1.434775   0.000000
    28  C    2.426499   1.434326   0.000000
    29  O    3.656600   2.334584   1.435051   0.000000
    30  H    8.417129   9.587881   9.937302  11.202939   0.000000
    31  H    6.373634   7.103518   6.806143   7.921523   4.687604
    32  H    6.777576   7.762851   7.630446   8.895692   3.733334
    33  H    5.858898   6.713987   6.880573   7.991542   3.605537
    34  H    6.724693   7.953676   8.240641   9.584503   2.140719
    35  H    6.220417   7.330854   7.968742   9.142844   3.042131
    36  H    4.581991   5.969518   6.654273   8.016211   4.500204
    37  H    3.757797   4.680530   5.198229   6.337053   5.150628
    38  H    4.120917   2.836185   1.974691   0.960000  11.907342
    39  H    2.071939   2.673625   3.949697   4.837523   9.473438
    40  H    2.071939   2.410094   3.826523   4.571113   9.049149
    41  H    1.070000   2.032627   2.628528   3.943218   8.579647
    42  H    2.136469   2.720425   3.341632   4.398594   7.139984
    43  H    2.623620   3.064865   2.592557   3.934519   7.830319
    44  H    3.348045   2.709012   2.107759   2.538449   9.112979
    45  H    2.693338   2.056135   1.070000   2.056723  10.136903
                   31         32         33         34         35
    31  H    0.000000
    32  H    1.734398   0.000000
    33  H    2.478561   3.011169   0.000000
    34  H    3.598142   2.353553   3.028270   0.000000
    35  H    4.878757   4.614615   2.663475   2.985529   0.000000
    36  H    5.094620   4.419403   3.976901   2.924688   2.980245
    37  H    4.025611   4.475552   2.374942   4.044502   2.826328
    38  H    8.595062   9.490256   8.787197  10.201692   9.898617
    39  H    8.187217   8.333379   7.406965   7.833050   7.101326
    40  H    7.782598   8.174256   6.659358   7.661441   6.380590
    41  H    6.444774   6.681032   6.246281   6.721246   6.657739
    42  H    5.143391   5.838769   4.155694   5.793025   4.776790
    43  H    4.575887   5.167907   5.086402   5.983538   6.426741
    44  H    5.766558   6.953106   5.689694   7.719336   7.159601
    45  H    6.943866   7.614865   7.276944   8.301212   8.368329
                   36         37         38         39         40
    36  H    0.000000
    37  H    3.024115   0.000000
    38  H    8.557992   7.116411   0.000000
    39  H    5.177885   5.146767   5.045773   0.000000
    40  H    5.179112   4.296454   5.057845   1.729327   0.000000
    41  H    4.612576   4.339822   4.212692   2.243881   2.918698
    42  H    4.192143   2.035500   5.181633   3.790077   2.805161
    43  H    4.920924   3.925790   4.393606   4.543727   4.622122
    44  H    6.642077   4.356366   3.446643   5.201412   4.421909
    45  H    6.727880   5.689648   2.138468   4.049988   4.356207
                   41         42         43         44         45
    41  H    0.000000
    42  H    2.993982   0.000000
    43  H    2.394292   2.969611   0.000000
    44  H    3.928768   2.754938   2.946578   0.000000
    45  H    2.447348   3.995605   2.447999   2.992182   0.000000
 Stoichiometry    C12H22O11
 Framework group  C1[X(C12H22O11)]
 Deg. of freedom   129
 Full point group                 C1      NOp   1
 Largest Abelian subgroup         C1      NOp   1
 Largest concise Abelian subgroup C1      NOp   1
                         Standard orientation:                         
 ---------------------------------------------------------------------
 Center     Atomic      Atomic             Coordinates (Angstroms)
 Number     Number       Type             X           Y           Z
 ---------------------------------------------------------------------
      1          8           0        4.919773   -0.423176   -0.589372
      2          6           0        3.704973   -0.242048    0.153249
      3          6           0        3.315180    1.163321   -0.272802
      4          8           0        4.189681    2.170037    0.259371
      5          1           0        5.105423    1.832770    0.038729
      6          6           0        1.906005    1.569605    0.125251
      7          8           0        1.405665    2.646664   -0.678998
      8          1           0        0.506584    2.949422   -0.362354
      9          6           0        2.856701   -2.554199    0.442545
     10          8           0        3.998850   -3.249238   -0.080242
     11          1           0        3.787468   -4.199174    0.151596
     12          6           0        2.569667   -1.197321   -0.178684
     13          8           0        1.365072   -0.759462    0.464645
     14          6           0        0.900621    0.458989   -0.132803
     15          8           0       -0.297071    0.676001    0.626987
     16          6           0       -1.489144    0.326099   -0.092228
     17          6           0       -1.920975   -1.106216    0.181685
     18          8           0       -0.862605   -2.014065   -0.157431
     19          1           0        0.050551   -1.646527    0.019859
     20          6           0       -3.279076   -1.551237   -0.334810
     21          8           0       -3.711860   -2.874201    0.016482
     22          1           0       -4.680953   -3.072428   -0.131415
     23          6           0       -2.410813    2.728781    0.119790
     24          8           0       -1.202189    3.498223    0.193923
     25          1           0       -1.383629    4.448823   -0.057053
     26          6           0       -2.594094    1.246860    0.399755
     27          8           0       -3.848386    0.836726   -0.163381
     28          6           0       -4.260917   -0.499519    0.155300
     29          8           0       -5.509047   -0.769365   -0.499473
     30          1           0        5.672646   -0.283113   -0.010438
     31          1           0        1.995960   -3.174122    0.302115
     32          1           0        3.002780   -2.415706    1.493440
     33          1           0        2.432000   -1.280522   -1.236524
     34          1           0        3.909394   -0.263243    1.203327
     35          1           0        3.377929    1.207167   -1.340060
     36          1           0        1.884638    1.846770    1.158509
     37          1           0        0.693974    0.336852   -1.175530
     38          1           0       -6.227264   -0.679241    0.131115
     39          1           0       -3.093116    3.221413    0.780604
     40          1           0       -2.765744    2.867184   -0.880094
     41          1           0       -2.661415    1.127177    1.460907
     42          1           0       -1.337060    0.467341   -1.141905
     43          1           0       -2.005561   -1.165550    1.246685
     44          1           0       -3.251143   -1.496779   -1.403058
     45          1           0       -4.385284   -0.592363    1.213984
 ---------------------------------------------------------------------
 Rotational constants (GHZ):      0.4021335      0.1502131      0.1121663
 Standard basis: 6-31+G(d,p) (6D, 7F)
 There are   547 symmetry adapted basis functions of A   symmetry.
 Integral buffers will be    131072 words long.
 Raffenetti 2 integral format.
 Two-electron integral symmetry is turned on.
   547 basis functions,   890 primitive gaussians,   547 cartesian basis functions
    91 alpha electrons       91 beta electrons
       nuclear repulsion energy      2295.8874359989 Hartrees.
 NAtoms=   45 NActive=   45 NUniq=   45 SFac= 1.00D+00 NAtFMM=   50 NAOKFM=F Big=F
 One-electron integrals computed using PRISM.
 NBasis=   547 RedAO= T  NBF=   547
 NBsUse=   547 1.00D-06 NBFU=   547
 Harris functional with IExCor=  402 diagonalized for initial guess.
 ExpMin= 4.38D-02 ExpMax= 5.48D+03 ExpMxC= 8.25D+02 IAcc=2 IRadAn=         0 AccDes= 0.00D+00
 HarFok:  IExCor=  402 AccDes= 0.00D+00 IRadAn=         0 IDoV= 1
 ScaDFX=  1.000000  1.000000  1.000000  1.000000
 FoFCou: FMM=F IPFlag=           0 FMFlag=      100000 FMFlg1=           0
         NFxFlg=           0 DoJE=T BraDBF=F KetDBF=T FulRan=T
         Omega=  0.000000  0.000000  1.000000  0.000000  0.000000 ICntrl=     500 IOpCl=  0
         NMat0=    1 NMatS0=    1 NMatT0=    0 NMatD0=    1 NMtDS0=    0 NMtDT0=    0
         I1Cent=           4 NGrid=           0.
 Petite list used in FoFCou.
 Initial guess orbital symmetries:
       Occupied  (A) (A) (A) (A) (A) (A) (A) (A) (A) (A) (A) (A)
                 (A) (A) (A) (A) (A) (A) (A) (A) (A) (A) (A) (A)
                 (A) (A) (A) (A) (A) (A) (A) (A) (A) (A) (A) (A)
                 (A) (A) (A) (A) (A) (A) (A) (A) (A) (A) (A) (A)
                 (A) (A) (A) (A) (A) (A) (A) (A) (A) (A) (A) (A)
                 (A) (A) (A) (A) (A) (A) (A) (A) (A) (A) (A) (A)
                 (A) (A) (A) (A) (A) (A) (A) (A) (A) (A) (A) (A)
                 (A) (A) (A) (A) (A) (A) (A)
       Virtual   (A) (A) (A) (A) (A) (A) (A) (A) (A) (A) (A) (A)
                 (A) (A) (A) (A) (A) (A) (A) (A) (A) (A) (A) (A)
                 (A) (A) (A) (A) (A) (A) (A) (A) (A) (A) (A) (A)
                 (A) (A) (A) (A) (A) (A) (A) (A) (A) (A) (A) (A)
                 (A) (A) (A) (A) (A) (A) (A) (A) (A) (A) (A) (A)
                 (A) (A) (A) (A) (A) (A) (A) (A) (A) (A) (A) (A)
                 (A) (A) (A) (A) (A) (A) (A) (A) (A) (A) (A) (A)
                 (A) (A) (A) (A) (A) (A) (A) (A) (A) (A) (A) (A)
                 (A) (A) (A) (A) (A) (A) (A) (A) (A) (A) (A) (A)
                 (A) (A) (A) (A) (A) (A) (A) (A) (A) (A) (A) (A)
                 (A) (A) (A) (A) (A) (A) (A) (A) (A) (A) (A) (A)
                 (A) (A) (A) (A) (A) (A) (A) (A) (A) (A) (A) (A)
                 (A) (A) (A) (A) (A) (A) (A) (A) (A) (A) (A) (A)
                 (A) (A) (A) (A) (A) (A) (A) (A) (A) (A) (A) (A)
                 (A) (A) (A) (A) (A) (A) (A) (A) (A) (A) (A) (A)
                 (A) (A) (A) (A) (A) (A) (A) (A) (A) (A) (A) (A)
                 (A) (A) (A) (A) (A) (A) (A) (A) (A) (A) (A) (A)
                 (A) (A) (A) (A) (A) (A) (A) (A) (A) (A) (A) (A)
                 (A) (A) (A) (A) (A) (A) (A) (A) (A) (A) (A) (A)
                 (A) (A) (A) (A) (A) (A) (A) (A) (A) (A) (A) (A)
                 (A) (A) (A) (A) (A) (A) (A) (A) (A) (A) (A) (A)
                 (A) (A) (A) (A) (A) (A) (A) (A) (A) (A) (A) (A)
                 (A) (A) (A) (A) (A) (A) (A) (A) (A) (A) (A) (A)
                 (A) (A) (A) (A) (A) (A) (A) (A) (A) (A) (A) (A)
                 (A) (A) (A) (A) (A) (A) (A) (A) (A) (A) (A) (A)
                 (A) (A) (A) (A) (A) (A) (A) (A) (A) (A) (A) (A)
                 (A) (A) (A) (A) (A) (A) (A) (A) (A) (A) (A) (A)
                 (A) (A) (A) (A) (A) (A) (A) (A) (A) (A) (A) (A)
                 (A) (A) (A) (A) (A) (A) (A) (A) (A) (A) (A) (A)
                 (A) (A) (A) (A) (A) (A) (A) (A) (A) (A) (A) (A)
                 (A) (A) (A) (A) (A) (A) (A) (A) (A) (A) (A) (A)
                 (A) (A) (A) (A) (A) (A) (A) (A) (A) (A) (A) (A)
                 (A) (A) (A) (A) (A) (A) (A) (A) (A) (A) (A) (A)
                 (A) (A) (A) (A) (A) (A) (A) (A) (A) (A) (A) (A)
                 (A) (A) (A) (A) (A) (A) (A) (A) (A) (A) (A) (A)
                 (A) (A) (A) (A) (A) (A) (A) (A) (A) (A) (A) (A)
                 (A) (A) (A) (A) (A) (A) (A) (A) (A) (A) (A) (A)
                 (A) (A) (A) (A) (A) (A) (A) (A) (A) (A) (A) (A)
 The electronic state of the initial guess is 1-A.
 Requested convergence on RMS density matrix=1.00D-08 within 128 cycles.
 Requested convergence on MAX density matrix=1.00D-06.
 Requested convergence on             energy=1.00D-06.
 No special actions if energy rises.
 SCF Done:  E(RB3LYP) =  -1297.93134404     A.U. after   13 cycles
             Convg  =    0.6894D-08             -V/T =  2.0087
 Range of M.O.s used for correlation:     1   547
 NBasis=   547 NAE=    91 NBE=    91 NFC=     0 NFV=     0
 NROrb=    547 NOA=    91 NOB=    91 NVA=   456 NVB=   456

 **** Warning!!: The largest alpha MO coefficient is  0.84656301D+02

          Differentiating once with respect to electric field.
                with respect to dipole field.
          Electric field/nuclear overlap derivatives assumed to be zero.
          There are     3 degrees of freedom in the 1st order CPHF.  IDoFFX=0.
      3 vectors produced by pass  0 Test12= 1.38D-12 3.33D-08 XBig12= 1.19D+02 1.64D+00.
 AX will form     3 AO Fock derivatives at one time.
      3 vectors produced by pass  1 Test12= 1.38D-12 3.33D-08 XBig12= 2.26D+01 4.22D-01.
      3 vectors produced by pass  2 Test12= 1.38D-12 3.33D-08 XBig12= 9.91D+00 2.28D-01.
      3 vectors produced by pass  3 Test12= 1.38D-12 3.33D-08 XBig12= 8.72D-01 9.20D-02.
      3 vectors produced by pass  4 Test12= 1.38D-12 3.33D-08 XBig12= 2.56D-01 3.87D-02.
      3 vectors produced by pass  5 Test12= 1.38D-12 3.33D-08 XBig12= 5.40D-02 2.34D-02.
      3 vectors produced by pass  6 Test12= 1.38D-12 3.33D-08 XBig12= 1.63D-02 1.64D-02.
      3 vectors produced by pass  7 Test12= 1.38D-12 3.33D-08 XBig12= 1.98D-03 8.23D-03.
      3 vectors produced by pass  8 Test12= 1.38D-12 3.33D-08 XBig12= 4.60D-04 3.01D-03.
      3 vectors produced by pass  9 Test12= 1.38D-12 3.33D-08 XBig12= 1.12D-04 1.91D-03.
      3 vectors produced by pass 10 Test12= 1.38D-12 3.33D-08 XBig12= 2.58D-05 8.03D-04.
      3 vectors produced by pass 11 Test12= 1.38D-12 3.33D-08 XBig12= 6.77D-06 4.04D-04.
      3 vectors produced by pass 12 Test12= 1.38D-12 3.33D-08 XBig12= 7.16D-07 1.04D-04.
      3 vectors produced by pass 13 Test12= 1.38D-12 3.33D-08 XBig12= 2.45D-07 3.68D-05.
      3 vectors produced by pass 14 Test12= 1.38D-12 3.33D-08 XBig12= 4.41D-08 1.37D-05.
      3 vectors produced by pass 15 Test12= 1.38D-12 3.33D-08 XBig12= 9.13D-09 9.32D-06.
      3 vectors produced by pass 16 Test12= 1.38D-12 3.33D-08 XBig12= 7.43D-10 2.96D-06.
      3 vectors produced by pass 17 Test12= 1.38D-12 3.33D-08 XBig12= 1.10D-10 1.00D-06.
      3 vectors produced by pass 18 Test12= 1.38D-12 3.33D-08 XBig12= 3.65D-11 3.51D-07.
      3 vectors produced by pass 19 Test12= 1.38D-12 3.33D-08 XBig12= 1.54D-11 3.56D-07.
      2 vectors produced by pass 20 Test12= 1.38D-12 3.33D-08 XBig12= 8.87D-12 2.09D-07.
      2 vectors produced by pass 21 Test12= 1.38D-12 3.33D-08 XBig12= 1.21D-12 9.43D-08.
 Inverted reduced A of dimension    64 with in-core refinement.
 End of Minotr Frequency-dependent properties file   721 does not exist.
 End of Minotr Frequency-dependent properties file   722 does not exist.
 Symmetrizing basis deriv contribution to polar:
 IMax=3 JMax=2 DiffMx= 0.00D+00
 G2DrvN: will do    23 centers at a time, making    2 passes doing MaxLOS=2.
 Calling FoFCou, ICntrl=  3107 FMM=F I1Cent=   0 AccDes= 0.00D+00.
 Calling FoFCou, ICntrl=  3107 FMM=F I1Cent=   0 AccDes= 0.00D+00.
 FoFDir/FoFCou used for L=0 through L=2.
 End of G2Drv Frequency-dependent properties file   721 does not exist.
 End of G2Drv Frequency-dependent properties file   722 does not exist.
          IDoAtm=111111111111111111111111111111111111111111111
          Differentiating once with respect to electric field.
                with respect to dipole field.
          Differentiating once with respect to nuclear coordinates.
          There are   138 degrees of freedom in the 1st order CPHF.  IDoFFX=5.
 Will reuse    3 saved solutions.
    135 vectors produced by pass  0 Test12= 4.15D-14 1.00D-09 XBig12= 2.35D-01 8.61D-02.
 AX will form    68 AO Fock derivatives at one time.
    135 vectors produced by pass  1 Test12= 4.15D-14 1.00D-09 XBig12= 2.90D-02 1.88D-02.
    132 vectors produced by pass  2 Test12= 4.15D-14 1.00D-09 XBig12= 2.93D-04 1.71D-03.
    132 vectors produced by pass  3 Test12= 4.15D-14 1.00D-09 XBig12= 1.19D-06 7.57D-05.
    132 vectors produced by pass  4 Test12= 4.15D-14 1.00D-09 XBig12= 1.82D-09 2.64D-06.
    131 vectors produced by pass  5 Test12= 4.15D-14 1.00D-09 XBig12= 6.72D-12 2.26D-07.
     77 vectors produced by pass  6 Test12= 4.15D-14 1.00D-09 XBig12= 2.44D-13 2.73D-08.
 Inverted reduced A of dimension   874 with in-core refinement.
 Isotropic polarizability for W=    0.000000      187.15 Bohr**3.
 End of Minotr Frequency-dependent properties file   721 does not exist.
 End of Minotr Frequency-dependent properties file   722 does not exist.

 **********************************************************************

            Population analysis using the SCF density.

 **********************************************************************

 Orbital symmetries:
       Occupied  (A) (A) (A) (A) (A) (A) (A) (A) (A) (A) (A) (A)
                 (A) (A) (A) (A) (A) (A) (A) (A) (A) (A) (A) (A)
                 (A) (A) (A) (A) (A) (A) (A) (A) (A) (A) (A) (A)
                 (A) (A) (A) (A) (A) (A) (A) (A) (A) (A) (A) (A)
                 (A) (A) (A) (A) (A) (A) (A) (A) (A) (A) (A) (A)
                 (A) (A) (A) (A) (A) (A) (A) (A) (A) (A) (A) (A)
                 (A) (A) (A) (A) (A) (A) (A) (A) (A) (A) (A) (A)
                 (A) (A) (A) (A) (A) (A) (A)
       Virtual   (A) (A) (A) (A) (A) (A) (A) (A) (A) (A) (A) (A)
                 (A) (A) (A) (A) (A) (A) (A) (A) (A) (A) (A) (A)
                 (A) (A) (A) (A) (A) (A) (A) (A) (A) (A) (A) (A)
                 (A) (A) (A) (A) (A) (A) (A) (A) (A) (A) (A) (A)
                 (A) (A) (A) (A) (A) (A) (A) (A) (A) (A) (A) (A)
                 (A) (A) (A) (A) (A) (A) (A) (A) (A) (A) (A) (A)
                 (A) (A) (A) (A) (A) (A) (A) (A) (A) (A) (A) (A)
                 (A) (A) (A) (A) (A) (A) (A) (A) (A) (A) (A) (A)
                 (A) (A) (A) (A) (A) (A) (A) (A) (A) (A) (A) (A)
                 (A) (A) (A) (A) (A) (A) (A) (A) (A) (A) (A) (A)
                 (A) (A) (A) (A) (A) (A) (A) (A) (A) (A) (A) (A)
                 (A) (A) (A) (A) (A) (A) (A) (A) (A) (A) (A) (A)
                 (A) (A) (A) (A) (A) (A) (A) (A) (A) (A) (A) (A)
                 (A) (A) (A) (A) (A) (A) (A) (A) (A) (A) (A) (A)
                 (A) (A) (A) (A) (A) (A) (A) (A) (A) (A) (A) (A)
                 (A) (A) (A) (A) (A) (A) (A) (A) (A) (A) (A) (A)
                 (A) (A) (A) (A) (A) (A) (A) (A) (A) (A) (A) (A)
                 (A) (A) (A) (A) (A) (A) (A) (A) (A) (A) (A) (A)
                 (A) (A) (A) (A) (A) (A) (A) (A) (A) (A) (A) (A)
                 (A) (A) (A) (A) (A) (A) (A) (A) (A) (A) (A) (A)
                 (A) (A) (A) (A) (A) (A) (A) (A) (A) (A) (A) (A)
                 (A) (A) (A) (A) (A) (A) (A) (A) (A) (A) (A) (A)
                 (A) (A) (A) (A) (A) (A) (A) (A) (A) (A) (A) (A)
                 (A) (A) (A) (A) (A) (A) (A) (A) (A) (A) (A) (A)
                 (A) (A) (A) (A) (A) (A) (A) (A) (A) (A) (A) (A)
                 (A) (A) (A) (A) (A) (A) (A) (A) (A) (A) (A) (A)
                 (A) (A) (A) (A) (A) (A) (A) (A) (A) (A) (A) (A)
                 (A) (A) (A) (A) (A) (A) (A) (A) (A) (A) (A) (A)
                 (A) (A) (A) (A) (A) (A) (A) (A) (A) (A) (A) (A)
                 (A) (A) (A) (A) (A) (A) (A) (A) (A) (A) (A) (A)
                 (A) (A) (A) (A) (A) (A) (A) (A) (A) (A) (A) (A)
                 (A) (A) (A) (A) (A) (A) (A) (A) (A) (A) (A) (A)
                 (A) (A) (A) (A) (A) (A) (A) (A) (A) (A) (A) (A)
                 (A) (A) (A) (A) (A) (A) (A) (A) (A) (A) (A) (A)
                 (A) (A) (A) (A) (A) (A) (A) (A) (A) (A) (A) (A)
                 (A) (A) (A) (A) (A) (A) (A) (A) (A) (A) (A) (A)
                 (A) (A) (A) (A) (A) (A) (A) (A) (A) (A) (A) (A)
                 (A) (A) (A) (A) (A) (A) (A) (A) (A) (A) (A) (A)
 The electronic state is 1-A.
 Alpha  occ. eigenvalues --  -19.20225 -19.19518 -19.19229 -19.19194 -19.19006
 Alpha  occ. eigenvalues --  -19.17899 -19.17145 -19.16639 -19.16506 -19.14396
 Alpha  occ. eigenvalues --  -19.13399 -10.31290 -10.30851 -10.26962 -10.26443
 Alpha  occ. eigenvalues --  -10.26009 -10.25803 -10.25692 -10.25251 -10.24486
 Alpha  occ. eigenvalues --  -10.24402 -10.24361 -10.24272  -1.11180  -1.09188
 Alpha  occ. eigenvalues --   -1.05958  -1.05280  -1.04550  -1.03741  -1.03001
 Alpha  occ. eigenvalues --   -1.02415  -1.02017  -1.00553  -0.99678  -0.82345
 Alpha  occ. eigenvalues --   -0.80458  -0.79827  -0.78272  -0.72177  -0.69997
 Alpha  occ. eigenvalues --   -0.67580  -0.65279  -0.63326  -0.62845  -0.61798
 Alpha  occ. eigenvalues --   -0.60421  -0.56569  -0.55929  -0.55707  -0.54672
 Alpha  occ. eigenvalues --   -0.54420  -0.53658  -0.52738  -0.52114  -0.52067
 Alpha  occ. eigenvalues --   -0.50431  -0.50201  -0.49673  -0.49221  -0.46986
 Alpha  occ. eigenvalues --   -0.46386  -0.45232  -0.44282  -0.44035  -0.43236
 Alpha  occ. eigenvalues --   -0.42223  -0.41744  -0.41220  -0.40693  -0.39662
 Alpha  occ. eigenvalues --   -0.38936  -0.37829  -0.36857  -0.36842  -0.36374
 Alpha  occ. eigenvalues --   -0.35802  -0.35166  -0.34307  -0.34019  -0.33424
 Alpha  occ. eigenvalues --   -0.33147  -0.31010  -0.30750  -0.30449  -0.29863
 Alpha  occ. eigenvalues --   -0.29620  -0.28944  -0.28064  -0.27743  -0.26778
 Alpha  occ. eigenvalues --   -0.25918
 Alpha virt. eigenvalues --   -0.02419  -0.02103  -0.01908  -0.00550   0.00309
 Alpha virt. eigenvalues --    0.01210   0.02149   0.02300   0.03263   0.03463
 Alpha virt. eigenvalues --    0.03935   0.04364   0.04942   0.05441   0.05957
 Alpha virt. eigenvalues --    0.06230   0.06864   0.07245   0.07547   0.07969
 Alpha virt. eigenvalues --    0.08407   0.08695   0.09133   0.09545   0.10125
 Alpha virt. eigenvalues --    0.10643   0.11249   0.11370   0.11849   0.12188
 Alpha virt. eigenvalues --    0.12340   0.13191   0.13547   0.13783   0.13966
 Alpha virt. eigenvalues --    0.14148   0.14402   0.14905   0.15315   0.15488
 Alpha virt. eigenvalues --    0.15903   0.16109   0.16764   0.16963   0.17337
 Alpha virt. eigenvalues --    0.17488   0.17552   0.17897   0.18207   0.18449
 Alpha virt. eigenvalues --    0.18806   0.19129   0.19394   0.19920   0.20244
 Alpha virt. eigenvalues --    0.20541   0.20665   0.21245   0.21369   0.21623
 Alpha virt. eigenvalues --    0.21981   0.22484   0.22510   0.22892   0.23108
 Alpha virt. eigenvalues --    0.23758   0.23984   0.24194   0.24473   0.25015
 Alpha virt. eigenvalues --    0.25125   0.25407   0.25512   0.25848   0.26017
 Alpha virt. eigenvalues --    0.26198   0.26698   0.26734   0.27156   0.27483
 Alpha virt. eigenvalues --    0.27529   0.28190   0.28525   0.28858   0.29570
 Alpha virt. eigenvalues --    0.29686   0.29769   0.29955   0.30516   0.30558
 Alpha virt. eigenvalues --    0.30970   0.31631   0.31716   0.32177   0.32653
 Alpha virt. eigenvalues --    0.32844   0.33121   0.33278   0.33538   0.34163
 Alpha virt. eigenvalues --    0.34541   0.34954   0.35439   0.35739   0.35980
 Alpha virt. eigenvalues --    0.36363   0.36727   0.37241   0.37443   0.37708
 Alpha virt. eigenvalues --    0.38187   0.38654   0.38947   0.39593   0.39773
 Alpha virt. eigenvalues --    0.40322   0.40472   0.40939   0.41418   0.41945
 Alpha virt. eigenvalues --    0.42184   0.42509   0.42653   0.43416   0.44574
 Alpha virt. eigenvalues --    0.44675   0.45379   0.45518   0.46746   0.47094
 Alpha virt. eigenvalues --    0.47385   0.48158   0.48932   0.49325   0.50445
 Alpha virt. eigenvalues --    0.51577   0.54297   0.55728   0.62663   0.64386
 Alpha virt. eigenvalues --    0.64970   0.66266   0.68227   0.68414   0.69131
 Alpha virt. eigenvalues --    0.71490   0.72189   0.72953   0.73079   0.74129
 Alpha virt. eigenvalues --    0.74632   0.75516   0.77799   0.78407   0.78843
 Alpha virt. eigenvalues --    0.80289   0.80617   0.81091   0.82174   0.83022
 Alpha virt. eigenvalues --    0.85281   0.85809   0.86828   0.88110   0.90116
 Alpha virt. eigenvalues --    0.90951   0.91674   0.92706   0.93904   0.94214
 Alpha virt. eigenvalues --    0.95816   0.96576   0.98056   0.99696   1.00076
 Alpha virt. eigenvalues --    1.00725   1.01392   1.01611   1.02590   1.04524
 Alpha virt. eigenvalues --    1.05648   1.05959   1.06131   1.07249   1.07495
 Alpha virt. eigenvalues --    1.07971   1.08737   1.09286   1.10102   1.10896
 Alpha virt. eigenvalues --    1.11930   1.12611   1.13668   1.14778   1.15598
 Alpha virt. eigenvalues --    1.16641   1.16933   1.19678   1.20145   1.20731
 Alpha virt. eigenvalues --    1.22212   1.22672   1.24069   1.24438   1.25093
 Alpha virt. eigenvalues --    1.26181   1.26470   1.27014   1.27773   1.28837
 Alpha virt. eigenvalues --    1.29032   1.29673   1.30158   1.30811   1.31915
 Alpha virt. eigenvalues --    1.32331   1.32492   1.32918   1.34331   1.34666
 Alpha virt. eigenvalues --    1.35734   1.36146   1.37587   1.38250   1.38612
 Alpha virt. eigenvalues --    1.39458   1.39995   1.41361   1.43001   1.43222
 Alpha virt. eigenvalues --    1.44676   1.45657   1.46020   1.47566   1.48230
 Alpha virt. eigenvalues --    1.48997   1.49978   1.51554   1.52745   1.53881
 Alpha virt. eigenvalues --    1.54459   1.55922   1.56812   1.57071   1.58221
 Alpha virt. eigenvalues --    1.58488   1.59268   1.59464   1.60204   1.61053
 Alpha virt. eigenvalues --    1.61457   1.62904   1.63590   1.64668   1.65601
 Alpha virt. eigenvalues --    1.66336   1.67687   1.68332   1.69250   1.69434
 Alpha virt. eigenvalues --    1.70674   1.71261   1.72051   1.73531   1.73930
 Alpha virt. eigenvalues --    1.74188   1.75351   1.77388   1.77504   1.78150
 Alpha virt. eigenvalues --    1.78476   1.79429   1.80151   1.80581   1.82372
 Alpha virt. eigenvalues --    1.83596   1.84976   1.85562   1.87022   1.87771
 Alpha virt. eigenvalues --    1.88766   1.89802   1.90217   1.91024   1.91082
 Alpha virt. eigenvalues --    1.91706   1.92498   1.94131   1.94509   1.95699
 Alpha virt. eigenvalues --    1.96192   1.97112   1.97600   1.98347   1.99656
 Alpha virt. eigenvalues --    1.99975   2.00439   2.00928   2.01215   2.02199
 Alpha virt. eigenvalues --    2.03987   2.04521   2.05190   2.06293   2.06670
 Alpha virt. eigenvalues --    2.07060   2.07786   2.08624   2.10381   2.12396
 Alpha virt. eigenvalues --    2.12619   2.13492   2.14428   2.16005   2.16718
 Alpha virt. eigenvalues --    2.17041   2.18408   2.18886   2.19604   2.20557
 Alpha virt. eigenvalues --    2.21748   2.22875   2.23590   2.24771   2.27391
 Alpha virt. eigenvalues --    2.28924   2.31353   2.31928   2.32931   2.33627
 Alpha virt. eigenvalues --    2.35250   2.37286   2.38086   2.38254   2.39267
 Alpha virt. eigenvalues --    2.41240   2.41450   2.42455   2.44253   2.44988
 Alpha virt. eigenvalues --    2.45189   2.47055   2.47357   2.48894   2.49874
 Alpha virt. eigenvalues --    2.50256   2.51309   2.53007   2.55400   2.55834
 Alpha virt. eigenvalues --    2.57449   2.58241   2.59360   2.60394   2.61456
 Alpha virt. eigenvalues --    2.61784   2.62398   2.63086   2.64152   2.64508
 Alpha virt. eigenvalues --    2.66348   2.66928   2.67591   2.68516   2.70572
 Alpha virt. eigenvalues --    2.71215   2.72099   2.73264   2.73474   2.75305
 Alpha virt. eigenvalues --    2.76103   2.77079   2.78149   2.79567   2.81276
 Alpha virt. eigenvalues --    2.81987   2.83380   2.84056   2.84734   2.86075
 Alpha virt. eigenvalues --    2.87211   2.87546   2.88419   2.89172   2.89418
 Alpha virt. eigenvalues --    2.90300   2.91680   2.92315   2.92806   2.94216
 Alpha virt. eigenvalues --    2.94778   2.96391   2.97283   2.98016   2.98800
 Alpha virt. eigenvalues --    3.01693   3.03564   3.04370   3.05026   3.05735
 Alpha virt. eigenvalues --    3.07661   3.10147   3.11721   3.11863   3.12470
 Alpha virt. eigenvalues --    3.14634   3.18369   3.23599   3.26804   3.29822
 Alpha virt. eigenvalues --    3.33966   3.36381   3.37507   3.38132   3.42809
 Alpha virt. eigenvalues --    3.44872   3.45971   3.46766   3.47931   3.48659
 Alpha virt. eigenvalues --    3.49662   3.50147   3.50660   3.51944   3.52727
 Alpha virt. eigenvalues --    3.54720   3.56704   3.60249   3.60724   3.62921
 Alpha virt. eigenvalues --    3.66245   3.66614   3.78354   4.30957   4.32109
 Alpha virt. eigenvalues --    4.34434   4.38137   4.40050   4.41055   4.43470
 Alpha virt. eigenvalues --    4.47716   4.48805   4.50959   4.52320   4.54761
 Alpha virt. eigenvalues --    4.59761   4.61873   4.64584   4.68833   4.74916
 Alpha virt. eigenvalues --    4.76341   4.81925   4.84092   4.87586   4.90215
 Alpha virt. eigenvalues --    4.91168
          Condensed to atoms (all electrons):
              1          2          3          4          5          6
     1  O    8.266893   0.284543  -0.091057  -0.028866   0.037444   0.023319
     2  C    0.284543   9.867999  -2.443360   0.073492  -0.032332  -2.453968
     3  C   -0.091057  -2.443360   9.486647  -0.012350   0.009854   1.463089
     4  O   -0.028866   0.073492  -0.012350   8.256852   0.173509   0.025010
     5  H    0.037444  -0.032332   0.009854   0.173509   0.473000  -0.019706
     6  C    0.023319  -2.453968   1.463089   0.025010  -0.019706  13.545644
     7  O   -0.000895   0.063466  -0.121202   0.002153  -0.000281   0.200105
     8  H    0.000062  -0.014621   0.012275  -0.000853   0.000020   0.073132
     9  C   -0.032494   0.118615  -0.416802   0.016764   0.001152   0.317569
    10  O   -0.007221   0.017686   0.025813   0.000058   0.000062  -0.009540
    11  H    0.000304  -0.018627  -0.005194   0.000006   0.000000   0.000340
    12  C   -0.112367  -1.801674  -0.470804  -0.003329   0.040142   0.443264
    13  O    0.004300  -0.077884   0.060986  -0.001537  -0.000045  -0.156129
    14  C   -0.009430   1.422571  -1.178074   0.018953   0.000294  -5.535093
    15  O    0.000503   0.013596  -0.027610  -0.000086   0.000071   0.098557
    16  C    0.002889   0.220253  -0.208204  -0.000156   0.001125  -0.566741
    17  C    0.000164   0.009418  -0.063231   0.002584   0.000086  -0.511524
    18  O    0.000048   0.000630  -0.000962  -0.000020   0.000000   0.011515
    19  H   -0.000066   0.006635   0.009608  -0.000025   0.000000   0.027553
    20  C    0.000044   0.033721  -0.022582   0.000114   0.000002  -0.077372
    21  O    0.000000   0.000096  -0.000142   0.000000   0.000000  -0.000727
    22  H    0.000000   0.000000   0.000000   0.000000   0.000000  -0.000099
    23  C    0.000024   0.001732  -0.008680   0.000542  -0.000026  -0.153680
    24  O   -0.000007   0.004260  -0.005864   0.000083  -0.000005  -0.024224
    25  H    0.000000  -0.000087   0.000487   0.000000   0.000000  -0.000263
    26  C   -0.000201   0.051310  -0.064689  -0.000037   0.000049  -0.367363
    27  O    0.000000   0.000275   0.000466   0.000001   0.000000   0.002727
    28  C    0.000010  -0.000552  -0.001288   0.000014   0.000000   0.020045
    29  O    0.000000  -0.000019   0.000039   0.000000   0.000000  -0.000384
    30  H    0.238344   0.070394  -0.075786   0.000532  -0.000830  -0.002614
    31  H   -0.000281  -0.017740  -0.005686   0.000023   0.000000   0.000337
    32  H    0.002439  -0.002342   0.011526  -0.000081   0.000000   0.015556
    33  H    0.006208   0.078334  -0.037474  -0.000333  -0.000014  -0.038438
    34  H   -0.041952   0.415382  -0.078327   0.001748  -0.000971  -0.038568
    35  H   -0.015906   0.141637   0.257974  -0.036574  -0.005970  -0.307048
    36  H   -0.000973   0.067725  -0.142312   0.004361   0.000133   0.144689
    37  H   -0.000248   0.049064  -0.035605  -0.000231   0.000004  -0.152330
    38  H    0.000000   0.000000   0.000000   0.000000   0.000000   0.000016
    39  H    0.000000   0.000025  -0.000127   0.000000   0.000000  -0.001508
    40  H    0.000000  -0.000009   0.000422   0.000000   0.000000   0.000741
    41  H    0.000000  -0.000025   0.000587   0.000000   0.000000   0.005250
    42  H   -0.000001  -0.000062   0.000308   0.000005   0.000000   0.001721
    43  H    0.000000  -0.001739   0.000360  -0.000001   0.000000   0.012268
    44  H    0.000000   0.000049  -0.000002   0.000000   0.000000   0.001607
    45  H    0.000000  -0.000002   0.000000   0.000000   0.000000   0.000308
              7          8          9         10         11         12
     1  O   -0.000895   0.000062  -0.032494  -0.007221   0.000304  -0.112367
     2  C    0.063466  -0.014621   0.118615   0.017686  -0.018627  -1.801674
     3  C   -0.121202   0.012275  -0.416802   0.025813  -0.005194  -0.470804
     4  O    0.002153  -0.000853   0.016764   0.000058   0.000006  -0.003329
     5  H   -0.000281   0.000020   0.001152   0.000062   0.000000   0.040142
     6  C    0.200105   0.073132   0.317569  -0.009540   0.000340   0.443264
     7  O    8.261702   0.213009  -0.001272   0.000018   0.000001   0.017408
     8  H    0.213009   0.346867   0.000888   0.000000   0.000000   0.004639
     9  C   -0.001272   0.000888   7.594914  -0.030287   0.063127  -1.873913
    10  O    0.000018   0.000000  -0.030287   8.335245   0.180270   0.067011
    11  H    0.000001   0.000000   0.063127   0.180270   0.455468  -0.002948
    12  C    0.017408   0.004639  -1.873913   0.067011  -0.002948  11.187711
    13  O    0.004657   0.000485   0.067480  -0.004199   0.000256  -0.252822
    14  C   -0.056650  -0.060408  -0.579440   0.020517  -0.006101  -0.848710
    15  O   -0.009503   0.014102  -0.009431   0.000136   0.000015   0.012858
    16  C    0.038035  -0.007078  -0.257332  -0.004089  -0.000026   0.017838
    17  C   -0.003754   0.004270   0.020257   0.001193   0.000171  -0.193764
    18  O    0.000334  -0.000054  -0.005011  -0.000116   0.000015  -0.008047
    19  H   -0.000035  -0.000013  -0.017466   0.000098  -0.000004   0.012383
    20  C    0.003180   0.000398  -0.012666   0.000335   0.000029  -0.038424
    21  O   -0.000007   0.000000   0.000108   0.000001   0.000000  -0.000394
    22  H    0.000000   0.000000  -0.000006   0.000000   0.000000   0.000063
    23  C   -0.007220   0.007060  -0.003693  -0.000012  -0.000001   0.002076
    24  O   -0.022492   0.007635   0.000223   0.000000   0.000000   0.001935
    25  H    0.002069  -0.002184  -0.000005   0.000000   0.000000  -0.000132
    26  C    0.001334  -0.017009  -0.001117   0.000073   0.000016   0.040058
    27  O    0.000045   0.000039  -0.000010   0.000000   0.000000  -0.000939
    28  C   -0.000039  -0.000192  -0.001284  -0.000018  -0.000001  -0.003571
    29  O   -0.000003   0.000000   0.000019   0.000000   0.000000   0.000133
    30  H   -0.000019   0.000000  -0.011400  -0.001435   0.000006   0.029999
    31  H   -0.000011   0.000000   0.375547  -0.041087  -0.013777   0.013441
    32  H   -0.000008   0.000000   0.615652  -0.061414  -0.001730  -0.296977
    33  H   -0.000295   0.000004   0.035019   0.007999  -0.000112   0.092232
    34  H   -0.000273   0.000007   0.026086   0.000758  -0.000001  -0.152900
    35  H    0.004602   0.000013   0.019607   0.000144   0.000001  -0.064525
    36  H   -0.040191  -0.006808   0.008865   0.000011   0.000000  -0.002112
    37  H   -0.004026  -0.001337   0.005267   0.000146   0.000000  -0.019906
    38  H    0.000000   0.000000   0.000001   0.000000   0.000000  -0.000003
    39  H   -0.000522   0.000124  -0.000001   0.000000   0.000000   0.000106
    40  H    0.000139   0.000380   0.000006   0.000000   0.000000   0.000072
    41  H    0.000038   0.000006   0.000169   0.000000   0.000000   0.000155
    42  H   -0.000740  -0.000144   0.000539   0.000001   0.000000   0.002735
    43  H    0.000050   0.000001   0.001687  -0.000002   0.000000   0.000488
    44  H    0.000006   0.000000  -0.000023   0.000000   0.000000   0.000445
    45  H    0.000001   0.000000   0.000013   0.000000   0.000000   0.000040
             13         14         15         16         17         18
     1  O    0.004300  -0.009430   0.000503   0.002889   0.000164   0.000048
     2  C   -0.077884   1.422571   0.013596   0.220253   0.009418   0.000630
     3  C    0.060986  -1.178074  -0.027610  -0.208204  -0.063231  -0.000962
     4  O   -0.001537   0.018953  -0.000086  -0.000156   0.002584  -0.000020
     5  H   -0.000045   0.000294   0.000071   0.001125   0.000086   0.000000
     6  C   -0.156129  -5.535093   0.098557  -0.566741  -0.511524   0.011515
     7  O    0.004657  -0.056650  -0.009503   0.038035  -0.003754   0.000334
     8  H    0.000485  -0.060408   0.014102  -0.007078   0.004270  -0.000054
     9  C    0.067480  -0.579440  -0.009431  -0.257332   0.020257  -0.005011
    10  O   -0.004199   0.020517   0.000136  -0.004089   0.001193  -0.000116
    11  H    0.000256  -0.006101   0.000015  -0.000026   0.000171   0.000015
    12  C   -0.252822  -0.848710   0.012858   0.017838  -0.193764  -0.008047
    13  O    8.682925   0.263231  -0.077616   0.005658  -0.005676   0.018116
    14  C    0.263231  13.867117   0.089808  -1.342769   0.490447   0.065045
    15  O   -0.077616   0.089808   8.307967  -0.086002   0.099590  -0.010829
    16  C    0.005658  -1.342769  -0.086002  15.716436  -4.353574  -0.160446
    17  C   -0.005676   0.490447   0.099590  -4.353574  11.592976   0.312662
    18  O    0.018116   0.065045  -0.010829  -0.160446   0.312662   8.289711
    19  H    0.002800  -0.015267   0.021832  -0.040355   0.003073   0.163922
    20  C    0.008739  -0.863340   0.055926  -1.562689  -1.331371  -0.087815
    21  O    0.000308  -0.000127  -0.000254   0.079277  -0.169593   0.021950
    22  H   -0.000001  -0.000887   0.000035  -0.028296   0.013494  -0.001018
    23  C    0.022688  -0.057387  -0.078681   0.118418  -0.282269   0.004024
    24  O   -0.000372   0.046072  -0.010820   0.013712  -0.010648   0.000364
    25  H    0.000008  -0.001696   0.001162  -0.003208  -0.002380  -0.000001
    26  C   -0.043501  -0.852069   0.047245  -3.267921   0.520994   0.038099
    27  O   -0.000009  -0.021427   0.006855  -0.135139  -0.053806   0.000349
    28  C   -0.001318  -0.052305   0.004564   1.029976  -0.329570  -0.018918
    29  O    0.000007   0.003818   0.000300  -0.026877   0.020429  -0.000648
    30  H   -0.000672   0.004054   0.000010   0.000327  -0.000037  -0.000002
    31  H   -0.003256   0.004931  -0.000106   0.007088   0.001403  -0.001699
    32  H    0.009286   0.001123  -0.000269  -0.007849   0.003136   0.000421
    33  H   -0.039365   0.119047   0.001334   0.010155   0.013008   0.000941
    34  H    0.011849   0.099032  -0.000549   0.000754   0.002631   0.000093
    35  H    0.004596   0.224245  -0.000790   0.012255   0.002272   0.000072
    36  H    0.012446   0.165179  -0.012487   0.038804   0.005678   0.000189
    37  H   -0.073995   0.361740  -0.050468   0.058213   0.033934   0.000672
    38  H    0.000000   0.000548  -0.000004   0.004831   0.015096   0.000014
    39  H   -0.000003   0.008977  -0.001196   0.001135  -0.012120   0.000039
    40  H    0.000078   0.002648   0.003378   0.018785   0.014251  -0.000015
    41  H   -0.000499   0.049918   0.000953   0.023040   0.017187  -0.000612
    42  H    0.000682   0.023829  -0.070295   0.329249  -0.031647  -0.001931
    43  H    0.001571   0.091450  -0.021274   0.099288   0.304900  -0.057804
    44  H    0.000355   0.003717  -0.001919   0.163989  -0.293512   0.005848
    45  H    0.000024   0.006513  -0.000131   0.128809  -0.016414  -0.000416
             19         20         21         22         23         24
     1  O   -0.000066   0.000044   0.000000   0.000000   0.000024  -0.000007
     2  C    0.006635   0.033721   0.000096   0.000000   0.001732   0.004260
     3  C    0.009608  -0.022582  -0.000142   0.000000  -0.008680  -0.005864
     4  O   -0.000025   0.000114   0.000000   0.000000   0.000542   0.000083
     5  H    0.000000   0.000002   0.000000   0.000000  -0.000026  -0.000005
     6  C    0.027553  -0.077372  -0.000727  -0.000099  -0.153680  -0.024224
     7  O   -0.000035   0.003180  -0.000007   0.000000  -0.007220  -0.022492
     8  H   -0.000013   0.000398   0.000000   0.000000   0.007060   0.007635
     9  C   -0.017466  -0.012666   0.000108  -0.000006  -0.003693   0.000223
    10  O    0.000098   0.000335   0.000001   0.000000  -0.000012   0.000000
    11  H   -0.000004   0.000029   0.000000   0.000000  -0.000001   0.000000
    12  C    0.012383  -0.038424  -0.000394   0.000063   0.002076   0.001935
    13  O    0.002800   0.008739   0.000308  -0.000001   0.022688  -0.000372
    14  C   -0.015267  -0.863340  -0.000127  -0.000887  -0.057387   0.046072
    15  O    0.021832   0.055926  -0.000254   0.000035  -0.078681  -0.010820
    16  C   -0.040355  -1.562689   0.079277  -0.028296   0.118418   0.013712
    17  C    0.003073  -1.331371  -0.169593   0.013494  -0.282269  -0.010648
    18  O    0.163922  -0.087815   0.021950  -0.001018   0.004024   0.000364
    19  H    0.356820   0.011686  -0.000943   0.000006  -0.005223  -0.000040
    20  C    0.011686   9.604427   0.215694   0.063722   0.190188  -0.006862
    21  O   -0.000943   0.215694   8.267579   0.195624  -0.001535   0.000018
    22  H    0.000006   0.063722   0.195624   0.416556   0.000107   0.000000
    23  C   -0.005223   0.190188  -0.001535   0.000107   6.498982   0.097754
    24  O   -0.000040  -0.006862   0.000018   0.000000   0.097754   8.442100
    25  H    0.000000  -0.000053   0.000000   0.000000  -0.042533   0.213129
    26  C    0.004564   1.008479  -0.003850   0.007413  -1.089523  -0.026741
    27  O    0.000028  -0.098062   0.003541  -0.000117  -0.117070   0.000390
    28  C    0.001485  -0.952982  -0.024796  -0.044964  -0.097463   0.006377
    29  O    0.000028  -0.115699  -0.016470   0.019859  -0.002401   0.000032
    30  H    0.000000   0.000001   0.000000   0.000000   0.000001   0.000000
    31  H    0.001910  -0.001701  -0.000011   0.000000   0.000029   0.000000
    32  H   -0.000176   0.000292   0.000001   0.000000  -0.000017   0.000000
    33  H   -0.000716   0.002026   0.000002   0.000000  -0.000067   0.000005
    34  H   -0.000059   0.000075   0.000000   0.000000   0.000052   0.000004
    35  H   -0.000018   0.000077   0.000000   0.000000   0.000274   0.000077
    36  H   -0.000079   0.000875   0.000000   0.000000   0.003619   0.001397
    37  H   -0.001702   0.016476   0.000025   0.000000   0.000841   0.000668
    38  H    0.000000  -0.003753   0.000017  -0.002508   0.000789   0.000000
    39  H    0.000000   0.001954  -0.000001   0.000000   0.471405  -0.061291
    40  H    0.000000  -0.001016  -0.000007   0.000000   0.594868  -0.062347
    41  H    0.000001  -0.048966   0.000017   0.000002  -0.022631   0.005236
    42  H   -0.000892   0.018915  -0.000393   0.000005   0.039151   0.000785
    43  H   -0.003686  -0.167093   0.000929  -0.000177   0.033370   0.000083
    44  H   -0.000089   0.387461  -0.050067  -0.003402   0.014886   0.000013
    45  H    0.000003  -0.191731   0.006836  -0.000938  -0.001555   0.000035
             25         26         27         28         29         30
     1  O    0.000000  -0.000201   0.000000   0.000010   0.000000   0.238344
     2  C   -0.000087   0.051310   0.000275  -0.000552  -0.000019   0.070394
     3  C    0.000487  -0.064689   0.000466  -0.001288   0.000039  -0.075786
     4  O    0.000000  -0.000037   0.000001   0.000014   0.000000   0.000532
     5  H    0.000000   0.000049   0.000000   0.000000   0.000000  -0.000830
     6  C   -0.000263  -0.367363   0.002727   0.020045  -0.000384  -0.002614
     7  O    0.002069   0.001334   0.000045  -0.000039  -0.000003  -0.000019
     8  H   -0.002184  -0.017009   0.000039  -0.000192   0.000000   0.000000
     9  C   -0.000005  -0.001117  -0.000010  -0.001284   0.000019  -0.011400
    10  O    0.000000   0.000073   0.000000  -0.000018   0.000000  -0.001435
    11  H    0.000000   0.000016   0.000000  -0.000001   0.000000   0.000006
    12  C   -0.000132   0.040058  -0.000939  -0.003571   0.000133   0.029999
    13  O    0.000008  -0.043501  -0.000009  -0.001318   0.000007  -0.000672
    14  C   -0.001696  -0.852069  -0.021427  -0.052305   0.003818   0.004054
    15  O    0.001162   0.047245   0.006855   0.004564   0.000300   0.000010
    16  C   -0.003208  -3.267921  -0.135139   1.029976  -0.026877   0.000327
    17  C   -0.002380   0.520994  -0.053806  -0.329570   0.020429  -0.000037
    18  O   -0.000001   0.038099   0.000349  -0.018918  -0.000648  -0.000002
    19  H    0.000000   0.004564   0.000028   0.001485   0.000028   0.000000
    20  C   -0.000053   1.008479  -0.098062  -0.952982  -0.115699   0.000001
    21  O    0.000000  -0.003850   0.003541  -0.024796  -0.016470   0.000000
    22  H    0.000000   0.007413  -0.000117  -0.044964   0.019859   0.000000
    23  C   -0.042533  -1.089523  -0.117070  -0.097463  -0.002401   0.000001
    24  O    0.213129  -0.026741   0.000390   0.006377   0.000032   0.000000
    25  H    0.404663   0.058494  -0.000223  -0.000963   0.000002   0.000000
    26  C    0.058494  10.769313   0.411312  -0.877402  -0.032451  -0.000010
    27  O   -0.000223   0.411312   8.360050   0.123433  -0.033713   0.000000
    28  C   -0.000963  -0.877402   0.123433   6.073452   0.327614   0.000000
    29  O    0.000002  -0.032451  -0.033713   0.327614   8.240914   0.000000
    30  H    0.000000  -0.000010   0.000000   0.000000   0.000000   0.398798
    31  H    0.000000  -0.000164   0.000000   0.000136   0.000000  -0.000004
    32  H    0.000000  -0.000117   0.000000  -0.000020   0.000000  -0.000022
    33  H    0.000000   0.001533   0.000002  -0.000055   0.000000  -0.000152
    34  H    0.000000   0.000265   0.000000  -0.000004   0.000000  -0.011473
    35  H    0.000000   0.000726   0.000000   0.000002   0.000000   0.000774
    36  H   -0.000003   0.001839   0.000009   0.000022   0.000000   0.000022
    37  H    0.000006   0.031701   0.000359   0.000120  -0.000006   0.000002
    38  H    0.000000  -0.002844  -0.004729  -0.002955   0.231752   0.000000
    39  H   -0.005802  -0.079651   0.000030  -0.002377   0.000034   0.000000
    40  H   -0.006721  -0.282732   0.002980   0.007927  -0.000219   0.000000
    41  H   -0.000161   0.217724  -0.056739   0.040260  -0.001040   0.000000
    42  H   -0.000018  -0.085849   0.003309  -0.005476  -0.000301   0.000000
    43  H    0.000000  -0.079541  -0.000028  -0.015454  -0.000056   0.000000
    44  H    0.000000  -0.014951   0.004907   0.019145  -0.006866   0.000000
    45  H    0.000000  -0.078901  -0.071716   0.498229  -0.055018   0.000000
             31         32         33         34         35         36
     1  O   -0.000281   0.002439   0.006208  -0.041952  -0.015906  -0.000973
     2  C   -0.017740  -0.002342   0.078334   0.415382   0.141637   0.067725
     3  C   -0.005686   0.011526  -0.037474  -0.078327   0.257974  -0.142312
     4  O    0.000023  -0.000081  -0.000333   0.001748  -0.036574   0.004361
     5  H    0.000000   0.000000  -0.000014  -0.000971  -0.005970   0.000133
     6  C    0.000337   0.015556  -0.038438  -0.038568  -0.307048   0.144689
     7  O   -0.000011  -0.000008  -0.000295  -0.000273   0.004602  -0.040191
     8  H    0.000000   0.000000   0.000004   0.000007   0.000013  -0.006808
     9  C    0.375547   0.615652   0.035019   0.026086   0.019607   0.008865
    10  O   -0.041087  -0.061414   0.007999   0.000758   0.000144   0.000011
    11  H   -0.013777  -0.001730  -0.000112  -0.000001   0.000001   0.000000
    12  C    0.013441  -0.296977   0.092232  -0.152900  -0.064525  -0.002112
    13  O   -0.003256   0.009286  -0.039365   0.011849   0.004596   0.012446
    14  C    0.004931   0.001123   0.119047   0.099032   0.224245   0.165179
    15  O   -0.000106  -0.000269   0.001334  -0.000549  -0.000790  -0.012487
    16  C    0.007088  -0.007849   0.010155   0.000754   0.012255   0.038804
    17  C    0.001403   0.003136   0.013008   0.002631   0.002272   0.005678
    18  O   -0.001699   0.000421   0.000941   0.000093   0.000072   0.000189
    19  H    0.001910  -0.000176  -0.000716  -0.000059  -0.000018  -0.000079
    20  C   -0.001701   0.000292   0.002026   0.000075   0.000077   0.000875
    21  O   -0.000011   0.000001   0.000002   0.000000   0.000000   0.000000
    22  H    0.000000   0.000000   0.000000   0.000000   0.000000   0.000000
    23  C    0.000029  -0.000017  -0.000067   0.000052   0.000274   0.003619
    24  O    0.000000   0.000000   0.000005   0.000004   0.000077   0.001397
    25  H    0.000000   0.000000   0.000000   0.000000   0.000000  -0.000003
    26  C   -0.000164  -0.000117   0.001533   0.000265   0.000726   0.001839
    27  O    0.000000   0.000000   0.000002   0.000000   0.000000   0.000009
    28  C    0.000136  -0.000020  -0.000055  -0.000004   0.000002   0.000022
    29  O    0.000000   0.000000   0.000000   0.000000   0.000000   0.000000
    30  H   -0.000004  -0.000022  -0.000152  -0.011473   0.000774   0.000022
    31  H    0.599017  -0.051654  -0.007121   0.000151   0.000004   0.000001
    32  H   -0.051654   0.615671   0.006088   0.005467   0.000001  -0.000006
    33  H   -0.007121   0.006088   0.587752   0.005377   0.002174  -0.000005
    34  H    0.000151   0.005467   0.005377   0.607109   0.005616   0.001488
    35  H    0.000004   0.000001   0.002174   0.005616   0.589986   0.006080
    36  H    0.000001  -0.000006  -0.000005   0.001488   0.006080   0.583013
    37  H   -0.000006  -0.000016   0.006297  -0.000010   0.001747   0.004479
    38  H    0.000000   0.000000   0.000000   0.000000   0.000000   0.000000
    39  H    0.000000   0.000000   0.000000   0.000000   0.000000   0.000001
    40  H    0.000000   0.000000   0.000000   0.000000   0.000000   0.000000
    41  H    0.000000   0.000000   0.000000   0.000000   0.000000  -0.000007
    42  H    0.000000   0.000000  -0.000024   0.000000  -0.000001  -0.000003
    43  H   -0.000004  -0.000001  -0.000004   0.000000   0.000000  -0.000003
    44  H    0.000000   0.000000   0.000000   0.000000   0.000000   0.000000
    45  H    0.000000   0.000000   0.000000   0.000000   0.000000   0.000000
             37         38         39         40         41         42
     1  O   -0.000248   0.000000   0.000000   0.000000   0.000000  -0.000001
     2  C    0.049064   0.000000   0.000025  -0.000009  -0.000025  -0.000062
     3  C   -0.035605   0.000000  -0.000127   0.000422   0.000587   0.000308
     4  O   -0.000231   0.000000   0.000000   0.000000   0.000000   0.000005
     5  H    0.000004   0.000000   0.000000   0.000000   0.000000   0.000000
     6  C   -0.152330   0.000016  -0.001508   0.000741   0.005250   0.001721
     7  O   -0.004026   0.000000  -0.000522   0.000139   0.000038  -0.000740
     8  H   -0.001337   0.000000   0.000124   0.000380   0.000006  -0.000144
     9  C    0.005267   0.000001  -0.000001   0.000006   0.000169   0.000539
    10  O    0.000146   0.000000   0.000000   0.000000   0.000000   0.000001
    11  H    0.000000   0.000000   0.000000   0.000000   0.000000   0.000000
    12  C   -0.019906  -0.000003   0.000106   0.000072   0.000155   0.002735
    13  O   -0.073995   0.000000  -0.000003   0.000078  -0.000499   0.000682
    14  C    0.361740   0.000548   0.008977   0.002648   0.049918   0.023829
    15  O   -0.050468  -0.000004  -0.001196   0.003378   0.000953  -0.070295
    16  C    0.058213   0.004831   0.001135   0.018785   0.023040   0.329249
    17  C    0.033934   0.015096  -0.012120   0.014251   0.017187  -0.031647
    18  O    0.000672   0.000014   0.000039  -0.000015  -0.000612  -0.001931
    19  H   -0.001702   0.000000   0.000000   0.000000   0.000001  -0.000892
    20  C    0.016476  -0.003753   0.001954  -0.001016  -0.048966   0.018915
    21  O    0.000025   0.000017  -0.000001  -0.000007   0.000017  -0.000393
    22  H    0.000000  -0.002508   0.000000   0.000000   0.000002   0.000005
    23  C    0.000841   0.000789   0.471405   0.594868  -0.022631   0.039151
    24  O    0.000668   0.000000  -0.061291  -0.062347   0.005236   0.000785
    25  H    0.000006   0.000000  -0.005802  -0.006721  -0.000161  -0.000018
    26  C    0.031701  -0.002844  -0.079651  -0.282732   0.217724  -0.085849
    27  O    0.000359  -0.004729   0.000030   0.002980  -0.056739   0.003309
    28  C    0.000120  -0.002955  -0.002377   0.007927   0.040260  -0.005476
    29  O   -0.000006   0.231752   0.000034  -0.000219  -0.001040  -0.000301
    30  H    0.000002   0.000000   0.000000   0.000000   0.000000   0.000000
    31  H   -0.000006   0.000000   0.000000   0.000000   0.000000   0.000000
    32  H   -0.000016   0.000000   0.000000   0.000000   0.000000   0.000000
    33  H    0.006297   0.000000   0.000000   0.000000   0.000000  -0.000024
    34  H   -0.000010   0.000000   0.000000   0.000000   0.000000   0.000000
    35  H    0.001747   0.000000   0.000000   0.000000   0.000000  -0.000001
    36  H    0.004479   0.000000   0.000001   0.000000  -0.000007  -0.000003
    37  H    0.611201   0.000000   0.000001   0.000003  -0.000016   0.010671
    38  H    0.000000   0.413972  -0.000001  -0.000001   0.000003   0.000002
    39  H    0.000001  -0.000001   0.602311  -0.046222  -0.012939  -0.000031
    40  H    0.000003  -0.000001  -0.046222   0.594402   0.007359   0.002996
    41  H   -0.000016   0.000003  -0.012939   0.007359   0.622178   0.006309
    42  H    0.010671   0.000002  -0.000031   0.002996   0.006309   0.614090
    43  H   -0.000101   0.000023   0.000006  -0.000003   0.004340   0.007254
    44  H   -0.000025   0.000251   0.000001  -0.000013   0.000042   0.002702
    45  H    0.000000  -0.008472  -0.000001   0.000006   0.007246   0.000030
             43         44         45
     1  O    0.000000   0.000000   0.000000
     2  C   -0.001739   0.000049  -0.000002
     3  C    0.000360  -0.000002   0.000000
     4  O   -0.000001   0.000000   0.000000
     5  H    0.000000   0.000000   0.000000
     6  C    0.012268   0.001607   0.000308
     7  O    0.000050   0.000006   0.000001
     8  H    0.000001   0.000000   0.000000
     9  C    0.001687  -0.000023   0.000013
    10  O   -0.000002   0.000000   0.000000
    11  H    0.000000   0.000000   0.000000
    12  C    0.000488   0.000445   0.000040
    13  O    0.001571   0.000355   0.000024
    14  C    0.091450   0.003717   0.006513
    15  O   -0.021274  -0.001919  -0.000131
    16  C    0.099288   0.163989   0.128809
    17  C    0.304900  -0.293512  -0.016414
    18  O   -0.057804   0.005848  -0.000416
    19  H   -0.003686  -0.000089   0.000003
    20  C   -0.167093   0.387461  -0.191731
    21  O    0.000929  -0.050067   0.006836
    22  H   -0.000177  -0.003402  -0.000938
    23  C    0.033370   0.014886  -0.001555
    24  O    0.000083   0.000013   0.000035
    25  H    0.000000   0.000000   0.000000
    26  C   -0.079541  -0.014951  -0.078901
    27  O   -0.000028   0.004907  -0.071716
    28  C   -0.015454   0.019145   0.498229
    29  O   -0.000056  -0.006866  -0.055018
    30  H    0.000000   0.000000   0.000000
    31  H   -0.000004   0.000000   0.000000
    32  H   -0.000001   0.000000   0.000000
    33  H   -0.000004   0.000000   0.000000
    34  H    0.000000   0.000000   0.000000
    35  H    0.000000   0.000000   0.000000
    36  H   -0.000003   0.000000   0.000000
    37  H   -0.000101  -0.000025   0.000000
    38  H    0.000023   0.000251  -0.008472
    39  H    0.000006   0.000001  -0.000001
    40  H   -0.000003  -0.000013   0.000006
    41  H    0.004340   0.000042   0.007246
    42  H    0.007254   0.002702   0.000030
    43  H    0.651961   0.008150   0.004941
    44  H    0.008150   0.607737   0.005952
    45  H    0.004941   0.005952   0.640902
 Mulliken atomic charges:
              1
     1  O   -0.525574
     2  C   -0.147867
     3  C    0.176972
     4  O   -0.492328
     5  H    0.323230
     6  C   -0.017045
     7  O   -0.542915
     8  H    0.425285
     9  C   -0.035922
    10  O   -0.498157
    11  H    0.348497
    12  C    0.161027
    13  O   -0.444632
    14  C    0.026353
    15  O   -0.310478
    16  C   -0.081587
    17  C    0.159588
    18  O   -0.578713
    19  H    0.462415
    20  C   -0.040658
    21  O   -0.522704
    22  H    0.365525
    23  C   -0.131214
    24  O   -0.610669
    25  H    0.386413
    26  C    0.056094
    27  O   -0.327381
    28  C    0.281157
    29  O   -0.552808
    30  H    0.361191
    31  H    0.140291
    32  H    0.136042
    33  H    0.148639
    34  H    0.141141
    35  H    0.155876
    36  H    0.154063
    37  H    0.146391
    38  H    0.357954
    39  H    0.137645
    40  H    0.147863
    41  H    0.135617
    42  H    0.132519
    43  H    0.123853
    44  H    0.143607
    45  H    0.125406
 Sum of Mulliken atomic charges =   0.00000
 Mulliken charges with hydrogens summed into heavy atoms:
              1
     1  O   -0.164383
     2  C   -0.006726
     3  C    0.332847
     4  O   -0.169098
     6  C    0.137018
     7  O   -0.117630
     9  C    0.240411
    10  O   -0.149660
    12  C    0.309666
    13  O   -0.444632
    14  C    0.172745
    15  O   -0.310478
    16  C    0.050932
    17  C    0.283440
    18  O   -0.116298
    20  C    0.102949
    21  O   -0.157179
    23  C    0.154294
    24  O   -0.224257
    26  C    0.191711
    27  O   -0.327381
    28  C    0.406563
    29  O   -0.194854
 Sum of Mulliken charges with hydrogens summed into heavy atoms =   0.00000
 APT atomic charges:
              1
     1  O   -0.625693
     2  C    0.381401
     3  C    0.425453
     4  O   -0.609977
     5  H    0.239678
     6  C    0.354172
     7  O   -0.723227
     8  H    0.420352
     9  C    0.473206
    10  O   -0.592130
    11  H    0.244882
    12  C    0.410615
    13  O   -0.872391
    14  C    0.893044
    15  O   -0.823308
    16  C    0.426668
    17  C    0.390782
    18  O   -0.797879
    19  H    0.476206
    20  C    0.414561
    21  O   -0.649946
    22  H    0.285114
    23  C    0.446987
    24  O   -0.659320
    25  H    0.266820
    26  C    0.493811
    27  O   -0.822534
    28  C    0.932318
    29  O   -0.673355
    30  H    0.256582
    31  H   -0.043940
    32  H   -0.051502
    33  H   -0.032089
    34  H   -0.037368
    35  H   -0.036079
    36  H   -0.020199
    37  H   -0.038782
    38  H    0.260723
    39  H   -0.061014
    40  H   -0.036061
    41  H   -0.058802
    42  H   -0.036183
    43  H   -0.065886
    44  H   -0.044701
    45  H   -0.081010
 Sum of APT charges=   0.00000
 APT Atomic charges with hydrogens summed into heavy atoms:
              1
     1  O   -0.369111
     2  C    0.344033
     3  C    0.389375
[...]
 010278,0.00014584,-0.00066883,-0.00014410,-0.00550765,-0.02087595,0.00
 372323,0.01034856,-0.30670886,0.10654530,-0.04262796,0.00179321,-0.000
 90489,-0.00160315,0.00115882,0.00018509,0.00106655,-0.00030632,0.00011
 038,0.00000082,0.00016939,0.00052829,0.00019158,0.00001521,-0.00019978
 ,-0.00008865,-0.00001759,0.00006103,-0.00003074,0.00044344,0.00073304,
 0.00026049,0.00031851,-0.00020369,0.00006790,-0.00001994,-0.00007922,0
 .00001522,-0.01500172,0.00553774,-0.00299974,0.00210176,-0.00003045,-0
 .00017080,-0.00003057,-0.00028040,0.00000290,0.00007554,0.00000685,-0.
 00005282,0.00000109,-0.00000102,-0.00000227,-0.00000367,0.00000015,-0.
 00000206,0.00000885,-0.00000131,-0.00000929,0.00003250,0.00002292,0.00
 004189,0.00000778,-0.00000550,-0.00001021,0.00002181,0.00000492,0.0000
 3453,0.00011280,0.00018013,-0.00029503,0.00180412,0.00030772,0.0008140
 5,-0.00000832,0.00001215,0.00000963,0.00029951,0.00008992,0.00000288,0
 .00012803,-0.00074599,-0.00023170,-0.00043603,-0.00114627,-0.00152878,
 0.33388793,-0.00000306,-0.00001504,0.00002665,-0.00000400,0.00003038,-
 0.00003201,0.00003602,0.00003787,-0.00004748,-0.00001488,-0.00003541,0
 .00001290,0.00000387,0.00000566,-0.00000326,-0.00041787,0.00034746,-0.
 00002742,0.00012191,-0.00018133,-0.00029995,-0.00013234,-0.00003312,0.
 00015597,0.00000519,-0.00002902,-0.00000089,-0.00001043,0.00002424,0.0
 0001966,0.00000758,-0.00000537,-0.00000163,0.00002497,-0.00001133,-0.0
 0012736,-0.00004626,0.00014851,0.00027461,0.00016529,0.00094804,0.0004
 5460,-0.00507213,0.00330082,0.00052746,0.10829193,-0.08876808,0.015957
 64,0.03282499,-0.01463160,0.00919688,-0.00181149,0.00440029,-0.0001509
 7,0.00036562,-0.00046060,-0.00042876,0.00172439,0.00080220,-0.00184701
 ,-0.00061243,-0.00011657,0.00019326,-0.00012625,-0.00002981,0.00003076
 ,-0.00027278,0.00133460,0.00084105,0.00006914,-0.00010284,-0.00007532,
 0.00001077,-0.00003409,0.00003403,-0.01974260,0.00763007,-0.00426062,0
 .00088477,0.00023469,0.00139553,0.00015101,-0.00070765,-0.00006893,0.0
 0000562,0.00013363,0.00014718,0.00000152,-0.00000050,-0.00000317,0.000
 01019,-0.00001028,-0.00000138,-0.00001104,0.00000427,0.00001016,-0.000
 01705,0.00000303,-0.00000462,-0.00000526,-0.00000734,0.00000714,-0.000
 00414,0.00000807,0.00000160,0.00002777,-0.00010224,0.00007610,-0.00029
 945,0.00032506,-0.00034867,-0.00001512,0.00000356,0.00001679,0.0002931
 2,0.00026668,0.00001307,0.00042010,-0.00010173,-0.00007565,-0.00206370
 ,-0.00142471,-0.00307065,-0.11333066,0.09291733,-0.00001454,-0.0000073
 7,-0.00004755,0.00000043,0.00000365,0.00004063,0.00001285,0.00002256,0
 .00004634,-0.00001832,0.00002216,-0.00003463,-0.00000016,-0.00000096,-
 0.00000413,0.00034603,-0.00012584,-0.00026629,-0.00026546,0.00003173,0
 .00015152,0.00011106,-0.00009800,0.00000371,-0.00004822,0.00006288,-0.
 00003776,-0.00000976,-0.00005196,-0.00001611,0.00000302,-0.00000130,-0
 .00000971,-0.00001765,-0.00010535,-0.00004730,-0.00109315,-0.00045054,
 -0.00042237,0.00826515,-0.00072247,0.00221470,0.03388344,-0.00750999,-
 0.01306179,-0.05064892,0.01816790,-0.04987400,-0.01025097,0.00254295,-
 0.00005237,0.00126125,-0.00041785,0.00100996,0.00031909,0.00015940,-0.
 00014925,-0.00090529,-0.00017197,0.00065819,0.00029909,-0.00007649,0.0
 0002087,-0.00001354,-0.00004292,-0.00001044,0.00063070,0.00089269,0.00
 098816,0.00003818,-0.00030757,0.00012893,-0.00005034,-0.00000946,0.000
 08944,-0.02387705,0.00927566,-0.00300762,0.00140071,-0.00021878,0.0020
 6539,-0.00036537,0.00026126,-0.00009062,0.00009474,-0.00002647,-0.0001
 9617,-0.00000100,0.00000751,0.00000352,-0.00000530,-0.00001007,0.00000
 053,0.00000041,0.00000862,0.00000492,-0.00004547,-0.00002872,-0.000083
 20,-0.00000429,0.00000664,0.00000980,-0.00002691,0.00000188,-0.0000474
 7,-0.00024644,-0.00001322,0.00000400,-0.00056876,0.00014927,-0.0015570
 8,0.00000859,0.00001835,0.00001516,0.00024302,0.00023158,-0.00001056,0
 .00036691,-0.00046258,-0.00010745,-0.00186543,-0.00213044,-0.00350403,
 0.04216252,-0.02088325,0.06563903,0.00000645,0.00003394,-0.00008053,-0
 .00002046,-0.00004506,0.00006038,-0.00003061,-0.00006142,0.00002482,0.
 00004312,0.00006757,-0.00003662,-0.00000952,-0.00001819,0.00000817,0.0
 0006571,-0.00008117,0.00003324,0.00005001,0.00014324,0.00007254,-0.000
 05744,-0.00003330,-0.00010492,-0.00005589,-0.00001996,0.00015885,0.000
 02494,-0.00004312,-0.00011762,-0.00002561,0.00002575,0.00003030,0.0000
 4495,0.00004900,0.00019190,0.00032239,0.00073465,-0.00068918,-0.000018
 32,-0.00063594,-0.00030943,0.00164770,-0.00040260,-0.00023403,-0.00287
 853,0.00115344,0.00093397,-0.31677201,0.09447203,-0.00667555,-0.015491
 44,-0.00817846,-0.01942122,-0.00129022,-0.00095744,0.00171448,-0.02012
 295,0.00771372,0.00406338,0.00205774,-0.00067731,-0.00068669,0.0000789
 0,-0.00006765,-0.00011839,0.00068439,0.00004392,0.00010721,0.00003167,
 -0.00014528,0.00010319,-0.00002236,0.00000760,0.00000120,-0.00063713,-
 0.00077731,-0.00039514,0.00052882,0.00045418,0.00038039,-0.00171736,-0
 .00065766,-0.00178616,0.00094568,-0.00031202,-0.00006263,-0.00000838,0
 .00000444,0.00000718,-0.00001126,0.00008692,0.00000220,0.00003468,0.00
 000971,-0.00004712,0.00003163,-0.00004116,0.00004368,0.00000844,0.0000
 0755,-0.00001948,0.00001061,-0.00000129,0.00000237,0.00000384,0.000027
 36,-0.00003342,0.00003749,-0.00005744,0.00022092,0.00001501,0.00010477
 ,0.00025750,-0.00000646,0.00013487,0.00004106,-0.00003646,-0.00026236,
 -0.00003451,0.00113874,-0.00009271,0.00038864,0.00056013,-0.00035571,0
 .00026439,0.34983372,-0.00000152,0.00002036,-0.00003259,0.00000218,-0.
 00003877,0.00002742,0.00001940,0.00001820,-0.00001014,-0.00000261,0.00
 002661,-0.00001812,0.00000451,-0.00000678,-0.00000072,-0.00011770,-0.0
 0011138,-0.00014523,-0.00009778,0.00006546,0.00012179,0.00010585,0.000
 02745,-0.00007344,-0.00000895,0.00000831,0.00005869,0.00001071,-0.0000
 2396,-0.00003831,-0.00001119,0.00000996,0.00000623,0.00002785,0.000049
 37,0.00007886,0.00011915,0.00027313,-0.00016501,0.00034889,0.00006285,
 0.00012000,-0.00119027,0.00292373,-0.00196793,0.03521730,-0.01951767,0
 .00300178,0.09150548,-0.06968647,0.00970714,-0.02605523,0.00228026,-0.
 01373527,-0.00098822,0.00017806,0.00080857,-0.00734534,0.00423501,0.00
 131017,0.00017949,0.00117320,-0.00140725,0.00009781,0.00009353,-0.0000
 9939,-0.00031133,0.00013613,0.00010600,-0.00006732,0.00006083,-0.00004
 845,0.00001887,0.00002199,-0.00001605,0.00294005,0.00077488,0.00115480
 ,-0.00064839,-0.00011767,-0.00042170,0.00094939,-0.00002786,-0.0004921
 9,-0.00013582,-0.00011957,0.00008927,-0.00000154,0.00000195,0.00000174
 ,-0.00002664,0.00003798,0.00000579,0.00001466,0.00000827,-0.00002408,0
 .00000905,-0.00003341,0.00001529,0.00000153,0.00001007,-0.00000630,-0.
 00000561,-0.00000295,-0.00000463,-0.00002676,-0.00001379,0.00003558,-0
 .00022861,-0.00004013,-0.00018692,0.00006585,0.00002275,-0.00001723,-0
 .00008480,-0.00010258,0.00002585,-0.00010852,0.00025131,0.00005327,-0.
 00123057,-0.00002498,-0.00046993,-0.00073649,-0.00605677,0.00201013,-0
 .09109922,0.08282757,0.00000479,0.00001277,-0.00003042,0.00000426,-0.0
 0001746,0.00003454,-0.00001778,-0.00004439,0.00001445,0.00002535,0.000
 03065,-0.00001450,-0.00000573,-0.00000770,0.00000538,0.00000347,-0.000
 00371,0.00006421,0.00005591,0.00003842,-0.00000807,-0.00004758,-0.0000
 0781,-0.00000201,-0.00005518,-0.00002310,0.00009850,0.00004721,-0.0000
 1440,-0.00005078,-0.00002474,0.00001241,0.00002103,-0.00005841,-0.0000
 0419,0.00009218,0.00053571,0.00041864,-0.00048744,-0.00052434,-0.00022
 399,-0.00054425,-0.00038964,-0.00103532,0.00102183,-0.00890214,0.00657
 135,0.00126744,-0.00755736,0.00972568,-0.03810093,-0.03543751,-0.00665
 773,-0.01720567,-0.00220363,-0.00008042,0.00119854,0.03474269,-0.00929
 671,-0.00399180,-0.00223232,-0.00044596,0.00209505,-0.00017500,-0.0002
 2636,0.00015251,0.00020862,0.00001797,-0.00000359,0.00002418,-0.000035
 60,0.00003105,-0.00000640,-0.00001092,-0.00000317,0.00014758,-0.000966
 06,-0.00011673,-0.00044083,0.00000635,-0.00007207,0.00259742,-0.000026
 05,0.00038644,-0.00043290,0.00017901,0.00015170,-0.00000361,0.00000140
 ,0.00000304,-0.00003588,0.00005814,0.00000633,0.00003981,0.00000785,-0
 .00005513,0.00004745,-0.00003620,0.00006074,0.00000915,0.00000700,-0.0
 0002005,0.00000890,-0.00000334,0.00000743,0.00001894,0.00003055,-0.000
 02990,0.00017663,-0.00006379,0.00001988,-0.00014374,-0.00004403,-0.000
 02316,0.00003203,0.00006076,-0.00000315,-0.00001240,-0.00008403,-0.000
 04329,0.00020669,-0.00017108,0.00029987,-0.00002900,0.00171438,-0.0003
 0109,0.01806198,-0.00060957,0.06018458,0.00000544,-0.00000979,0.000005
 89,0.00000105,0.00000421,-0.00000525,-0.00001517,-0.00000378,0.0000049
 0,0.00001052,-0.00000894,-0.00000036,-0.00000424,0.00000380,0.00000096
 ,0.00001814,0.00003030,0.00002738,0.00003313,-0.00003119,-0.00002229,-
 0.00001909,0.00000981,0.00001224,-0.00001324,0.00000767,-0.00001883,0.
 00001847,0.00000123,0.00001516,-0.00000678,-0.00000032,-0.00000311,-0.
 00003410,0.00000340,-0.00001744,0.00002788,-0.00005173,0.00000348,-0.0
 0015567,0.00005728,-0.00001858,0.00035902,-0.00032093,0.00018750,-0.00
 036436,0.00130659,-0.00022263,-0.01634508,0.00142218,0.00121255,0.0021
 7847,0.00016644,0.00018950,0.00011924,0.00005329,-0.00007432,-0.336976
 22,0.07724039,-0.00220267,0.00586174,0.00553841,-0.00283531,0.00020755
 ,0.00049062,0.00038148,-0.00003461,-0.00000542,-0.00000319,0.00004558,
 -0.00000120,-0.00001724,-0.00002209,-0.00000391,0.00000076,-0.00018690
 ,-0.00010798,0.00007771,0.00216041,-0.00067609,0.00046167,-0.01954365,
 0.00469959,-0.00011994,0.00197928,-0.00030208,0.00109003,-0.00000070,0
 .00000262,-0.00000009,-0.00000883,-0.00000501,0.00000173,0.00000811,-0
 .00000157,-0.00000591,0.00001023,-0.00000212,0.00000626,0.00000435,-0.
 00000007,-0.00000393,0.00000507,-0.00000125,0.00000362,0.00000826,0.00
 000443,-0.00000850,0.00002744,-0.00000975,0.00004058,0.00049802,0.0001
 7478,0.00047325,0.00001092,-0.00001614,0.00000383,0.00001867,-0.000080
 55,-0.00000970,0.00020742,0.00013811,-0.00003784,0.00020130,-0.0008889
 1,0.00042204,-0.00030510,-0.00096924,0.00228030,0.36055854,0.00000035,
 0.00000041,0.00001236,-0.00000049,0.00000502,-0.00000645,0.00000415,0.
 00000869,-0.00000744,-0.00000482,-0.00000602,0.00000622,0.00000131,0.0
 0000202,-0.00000184,-0.00000695,0.00000116,-0.00001580,0.00000132,-0.0
 0000520,0.00000259,-0.00000458,-0.00000138,-0.00000623,0.00000302,-0.0
 0000687,-0.00000709,-0.00000751,0.00000990,0.00001128,0.00000672,-0.00
 000529,-0.00000190,0.00000836,-0.00001232,-0.00002068,-0.00001564,-0.0
 0003016,0.00005327,0.00005320,0.00004879,0.00000449,0.00008359,0.00005
 267,-0.00011567,-0.00043493,0.00026926,-0.00023317,-0.00425500,0.00384
 166,0.00023586,0.00030578,-0.00002275,0.00034705,-0.00003315,-0.000015
 74,-0.00007928,0.07725768,-0.05640803,-0.00355228,0.03209820,-0.035111
 34,0.01042253,0.00208246,-0.00030095,-0.00071326,-0.00001956,0.0000346
 6,-0.00002731,0.00000330,-0.00002159,0.00001132,-0.00000193,0.00000563
 ,0.00000170,-0.00032914,-0.00012154,0.00017987,0.00135116,0.00199701,0
 .00029296,-0.02116272,0.00527952,-0.00103006,0.00140330,0.00069969,0.0
 0139797,0.00000060,-0.00000248,-0.00000223,0.00000806,-0.00000671,0.00
 000031,-0.00000492,-0.00000202,0.00000477,-0.00000294,0.00000668,-0.00
 000227,-0.00000197,-0.00000165,0.00000207,-0.00000181,0.00000060,0.000
 00012,-0.00000191,-0.00000137,0.00000057,0.00000062,0.00000879,0.00001
 037,-0.00016487,-0.00005065,0.00040847,-0.00000393,-0.00001189,-0.0000
 0708,0.00000296,-0.00004050,0.00000193,0.00016009,-0.00002261,-0.00002
 047,0.00008020,0.00000470,0.00011821,-0.00041451,0.00022613,0.00126610
 ,-0.08630214,0.08182032,-0.00000751,-0.00000678,-0.00000563,0.00000180
 ,0.00000885,0.00000252,0.00001738,0.00001943,0.00000885,-0.00000645,-0
 .00000483,-0.00001214,0.00000277,0.00000300,-0.00000286,-0.00003214,-0
 .00002400,-0.00003442,-0.00001506,0.00000380,-0.00001153,0.00000533,-0
 .00001551,0.00000646,0.00001666,0.00001585,-0.00001254,-0.00001937,-0.
 00000906,0.00000200,0.00000797,-0.00000121,-0.00000610,0.00002432,-0.0
 0000110,0.00000583,-0.00010355,-0.00017494,0.00013269,0.00015661,0.000
 16634,0.00017259,-0.00055439,0.00025287,-0.00044219,0.00023417,-0.0016
 5609,0.00122217,0.03619962,-0.00646703,-0.00208298,-0.00218200,0.00041
 562,0.00317004,-0.00001617,0.00026806,-0.00006895,-0.00055898,-0.00340
 531,-0.04456870,-0.00842935,0.01138875,0.00176372,-0.00095114,0.000309
 04,0.00007763,0.00002747,-0.00001644,0.00007110,-0.00000487,-0.0000054
 2,0.00000314,-0.00000434,-0.00000119,0.00000565,0.00045052,0.00011871,
 -0.00037315,0.00185035,0.00045504,0.00061178,-0.02810532,0.00402400,-0
 .00175799,0.00123508,0.00043868,0.00244025,0.00000100,0.00000124,0.000
 00129,0.00000455,-0.00000888,0.00000161,-0.00000924,-0.00000006,0.0000
 0975,-0.00001065,0.00000615,-0.00001610,-0.00000279,-0.00000101,0.0000
 0449,-0.00000310,-0.00000026,-0.00000059,-0.00000469,-0.00000882,0.000
 00922,-0.00003005,0.00001262,-0.00004854,0.00011361,0.00023844,0.00064
 876,0.00000520,0.00002592,0.00000791,-0.00000722,0.00002767,0.00000566
 ,-0.00013304,0.00006097,-0.00015769,-0.00035977,0.00069975,-0.00024242
 ,0.00302576,0.00147181,-0.00562295,0.00033299,-0.00630169,0.04824970,0
 .00000265,-0.00000682,-0.00001194,-0.00000642,0.00000487,0.00000456,-0
 .00000351,0.00000086,0.00001460,0.00001047,-0.00000051,-0.00001522,-0.
 00000316,0.00000125,0.00000097,-0.00002223,0.00001014,0.00000363,0.000
 01726,-0.00001589,-0.00003250,-0.00000541,0.00000096,0.00003052,-0.000
 01366,0.00000900,-0.00000169,0.00001203,-0.00000867,-0.00000223,-0.000
 00681,0.00000237,0.00000031,-0.00000014,0.00000295,0.00001548,0.000032
 22,-0.00002101,-0.00006251,-0.00000698,0.00005353,0.00005812,0.0000841
 3,0.00003698,-0.00017200,0.00003797,0.00013340,0.00011547,-0.00119949,
 0.00010224,0.00141537,0.00066289,-0.00012165,0.00006030,0.00003037,-0.
 00002707,-0.00002841,-0.01732612,0.00672898,-0.00408883,0.00279650,-0.
 00027404,0.00146256,-0.00066057,-0.00009132,0.00004416,0.00032255,-0.0
 0038777,-0.00026498,0.00002152,0.00013253,-0.00001008,-0.00000772,0.00
 000151,-0.00002274,0.00126923,-0.00029064,-0.00030247,0.00634952,0.004
 10408,-0.00052086,-0.32767825,0.08521890,-0.03615665,-0.01478437,0.002
 29318,0.00813658,-0.00000244,0.00000347,0.00000203,-0.00000598,0.00000
 115,0.00000112,0.00000722,0.00000053,-0.00000576,0.00000379,-0.0000024
 4,0.00000031,0.00000311,-0.00000048,-0.00000333,0.00000280,-0.00000052
 ,0.00000082,0.00000439,-0.00000091,-0.00000199,0.00000816,-0.00000434,
 0.00000032,0.00073456,-0.00030830,0.00055596,-0.00002252,0.00001204,0.
 00003147,-0.00010126,-0.00021068,0.00008698,0.00019677,0.00077790,-0.0
 0123057,-0.00003362,-0.00018822,0.00020872,0.00131071,-0.00013836,-0.0
 0054297,-0.00054845,-0.00174102,-0.00216193,0.34851830,0.00000943,0.00
 001802,0.00002202,-0.00000245,-0.00001840,-0.00000881,-0.00000800,-0.0
 0000146,-0.00002870,-0.00000409,0.00000704,0.00002395,0.00000104,-0.00
 000321,0.00000015,0.00003415,-0.00004342,-0.00000744,0.00000328,0.0000
 6902,0.00010165,-0.00003024,-0.00003063,-0.00013395,-0.00000153,-0.000
 02355,0.00001139,0.00000788,0.00001626,0.00000024,-0.00000326,-0.00000
 051,0.00000371,-0.00001729,0.00001072,-0.00000541,0.00005348,0.0001685
 8,0.00000831,-0.00013330,-0.00011097,-0.00015556,0.00015553,0.00028574
 ,0.00049378,-0.00065978,-0.00063814,0.00001736,-0.00067835,0.00018711,
 0.00116437,0.00022014,-0.00008224,-0.00044369,0.00004901,-0.00014497,0
 .00013604,-0.01827570,0.00658965,-0.00439442,0.00157308,0.00274640,0.0
 0043147,-0.00031484,-0.00011061,0.00018042,-0.00006338,0.00006731,0.00
 002261,-0.00026957,-0.00029044,0.00033113,0.00001747,0.00005039,0.0000
 2270,0.00467311,0.00086553,-0.00484538,0.03004206,-0.03235743,0.014375
 49,0.08595229,-0.06686128,0.00751357,-0.00308278,0.00570018,0.00173446
 ,-0.00000019,-0.00000494,-0.00000489,0.00000199,0.00000862,-0.00000143
 ,0.00000098,0.00000175,-0.00000062,0.00000084,-0.00000424,0.00000514,-
 0.00000059,0.00000158,0.00000080,-0.00000046,-0.00000073,0.00000082,-0
 .00000296,0.00000523,-0.00000613,0.00000696,-0.00000170,0.00000849,-0.
 00012918,-0.00016253,-0.00057916,-0.00005922,-0.00003912,-0.00001113,-
 0.00020462,0.00032827,0.00008730,-0.00162149,0.00053046,0.00060505,-0.
 00005587,-0.00004574,-0.00012145,0.00016363,0.00009936,-0.00001952,-0.
 00155504,-0.00211422,-0.00232298,-0.09579217,0.08533327,-0.00000284,-0
 .00000175,-0.00002094,-0.00000392,0.00000100,0.00001283,0.00000150,-0.
 00000284,0.00001628,0.00000685,0.00000840,-0.00001767,-0.00000070,-0.0
 0000204,0.00000136,-0.00001204,-0.00000691,-0.00000044,0.00000686,0.00
 000549,-0.00002115,-0.00000235,-0.00000490,0.00002073,-0.00000533,0.00
 000900,0.00001227,0.00000145,-0.00001200,-0.00001539,-0.00000254,0.000
 00319,0.00000354,0.00000911,0.00000531,0.00002769,0.00001900,0.0000048
 7,-0.00008290,0.00003000,0.00001588,0.00005841,0.00010175,0.00003616,-
 0.00022941,-0.00006939,-0.00022357,-0.00011417,-0.00209406,0.00042865,
 0.00146307,0.00063571,-0.00016193,-0.00013360,0.00003453,-0.00001015,0
 .00008694,-0.02486391,0.00654947,-0.00150757,0.00224518,0.00026006,0.0
 0121339,0.00007221,-0.00046304,-0.00006466,0.00013165,0.00008804,0.000
 07952,0.00006393,0.00005886,-0.00010586,-0.00001475,-0.00001905,0.0000
 0049,-0.00199398,0.00024027,0.00264899,-0.00705454,0.01002767,0.000328
 07,-0.04339423,0.00808190,-0.05100777,0.04043950,-0.00697981,-0.013364
 57,-0.00000097,0.00000254,0.00000303,-0.00000191,0.00000440,-0.0000008
 3,0.00000308,-0.00000025,-0.00000401,0.00000145,-0.00000224,0.00000122
 ,0.00000146,0.00000044,-0.00000261,0.00000189,-0.00000048,0.00000005,0
 .00000144,0.00000091,-0.00000228,0.00000223,-0.00000557,0.00000944,0.0
 0231924,-0.00028884,0.00332290,0.00001035,-0.00000357,-0.00001505,0.00
 010749,-0.00011176,-0.00005380,0.00069139,-0.00041195,0.00001618,0.000
 14465,-0.00004819,0.00008661,0.00065292,-0.00021971,-0.00048655,-0.001
 60866,-0.00264021,-0.00316734,0.03338930,-0.01421176,0.06100556\\0.007
 09737,0.01530636,-0.00019845,0.01134779,-0.03797639,0.00285759,-0.0221
 5371,-0.02383819,-0.01828267,0.00979885,0.01879771,0.02878030,-0.00864
 092,-0.01430427,-0.02432377,0.01914015,-0.01250559,-0.02854164,-0.0039
 5684,-0.01155954,-0.00139551,0.00262841,0.00892251,0.01869997,0.010815
 59,0.00756465,0.00332423,0.00129599,0.02476112,-0.01196391,0.00429609,
 -0.02885972,0.01395779,-0.01187091,0.02499863,0.02697331,0.01669740,-0
 .00027253,0.02062834,-0.05646521,0.02042025,-0.00473788,0.02493358,-0.
 01131147,0.00430250,-0.00801328,-0.00321316,-0.01878371,-0.01054879,0.
 03896470,0.03812424,0.01743752,0.00023296,-0.00255643,-0.00586520,0.00
 560809,-0.02447684,0.01354592,-0.00832315,-0.01164100,-0.01276011,0.00
 675899,-0.00060051,-0.00212238,-0.02197271,0.02926279,0.01072450,-0.03
 232860,-0.02615171,-0.00427459,-0.00380011,0.02114351,0.00061646,0.033
 28695,-0.00050764,-0.00145805,0.01143582,0.02191184,0.00780630,-0.0088
 4048,-0.00318269,0.02031832,-0.00416055,-0.01780601,-0.00589668,-0.004
 24373,0.01871450,-0.00212139,0.00782802,0.00329072,0.00273082,0.007806
 32,-0.01759427,-0.02060291,-0.00013921,-0.00060470,0.01910864,-0.00328
 661,-0.00284482,-0.01719633,0.00684420,0.00102648,0.02045938,-0.002100
 56,-0.00004521,-0.01884883,0.00338480,0.00040343,0.01711184,-0.0016290
 1,-0.00247904,-0.00408146,-0.00426297,-0.00402136,-0.01027297,-0.00458
 328,-0.01677693,0.01737294,-0.00435028,-0.01228211,-0.01991983,0.00964
 612,0.00173742,0.01728322,-0.00795404,0.00239646,-0.02527389,0.0055991
 6,-0.00163532,0.02033713,-0.00761603,-0.00215173,-0.02055995,0.0052648
 3,-0.00194955\\\@


 IN SO FAR AS QUANTUM MECHANICS IS CORRECT, CHEMICAL 
 QUESTIONS ARE PROBLEMS IN APPLIED MATHEMATICS.

                    -- EYRING, WALTER, & KIMBALL, 1944
 Job cpu time:  0 days 13 hours  2 minutes 37.7 seconds.
 File lengths (MBytes):  RWF=   1323 Int=      0 D2E=      0 Chk=     19 Scr=      1
 Normal termination of Gaussian 09 at Tue Mar  1 16:25:44 2016.
Gaussian '09 finished on node024 at Tue Mar  1 16:25:44 EST 2016.
