Gaussian '09 started on node029 at Tue Mar  1 03:24:13 EST 2016.
 Entering Gaussian System, Link 0=/usr/local/gaussian/g09/g09
 Initial command:
 /usr/local/gaussian/g09/l1.exe /home/srmcgrat/thesis/gaussian/cellobiose/450/10000/2/gdp/gaussian6046/Gau-6082.inp -scrdir=/home/srmcgrat/thesis/gaussian/cellobiose/450/10000/2/gdp/gaussian6046/
 Entering Link 1 = /usr/local/gaussian/g09/l1.exe PID=      6084.
  
 Copyright (c) 1988,1990,1992,1993,1995,1998,2003,2009,2010,
            Gaussian, Inc.  All Rights Reserved.
  
 This is part of the Gaussian(R) 09 program.  It is based on
 the Gaussian(R) 03 system (copyright 2003, Gaussian, Inc.),
 the Gaussian(R) 98 system (copyright 1998, Gaussian, Inc.),
 the Gaussian(R) 94 system (copyright 1995, Gaussian, Inc.),
 the Gaussian 92(TM) system (copyright 1992, Gaussian, Inc.),
 the Gaussian 90(TM) system (copyright 1990, Gaussian, Inc.),
 the Gaussian 88(TM) system (copyright 1988, Gaussian, Inc.),
 the Gaussian 86(TM) system (copyright 1986, Carnegie Mellon
 University), and the Gaussian 82(TM) system (copyright 1983,
 Carnegie Mellon University). Gaussian is a federally registered
 trademark of Gaussian, Inc.
  
 This software contains proprietary and confidential information,
 including trade secrets, belonging to Gaussian, Inc.
  
 This software is provided under written license and may be
 used, copied, transmitted, or stored only in accord with that
 written license.
  
 The following legend is applicable only to US Government
 contracts under FAR:
  
                    RESTRICTED RIGHTS LEGEND
  
 Use, reproduction and disclosure by the US Government is
 subject to restrictions as set forth in subparagraphs (a)
 and (c) of the Commercial Computer Software - Restricted
 Rights clause in FAR 52.227-19.
  
 Gaussian, Inc.
 340 Quinnipiac St., Bldg. 40, Wallingford CT 06492
  
  
 ---------------------------------------------------------------
 Warning -- This program may not be used in any manner that
 competes with the business of Gaussian, Inc. or will provide
 assistance to any competitor of Gaussian, Inc.  The licensee
 of this program is prohibited from giving any competitor of
 Gaussian, Inc. access to this program.  By using this program,
 the user acknowledges that Gaussian, Inc. is engaged in the
 business of creating and licensing software in the field of
 computational chemistry and represents and warrants to the
 licensee that it is not a competitor of Gaussian, Inc. and that
 it will not use this program in any manner prohibited above.
 ---------------------------------------------------------------
  

 Cite this work as:
 Gaussian 09, Revision B.01,
 M. J. Frisch, G. W. Trucks, H. B. Schlegel, G. E. Scuseria, 
 M. A. Robb, J. R. Cheeseman, G. Scalmani, V. Barone, B. Mennucci, 
 G. A. Petersson, H. Nakatsuji, M. Caricato, X. Li, H. P. Hratchian, 
 A. F. Izmaylov, J. Bloino, G. Zheng, J. L. Sonnenberg, M. Hada, 
 M. Ehara, K. Toyota, R. Fukuda, J. Hasegawa, M. Ishida, T. Nakajima, 
 Y. Honda, O. Kitao, H. Nakai, T. Vreven, J. A. Montgomery, Jr., 
 J. E. Peralta, F. Ogliaro, M. Bearpark, J. J. Heyd, E. Brothers, 
 K. N. Kudin, V. N. Staroverov, T. Keith, R. Kobayashi, J. Normand, 
 K. Raghavachari, A. Rendell, J. C. Burant, S. S. Iyengar, J. Tomasi, 
 M. Cossi, N. Rega, J. M. Millam, M. Klene, J. E. Knox, J. B. Cross, 
 V. Bakken, C. Adamo, J. Jaramillo, R. Gomperts, R. E. Stratmann, 
 O. Yazyev, A. J. Austin, R. Cammi, C. Pomelli, J. W. Ochterski, 
 R. L. Martin, K. Morokuma, V. G. Zakrzewski, G. A. Voth, 
 P. Salvador, J. J. Dannenberg, S. Dapprich, A. D. Daniels, 
 O. Farkas, J. B. Foresman, J. V. Ortiz, J. Cioslowski, 
 and D. J. Fox, Gaussian, Inc., Wallingford CT, 2010.
 
 ******************************************
 Gaussian 09:  EM64L-G09RevB.01 12-Aug-2010
                 1-Mar-2016 
 ******************************************
 ------------------------------------------------
 # freq=raman b3lyp/6-31+g(d,p) geom=connectivity
 ------------------------------------------------
 1/10=4,30=1,38=1,57=2/1,3;
 2/12=2,17=6,18=5,40=1/2;
 3/5=1,6=6,7=111,11=2,16=1,25=1,30=1,71=2,74=-5/1,2,3;
 4//1;
 5/5=2,38=5,98=1/2;
 8/6=4,10=90,11=11/1;
 10/13=10,15=4/2;
 11/6=3,8=1,9=11,15=111,16=1/1,2,10;
 10/6=1/2;
 6/7=2,8=2,9=2,10=2,18=1,28=1/1;
 7/8=1,10=1,25=1/1,2,3,16;
 1/10=4,30=1/3;
 99//99;
 -------------
 450 10000.com
 -------------
 Symbolic Z-matrix:
 Charge =  0 Multiplicity = 1
 O                     10.311    8.237     21.869 
 C                     11.242    7.878     22.9 
 C                     11.911    9.108     23.49 
 O                     12.886    9.603     22.56 
 H                     12.414    9.624     21.678 
 C                     12.604    8.99      24.838 
 O                     12.695    10.231    25.552 
 H                     12.9      11.125    25.153 
 C                     10.475    5.632     23.434 
 O                     10.069    4.588     24.331 
 H                     10.033    3.66      23.959 
 C                     10.605    7.038     23.996 
 O                     11.457    6.868     25.138 
 C                     11.772    8.119     25.766 
 O                     12.416    7.693     26.975 
 C                     11.59     7.804     28.143 
 C                     11.033    6.527     28.751 
 O                     10.288    5.847     27.732 
 H                     10.722    5.89      26.832 
 C                     10.162    6.872     29.948 
 O                     9.506     5.677     30.395 
 H                     8.837     5.465     29.682 
 C                     12.937    9.949     28.663 
 O                     13.661    10.924    29.427 
 H                     14.54     10.708    29.853 
 C                     12.42     8.6       29.136 
 O                     11.705    8.771     30.368 
 C                     11.095    7.59      30.91 
 O                     10.497    7.94      32.167 
 H                     10.79204   8.5102    21.08442 
 H                     11.18648   8.11918   32.81052 
 H                     11.42385   5.35697   23.02298 
 H                     9.76665   5.66617   22.63277 
 H                     9.65013   7.42879   24.27957 
 H                     12.00748   7.28387   22.44618 
 H                     11.15491   9.8585    23.5899 
 H                     13.57858   8.56603   24.71412 
 H                     10.8644   8.63027   26.01045 
 H                     12.074    10.46575   28.29817 
 H                     13.56557   9.72843   27.82565 
 H                     13.2808   8.00482   29.3589 
 H                     10.75027   8.41068   27.87526 
 H                     11.84296   5.90529   29.07092 
 H                     9.41152   7.56531   29.63021 
 H                     11.88932   6.90705   31.12804 
 

 GradGradGradGradGradGradGradGradGradGradGradGradGradGradGradGradGradGrad
 Berny optimization.
 Initialization pass.
 Trust Radius=3.00D-01 FncErr=1.00D-07 GrdErr=1.00D-07
 Number of steps in this run=      2 maximum allowed number of steps=      2.
 GradGradGradGradGradGradGradGradGradGradGradGradGradGradGradGradGradGrad

                          Input orientation:                          
 ---------------------------------------------------------------------
 Center     Atomic      Atomic             Coordinates (Angstroms)
 Number     Number       Type             X           Y           Z
 ---------------------------------------------------------------------
      1          8           0       10.311000    8.237000   21.869000
      2          6           0       11.242000    7.878000   22.900000
      3          6           0       11.911000    9.108000   23.490000
      4          8           0       12.886000    9.603000   22.560000
      5          1           0       12.414000    9.624000   21.678000
      6          6           0       12.604000    8.990000   24.838000
      7          8           0       12.695000   10.231000   25.552000
      8          1           0       12.900000   11.125000   25.153000
      9          6           0       10.475000    5.632000   23.434000
     10          8           0       10.069000    4.588000   24.331000
     11          1           0       10.033000    3.660000   23.959000
     12          6           0       10.605000    7.038000   23.996000
     13          8           0       11.457000    6.868000   25.138000
     14          6           0       11.772000    8.119000   25.766000
     15          8           0       12.416000    7.693000   26.975000
     16          6           0       11.590000    7.804000   28.143000
     17          6           0       11.033000    6.527000   28.751000
     18          8           0       10.288000    5.847000   27.732000
     19          1           0       10.722000    5.890000   26.832000
     20          6           0       10.162000    6.872000   29.948000
     21          8           0        9.506000    5.677000   30.395000
     22          1           0        8.837000    5.465000   29.682000
     23          6           0       12.937000    9.949000   28.663000
     24          8           0       13.661000   10.924000   29.427000
     25          1           0       14.540000   10.708000   29.853000
     26          6           0       12.420000    8.600000   29.136000
     27          8           0       11.705000    8.771000   30.368000
     28          6           0       11.095000    7.590000   30.910000
     29          8           0       10.497000    7.940000   32.167000
     30          1           0       10.792040    8.510195   21.084420
     31          1           0       11.186480    8.119181   32.810515
     32          1           0       11.423853    5.356971   23.022979
     33          1           0        9.766650    5.666171   22.632768
     34          1           0        9.650131    7.428785   24.279569
     35          1           0       12.007481    7.283870   22.446184
     36          1           0       11.154914    9.858502   23.589904
     37          1           0       13.578577    8.566025   24.714124
     38          1           0       10.864398    8.630274   26.010453
     39          1           0       12.074001   10.465754   28.298174
     40          1           0       13.565567    9.728434   27.825651
     41          1           0       13.280799    8.004819   29.358899
     42          1           0       10.750265    8.410682   27.875264
     43          1           0       11.842959    5.905294   29.070919
     44          1           0        9.411518    7.565314   29.630205
     45          1           0       11.889320    6.907053   31.128037
 ---------------------------------------------------------------------
                    Distance matrix (angstroms):
                    1          2          3          4          5
     1  O    0.000000
     2  C    1.434783   0.000000
     3  C    2.438500   1.519395   0.000000
     4  O    2.995674   2.407065   1.435462   0.000000
     5  H    2.526432   2.432156   1.950028   1.000574   0.000000
     6  C    3.826202   2.616760   1.520288   2.375832   3.228569
     7  O    4.819127   3.831569   2.475405   3.063157   3.931321
     8  H    5.082137   4.285788   2.794992   3.006714   3.816389
     9  C    3.043377   2.432686   3.761357   4.727117   4.772769
    10  O    4.408538   3.774624   4.952842   6.018484   6.156194
    11  H    5.039277   4.513833   5.781656   6.739144   6.814794
    12  C    2.459302   1.520719   2.499314   3.720791   3.915738
    13  O    3.724760   2.464745   2.817733   4.020989   4.525813
    14  C    4.163539   2.924540   2.485481   3.704280   4.403287
    15  O    5.549612   4.244776   3.795059   4.833345   5.637994
    16  C    6.417664   5.255057   4.842919   6.007155   6.766654
    17  C    7.127925   6.008584   5.925417   7.157085   7.843845
    18  O    6.331461   5.327598   5.591316   6.899763   7.445571
    19  H    5.505334   4.436572   4.789385   6.059641   6.585540
    20  C    8.194856   7.200885   7.054393   8.334331   9.002106
    21  O    8.938361   8.002070   8.076807   9.392822  10.001068
    22  H    8.420192   7.589606   7.814204   9.178253   9.703413
    23  C    7.482330   6.354072   5.340401   6.113013   7.012088
    24  O    8.692861   7.598119   6.450452   7.035720   7.955628
    25  H    9.366672   8.199385   7.068197   7.559404   8.516194
    26  C    7.575549   6.387227   5.691613   6.668354   7.527973
    27  O    8.629102   7.535439   6.889332   7.940519   8.760502
    28  C    9.097964   8.016524   7.617518   8.773959   9.544985
    29  O   10.303961   9.297105   8.868706  10.038294  10.794900
    30  H    0.960000   1.974453   2.719606   2.785000   2.055153
    31  H   10.977117   9.913605   9.400782  10.495864  11.300628
    32  H    3.296160   2.530569   3.811251   4.514530   4.582237
    33  H    2.736571   2.672126   4.144788   5.023371   4.856382
    34  H    2.626938   2.153846   2.924844   4.260866   4.384758
    35  H    2.029691   1.070000   2.103880   2.482562   2.496312
    36  H    2.510572   2.099033   1.070000   2.030429   2.301231
    37  H    4.345118   3.037107   2.138464   2.489022   3.419591
    38  H    4.196730   3.222331   2.770610   4.115665   4.707325
    39  H    7.029210   6.043921   4.998860   5.859209   6.682129
    40  H    6.949696   5.751965   4.681922   5.310802   6.255447
    41  H    8.060534   6.774228   6.126772   6.995361   7.897424
    42  H    6.024809   5.027803   4.589564   5.851069   6.530408
    43  H    7.723431   6.506379   6.434953   7.559963   8.295187
    44  H    7.841973   6.981697   6.806571   8.137075   8.745894
    45  H    9.486285   8.310376   7.948851   9.037298   9.846841
                    6          7          8          9         10
     6  C    0.000000
     7  O    1.434628   0.000000
     8  H    2.178317   1.000231   0.000000
     9  C    4.216636   5.528574   6.245689   0.000000
    10  O    5.104986   6.342725   7.170956   1.435054   0.000000
    11  H    5.982607   7.266494   8.085267   2.088007   1.000432
    12  C    2.918093   4.121224   4.827965   1.519730   2.530222
    13  O    2.430739   3.607466   4.494944   2.322851   2.788583
    14  C    1.520542   2.314794   3.268668   3.647684   4.174613
    15  O    2.506855   2.923049   3.915682   4.533639   4.705334
    16  C    3.654835   3.718149   4.656741   5.304290   5.214158
    17  C    4.883234   5.168700   6.129673   5.420598   4.921932
    18  O    4.859788   5.455777   6.428924   4.307435   3.633159
    19  H    4.138594   4.937146   5.913370   3.416720   2.894238
    20  C    6.046601   6.084717   6.969697   6.638356   6.064321
    21  O    7.173132   7.373146   8.287249   7.028265   6.186678
    22  H    7.076740   7.392957   8.309958   6.461303   5.560589
    23  C    3.957423   3.133115   3.701952   7.213901   7.465385
    24  O    5.090828   4.053274   4.345871   8.606504   8.889127
    25  H    5.643567   4.704270   4.995347   9.137481   9.377458
    26  C    4.319579   3.947258   4.740286   6.716015   6.686656
    27  O    5.606876   5.128894   5.845132   7.710161   7.524583
    28  C    6.411417   6.184096   6.992660   7.752983   7.303966
    29  O    7.697804   7.337446   8.069376   9.032864   8.533580
    30  H    4.195566   5.151863   5.275798   3.728947   5.142634
    31  H    8.144243   7.708532   8.402895   9.726835   9.253117
    32  H    4.229178   5.636304   6.323461   1.070000   2.034173
    33  H    4.895042   6.159124   6.779990   1.070000   2.034173
    34  H    3.387415   4.329286   4.998654   2.150310   2.871961
    35  H    2.997916   4.336398   4.783066   2.460275   3.818108
    36  H    2.100450   2.521991   2.663195   4.283680   5.432000
    37  H    1.070000   2.062737   2.683548   4.458633   5.318703
    38  H    2.128442   2.474593   3.332051   3.972327   4.448954
    39  H    3.798888   2.825283   3.317981   7.041461   7.369294
    40  H    3.224276   2.485950   3.088112   6.754182   7.131804
    41  H    4.676235   4.448767   5.250726   6.971887   6.875324
    42  H    3.605123   3.534559   4.404498   5.246110   5.257264
    43  H    5.292656   5.640966   6.611563   5.806966   5.229630
    44  H    5.931855   5.875278   6.699719   6.577359   6.113776
    45  H    6.664383   6.541401   7.383333   7.926176   7.408865
                   11         12         13         14         15
    11  H    0.000000
    12  C    3.426286   0.000000
    13  O    3.702578   1.434910   0.000000
    14  C    5.115863   2.379779   1.434786   0.000000
    15  O    5.571358   3.547279   2.230443   1.434536   0.000000
    16  C    6.091210   4.330657   3.150208   2.404678   1.434859
    17  C    5.673002   4.801492   3.653741   3.462775   2.535039
    18  O    4.368469   3.934039   3.022886   3.351029   2.917045
    19  H    3.701587   3.061779   2.089580   2.684641   2.478083
    20  C    6.797184   5.970771   4.981279   4.651476   3.820116
    21  O    6.765214   6.633802   5.732445   5.703136   4.922271
    22  H    6.118919   6.158794   5.429617   5.567135   5.010097
    23  C    8.373312   5.974365   4.910049   3.619217   2.865366
    24  O    9.789132   7.344106   6.301133   4.983901   4.242840
    25  H   10.233601   7.953463   6.817750   5.573896   4.678086
    26  C    7.543388   5.670421   4.462196   3.465280   2.343627
    27  O    8.366193   6.694451   5.570980   4.648440   3.630434
    28  C    8.055380   6.953287   5.828234   5.215257   4.152093
    29  O    9.268493   8.221345   7.174791   6.529201   5.540797
    30  H    5.688914   3.267972   4.423854   4.799015   6.164737
    31  H    9.978183   8.899593   7.778569   7.068807   5.978845
    32  H    2.385439   2.107877   2.599542   3.908219   4.696792
    33  H    2.419619   2.107877   3.252363   4.455888   5.475588
    34  H    3.801723   1.070000   2.077537   2.681083   3.871071
    35  H    4.395409   2.104598   2.778822   3.431337   4.565572
    36  H    6.310020   2.902164   3.380970   2.853429   4.211723
    37  H    6.100034   3.419462   2.750282   2.137755   2.687995
    38  H    5.440892   2.580822   2.053767   1.070000   2.053364
    39  H    8.325407   5.693519   4.828170   3.465597   3.091264
    40  H    8.015979   5.538016   4.455514   3.170067   2.487590
    41  H    7.654056   6.070859   4.736517   3.898517   2.555012
    42  H    6.198433   4.117529   3.220552   2.361782   2.024899
    43  H    5.869328   5.345126   4.067385   3.978445   2.813743
    44  H    6.913775   5.783315   4.984993   4.561855   4.011649
    45  H    8.086060   7.247936   6.005744   5.498547   4.259439
                   16         17         18         19         20
    16  C    0.000000
    17  C    1.520080   0.000000
    18  O    2.386205   1.433801   0.000000
    19  H    2.477002   2.045740   1.000102   0.000000
    20  C    2.483110   1.520025   2.444822   3.314722   0.000000
    21  O    3.733455   2.399368   2.780646   3.770808   1.434632
    22  H    3.926634   2.610943   2.460452   3.443305   1.950905
    23  C    2.585698   3.917020   4.970952   4.973356   4.338177
    24  O    3.958800   5.166911   6.326617   6.380666   5.378954
    25  H    4.478819   5.567245   6.797607   6.849576   5.821581
    26  C    1.519396   2.523752   3.754417   3.941538   2.957007
    27  O    2.428773   2.846368   4.184036   4.665806   2.482630
    28  C    2.819062   2.407300   3.713352   4.433871   1.520348
    29  O    4.172016   3.735361   4.908519   5.719733   2.485319
    30  H    7.138557   7.922599   7.178926   6.317040   9.035689
    31  H    4.695516   4.363286   5.635725   6.397471   3.286185
    32  H    5.677162   5.859348   4.868795   3.909649   7.200243
    33  H    6.185271   6.306935   5.129003   4.312348   7.424483
    34  H    4.339353   4.766471   3.850741   3.167281   5.718665
    35  H    5.735725   6.424420   5.741172   4.778150   7.736451
    36  H    5.014076   6.144158   5.831008   5.142724   7.094396
    37  H    4.036373   5.189793   5.227673   4.450454   6.475815
    38  H    2.399371   3.458726   3.323036   2.864318   4.369115
    39  H    2.709847   4.099087   4.984299   4.991502   4.392350
    40  H    2.776153   4.185612   5.081019   4.879221   4.924211
    41  H    2.092258   2.757915   4.032348   4.171946   3.370049
    42  H    1.070000   2.096452   2.608961   2.728193   2.647609
    43  H    2.128405   1.070000   2.052803   2.503905   2.128242
    44  H    2.648496   2.116672   2.706290   3.514825   1.070000
    45  H    3.131222   2.555000   3.901410   4.566505   2.092211
                   21         22         23         24         25
    21  O    0.000000
    22  H    1.000437   0.000000
    23  C    5.746440   6.160732   0.000000
    24  O    6.762548   7.289491   1.434746   0.000000
    25  H    7.137638   7.748710   2.135835   1.000386   0.000000
    26  C    4.315137   4.792101   1.520138   2.650611   3.074435
    27  O    3.795941   4.430085   2.410920   3.057258   3.471947
    28  C    2.539629   3.334992   3.742573   4.460852   4.765207
    29  O    3.040269   3.880264   4.718866   5.140307   5.418696
    30  H    9.816710   9.328117   8.006615   9.146367   9.785987
    31  H    3.824000   4.727826   4.859470   5.043653   5.166719
    32  H    7.624124   7.144651   7.428740   8.775427   9.219168
    33  H    7.766615   7.113114   8.047201   9.432514  10.016819
    34  H    6.363020   5.805506   6.030710   7.402678   8.107232
    35  H    8.486643   8.106619   6.827571   8.044654   8.543960
    36  H    8.155563   7.860612   5.377762   6.441074   7.169855
    37  H    7.563379   7.535164   4.232949   5.270487   5.649817
    38  H    5.458143   5.254480   3.615346   4.975436   5.708955
    39  H    5.824386   6.115610   1.070000   2.000701   2.925290
    40  H    6.284566   6.631912   1.070000   2.000701   2.453409
    41  H    4.554268   5.128589   2.093398   2.944623   3.022732
    42  H    3.920495   3.949927   2.787250   4.146930   4.852958
    43  H    2.695679   3.098881   4.208906   5.349718   5.563423
    44  H    2.039501   2.178089   4.364226   5.420347   6.018923
    45  H    2.780393   3.672492   4.053083   4.708316   4.806144
                   26         27         28         29         30
    26  C    0.000000
    27  O    1.434674   0.000000
    28  C    2.433681   1.435488   0.000000
    29  O    3.649725   2.320824   1.435323   0.000000
    30  H    8.215002   9.332008   9.873224  11.101160   0.000000
    31  H    3.905742   2.580623   1.974933   0.960000  11.739241
    32  H    6.991321   8.104565   8.203637   9.546948   3.754999
    33  H    7.611810   8.557510   8.601058   9.828799   3.396656
    34  H    5.712166   6.564528   6.787949   7.949220   3.561233
    35  H    6.830520   8.065867   8.518363   9.859327   2.198993
    36  H    5.826101   6.886787   7.663778   8.813630   2.868285
    37  H    4.571263   5.959750   6.746085   8.089090   4.576315
    38  H    3.491398   4.440116   5.014071   6.206008   4.928027
    39  H    2.074296   2.700469   4.006250   4.882026   7.583263
    40  H    2.074296   3.292709   4.493308   5.609092   7.390585
    41  H    1.070000   2.021994   2.712141   3.954639   8.655422
    42  H    2.100788   2.693526   3.162592   4.324891   6.791701
    43  H    2.756566   3.148607   2.603823   3.941745   8.466056
    44  H    3.219593   2.694082   2.114851   2.784598   8.707990
    45  H    2.667564   2.021368   1.070000   2.021133  10.229776
                   31         32         33         34         35
    31  H    0.000000
    32  H   10.172611   0.000000
    33  H   10.565023   1.730372   0.000000
    34  H    8.695635   3.002919   2.415023   0.000000
    35  H   10.430300   2.094338   2.770033   2.989883   0.000000
    36  H    9.383278   4.545054   4.518742   2.939989   2.943416
    37  H    8.454191   4.219104   5.222258   4.112766   3.042338
    38  H    6.826844   4.466822   4.625982   2.431867   3.977871
    39  H    5.162879   7.372247   7.775390   5.589948   6.661426
    40  H    5.753141   6.838295   7.609191   5.761400   6.110826
    41  H    4.038924   7.113595   7.940993   6.270022   7.065886
    42  H    4.963060   5.772654   5.998633   3.886314   5.685525
    43  H    4.395093   6.087190   6.768902   5.485122   6.768652
    44  H    3.683969   7.251324   7.259269   5.357694   7.643847
    45  H    2.189514   8.265069   8.843930   7.224104   8.690829
                   36         37         38         39         40
    36  H    0.000000
    37  H    2.967913   0.000000
    38  H    2.729836   3.008549   0.000000
    39  H    4.835419   4.326446   3.172664   0.000000
    40  H    4.875419   3.321590   3.434708   1.729650   0.000000
    41  H    6.421591   4.688023   4.176396   2.938996   2.324391
    42  H    4.541391   4.244559   1.881161   2.480816   3.108836
    43  H    6.792849   5.391987   4.213022   4.631232   4.374298
    44  H    6.692039   6.521783   4.043217   4.156401   5.019127
    45  H    8.128582   6.836962   5.496327   4.550448   4.655722
                   41         42         43         44         45
    41  H    0.000000
    42  H    2.961335   0.000000
    43  H    2.560923   2.983377   0.000000
    44  H    3.903602   2.363622   2.996726   0.000000
    45  H    2.504227   3.760170   2.288537   2.969226   0.000000
 Stoichiometry    C12H22O11
 Framework group  C1[X(C12H22O11)]
 Deg. of freedom   129
 Full point group                 C1      NOp   1
 Largest Abelian subgroup         C1      NOp   1
 Largest concise Abelian subgroup C1      NOp   1
                         Standard orientation:                         
 ---------------------------------------------------------------------
 Center     Atomic      Atomic             Coordinates (Angstroms)
 Number     Number       Type             X           Y           Z
 ---------------------------------------------------------------------
      1          8           0       -4.886611   -0.293467    1.241199
      2          6           0       -3.870816   -0.084852    0.249612
      3          6           0       -3.277518    1.309973    0.354587
      4          8           0       -4.214878    2.259318   -0.175178
      5          1           0       -5.090662    2.019272    0.244977
      6          6           0       -1.939484    1.589435   -0.310877
      7          8           0       -1.214863    2.676634    0.281644
      8          1           0       -1.607844    3.537273    0.606189
      9          6           0       -3.348727   -2.384568   -0.347623
     10          8           0       -2.456725   -3.481380   -0.594033
     11          1           0       -2.837088   -4.276993   -1.066460
     12          6           0       -2.775000   -1.137800    0.305053
     13          8           0       -1.645427   -0.814489   -0.518658
     14          6           0       -1.009503    0.403903   -0.106673
     15          8           0        0.187221    0.399021   -0.897698
     16          6           0        1.366473    0.037988   -0.164320
     17          6           0        1.969176   -1.336144   -0.407532
     18          8           0        0.953133   -2.312028   -0.140900
     19          1           0        0.048224   -2.037249   -0.466233
     20          6           0        3.180221   -1.526115    0.491220
     21          8           0        3.623966   -2.885711    0.378266
     22          1           0        2.917402   -3.428799    0.832904
     23          6           0        1.890031    2.569806   -0.124102
     24          8           0        2.654185    3.781252   -0.207558
     25          1           0        3.067070    4.081685   -1.067813
     26          6           0        2.356563    1.157512   -0.438095
     27          8           0        3.598990    0.907417    0.234301
     28          6           0        4.137281   -0.415372    0.089048
     29          8           0        5.404950   -0.451650    0.761248
     30          1           0       -5.674505    0.199522    1.000814
     31          1           0        6.041469    0.075284    0.272591
     32          1           0       -3.774196   -2.094297   -1.285503
     33          1           0       -4.140670   -2.743185    0.276173
     34          1           0       -2.475787   -1.334389    1.313381
     35          1           0       -4.339827   -0.161944   -0.709025
     36          1           0       -3.161000    1.523424    1.396586
     37          1           0       -2.079588    1.768877   -1.356377
     38          1           0       -0.748842    0.334050    0.928738
     39          1           0        1.540983    2.529663    0.886569
     40          1           0        1.042814    2.730635   -0.757550
     41          1           0        2.562981    1.131002   -1.487661
     42          1           0        1.115070    0.085711    0.874630
     43          1           0        2.272985   -1.412809   -1.430627
     44          1           0        2.878476   -1.356962    1.503760
     45          1           0        4.338831   -0.551720   -0.952915
 ---------------------------------------------------------------------
 Rotational constants (GHZ):      0.3720473      0.1541061      0.1138605
 Standard basis: 6-31+G(d,p) (6D, 7F)
 There are   547 symmetry adapted basis functions of A   symmetry.
 Integral buffers will be    131072 words long.
 Raffenetti 2 integral format.
 Two-electron integral symmetry is turned on.
   547 basis functions,   890 primitive gaussians,   547 cartesian basis functions
    91 alpha electrons       91 beta electrons
       nuclear repulsion energy      2281.0417292715 Hartrees.
 NAtoms=   45 NActive=   45 NUniq=   45 SFac= 1.00D+00 NAtFMM=   50 NAOKFM=F Big=F
 One-electron integrals computed using PRISM.
 NBasis=   547 RedAO= T  NBF=   547
 NBsUse=   547 1.00D-06 NBFU=   547
 Harris functional with IExCor=  402 diagonalized for initial guess.
 ExpMin= 4.38D-02 ExpMax= 5.48D+03 ExpMxC= 8.25D+02 IAcc=2 IRadAn=         0 AccDes= 0.00D+00
 HarFok:  IExCor=  402 AccDes= 0.00D+00 IRadAn=         0 IDoV= 1
 ScaDFX=  1.000000  1.000000  1.000000  1.000000
 FoFCou: FMM=F IPFlag=           0 FMFlag=      100000 FMFlg1=           0
         NFxFlg=           0 DoJE=T BraDBF=F KetDBF=T FulRan=T
         Omega=  0.000000  0.000000  1.000000  0.000000  0.000000 ICntrl=     500 IOpCl=  0
         NMat0=    1 NMatS0=    1 NMatT0=    0 NMatD0=    1 NMtDS0=    0 NMtDT0=    0
         I1Cent=           4 NGrid=           0.
 Petite list used in FoFCou.
 Initial guess orbital symmetries:
       Occupied  (A) (A) (A) (A) (A) (A) (A) (A) (A) (A) (A) (A)
                 (A) (A) (A) (A) (A) (A) (A) (A) (A) (A) (A) (A)
                 (A) (A) (A) (A) (A) (A) (A) (A) (A) (A) (A) (A)
                 (A) (A) (A) (A) (A) (A) (A) (A) (A) (A) (A) (A)
                 (A) (A) (A) (A) (A) (A) (A) (A) (A) (A) (A) (A)
                 (A) (A) (A) (A) (A) (A) (A) (A) (A) (A) (A) (A)
                 (A) (A) (A) (A) (A) (A) (A) (A) (A) (A) (A) (A)
                 (A) (A) (A) (A) (A) (A) (A)
       Virtual   (A) (A) (A) (A) (A) (A) (A) (A) (A) (A) (A) (A)
                 (A) (A) (A) (A) (A) (A) (A) (A) (A) (A) (A) (A)
                 (A) (A) (A) (A) (A) (A) (A) (A) (A) (A) (A) (A)
                 (A) (A) (A) (A) (A) (A) (A) (A) (A) (A) (A) (A)
                 (A) (A) (A) (A) (A) (A) (A) (A) (A) (A) (A) (A)
                 (A) (A) (A) (A) (A) (A) (A) (A) (A) (A) (A) (A)
                 (A) (A) (A) (A) (A) (A) (A) (A) (A) (A) (A) (A)
                 (A) (A) (A) (A) (A) (A) (A) (A) (A) (A) (A) (A)
                 (A) (A) (A) (A) (A) (A) (A) (A) (A) (A) (A) (A)
                 (A) (A) (A) (A) (A) (A) (A) (A) (A) (A) (A) (A)
                 (A) (A) (A) (A) (A) (A) (A) (A) (A) (A) (A) (A)
                 (A) (A) (A) (A) (A) (A) (A) (A) (A) (A) (A) (A)
                 (A) (A) (A) (A) (A) (A) (A) (A) (A) (A) (A) (A)
                 (A) (A) (A) (A) (A) (A) (A) (A) (A) (A) (A) (A)
                 (A) (A) (A) (A) (A) (A) (A) (A) (A) (A) (A) (A)
                 (A) (A) (A) (A) (A) (A) (A) (A) (A) (A) (A) (A)
                 (A) (A) (A) (A) (A) (A) (A) (A) (A) (A) (A) (A)
                 (A) (A) (A) (A) (A) (A) (A) (A) (A) (A) (A) (A)
                 (A) (A) (A) (A) (A) (A) (A) (A) (A) (A) (A) (A)
                 (A) (A) (A) (A) (A) (A) (A) (A) (A) (A) (A) (A)
                 (A) (A) (A) (A) (A) (A) (A) (A) (A) (A) (A) (A)
                 (A) (A) (A) (A) (A) (A) (A) (A) (A) (A) (A) (A)
                 (A) (A) (A) (A) (A) (A) (A) (A) (A) (A) (A) (A)
                 (A) (A) (A) (A) (A) (A) (A) (A) (A) (A) (A) (A)
                 (A) (A) (A) (A) (A) (A) (A) (A) (A) (A) (A) (A)
                 (A) (A) (A) (A) (A) (A) (A) (A) (A) (A) (A) (A)
                 (A) (A) (A) (A) (A) (A) (A) (A) (A) (A) (A) (A)
                 (A) (A) (A) (A) (A) (A) (A) (A) (A) (A) (A) (A)
                 (A) (A) (A) (A) (A) (A) (A) (A) (A) (A) (A) (A)
                 (A) (A) (A) (A) (A) (A) (A) (A) (A) (A) (A) (A)
                 (A) (A) (A) (A) (A) (A) (A) (A) (A) (A) (A) (A)
                 (A) (A) (A) (A) (A) (A) (A) (A) (A) (A) (A) (A)
                 (A) (A) (A) (A) (A) (A) (A) (A) (A) (A) (A) (A)
                 (A) (A) (A) (A) (A) (A) (A) (A) (A) (A) (A) (A)
                 (A) (A) (A) (A) (A) (A) (A) (A) (A) (A) (A) (A)
                 (A) (A) (A) (A) (A) (A) (A) (A) (A) (A) (A) (A)
                 (A) (A) (A) (A) (A) (A) (A) (A) (A) (A) (A) (A)
                 (A) (A) (A) (A) (A) (A) (A) (A) (A) (A) (A) (A)
 The electronic state of the initial guess is 1-A.
 Requested convergence on RMS density matrix=1.00D-08 within 128 cycles.
 Requested convergence on MAX density matrix=1.00D-06.
 Requested convergence on             energy=1.00D-06.
 No special actions if energy rises.
 SCF Done:  E(RB3LYP) =  -1297.91923055     A.U. after   14 cycles
             Convg  =    0.2286D-08             -V/T =  2.0088
 Range of M.O.s used for correlation:     1   547
 NBasis=   547 NAE=    91 NBE=    91 NFC=     0 NFV=     0
 NROrb=    547 NOA=    91 NOB=    91 NVA=   456 NVB=   456

 **** Warning!!: The largest alpha MO coefficient is  0.74625894D+02

          Differentiating once with respect to electric field.
                with respect to dipole field.
          Electric field/nuclear overlap derivatives assumed to be zero.
          There are     3 degrees of freedom in the 1st order CPHF.  IDoFFX=0.
      3 vectors produced by pass  0 Test12= 1.38D-12 3.33D-08 XBig12= 1.17D+02 1.23D+00.
 AX will form     3 AO Fock derivatives at one time.
      3 vectors produced by pass  1 Test12= 1.38D-12 3.33D-08 XBig12= 2.18D+01 3.73D-01.
      3 vectors produced by pass  2 Test12= 1.38D-12 3.33D-08 XBig12= 9.04D+00 2.60D-01.
      3 vectors produced by pass  3 Test12= 1.38D-12 3.33D-08 XBig12= 9.23D-01 7.08D-02.
      3 vectors produced by pass  4 Test12= 1.38D-12 3.33D-08 XBig12= 2.28D-01 3.65D-02.
      3 vectors produced by pass  5 Test12= 1.38D-12 3.33D-08 XBig12= 4.97D-02 1.61D-02.
      3 vectors produced by pass  6 Test12= 1.38D-12 3.33D-08 XBig12= 1.50D-02 1.24D-02.
      3 vectors produced by pass  7 Test12= 1.38D-12 3.33D-08 XBig12= 2.73D-03 7.53D-03.
      3 vectors produced by pass  8 Test12= 1.38D-12 3.33D-08 XBig12= 5.81D-04 2.44D-03.
      3 vectors produced by pass  9 Test12= 1.38D-12 3.33D-08 XBig12= 1.20D-04 1.64D-03.
      3 vectors produced by pass 10 Test12= 1.38D-12 3.33D-08 XBig12= 2.28D-05 6.58D-04.
      3 vectors produced by pass 11 Test12= 1.38D-12 3.33D-08 XBig12= 6.76D-06 3.53D-04.
      3 vectors produced by pass 12 Test12= 1.38D-12 3.33D-08 XBig12= 1.15D-06 1.09D-04.
      3 vectors produced by pass 13 Test12= 1.38D-12 3.33D-08 XBig12= 2.47D-07 5.28D-05.
      3 vectors produced by pass 14 Test12= 1.38D-12 3.33D-08 XBig12= 2.96D-08 2.29D-05.
      3 vectors produced by pass 15 Test12= 1.38D-12 3.33D-08 XBig12= 1.11D-08 1.34D-05.
      3 vectors produced by pass 16 Test12= 1.38D-12 3.33D-08 XBig12= 1.24D-09 5.12D-06.
      3 vectors produced by pass 17 Test12= 1.38D-12 3.33D-08 XBig12= 1.97D-10 1.33D-06.
      3 vectors produced by pass 18 Test12= 1.38D-12 3.33D-08 XBig12= 7.15D-11 9.19D-07.
      3 vectors produced by pass 19 Test12= 1.38D-12 3.33D-08 XBig12= 1.09D-11 2.59D-07.
      3 vectors produced by pass 20 Test12= 1.38D-12 3.33D-08 XBig12= 6.52D-12 2.09D-07.
      2 vectors produced by pass 21 Test12= 1.38D-12 3.33D-08 XBig12= 1.47D-12 9.75D-08.
 Inverted reduced A of dimension    65 with in-core refinement.
 End of Minotr Frequency-dependent properties file   721 does not exist.
 End of Minotr Frequency-dependent properties file   722 does not exist.
 Symmetrizing basis deriv contribution to polar:
 IMax=3 JMax=2 DiffMx= 0.00D+00
 G2DrvN: will do    23 centers at a time, making    2 passes doing MaxLOS=2.
 Calling FoFCou, ICntrl=  3107 FMM=F I1Cent=   0 AccDes= 0.00D+00.
 Calling FoFCou, ICntrl=  3107 FMM=F I1Cent=   0 AccDes= 0.00D+00.
 FoFDir/FoFCou used for L=0 through L=2.
 End of G2Drv Frequency-dependent properties file   721 does not exist.
 End of G2Drv Frequency-dependent properties file   722 does not exist.
          IDoAtm=111111111111111111111111111111111111111111111
          Differentiating once with respect to electric field.
                with respect to dipole field.
          Differentiating once with respect to nuclear coordinates.
          There are   138 degrees of freedom in the 1st order CPHF.  IDoFFX=5.
 Will reuse    3 saved solutions.
    135 vectors produced by pass  0 Test12= 4.15D-14 1.00D-09 XBig12= 2.94D-01 1.05D-01.
 AX will form    68 AO Fock derivatives at one time.
    135 vectors produced by pass  1 Test12= 4.15D-14 1.00D-09 XBig12= 3.19D-02 1.74D-02.
    132 vectors produced by pass  2 Test12= 4.15D-14 1.00D-09 XBig12= 1.92D-04 1.30D-03.
    132 vectors produced by pass  3 Test12= 4.15D-14 1.00D-09 XBig12= 6.37D-07 6.47D-05.
    132 vectors produced by pass  4 Test12= 4.15D-14 1.00D-09 XBig12= 9.13D-10 2.29D-06.
    129 vectors produced by pass  5 Test12= 4.15D-14 1.00D-09 XBig12= 4.41D-12 1.99D-07.
     77 vectors produced by pass  6 Test12= 4.15D-14 1.00D-09 XBig12= 1.02D-13 2.24D-08.
      2 vectors produced by pass  7 Test12= 4.15D-14 1.00D-09 XBig12= 3.55D-16 1.16D-09.
 Inverted reduced A of dimension   874 with in-core refinement.
 Isotropic polarizability for W=    0.000000      187.46 Bohr**3.
 End of Minotr Frequency-dependent properties file   721 does not exist.
 End of Minotr Frequency-dependent properties file   722 does not exist.

 **********************************************************************

            Population analysis using the SCF density.

 **********************************************************************

 Orbital symmetries:
       Occupied  (A) (A) (A) (A) (A) (A) (A) (A) (A) (A) (A) (A)
                 (A) (A) (A) (A) (A) (A) (A) (A) (A) (A) (A) (A)
                 (A) (A) (A) (A) (A) (A) (A) (A) (A) (A) (A) (A)
                 (A) (A) (A) (A) (A) (A) (A) (A) (A) (A) (A) (A)
                 (A) (A) (A) (A) (A) (A) (A) (A) (A) (A) (A) (A)
                 (A) (A) (A) (A) (A) (A) (A) (A) (A) (A) (A) (A)
                 (A) (A) (A) (A) (A) (A) (A) (A) (A) (A) (A) (A)
                 (A) (A) (A) (A) (A) (A) (A)
       Virtual   (A) (A) (A) (A) (A) (A) (A) (A) (A) (A) (A) (A)
                 (A) (A) (A) (A) (A) (A) (A) (A) (A) (A) (A) (A)
                 (A) (A) (A) (A) (A) (A) (A) (A) (A) (A) (A) (A)
                 (A) (A) (A) (A) (A) (A) (A) (A) (A) (A) (A) (A)
                 (A) (A) (A) (A) (A) (A) (A) (A) (A) (A) (A) (A)
                 (A) (A) (A) (A) (A) (A) (A) (A) (A) (A) (A) (A)
                 (A) (A) (A) (A) (A) (A) (A) (A) (A) (A) (A) (A)
                 (A) (A) (A) (A) (A) (A) (A) (A) (A) (A) (A) (A)
                 (A) (A) (A) (A) (A) (A) (A) (A) (A) (A) (A) (A)
                 (A) (A) (A) (A) (A) (A) (A) (A) (A) (A) (A) (A)
                 (A) (A) (A) (A) (A) (A) (A) (A) (A) (A) (A) (A)
                 (A) (A) (A) (A) (A) (A) (A) (A) (A) (A) (A) (A)
                 (A) (A) (A) (A) (A) (A) (A) (A) (A) (A) (A) (A)
                 (A) (A) (A) (A) (A) (A) (A) (A) (A) (A) (A) (A)
                 (A) (A) (A) (A) (A) (A) (A) (A) (A) (A) (A) (A)
                 (A) (A) (A) (A) (A) (A) (A) (A) (A) (A) (A) (A)
                 (A) (A) (A) (A) (A) (A) (A) (A) (A) (A) (A) (A)
                 (A) (A) (A) (A) (A) (A) (A) (A) (A) (A) (A) (A)
                 (A) (A) (A) (A) (A) (A) (A) (A) (A) (A) (A) (A)
                 (A) (A) (A) (A) (A) (A) (A) (A) (A) (A) (A) (A)
                 (A) (A) (A) (A) (A) (A) (A) (A) (A) (A) (A) (A)
                 (A) (A) (A) (A) (A) (A) (A) (A) (A) (A) (A) (A)
                 (A) (A) (A) (A) (A) (A) (A) (A) (A) (A) (A) (A)
                 (A) (A) (A) (A) (A) (A) (A) (A) (A) (A) (A) (A)
                 (A) (A) (A) (A) (A) (A) (A) (A) (A) (A) (A) (A)
                 (A) (A) (A) (A) (A) (A) (A) (A) (A) (A) (A) (A)
                 (A) (A) (A) (A) (A) (A) (A) (A) (A) (A) (A) (A)
                 (A) (A) (A) (A) (A) (A) (A) (A) (A) (A) (A) (A)
                 (A) (A) (A) (A) (A) (A) (A) (A) (A) (A) (A) (A)
                 (A) (A) (A) (A) (A) (A) (A) (A) (A) (A) (A) (A)
                 (A) (A) (A) (A) (A) (A) (A) (A) (A) (A) (A) (A)
                 (A) (A) (A) (A) (A) (A) (A) (A) (A) (A) (A) (A)
                 (A) (A) (A) (A) (A) (A) (A) (A) (A) (A) (A) (A)
                 (A) (A) (A) (A) (A) (A) (A) (A) (A) (A) (A) (A)
                 (A) (A) (A) (A) (A) (A) (A) (A) (A) (A) (A) (A)
                 (A) (A) (A) (A) (A) (A) (A) (A) (A) (A) (A) (A)
                 (A) (A) (A) (A) (A) (A) (A) (A) (A) (A) (A) (A)
                 (A) (A) (A) (A) (A) (A) (A) (A) (A) (A) (A) (A)
 The electronic state is 1-A.
 Alpha  occ. eigenvalues --  -19.20711 -19.19839 -19.19797 -19.18930 -19.17967
 Alpha  occ. eigenvalues --  -19.16936 -19.16547 -19.16258 -19.15882 -19.15501
 Alpha  occ. eigenvalues --  -19.15220 -10.31614 -10.29537 -10.27940 -10.27519
 Alpha  occ. eigenvalues --  -10.27423 -10.27145 -10.25405 -10.25197 -10.24723
 Alpha  occ. eigenvalues --  -10.24413 -10.24346 -10.22473  -1.10511  -1.08248
 Alpha  occ. eigenvalues --   -1.06796  -1.05730  -1.04544  -1.03373  -1.02655
 Alpha  occ. eigenvalues --   -1.02201  -1.01023  -1.00287  -0.99981  -0.82938
 Alpha  occ. eigenvalues --   -0.81873  -0.79480  -0.78144  -0.72351  -0.70136
 Alpha  occ. eigenvalues --   -0.68119  -0.65176  -0.63954  -0.62759  -0.62048
 Alpha  occ. eigenvalues --   -0.60166  -0.58157  -0.57148  -0.55237  -0.54356
 Alpha  occ. eigenvalues --   -0.54066  -0.53451  -0.53272  -0.52245  -0.51305
 Alpha  occ. eigenvalues --   -0.50322  -0.49199  -0.48816  -0.48399  -0.47726
 Alpha  occ. eigenvalues --   -0.46426  -0.44940  -0.44582  -0.44187  -0.43450
 Alpha  occ. eigenvalues --   -0.43046  -0.42397  -0.41282  -0.40680  -0.39487
 Alpha  occ. eigenvalues --   -0.38986  -0.37154  -0.36623  -0.35990  -0.35698
 Alpha  occ. eigenvalues --   -0.34974  -0.34664  -0.34232  -0.33721  -0.33532
 Alpha  occ. eigenvalues --   -0.31755  -0.31459  -0.31238  -0.30635  -0.30148
 Alpha  occ. eigenvalues --   -0.29660  -0.28882  -0.28535  -0.27544  -0.26457
 Alpha  occ. eigenvalues --   -0.26114
 Alpha virt. eigenvalues --   -0.04736  -0.01687  -0.00708  -0.00501   0.00500
 Alpha virt. eigenvalues --    0.01275   0.01465   0.01962   0.02142   0.03051
 Alpha virt. eigenvalues --    0.03842   0.04106   0.04816   0.04991   0.05507
 Alpha virt. eigenvalues --    0.06023   0.06672   0.06888   0.07672   0.08120
 Alpha virt. eigenvalues --    0.08584   0.08969   0.09736   0.09942   0.10166
 Alpha virt. eigenvalues --    0.10523   0.10813   0.11067   0.11486   0.11972
 Alpha virt. eigenvalues --    0.12035   0.12140   0.12666   0.13052   0.13363
 Alpha virt. eigenvalues --    0.13673   0.14099   0.14329   0.14615   0.14824
 Alpha virt. eigenvalues --    0.15268   0.15525   0.15918   0.16329   0.16868
 Alpha virt. eigenvalues --    0.17181   0.17473   0.17727   0.18263   0.18602
 Alpha virt. eigenvalues --    0.18914   0.19255   0.19536   0.19904   0.20203
 Alpha virt. eigenvalues --    0.20442   0.20568   0.21346   0.21375   0.21630
 Alpha virt. eigenvalues --    0.22321   0.22353   0.22598   0.22800   0.23209
 Alpha virt. eigenvalues --    0.23509   0.23662   0.24013   0.24266   0.24772
 Alpha virt. eigenvalues --    0.24878   0.25141   0.25370   0.25873   0.26090
 Alpha virt. eigenvalues --    0.26348   0.26534   0.26963   0.27253   0.27607
 Alpha virt. eigenvalues --    0.28001   0.28211   0.28299   0.28576   0.28806
 Alpha virt. eigenvalues --    0.29651   0.29843   0.30316   0.30545   0.30627
 Alpha virt. eigenvalues --    0.30988   0.31852   0.32037   0.32341   0.32687
 Alpha virt. eigenvalues --    0.32713   0.32892   0.33206   0.33561   0.33887
 Alpha virt. eigenvalues --    0.34421   0.34607   0.34845   0.35112   0.35751
 Alpha virt. eigenvalues --    0.35916   0.36482   0.36813   0.37042   0.37410
 Alpha virt. eigenvalues --    0.37692   0.38278   0.38397   0.38900   0.39058
 Alpha virt. eigenvalues --    0.39326   0.39584   0.40043   0.40394   0.40876
 Alpha virt. eigenvalues --    0.41756   0.42160   0.42381   0.42908   0.43166
 Alpha virt. eigenvalues --    0.43506   0.44264   0.45388   0.45840   0.46004
 Alpha virt. eigenvalues --    0.47150   0.47604   0.47791   0.48430   0.50856
 Alpha virt. eigenvalues --    0.52274   0.52854   0.54624   0.62641   0.64346
 Alpha virt. eigenvalues --    0.65100   0.65923   0.67530   0.69342   0.69830
 Alpha virt. eigenvalues --    0.71221   0.71642   0.73078   0.73329   0.74256
 Alpha virt. eigenvalues --    0.75312   0.76430   0.77673   0.78181   0.78621
 Alpha virt. eigenvalues --    0.79402   0.81289   0.81907   0.83377   0.83646
 Alpha virt. eigenvalues --    0.85495   0.85892   0.88263   0.89348   0.89968
 Alpha virt. eigenvalues --    0.90627   0.91227   0.92700   0.94006   0.94876
 Alpha virt. eigenvalues --    0.96214   0.96854   0.98312   0.99260   1.00111
 Alpha virt. eigenvalues --    1.01148   1.02203   1.02308   1.03436   1.04092
 Alpha virt. eigenvalues --    1.04509   1.05531   1.05651   1.06357   1.06791
 Alpha virt. eigenvalues --    1.07041   1.07733   1.08512   1.09637   1.09903
 Alpha virt. eigenvalues --    1.10857   1.11617   1.12469   1.13982   1.14530
 Alpha virt. eigenvalues --    1.15032   1.16380   1.17188   1.20145   1.21040
 Alpha virt. eigenvalues --    1.22600   1.23121   1.24021   1.24574   1.25303
 Alpha virt. eigenvalues --    1.25845   1.27132   1.27229   1.28031   1.28467
 Alpha virt. eigenvalues --    1.28527   1.29343   1.29671   1.30295   1.30622
 Alpha virt. eigenvalues --    1.31390   1.32247   1.33152   1.33638   1.33756
 Alpha virt. eigenvalues --    1.34062   1.35200   1.35490   1.36901   1.37448
 Alpha virt. eigenvalues --    1.38956   1.39883   1.40780   1.41227   1.42396
 Alpha virt. eigenvalues --    1.43254   1.43417   1.44789   1.47096   1.48941
 Alpha virt. eigenvalues --    1.49078   1.50554   1.51226   1.52289   1.53342
 Alpha virt. eigenvalues --    1.54466   1.55307   1.56145   1.56378   1.57622
 Alpha virt. eigenvalues --    1.58770   1.59053   1.59609   1.60366   1.60866
 Alpha virt. eigenvalues --    1.61685   1.62000   1.62990   1.63962   1.64423
 Alpha virt. eigenvalues --    1.65315   1.66318   1.66596   1.67287   1.68586
 Alpha virt. eigenvalues --    1.68853   1.70044   1.70974   1.72291   1.73173
 Alpha virt. eigenvalues --    1.74283   1.75080   1.75702   1.75940   1.77438
 Alpha virt. eigenvalues --    1.78811   1.79445   1.80100   1.81734   1.81925
 Alpha virt. eigenvalues --    1.82980   1.83767   1.84473   1.85325   1.86824
 Alpha virt. eigenvalues --    1.87234   1.87708   1.89721   1.90015   1.90468
 Alpha virt. eigenvalues --    1.90792   1.92198   1.92758   1.93098   1.94587
 Alpha virt. eigenvalues --    1.95683   1.96283   1.96720   1.97656   1.98551
 Alpha virt. eigenvalues --    1.98917   1.99734   2.00634   2.02166   2.02722
 Alpha virt. eigenvalues --    2.03574   2.05255   2.06362   2.06598   2.07795
 Alpha virt. eigenvalues --    2.08111   2.09705   2.10243   2.11593   2.12972
 Alpha virt. eigenvalues --    2.13834   2.14670   2.14963   2.15948   2.16726
 Alpha virt. eigenvalues --    2.17672   2.18556   2.19512   2.20116   2.21556
 Alpha virt. eigenvalues --    2.22856   2.24863   2.25679   2.26266   2.27249
 Alpha virt. eigenvalues --    2.27589   2.30815   2.31934   2.32122   2.32396
 Alpha virt. eigenvalues --    2.33285   2.34446   2.35990   2.36458   2.37798
 Alpha virt. eigenvalues --    2.38329   2.39225   2.39488   2.40923   2.42185
 Alpha virt. eigenvalues --    2.43732   2.44787   2.46047   2.46791   2.48500
 Alpha virt. eigenvalues --    2.49373   2.49924   2.51798   2.52864   2.54312
 Alpha virt. eigenvalues --    2.54445   2.55574   2.57328   2.57461   2.59502
 Alpha virt. eigenvalues --    2.59795   2.60827   2.61492   2.62502   2.64513
 Alpha virt. eigenvalues --    2.64829   2.65353   2.66240   2.67678   2.69349
 Alpha virt. eigenvalues --    2.69767   2.70020   2.71646   2.73608   2.74051
 Alpha virt. eigenvalues --    2.75419   2.76400   2.77787   2.78368   2.80264
 Alpha virt. eigenvalues --    2.80351   2.81252   2.83173   2.83621   2.84835
 Alpha virt. eigenvalues --    2.85505   2.85893   2.87715   2.88977   2.89867
 Alpha virt. eigenvalues --    2.90520   2.92277   2.92843   2.93728   2.93878
 Alpha virt. eigenvalues --    2.94050   2.95903   2.97605   2.97950   2.98583
 Alpha virt. eigenvalues --    3.00788   3.01182   3.02985   3.03634   3.05864
 Alpha virt. eigenvalues --    3.07197   3.07999   3.09228   3.12866   3.13370
 Alpha virt. eigenvalues --    3.14622   3.20347   3.21845   3.23769   3.29668
 Alpha virt. eigenvalues --    3.32497   3.36931   3.38230   3.40052   3.40935
 Alpha virt. eigenvalues --    3.42189   3.43348   3.45190   3.46526   3.46813
 Alpha virt. eigenvalues --    3.49256   3.49629   3.51744   3.52469   3.52817
 Alpha virt. eigenvalues --    3.53455   3.56013   3.59630   3.60079   3.61847
 Alpha virt. eigenvalues --    3.62955   3.66474   3.68262   4.26638   4.29927
 Alpha virt. eigenvalues --    4.33454   4.34283   4.35963   4.41683   4.43993
 Alpha virt. eigenvalues --    4.46671   4.47585   4.48708   4.52878   4.55250
 Alpha virt. eigenvalues --    4.55813   4.62261   4.63948   4.65656   4.71771
 Alpha virt. eigenvalues --    4.74819   4.78101   4.83772   4.86381   4.87867
 Alpha virt. eigenvalues --    4.93621
          Condensed to atoms (all electrons):
              1          2          3          4          5          6
     1  O    8.267389   0.175289   0.014055  -0.020119   0.007407   0.021308
     2  C    0.175289  10.482719  -2.929963   0.086684  -0.047758  -1.317416
     3  C    0.014055  -2.929963   8.413727  -0.098273   0.119789   0.145376
     4  O   -0.020119   0.086684  -0.098273   8.295219   0.161634   0.136962
     5  H    0.007407  -0.047758   0.119789   0.161634   0.491357  -0.053024
     6  C    0.021308  -1.317416   0.145376   0.136962  -0.053024  13.009502
     7  O   -0.001167   0.056206  -0.018166  -0.007244  -0.000363   0.204395
     8  H   -0.000004   0.012245  -0.023239   0.002542  -0.000209   0.001915
     9  C    0.006521   0.513752  -0.401764   0.005596  -0.002772   0.082143
    10  O   -0.000094  -0.010079   0.000464   0.000098  -0.000002  -0.011777
    11  H   -0.000007  -0.002725   0.003100  -0.000001   0.000000   0.000104
    12  C   -0.140015  -2.383470   1.326879   0.002647  -0.003663  -0.044911
    13  O    0.005285   0.096230  -0.057650  -0.003731  -0.000192   0.132001
    14  C    0.004577   0.642119  -0.832473  -0.024586   0.014797  -4.971389
    15  O    0.000291   0.018418   0.000239  -0.000396   0.000097  -0.005380
    16  C    0.001218   0.182830   0.098545  -0.005974   0.000724  -0.070878
    17  C    0.000545  -0.037356   0.013625   0.000535   0.000058   0.015380
    18  O    0.000004  -0.000278  -0.000819  -0.000009   0.000000   0.008140
    19  H   -0.000009   0.001261   0.003924  -0.000005   0.000000   0.006592
    20  C    0.000067   0.013612  -0.001164  -0.000025   0.000002  -0.002255
    21  O    0.000000  -0.000029  -0.000062   0.000000   0.000000   0.000623
    22  H    0.000000   0.000032  -0.000008   0.000000   0.000000   0.000369
    23  C   -0.000084   0.035858  -0.027623   0.000783  -0.000185  -0.302448
    24  O    0.000000  -0.000351  -0.004328   0.000004   0.000000  -0.004894
    25  H    0.000000   0.000002  -0.000165   0.000000   0.000000   0.002457
    26  C    0.000324  -0.114140  -0.087418   0.000831   0.000059  -0.809758
    27  O    0.000000  -0.000145   0.001332  -0.000001   0.000000  -0.007855
    28  C   -0.000005   0.001948   0.003673   0.000000   0.000000   0.038332
    29  O    0.000000  -0.000019   0.000022   0.000000   0.000000  -0.000246
    30  H    0.212122   0.050883  -0.040006  -0.004210   0.010132  -0.015546
    31  H    0.000000   0.000000   0.000000   0.000000   0.000000   0.000032
    32  H    0.001417   0.039741  -0.010215  -0.000553   0.000011   0.011806
    33  H    0.002703   0.038539  -0.018429   0.000136  -0.000005   0.001271
    34  H    0.004930   0.055007  -0.056634  -0.000663   0.000001   0.012828
    35  H   -0.050451   0.402526  -0.073651  -0.002467  -0.001619  -0.012241
    36  H   -0.010494   0.107356   0.356536  -0.050767  -0.006516  -0.274346
    37  H   -0.000605   0.000033   0.053412  -0.003702   0.000163   0.393848
    38  H   -0.000419  -0.008911   0.028078  -0.000573   0.000007  -0.171713
    39  H    0.000000   0.000757  -0.002220  -0.000002   0.000000   0.024102
    40  H    0.000000   0.000520   0.015613   0.000006   0.000000  -0.018565
    41  H    0.000000   0.000312  -0.000439   0.000000   0.000000   0.005604
    42  H    0.000000   0.001574  -0.000858   0.000007   0.000000   0.004637
    43  H    0.000000   0.000491  -0.000522   0.000000   0.000000   0.003969
    44  H    0.000000   0.000136  -0.000147   0.000000   0.000000   0.000597
    45  H    0.000000   0.000006   0.000008   0.000000   0.000000   0.000402
              7          8          9         10         11         12
     1  O   -0.001167  -0.000004   0.006521  -0.000094  -0.000007  -0.140015
     2  C    0.056206   0.012245   0.513752  -0.010079  -0.002725  -2.383470
     3  C   -0.018166  -0.023239  -0.401764   0.000464   0.003100   1.326879
     4  O   -0.007244   0.002542   0.005596   0.000098  -0.000001   0.002647
     5  H   -0.000363  -0.000209  -0.002772  -0.000002   0.000000  -0.003663
     6  C    0.204395   0.001915   0.082143  -0.011777   0.000104  -0.044911
     7  O    8.356437   0.220684  -0.001848   0.000011   0.000000   0.007145
     8  H    0.220684   0.376183   0.000477   0.000000   0.000000   0.000650
     9  C   -0.001848   0.000477   6.130138   0.259090  -0.060893  -1.325410
    10  O    0.000011   0.000000   0.259090   8.344462   0.218144  -0.093296
    11  H    0.000000   0.000000  -0.060893   0.218144   0.414187   0.070769
    12  C    0.007145   0.000650  -1.325410  -0.093296   0.070769   9.910557
    13  O    0.010566  -0.000640   0.014039   0.006844  -0.002130  -0.186551
    14  C   -0.165432   0.011899  -0.179445  -0.020182  -0.000535  -0.564519
    15  O   -0.004710   0.000780  -0.011331  -0.003589   0.000005  -0.047111
    16  C   -0.010405   0.000150   0.013491   0.018810  -0.000900  -0.115784
    17  C    0.005958  -0.000401  -0.009735  -0.016898   0.000445  -0.274822
    18  O    0.000314  -0.000003   0.005593  -0.002357   0.000270  -0.008269
    19  H   -0.000103   0.000000  -0.000468   0.004682  -0.000115   0.004661
    20  C    0.000417  -0.000161   0.000396   0.001697  -0.000147  -0.031358
    21  O    0.000001   0.000000  -0.000018  -0.000009   0.000000   0.000423
    22  H    0.000000   0.000000  -0.000187   0.000004   0.000000  -0.000034
    23  C   -0.046653   0.007130   0.004456  -0.000026  -0.000004  -0.013963
    24  O    0.002779  -0.000416   0.000029   0.000000   0.000000   0.000152
    25  H    0.000286   0.000004   0.000001   0.000000   0.000000   0.000037
    26  C    0.016002  -0.005035   0.017833  -0.000262   0.000005   0.116657
    27  O   -0.000379  -0.000004   0.000037   0.000001   0.000000   0.000996
    28  C    0.001725  -0.000007  -0.001914   0.000196  -0.000007  -0.000431
    29  O   -0.000005   0.000000   0.000005   0.000000   0.000000   0.000066
    30  H   -0.000099   0.000000  -0.007834   0.000002  -0.000001   0.028724
    31  H    0.000000   0.000000   0.000000   0.000000   0.000000  -0.000001
    32  H   -0.000009   0.000000   0.568420  -0.060401  -0.005054  -0.309536
    33  H   -0.000005   0.000000   0.482839  -0.059858  -0.003444  -0.117730
    34  H    0.000036  -0.000002   0.054159   0.005154  -0.000100   0.118373
    35  H   -0.000285   0.000001   0.040127   0.001411  -0.000029  -0.165265
    36  H   -0.000263  -0.000862   0.005950   0.000032   0.000000  -0.055451
    37  H   -0.050961   0.000121   0.002595  -0.000018   0.000000   0.005056
    38  H    0.011318  -0.000116   0.004872  -0.000272  -0.000001   0.005744
    39  H    0.001864   0.000261   0.000088   0.000000   0.000000   0.001552
    40  H   -0.007083   0.000218  -0.000119   0.000000   0.000000  -0.001918
    41  H    0.000572   0.000002   0.000022  -0.000001   0.000000   0.000480
    42  H    0.000141   0.000001  -0.000389  -0.000026   0.000000   0.010994
    43  H    0.000026   0.000000   0.000291  -0.000030   0.000000   0.001141
    44  H    0.000016   0.000000   0.000069   0.000001   0.000000   0.001022
    45  H    0.000006   0.000000   0.000004   0.000000   0.000000  -0.000019
             13         14         15         16         17         18
     1  O    0.005285   0.004577   0.000291   0.001218   0.000545   0.000004
     2  C    0.096230   0.642119   0.018418   0.182830  -0.037356  -0.000278
     3  C   -0.057650  -0.832473   0.000239   0.098545   0.013625  -0.000819
     4  O   -0.003731  -0.024586  -0.000396  -0.005974   0.000535  -0.000009
     5  H   -0.000192   0.014797   0.000097   0.000724   0.000058   0.000000
     6  C    0.132001  -4.971389  -0.005380  -0.070878   0.015380   0.008140
     7  O    0.010566  -0.165432  -0.004710  -0.010405   0.005958   0.000314
     8  H   -0.000640   0.011899   0.000780   0.000150  -0.000401  -0.000003
     9  C    0.014039  -0.179445  -0.011331   0.013491  -0.009735   0.005593
    10  O    0.006844  -0.020182  -0.003589   0.018810  -0.016898  -0.002357
    11  H   -0.002130  -0.000535   0.000005  -0.000900   0.000445   0.000270
    12  C   -0.186551  -0.564519  -0.047111  -0.115784  -0.274822  -0.008269
    13  O    8.482357   0.108698  -0.045218  -0.067185  -0.047446   0.022779
    14  C    0.108698  13.729484   0.151418  -1.003868  -1.482188  -0.027627
    15  O   -0.045218   0.151418   8.242492   0.013974   0.028278  -0.006102
    16  C   -0.067185  -1.003868   0.013974  20.861355  -5.425630  -0.136768
    17  C   -0.047446  -1.482188   0.028278  -5.425630  11.816689   0.363388
    18  O    0.022779  -0.027627  -0.006102  -0.136768   0.363388   8.242604
    19  H    0.011507  -0.019145   0.022917  -0.067737   0.030348   0.210157
    20  C   -0.020456  -0.368577   0.056127  -3.109753   0.839930  -0.155453
    21  O    0.000095   0.000408  -0.000349  -0.083322  -0.129519   0.005108
    22  H   -0.000032   0.007199  -0.000036   0.032715  -0.076256   0.017727
    23  C    0.000868  -0.098764  -0.052980  -0.478530  -0.040726   0.000128
    24  O    0.000027   0.012397  -0.002953   0.006102   0.008439   0.000147
    25  H    0.000002  -0.000038  -0.000073   0.025932   0.003511   0.000002
    26  C   -0.009493  -0.065792   0.070602  -7.605533   1.202531   0.036304
    27  O    0.000269  -0.003273   0.007426  -0.147840  -0.025416   0.001285
    28  C    0.001712   0.096272   0.004288   2.067534  -0.742405   0.020248
    29  O    0.000000   0.000132   0.000202  -0.027086   0.030640  -0.000691
    30  H   -0.000612   0.005625   0.000013  -0.000048  -0.000008  -0.000001
    31  H    0.000000   0.000767   0.000000   0.019245  -0.006570   0.000018
    32  H    0.006749   0.031144   0.000351   0.002940   0.001179   0.000105
    33  H    0.002578  -0.016411  -0.000123  -0.000512  -0.000372  -0.000168
    34  H   -0.040667   0.061497  -0.000532   0.018114   0.012118  -0.000062
    35  H    0.006752   0.076764  -0.000406   0.002927   0.000987   0.000028
    36  H    0.001672   0.134629  -0.000458   0.017795   0.001541   0.000015
    37  H    0.004748  -0.191236  -0.000827   0.050036   0.005266   0.000037
    38  H   -0.061276   0.340176  -0.063802   0.059926   0.051323  -0.001141
    39  H    0.000403   0.012422  -0.006439   0.140420   0.004412   0.000270
    40  H   -0.000750  -0.033034   0.009047   0.087451  -0.002796  -0.000123
    41  H    0.000171   0.064220   0.003328   0.086809  -0.066712   0.000621
    42  H    0.003827   0.065753  -0.073811   0.370112  -0.127567   0.002475
    43  H    0.001669   0.047680  -0.007779   0.070437   0.256658  -0.039331
    44  H    0.000328   0.006988  -0.001854   0.150328  -0.199467   0.004719
    45  H    0.000022   0.005415  -0.000086   0.107879  -0.057467   0.000519
             19         20         21         22         23         24
     1  O   -0.000009   0.000067   0.000000   0.000000  -0.000084   0.000000
     2  C    0.001261   0.013612  -0.000029   0.000032   0.035858  -0.000351
     3  C    0.003924  -0.001164  -0.000062  -0.000008  -0.027623  -0.004328
     4  O   -0.000005  -0.000025   0.000000   0.000000   0.000783   0.000004
     5  H    0.000000   0.000002   0.000000   0.000000  -0.000185   0.000000
     6  C    0.006592  -0.002255   0.000623   0.000369  -0.302448  -0.004894
     7  O   -0.000103   0.000417   0.000001   0.000000  -0.046653   0.002779
     8  H    0.000000  -0.000161   0.000000   0.000000   0.007130  -0.000416
     9  C   -0.000468   0.000396  -0.000018  -0.000187   0.004456   0.000029
    10  O    0.004682   0.001697  -0.000009   0.000004  -0.000026   0.000000
    11  H   -0.000115  -0.000147   0.000000   0.000000  -0.000004   0.000000
    12  C    0.004661  -0.031358   0.000423  -0.000034  -0.013963   0.000152
    13  O    0.011507  -0.020456   0.000095  -0.000032   0.000868   0.000027
    14  C   -0.019145  -0.368577   0.000408   0.007199  -0.098764   0.012397
    15  O    0.022917   0.056127  -0.000349  -0.000036  -0.052980  -0.002953
    16  C   -0.067737  -3.109753  -0.083322   0.032715  -0.478530   0.006102
    17  C    0.030348   0.839930  -0.129519  -0.076256  -0.040726   0.008439
    18  O    0.210157  -0.155453   0.005108   0.017727   0.000128   0.000147
    19  H    0.342861   0.027663   0.000648  -0.000196  -0.004056   0.000001
    20  C    0.027663   8.319952   0.470373   0.008621   0.097912  -0.011847
    21  O    0.000648   0.470373   8.135227   0.223563   0.000355  -0.000014
    22  H   -0.000196   0.008621   0.223563   0.400592   0.000021   0.000000
    23  C   -0.004056   0.097912   0.000355   0.000021   6.548126   0.135372
    24  O    0.000001  -0.011847  -0.000014   0.000000   0.135372   8.289739
    25  H    0.000000  -0.001954   0.000001   0.000000   0.010067   0.238381
    26  C    0.010394   1.379222   0.048710  -0.018942  -0.638641  -0.001945
    27  O   -0.000001  -0.079687   0.004761  -0.000397  -0.090990   0.006121
    28  C   -0.000706  -1.255557  -0.190219   0.045290  -0.109735   0.007909
    29  O    0.000014  -0.155429   0.003786  -0.000249  -0.005239   0.000309
    30  H    0.000000   0.000001   0.000000   0.000000  -0.000014   0.000000
    31  H    0.000000   0.038736  -0.000874   0.000013  -0.002679   0.000004
    32  H    0.000007  -0.000044   0.000000   0.000000   0.000064   0.000000
    33  H    0.000030   0.000090   0.000000   0.000000  -0.000006   0.000000
    34  H    0.000197  -0.000009   0.000000   0.000000   0.000516   0.000000
    35  H   -0.000002  -0.000020   0.000000   0.000000   0.000186   0.000000
    36  H   -0.000001   0.000011   0.000000   0.000000   0.001601   0.000000
    37  H    0.000000   0.000134   0.000000   0.000000   0.001157   0.000009
    38  H    0.000223   0.005795   0.000026  -0.000001   0.004634   0.000034
    39  H   -0.000001  -0.010340   0.000015   0.000000   0.518593  -0.057789
    40  H    0.000002   0.000928  -0.000011   0.000000   0.440363  -0.066177
    41  H    0.000016  -0.028440   0.000167  -0.000001  -0.015622  -0.005325
    42  H   -0.000808   0.003570   0.000328   0.000040   0.007579   0.000059
    43  H   -0.002674  -0.100785   0.001231   0.000134   0.007595   0.000015
    44  H    0.000021   0.326460  -0.041521  -0.008512   0.010375  -0.000019
    45  H    0.000001  -0.174573   0.007405  -0.000210   0.002231  -0.000203
             25         26         27         28         29         30
     1  O    0.000000   0.000324   0.000000  -0.000005   0.000000   0.212122
     2  C    0.000002  -0.114140  -0.000145   0.001948  -0.000019   0.050883
     3  C   -0.000165  -0.087418   0.001332   0.003673   0.000022  -0.040006
     4  O    0.000000   0.000831  -0.000001   0.000000   0.000000  -0.004210
     5  H    0.000000   0.000059   0.000000   0.000000   0.000000   0.010132
     6  C    0.002457  -0.809758  -0.007855   0.038332  -0.000246  -0.015546
     7  O    0.000286   0.016002  -0.000379   0.001725  -0.000005  -0.000099
     8  H    0.000004  -0.005035  -0.000004  -0.000007   0.000000   0.000000
     9  C    0.000001   0.017833   0.000037  -0.001914   0.000005  -0.007834
    10  O    0.000000  -0.000262   0.000001   0.000196   0.000000   0.000002
    11  H    0.000000   0.000005   0.000000  -0.000007   0.000000  -0.000001
    12  C    0.000037   0.116657   0.000996  -0.000431   0.000066   0.028724
    13  O    0.000002  -0.009493   0.000269   0.001712   0.000000  -0.000612
    14  C   -0.000038  -0.065792  -0.003273   0.096272   0.000132   0.005625
    15  O   -0.000073   0.070602   0.007426   0.004288   0.000202   0.000013
    16  C    0.025932  -7.605533  -0.147840   2.067534  -0.027086  -0.000048
    17  C    0.003511   1.202531  -0.025416  -0.742405   0.030640  -0.000008
    18  O    0.000002   0.036304   0.001285   0.020248  -0.000691  -0.000001
    19  H    0.000000   0.010394  -0.000001  -0.000706   0.000014   0.000000
    20  C   -0.001954   1.379222  -0.079687  -1.255557  -0.155429   0.000001
    21  O    0.000001   0.048710   0.004761  -0.190219   0.003786   0.000000
    22  H    0.000000  -0.018942  -0.000397   0.045290  -0.000249   0.000000
    23  C    0.010067  -0.638641  -0.090990  -0.109735  -0.005239  -0.000014
    24  O    0.238381  -0.001945   0.006121   0.007909   0.000309   0.000000
    25  H    0.420848  -0.043562  -0.002894   0.001497  -0.000018   0.000000
    26  C   -0.043562  14.259320   0.350887  -1.544406  -0.014022   0.000011
    27  O   -0.002894   0.350887   8.426817   0.049345  -0.046186   0.000000
    28  C    0.001497  -1.544406   0.049345   6.312953   0.361550   0.000000
    29  O   -0.000018  -0.014022  -0.046186   0.361550   8.172711   0.000000
    30  H    0.000000   0.000011   0.000000   0.000000   0.000000   0.429827
    31  H    0.000001  -0.019690  -0.004253  -0.011580   0.234237   0.000000
    32  H    0.000000  -0.000180   0.000000   0.000003   0.000000   0.000052
    33  H    0.000000   0.000048   0.000000  -0.000002   0.000000  -0.000302
    34  H    0.000000   0.000382   0.000001  -0.000027   0.000000  -0.000171
    35  H    0.000000  -0.000162   0.000000  -0.000001   0.000000  -0.009568
    36  H    0.000000  -0.002268   0.000000   0.000012   0.000000  -0.000336
    37  H    0.000000  -0.009969   0.000004   0.000151   0.000000   0.000000
    38  H    0.000000   0.009407   0.000117   0.000451  -0.000005  -0.000001
    39  H    0.006758  -0.342452  -0.001954   0.008574  -0.000126   0.000000
    40  H   -0.004922  -0.130891   0.008909   0.000994   0.000033   0.000000
    41  H    0.002115   0.184798  -0.058988   0.039654  -0.001026   0.000000
    42  H    0.000007  -0.079469   0.006246   0.012314  -0.000821   0.000000
    43  H    0.000000  -0.021713   0.004542   0.001831  -0.000536   0.000000
    44  H    0.000000   0.017269   0.000965  -0.039083  -0.000951   0.000000
    45  H    0.000000  -0.026350  -0.079517   0.477974  -0.056511   0.000000
             31         32         33         34         35         36
     1  O    0.000000   0.001417   0.002703   0.004930  -0.050451  -0.010494
     2  C    0.000000   0.039741   0.038539   0.055007   0.402526   0.107356
     3  C    0.000000  -0.010215  -0.018429  -0.056634  -0.073651   0.356536
     4  O    0.000000  -0.000553   0.000136  -0.000663  -0.002467  -0.050767
     5  H    0.000000   0.000011  -0.000005   0.000001  -0.001619  -0.006516
     6  C    0.000032   0.011806   0.001271   0.012828  -0.012241  -0.274346
     7  O    0.000000  -0.000009  -0.000005   0.000036  -0.000285  -0.000263
     8  H    0.000000   0.000000   0.000000  -0.000002   0.000001  -0.000862
     9  C    0.000000   0.568420   0.482839   0.054159   0.040127   0.005950
    10  O    0.000000  -0.060401  -0.059858   0.005154   0.001411   0.000032
    11  H    0.000000  -0.005054  -0.003444  -0.000100  -0.000029   0.000000
    12  C   -0.000001  -0.309536  -0.117730   0.118373  -0.165265  -0.055451
    13  O    0.000000   0.006749   0.002578  -0.040667   0.006752   0.001672
    14  C    0.000767   0.031144  -0.016411   0.061497   0.076764   0.134629
    15  O    0.000000   0.000351  -0.000123  -0.000532  -0.000406  -0.000458
    16  C    0.019245   0.002940  -0.000512   0.018114   0.002927   0.017795
    17  C   -0.006570   0.001179  -0.000372   0.012118   0.000987   0.001541
    18  O    0.000018   0.000105  -0.000168  -0.000062   0.000028   0.000015
    19  H    0.000000   0.000007   0.000030   0.000197  -0.000002  -0.000001
    20  C    0.038736  -0.000044   0.000090  -0.000009  -0.000020   0.000011
    21  O   -0.000874   0.000000   0.000000   0.000000   0.000000   0.000000
    22  H    0.000013   0.000000   0.000000   0.000000   0.000000   0.000000
    23  C   -0.002679   0.000064  -0.000006   0.000516   0.000186   0.001601
    24  O    0.000004   0.000000   0.000000   0.000000   0.000000   0.000000
    25  H    0.000001   0.000000   0.000000   0.000000   0.000000   0.000000
    26  C   -0.019690  -0.000180   0.000048   0.000382  -0.000162  -0.002268
    27  O   -0.004253   0.000000   0.000000   0.000001   0.000000   0.000000
    28  C   -0.011580   0.000003  -0.000002  -0.000027  -0.000001   0.000012
    29  O    0.234237   0.000000   0.000000   0.000000   0.000000   0.000000
    30  H    0.000000   0.000052  -0.000302  -0.000171  -0.009568  -0.000336
    31  H    0.412086   0.000000   0.000000   0.000000   0.000000   0.000000
    32  H    0.000000   0.637567  -0.053678   0.006594   0.009232  -0.000015
    33  H    0.000000  -0.053678   0.599789  -0.005997  -0.000701   0.000002
    34  H    0.000000   0.006594  -0.005997   0.590747   0.006025   0.001123
    35  H    0.000000   0.009232  -0.000701   0.006025   0.623400   0.006211
    36  H    0.000000  -0.000015   0.000002   0.001123   0.006211   0.599357
    37  H    0.000000  -0.000035   0.000000  -0.000034   0.000820   0.005395
    38  H    0.000000   0.000008   0.000011   0.006814   0.000053   0.002258
    39  H    0.000001   0.000000   0.000000   0.000000   0.000000  -0.000003
    40  H    0.000000   0.000000   0.000000   0.000000   0.000000   0.000002
    41  H   -0.000018   0.000000   0.000000   0.000000   0.000000   0.000000
    42  H    0.000004   0.000000   0.000000  -0.000059   0.000000  -0.000008
    43  H    0.000011   0.000000   0.000000  -0.000001   0.000000   0.000000
    44  H   -0.000086   0.000000   0.000000   0.000000   0.000000   0.000000
    45  H   -0.009935   0.000000   0.000000   0.000000   0.000000   0.000000
             37         38         39         40         41         42
     1  O   -0.000605  -0.000419   0.000000   0.000000   0.000000   0.000000
     2  C    0.000033  -0.008911   0.000757   0.000520   0.000312   0.001574
     3  C    0.053412   0.028078  -0.002220   0.015613  -0.000439  -0.000858
     4  O   -0.003702  -0.000573  -0.000002   0.000006   0.000000   0.000007
     5  H    0.000163   0.000007   0.000000   0.000000   0.000000   0.000000
     6  C    0.393848  -0.171713   0.024102  -0.018565   0.005604   0.004637
     7  O   -0.050961   0.011318   0.001864  -0.007083   0.000572   0.000141
     8  H    0.000121  -0.000116   0.000261   0.000218   0.000002   0.000001
     9  C    0.002595   0.004872   0.000088  -0.000119   0.000022  -0.000389
    10  O   -0.000018  -0.000272   0.000000   0.000000  -0.000001  -0.000026
    11  H    0.000000  -0.000001   0.000000   0.000000   0.000000   0.000000
    12  C    0.005056   0.005744   0.001552  -0.001918   0.000480   0.010994
    13  O    0.004748  -0.061276   0.000403  -0.000750   0.000171   0.003827
    14  C   -0.191236   0.340176   0.012422  -0.033034   0.064220   0.065753
    15  O   -0.000827  -0.063802  -0.006439   0.009047   0.003328  -0.073811
    16  C    0.050036   0.059926   0.140420   0.087451   0.086809   0.370112
    17  C    0.005266   0.051323   0.004412  -0.002796  -0.066712  -0.127567
    18  O    0.000037  -0.001141   0.000270  -0.000123   0.000621   0.002475
    19  H    0.000000   0.000223  -0.000001   0.000002   0.000016  -0.000808
    20  C    0.000134   0.005795  -0.010340   0.000928  -0.028440   0.003570
    21  O    0.000000   0.000026   0.000015  -0.000011   0.000167   0.000328
    22  H    0.000000  -0.000001   0.000000   0.000000  -0.000001   0.000040
    23  C    0.001157   0.004634   0.518593   0.440363  -0.015622   0.007579
    24  O    0.000009   0.000034  -0.057789  -0.066177  -0.005325   0.000059
    25  H    0.000000   0.000000   0.006758  -0.004922   0.002115   0.000007
    26  C   -0.009969   0.009407  -0.342452  -0.130891   0.184798  -0.079469
    27  O    0.000004   0.000117  -0.001954   0.008909  -0.058988   0.006246
    28  C    0.000151   0.000451   0.008574   0.000994   0.039654   0.012314
    29  O    0.000000  -0.000005  -0.000126   0.000033  -0.001026  -0.000821
    30  H    0.000000  -0.000001   0.000000   0.000000   0.000000   0.000000
    31  H    0.000000   0.000000   0.000001   0.000000  -0.000018   0.000004
    32  H   -0.000035   0.000008   0.000000   0.000000   0.000000   0.000000
    33  H    0.000000   0.000011   0.000000   0.000000   0.000000   0.000000
    34  H   -0.000034   0.006814   0.000000   0.000000   0.000000  -0.000059
    35  H    0.000820   0.000053   0.000000   0.000000   0.000000   0.000000
    36  H    0.005395   0.002258  -0.000003   0.000002   0.000000  -0.000008
    37  H    0.566404   0.005683  -0.000021   0.000460  -0.000011  -0.000001
    38  H    0.005683   0.646722   0.000007   0.000223  -0.000020   0.014932
    39  H   -0.000021   0.000007   0.584689  -0.038216   0.007819   0.006842
    40  H    0.000460   0.000223  -0.038216   0.587155  -0.006943  -0.000367
    41  H   -0.000011  -0.000020   0.007819  -0.006943   0.648829   0.007572
    42  H   -0.000001   0.014932   0.006842  -0.000367   0.007572   0.642331
    43  H   -0.000001  -0.000049   0.000011  -0.000026   0.003256   0.006882
    44  H    0.000000  -0.000064  -0.000017   0.000000  -0.000008   0.004170
    45  H    0.000000   0.000000   0.000002   0.000019   0.006967   0.000226
             43         44         45
     1  O    0.000000   0.000000   0.000000
     2  C    0.000491   0.000136   0.000006
     3  C   -0.000522  -0.000147   0.000008
     4  O    0.000000   0.000000   0.000000
     5  H    0.000000   0.000000   0.000000
     6  C    0.003969   0.000597   0.000402
     7  O    0.000026   0.000016   0.000006
     8  H    0.000000   0.000000   0.000000
     9  C    0.000291   0.000069   0.000004
    10  O   -0.000030   0.000001   0.000000
    11  H    0.000000   0.000000   0.000000
    12  C    0.001141   0.001022  -0.000019
    13  O    0.001669   0.000328   0.000022
    14  C    0.047680   0.006988   0.005415
    15  O   -0.007779  -0.001854  -0.000086
    16  C    0.070437   0.150328   0.107879
    17  C    0.256658  -0.199467  -0.057467
    18  O   -0.039331   0.004719   0.000519
    19  H   -0.002674   0.000021   0.000001
    20  C   -0.100785   0.326460  -0.174573
    21  O    0.001231  -0.041521   0.007405
    22  H    0.000134  -0.008512  -0.000210
    23  C    0.007595   0.010375   0.002231
    24  O    0.000015  -0.000019  -0.000203
    25  H    0.000000   0.000000   0.000000
    26  C   -0.021713   0.017269  -0.026350
    27  O    0.004542   0.000965  -0.079517
    28  C    0.001831  -0.039083   0.477974
    29  O   -0.000536  -0.000951  -0.056511
    30  H    0.000000   0.000000   0.000000
    31  H    0.000011  -0.000086  -0.009935
    32  H    0.000000   0.000000   0.000000
    33  H    0.000000   0.000000   0.000000
    34  H   -0.000001   0.000000   0.000000
    35  H    0.000000   0.000000   0.000000
    36  H    0.000000   0.000000   0.000000
    37  H   -0.000001   0.000000   0.000000
    38  H   -0.000049  -0.000064   0.000000
    39  H    0.000011  -0.000017   0.000002
    40  H   -0.000026   0.000000   0.000019
    41  H    0.003256  -0.000008   0.006967
    42  H    0.006882   0.004170   0.000226
    43  H    0.616074   0.006217   0.005558
    44  H    0.006217   0.615173   0.007164
    45  H    0.005558   0.007164   0.679548
 Mulliken atomic charges:
              1
     1  O   -0.501977
     2  C   -0.164442
     3  C    0.087840
     4  O   -0.470382
     5  H    0.310067
     6  C   -0.170057
     7  O   -0.581727
     8  H    0.395834
     9  C   -0.208905
    10  O   -0.581923
    11  H    0.369066
    12  C    0.268806
    13  O   -0.378168
    14  C    0.436033
    15  O   -0.293948
    16  C   -0.150047
    17  C    0.075975
    18  O   -0.563804
    19  H    0.417901
    20  C   -0.083683
    21  O   -0.457308
    22  H    0.368738
    23  C    0.092997
    24  O   -0.551768
    25  H    0.341719
    26  C   -0.129500
    27  O   -0.320282
    28  C    0.339652
    29  O   -0.494541
    30  H    0.341365
    31  H    0.350531
    32  H    0.122333
    33  H    0.149706
    34  H    0.150340
    35  H    0.139418
    36  H    0.160290
    37  H    0.161888
    38  H    0.109519
    39  H    0.139718
    40  H    0.159997
    41  H    0.120220
    42  H    0.111558
    43  H    0.137726
    44  H    0.139708
    45  H    0.103516
 Sum of Mulliken atomic charges =   0.00000
 Mulliken charges with hydrogens summed into heavy atoms:
              1
     1  O   -0.160613
     2  C   -0.025024
     3  C    0.248130
     4  O   -0.160315
     6  C   -0.008168
     7  O   -0.185893
     9  C    0.063135
    10  O   -0.212857
    12  C    0.419146
    13  O   -0.378168
    14  C    0.545551
    15  O   -0.293948
    16  C   -0.038489
    17  C    0.213701
    18  O   -0.145903
    20  C    0.056025
    21  O   -0.088570
    23  C    0.392712
    24  O   -0.210049
    26  C   -0.009280
    27  O   -0.320282
    28  C    0.443167
    29  O   -0.144010
 Sum of Mulliken charges with hydrogens summed into heavy atoms =   0.00000
 APT atomic charges:
              1
     1  O   -0.618213
     2  C    0.393897
     3  C    0.357654
     4  O   -0.597049
     5  H    0.222338
     6  C    0.396763
     7  O   -0.651255
     8  H    0.280365
     9  C    0.492551
    10  O   -0.649168
    11  H    0.266418
    12  C    0.418438
    13  O   -0.786202
    14  C    0.918904
    15  O   -0.863977
    16  C    0.462633
    17  C    0.345823
    18  O   -0.699971
    19  H    0.369993
    20  C    0.391769
    21  O   -0.611574
    22  H    0.277088
    23  C    0.492354
    24  O   -0.655011
    25  H    0.253082
    26  C    0.422987
    27  O   -0.799891
    28  C    0.950072
    29  O   -0.677107
    30  H    0.251876
    31  H    0.267123
    32  H   -0.052960
    33  H   -0.042123
    34  H   -0.038315
    35  H   -0.039869
    36  H   -0.047116
    37  H   -0.014721
    38  H   -0.047274
    39  H   -0.016547
    40  H   -0.010947
    41  H   -0.082914
    42  H   -0.036396
    43  H   -0.051231
    44  H   -0.045481
    45  H   -0.096818
 Sum of APT charges=   0.00000
 APT Atomic charges with hydrogens summed into heavy atoms:
[...]
 0.00002762,-0.00000880,0.00000328,-0.00001190,-0.00000111,-0.00000398,
 -0.00009321,0.00011503,0.00010517,0.00056673,-0.00039040,0.00024845,-0
 .00065762,0.00191890,-0.00556777,-0.02429438,0.01128309,0.01037636,-0.
 22749036,0.13631936,-0.06421461,0.00762338,-0.00809950,0.00247875,0.00
 113440,0.00052809,0.00124611,-0.00017510,0.00007849,-0.00015309,0.0004
 3455,-0.00055643,0.00077844,-0.00001076,-0.00008290,-0.00002726,-0.000
 06339,0.00004353,0.00003446,0.00026363,0.00181553,-0.00012082,0.000511
 35,-0.00027162,0.00020472,0.00010958,0.00020616,0.00003746,-0.01871195
 ,0.00973828,-0.00774816,0.00260091,-0.00024179,0.00069477,-0.00028396,
 -0.00036781,-0.00012308,0.00011045,-0.00000179,-0.00002873,0.00000180,
 0.00000391,0.00000629,-0.00000646,0.00003719,0.00001009,0.00000067,-0.
 00000792,-0.00001093,0.00000401,0.00002225,0.00001060,0.00006117,0.000
 00614,0.00002114,0.00000546,-0.00000525,-0.00001187,0.00002976,-0.0000
 2490,0.00003462,0.00017229,0.00018436,-0.00031397,0.00192449,-0.000501
 96,0.00098757,-0.00000681,-0.00122334,0.00033962,0.00016326,0.00009299
 ,-0.00002270,-0.00146229,-0.00172831,-0.00220190,0.25708351,-0.0000171
 2,-0.00001312,-0.00000117,0.00000462,0.00003736,0.00000324,0.00007287,
 0.00006407,-0.00003173,-0.00003108,-0.00001339,-0.00002255,0.00001134,
 0.00000537,-0.00000611,-0.00055321,0.00042765,0.00008404,-0.00002125,-
 0.00005955,-0.00007179,-0.00000120,-0.00000513,0.00000194,0.00000102,-
 0.00000945,-0.00002132,-0.00003502,0.00001997,0.00000960,0.00000872,-0
 .00000534,0.00001125,0.00007613,-0.00004722,-0.00010767,-0.00018665,0.
 00007058,0.00022054,-0.00041295,0.00108955,0.00397002,0.00810453,-0.00
 188610,-0.00325980,0.13698409,-0.14505787,0.04553156,0.02346863,-0.021
 81791,0.01411143,0.00006871,0.00446455,-0.00047696,0.00040438,-0.00067
 247,-0.00036128,0.00215468,-0.00029081,-0.00118411,-0.00073829,0.00060
 614,-0.00030074,-0.00000530,-0.00016970,0.00006461,-0.00107356,0.00172
 850,-0.00039357,0.00039692,0.00003939,0.00017040,0.00009336,0.00007663
 ,0.00007499,-0.01602168,0.01050010,-0.00631329,0.00037221,0.00036427,0
 .00194918,0.00014740,-0.00019782,-0.00010249,-0.00004292,0.00009503,0.
 00006271,0.00000206,0.00000351,0.00000076,-0.00000495,-0.00000213,-0.0
 0000243,-0.00001243,0.00000809,0.00001309,0.00000202,-0.00000452,-0.00
 000307,-0.00004595,0.00001790,-0.00003461,-0.00000942,-0.00000513,0.00
 001267,-0.00000798,0.00000968,-0.00000530,-0.00007418,-0.00016795,0.00
 018177,-0.00094649,0.00098909,-0.00006384,0.00057128,-0.00010195,0.000
 12886,-0.00006058,-0.00003547,0.00005878,-0.00249063,-0.00145195,-0.00
 271582,-0.14604186,0.15474991,-0.00000882,0.00000146,-0.00001572,0.000
 00581,-0.00000223,-0.00000074,0.00002462,0.00003115,0.00000474,-0.0000
 1638,0.00001427,0.00000144,-0.00000383,0.00000268,-0.00000687,0.000145
 96,-0.00008410,-0.00030555,-0.00009547,0.00007783,0.00002938,-0.000028
 37,0.00000028,-0.00000444,-0.00002939,0.00001915,-0.00001821,-0.000003
 99,-0.00001333,0.00000920,-0.00000197,0.00000481,-0.00000237,-0.000052
 18,0.00000224,-0.00015905,-0.00087468,0.00025359,-0.00012180,0.0094384
 1,-0.00480019,0.00000129,0.03145882,-0.01455035,-0.01091632,-0.0724263
 8,0.05094144,-0.06312050,-0.01065851,0.00904062,-0.00419487,0.00088557
 ,-0.00174319,0.00113399,0.00016549,0.00009293,0.00007260,-0.00140195,0
 .00166445,0.00004182,0.00035986,-0.00042136,-0.00004543,-0.00003993,0.
 00007588,0.00004090,0.00087608,0.00142000,0.00019904,0.00025974,-0.000
 20935,0.00008052,0.00009429,0.00019549,-0.00002139,-0.02145539,0.01172
 382,-0.00629112,0.00145358,-0.00018044,0.00215381,-0.00028128,0.000308
 62,-0.00028785,0.00007486,-0.00010566,-0.00012926,0.00000075,0.0000029
 5,0.00000063,0.00000429,0.00003688,-0.00000789,0.00000363,0.00000948,0
 .00001236,-0.00000249,-0.00001182,-0.00000122,-0.00004194,-0.00001487,
 -0.00008278,-0.00000090,0.00000251,0.00001064,-0.00002440,0.00002275,-
 0.00003863,-0.00020911,0.00004551,0.00000577,-0.00015308,0.00090648,-0
 .00205965,0.00017907,-0.00067321,0.00043944,0.00000206,-0.00011677,-0.
 00004350,-0.00214508,-0.00240485,-0.00294228,0.06222110,-0.05349455,0.
 08726305,0.00000812,0.00003842,-0.00004313,-0.00001892,-0.00004017,0.0
 0003833,-0.00001542,-0.00001397,0.00000361,0.00003981,0.00004383,-0.00
 002565,-0.00000773,-0.00001377,0.00000541,-0.00009698,-0.00004091,-0.0
 0005389,0.00003728,0.00008919,0.00004614,-0.00001207,0.00000158,-0.000
 00132,-0.00004825,-0.00007160,0.00009703,0.00004750,-0.00002925,-0.000
 10452,-0.00000513,0.00002372,-0.00004051,0.00003864,0.00002791,0.00012
 763,0.00023101,0.00036097,-0.00018698,0.00008038,-0.00028093,-0.000066
 80,0.00068769,0.00096624,-0.00117530,0.01017038,-0.00988668,0.00443196
 ,-0.21735043,0.14337454,-0.06045875,-0.01595898,0.00042446,-0.01875993
 ,-0.00134471,0.00011993,0.00079844,-0.01561104,0.01721704,-0.00350076,
 0.00265282,-0.00102580,-0.00098005,0.00005507,0.00021672,-0.00032315,0
 .00031793,-0.00008222,0.00028458,-0.00005284,0.00005249,-0.00003768,-0
 .00001133,0.00000969,-0.00002464,0.00080579,0.00068538,0.00040330,0.00
 033272,-0.00002445,0.00016416,-0.00197884,-0.00048857,-0.00267122,0.00
 079523,-0.00066702,0.00000479,-0.00000090,-0.00000109,0.00000234,0.000
 02369,0.00014110,0.00016042,0.00002495,0.00000861,-0.00002353,-0.00000
 385,0.00001154,-0.00001652,0.00000939,-0.00003700,0.00002618,0.0000043
 8,0.00000257,-0.00000934,0.00000051,0.00000255,-0.00000153,-0.00001262
 ,-0.00000386,0.00000687,-0.00014012,0.00002501,0.00006228,-0.00015125,
 -0.00006473,-0.00005752,-0.00001659,-0.00000060,-0.00001022,0.00017785
 ,0.00006724,0.00009217,-0.00059062,-0.00285722,0.00130044,0.23700368,0
 .00001151,0.00001873,0.00001125,-0.00000957,-0.00002358,-0.00000603,0.
 00001070,0.00000151,-0.00004357,-0.00000940,0.00000845,0.00002963,0.00
 000324,-0.00000533,0.00000155,-0.00014074,0.00008940,-0.00001286,-0.00
 004727,0.00000653,0.00001219,0.00000808,0.00001218,0.00001340,-0.00001
 726,-0.00004697,0.00004886,0.00002899,-0.00000656,-0.00003813,0.000000
 29,0.00000572,-0.00002286,0.00002440,0.00001604,-0.00001213,0.00014819
 ,0.00025366,0.00001655,0.00005240,-0.00012449,-0.00004016,-0.00096961,
 0.00170170,-0.00052698,0.02265959,-0.02080335,0.00775560,0.14289446,-0
 .15717501,0.05559225,-0.01896432,0.01097244,-0.01212399,-0.00078208,0.
 00072879,0.00017113,0.00494571,-0.00494103,0.00249370,-0.00054368,0.00
 153801,-0.00045083,-0.00017556,-0.00002218,-0.00017362,-0.00031132,0.0
 0004468,0.00001319,-0.00012601,0.00000161,-0.00008045,-0.00002676,-0.0
 0006089,0.00001035,0.00244001,0.00094041,0.00127354,-0.00065605,0.0002
 2398,-0.00052014,0.00224502,-0.00085705,0.00054573,-0.00058790,0.00039
 761,0.00013799,-0.00000189,-0.00000438,-0.00000605,0.00001334,-0.00013
 090,-0.00009255,0.00000604,0.00000713,-0.00000758,-0.00000008,0.000008
 14,-0.00000260,-0.00000685,-0.00002210,0.00001583,0.,0.00000374,0.0000
 0170,-0.00000479,0.00000863,-0.00000252,-0.00002463,-0.00003017,0.0000
 4514,-0.00023777,0.00012509,-0.00020716,-0.00004213,0.00028622,-0.0001
 3485,-0.00000007,0.00001232,0.00001180,-0.00111419,0.00015168,-0.00056
 417,-0.00193208,-0.00408231,0.00200173,-0.14831744,0.17043668,0.000006
 41,0.00002570,-0.00003850,-0.00001053,-0.00002988,0.00004059,-0.000048
 58,-0.00004292,0.00002006,0.00004179,0.00002888,-0.00001437,-0.0000096
 3,-0.00001017,0.00000615,0.00007019,-0.00005417,0.00005840,0.00005319,
 0.00005025,0.00000669,-0.00000605,-0.00000363,-0.00000454,-0.00004767,
 -0.00004122,0.00008501,0.00008900,-0.00005039,-0.00007621,-0.00002080,
 0.00001692,-0.00004337,-0.00000980,0.00003962,0.00012380,0.00034276,0.
 00022052,-0.00027709,-0.00055883,-0.00024024,-0.00053074,-0.00014295,-
 0.00126612,0.00144820,-0.01018813,0.01234510,-0.00267381,-0.06122102,0
 .05722432,-0.06553660,-0.02739451,0.00331547,-0.01817077,-0.00195390,0
 .00076306,0.00024269,0.02061022,-0.01830806,0.00567286,-0.00262887,0.0
 0035495,0.00159159,0.00014383,-0.00007514,-0.00022697,0.00024228,-0.00
 004732,0.00008721,0.00008505,0.00004915,0.00002385,0.00000884,0.000032
 52,-0.00001140,-0.00055402,-0.00059989,-0.00036099,-0.00017989,0.00013
 751,-0.00020136,0.00242583,-0.00113634,0.00094588,-0.00027898,0.000155
 48,-0.00007150,-0.00000124,0.00000021,0.00000163,-0.00005919,0.0000401
 0,0.00000010,0.00002419,0.00000602,-0.00003014,-0.00000121,0.00000589,
 -0.00001136,0.00002320,-0.00003579,0.00003205,0.00000624,0.00000222,-0
 .00001359,0.00000864,-0.00000354,0.00000421,0.00002292,0.00002660,-0.0
 0002965,0.00018103,-0.00012017,0.00007082,-0.00003700,-0.00014964,0.00
 004741,0.00000594,-0.00000367,-0.00001786,0.00042936,-0.00021547,0.000
 42175,0.00067057,0.00205363,-0.00059717,0.07724468,-0.05318190,0.08273
 304,-0.00000278,-0.00000655,-0.00001450,0.00000496,0.00000089,0.000010
 21,-0.00001766,-0.00000145,0.00002188,0.00001533,0.00000058,-0.0000196
 4,-0.00000368,0.00000126,0.00000245,0.00001977,-0.00001699,0.00001486,
 0.00003223,-0.00000754,-0.00000400,-0.00001288,-0.00000178,-0.00000032
 ,0.00000444,0.00003338,-0.00001365,0.00000902,-0.00002973,0.00001755,-
 0.00000740,0.00000441,-0.00000402,-0.00001704,0.00000912,0.00002546,0.
 00001245,-0.00007102,-0.00003721,-0.00011127,0.00007792,0.00012943,0.0
 0061746,-0.00038469,0.00001591,-0.00078353,0.00209568,-0.00098622,-0.0
 1738549,0.01241752,-0.00588163,0.00211455,-0.00112981,-0.00010657,0.00
 014602,-0.00004607,-0.00005939,-0.20734103,0.14467035,-0.06754435,0.01
 227486,-0.02084370,0.00903561,0.00233974,0.00005395,0.00053094,-0.0000
 7718,0.00006502,-0.00004321,0.00003342,-0.00001959,0.00003018,0.000009
 84,0.00001395,-0.00000701,-0.00051633,-0.00019888,0.00001251,0.0021324
 0,-0.00051104,0.00132608,-0.01692969,0.01394302,-0.00656482,0.00157085
 ,-0.00082132,0.00008845,0.00000070,0.00000306,0.00000431,0.00011598,0.
 00001739,0.00024750,0.00000131,-0.00000503,-0.00000250,-0.00000111,-0.
 00000463,0.00000241,0.00000994,-0.00000076,0.00000544,0.00000286,-0.00
 000099,-0.00000582,0.00000466,-0.00000490,0.00000111,0.00000842,0.0000
 0881,-0.00000954,0.00002992,-0.00004238,0.00005801,-0.00000002,-0.0000
 8851,0.00004373,0.00000850,-0.00002629,0.00001029,0.00032373,0.0000403
 8,0.00004396,0.00027008,-0.00103060,0.00077896,-0.00169977,0.00035505,
 0.00288996,0.22466114,0.00000063,0.00000363,0.00001384,-0.00000140,0.0
 0000551,-0.00000870,0.00001828,0.00000622,-0.00001697,-0.00001431,-0.0
 0000252,0.00001348,0.00000380,0.00000073,-0.00000358,-0.00002178,0.000
 01403,-0.00002365,-0.00001490,-0.00000061,0.00000562,0.00000597,0.0000
 0079,-0.00000110,-0.00000622,-0.00003425,0.00000922,-0.00001109,0.0000
 5215,-0.00001675,0.00000449,-0.00001287,0.00001664,0.00003323,-0.00001
 775,-0.00002877,-0.00002237,0.00002102,0.00003445,0.00013700,-0.000003
 26,-0.00008242,-0.00036128,0.00023206,-0.00020648,-0.00079533,-0.00071
 817,0.00108739,0.00993437,-0.00433767,0.00152124,-0.00092125,0.0009245
 8,0.00066672,-0.00008827,0.00005908,0.00001052,0.14308186,-0.16329330,
 0.05352600,0.00699007,-0.03638431,0.01527744,0.00093171,-0.00003465,0.
 00160018,0.00002543,0.00001526,0.00005901,-0.00001385,-0.00000161,-0.0
 0001537,0.00000257,0.00000196,-0.00000285,-0.00017250,0.00010348,0.000
 12050,0.00144582,0.00172103,-0.00017468,-0.01228953,0.00979870,-0.0052
 5044,0.00092163,0.00029815,0.00100972,-0.00000096,-0.00000299,-0.00000
 419,-0.00003603,0.00003084,0.00033889,-0.00000316,0.00000504,0.0000017
 0,0.00000230,0.00000378,-0.00000441,-0.00001047,0.00000734,-0.00000698
 ,-0.00000443,-0.00000079,0.00000592,-0.00000307,0.00000335,0.00000025,
 -0.00000601,-0.00000486,0.00000571,-0.00001120,0.00002829,-0.00002386,
 -0.00001068,0.00000254,0.00000091,0.00000055,-0.00000553,-0.00000836,0
 .00000051,-0.00013953,-0.00002117,-0.00046387,0.00078104,0.00008464,0.
 00056793,0.00009227,-0.00104409,-0.14647812,0.19196347,-0.00000282,-0.
 00000759,0.00000337,0.00000339,0.00000863,-0.00000435,0.00000953,0.000
 00817,0.00000179,-0.00000749,-0.00000873,-0.00000179,0.00000175,0.0000
 0412,-0.00000265,-0.00001083,0.00001460,-0.00001068,-0.00000523,-0.000
 01565,-0.00000829,-0.00000190,0.00000374,0.00000263,0.00000968,0.00002
 121,-0.00001893,-0.00001820,-0.00001177,0.00002634,0.00000448,0.000001
 49,-0.00000201,0.00000546,-0.00000333,-0.00001830,-0.00005541,-0.00006
 199,0.00003060,0.00007512,0.00008052,0.00004607,-0.00043422,0.00015641
 ,-0.00010190,0.00070914,-0.00154546,0.00101797,0.02396011,-0.01748666,
 0.00609662,-0.00120915,0.00148914,0.00240011,0.00000060,0.00022945,0.0
 0008988,-0.06805881,0.05431465,-0.07133317,-0.00476862,0.01630895,-0.0
 0278558,0.00015388,-0.00099395,0.00053397,-0.00002258,0.00003280,0.000
 08791,0.00002219,0.00000808,-0.00000471,0.00000321,0.00000671,-0.00000
 597,0.00030287,-0.00019156,-0.00028983,0.00255535,-0.00046453,0.001585
 26,-0.02302104,0.01733561,-0.00766706,0.00162537,-0.00009918,0.0015641
 0,0.00000001,0.00000171,0.00000063,0.00028807,0.00000807,0.00036299,-0
 .00000506,-0.00000185,0.00000695,0.,-0.00000351,0.00000270,-0.00000582
 ,0.00000650,-0.00000895,-0.00000091,-0.00000100,0.00000260,-0.00000076
 ,-0.00000090,0.00000081,-0.00000089,-0.00000637,0.00000280,-0.00001208
 ,0.00002509,-0.00003836,0.00000543,0.00000497,0.00001712,-0.00001032,-
 0.00001983,0.00000521,-0.00003579,0.00014212,-0.00019758,0.00000430,0.
 00043748,-0.00033538,0.00301022,-0.00105928,-0.00406820,0.06808460,-0.
 06648203,0.07575431,0.00000731,-0.00000667,0.00000213,-0.00000413,0.00
 000027,-0.00000239,-0.00000779,0.00000517,0.00000521,0.00000934,-0.000
 00297,-0.00000600,-0.00000233,0.00000209,0.00000143,-0.00001090,0.0000
 0241,-0.00000301,0.00002058,-0.00000890,0.00000732,-0.00001007,0.00000
 366,-0.00000147,-0.00000178,0.00001697,-0.00000576,0.00001830,-0.00002
 193,0.00000964,-0.00001124,0.00000508,-0.00000686,-0.00002542,0.000009
 14,0.00000285,0.00002760,-0.00001616,0.00000524,-0.00004244,0.00005931
 ,-0.00000677,0.00017537,0.00003727,-0.00002058,-0.00030509,0.00004778,
 0.00001989,-0.00119292,0.00163618,0.00153994,0.00070902,-0.00056033,0.
 00041971,0.00012031,-0.00004850,-0.00002297,-0.01966549,0.01645008,-0.
 01031817,0.00147117,-0.00093739,0.00104595,0.00029105,0.00002238,0.000
 21909,0.00003423,-0.00017529,-0.00003183,0.00001076,-0.00001207,-0.000
 00135,-0.00000841,0.00001985,0.00001277,0.00279456,-0.00118103,-0.0017
 3623,0.01317403,-0.01646999,0.00792351,-0.22181391,0.14233383,-0.05688
 588,-0.01307589,0.01349399,0.01122989,-0.00000123,0.00000245,0.0000007
 5,0.00085753,-0.00092859,0.00036281,0.00000267,-0.00000221,-0.00000310
 ,0.00000033,-0.00000110,0.00000384,0.00000635,-0.00000388,0.00000257,0
 .00000322,-0.00000061,-0.00000343,0.00000267,-0.00000377,0.00000124,0.
 00000377,0.00000087,-0.00000548,0.00001284,-0.00001125,0.00000517,-0.0
 0012507,0.00003040,0.00003251,-0.00007478,0.00003764,-0.00003724,-0.00
 005583,0.00083756,-0.00126615,-0.00011424,-0.00022244,0.00022212,0.001
 58362,-0.00079756,-0.00027332,-0.00186771,-0.00234606,-0.00314685,0.23
 708005,0.00001556,0.00001464,0.00002198,-0.00001093,-0.00001824,-0.000
 00746,0.00000336,0.00000876,-0.00001789,-0.00000251,0.00000933,0.00002
 543,0.00000201,-0.00000448,-0.00000105,-0.00000426,-0.00008257,-0.0000
 3652,0.00002993,0.00006858,0.00008663,-0.00000123,-0.00000138,-0.00001
 343,-0.00000703,-0.00004502,0.00002765,0.00000684,0.00003842,-0.000031
 36,0.00000377,-0.00000509,0.00000537,-0.00001645,0.00001065,-0.0000051
 7,0.00007523,0.00010498,0.00006049,-0.00010086,-0.00004496,-0.00015488
 ,0.00013766,0.00022986,0.00044972,-0.00077982,-0.00042691,0.00002389,-
 0.00064509,0.00012795,-0.00042149,-0.00009549,-0.00005862,-0.00049874,
 -0.00003534,-0.00006238,0.00012628,-0.01099428,0.01017475,-0.00570564,
 0.00177334,0.00103091,0.00090101,0.00031654,0.00028639,-0.00006662,-0.
 00068800,0.00050530,0.00039421,-0.00009279,-0.00005625,-0.00001933,0.0
 0003282,-0.00001942,0.00004167,0.00391322,-0.00084594,-0.00372272,0.00
 928508,-0.04033035,0.02074137,0.14214524,-0.15394515,0.03762781,0.0107
 1128,-0.00187994,-0.00666376,-0.00000188,-0.00000575,-0.00000741,0.000
 51291,-0.00038806,0.00008785,0.00000278,0.00000279,-0.00000357,0.00000
 114,0.00000842,-0.00000196,0.00000141,-0.00000583,0.00000642,-0.000000
 25,0.00000288,0.00000234,-0.00000317,0.00000216,-0.00000029,-0.0000024
 8,0.00000867,-0.00000041,-0.00000327,-0.00000443,0.00000909,0.00009822
 ,0.00028874,-0.00025063,-0.00026761,-0.00020511,0.00006347,-0.00151177
 ,0.00082809,0.00078770,0.00006254,-0.00005106,-0.00015741,-0.00053139,
 0.00024295,-0.00023437,-0.00203936,-0.00118165,-0.00218504,-0.15129568
 ,0.18567336,-0.00000553,0.00000025,-0.00001653,0.00000224,0.00000056,0
 .00001129,-0.00000362,-0.00000468,0.00001306,0.00000939,0.00000463,-0.
 00001797,-0.00000229,-0.00000118,0.00000156,-0.00000915,0.00000997,0.0
 0000267,0.00000090,-0.00000562,-0.00001610,-0.00000060,-0.00000277,0.0
 0000185,-0.00000222,0.00000994,-0.00000122,0.00000485,-0.00001339,-0.0
 0000122,-0.00000270,0.00000342,-0.00000148,0.00000279,0.00000153,0.000
 02198,-0.00000453,-0.00002011,-0.00004251,0.00002555,0.00001046,0.0000
 5869,0.00009690,-0.00003668,-0.00023701,0.00018401,0.00007228,-0.00012
 273,-0.00276901,0.00090617,-0.00039372,0.00067784,-0.00022844,0.000204
 37,0.00001197,0.00004270,0.00001769,-0.02121910,0.01207022,-0.00519653
 ,0.00031053,-0.00111292,0.00045856,0.00014346,-0.00002840,0.00011428,0
 .00028531,-0.00007598,-0.00001237,0.00002624,-0.00000565,-0.00002559,-
 0.00001844,0.00000431,-0.00000474,-0.00223908,0.00072540,0.00268470,-0
 .00374845,0.01965256,-0.00349119,-0.05882948,0.03998828,-0.05770913,0.
 03579875,-0.02729046,-0.01301462,0.00000107,0.00000175,0.00000376,0.00
 167028,0.00041957,0.00240082,0.00000249,-0.00000084,-0.00000138,-0.000
 00159,-0.00000249,-0.00000071,0.00000206,-0.00000206,-0.00000002,0.000
 00124,-0.00000029,-0.00000239,0.00000153,-0.00000201,0.00000065,0.0000
 0176,-0.00000066,-0.00000214,-0.00000041,-0.00000408,0.00000627,0.0000
 1184,-0.00017229,0.00007860,0.00008068,0.00005608,-0.00001218,0.000606
 21,-0.00063161,0.00018301,0.00005250,-0.00017837,0.00024934,0.00026196
 ,-0.00089272,-0.00065784,-0.00212740,-0.00198316,-0.00273904,0.0507092
 3,-0.04128323,0.07720723\\0.00834319,0.00140640,-0.01487033,-0.0072729
 6,-0.00628146,-0.00760316,-0.00981909,-0.00960516,0.00929215,0.0132819
 0,-0.00078183,0.02834553,-0.01964140,-0.00621594,-0.02447504,0.0033917
 4,-0.01442122,-0.00970372,-0.00000974,-0.02415472,-0.00424966,0.002846
 16,0.03947369,0.00621568,0.01278851,0.02928890,0.00575995,0.00587553,0
 .00871121,-0.01346826,-0.00509885,-0.03695523,-0.00105067,-0.00239920,
 0.03957350,-0.00283473,0.00172012,-0.02217410,0.01318263,-0.01429205,0
 .03935081,-0.01666123,0.00723981,-0.00640546,0.02132181,-0.01372802,-0
 .03004361,-0.00221706,-0.00505730,-0.00299579,0.04213222,0.00339104,0.
 00056056,0.00685602,0.00545841,0.00012187,-0.02408205,0.01038224,0.006
 62561,0.01511409,0.00856909,-0.00550085,0.00679460,-0.02238582,-0.0042
 4879,-0.01995131,-0.01131764,-0.00252910,0.01392350,-0.00767071,0.0016
 1695,-0.03014759,0.03029361,0.00970822,0.01915775,-0.01015246,-0.00078
 620,-0.04175219,0.02295858,0.00174797,0.00239925,-0.00540167,-0.004741
 01,-0.04237453,0.01011519,0.00541969,0.03120513,-0.00150216,0.00198029
 ,0.00540673,-0.00666854,-0.00164033,-0.00003158,-0.01845173,0.00233608
 ,0.00695055,0.01097785,-0.00433877,0.01699241,0.01687277,-0.00882042,-
 0.00793591,-0.01592411,0.01050961,0.00539369,0.01723578,-0.01294013,-0
 .00470875,-0.01677976,0.00761645,0.00299101,0.01568679,-0.01081781,-0.
 00326141,0.00935776,-0.01646157,0.00433163,-0.00293220,0.00519465,0.01
 675056,-0.01962567,0.01644789,-0.00526542,0.01736275,-0.00937741,0.003
 13584,-0.01408688,0.01432615,-0.00724024,0.01419820,-0.01489569,0.0046
 2671,-0.01812905,0.01511614,-0.00439460\\\@


 FAULTILY FAULTLESS, ICILY REGULAR, SPLENDIDLY NULL...
           MAUDE BY TENNYSON
 Job cpu time:  0 days 13 hours 12 minutes 59.1 seconds.
 File lengths (MBytes):  RWF=   1323 Int=      0 D2E=      0 Chk=     19 Scr=      1
 Normal termination of Gaussian 09 at Tue Mar  1 16:37:52 2016.
Gaussian '09 finished on node029 at Tue Mar  1 16:37:52 EST 2016.
