Gaussian '09 started on node024 at Mon Feb  8 13:53:38 EST 2016.
 Entering Gaussian System, Link 0=/usr/local/gaussian/g09/g09
 Initial command:
 /usr/local/gaussian/g09/l1.exe /home/srmcgrat/thesis/gaussian/cellobiose/300/5000/1/2dfp/gaussian20637/Gau-20673.inp -scrdir=/home/srmcgrat/thesis/gaussian/cellobiose/300/5000/1/2dfp/gaussian20637/
 Entering Link 1 = /usr/local/gaussian/g09/l1.exe PID=     20675.
  
 Copyright (c) 1988,1990,1992,1993,1995,1998,2003,2009,2010,
            Gaussian, Inc.  All Rights Reserved.
  
 This is part of the Gaussian(R) 09 program.  It is based on
 the Gaussian(R) 03 system (copyright 2003, Gaussian, Inc.),
 the Gaussian(R) 98 system (copyright 1998, Gaussian, Inc.),
 the Gaussian(R) 94 system (copyright 1995, Gaussian, Inc.),
 the Gaussian 92(TM) system (copyright 1992, Gaussian, Inc.),
 the Gaussian 90(TM) system (copyright 1990, Gaussian, Inc.),
 the Gaussian 88(TM) system (copyright 1988, Gaussian, Inc.),
 the Gaussian 86(TM) system (copyright 1986, Carnegie Mellon
 University), and the Gaussian 82(TM) system (copyright 1983,
 Carnegie Mellon University). Gaussian is a federally registered
 trademark of Gaussian, Inc.
  
 This software contains proprietary and confidential information,
 including trade secrets, belonging to Gaussian, Inc.
  
 This software is provided under written license and may be
 used, copied, transmitted, or stored only in accord with that
 written license.
  
 The following legend is applicable only to US Government
 contracts under FAR:
  
                    RESTRICTED RIGHTS LEGEND
  
 Use, reproduction and disclosure by the US Government is
 subject to restrictions as set forth in subparagraphs (a)
 and (c) of the Commercial Computer Software - Restricted
 Rights clause in FAR 52.227-19.
  
 Gaussian, Inc.
 340 Quinnipiac St., Bldg. 40, Wallingford CT 06492
  
  
 ---------------------------------------------------------------
 Warning -- This program may not be used in any manner that
 competes with the business of Gaussian, Inc. or will provide
 assistance to any competitor of Gaussian, Inc.  The licensee
 of this program is prohibited from giving any competitor of
 Gaussian, Inc. access to this program.  By using this program,
 the user acknowledges that Gaussian, Inc. is engaged in the
 business of creating and licensing software in the field of
 computational chemistry and represents and warrants to the
 licensee that it is not a competitor of Gaussian, Inc. and that
 it will not use this program in any manner prohibited above.
 ---------------------------------------------------------------
  

 Cite this work as:
 Gaussian 09, Revision B.01,
 M. J. Frisch, G. W. Trucks, H. B. Schlegel, G. E. Scuseria, 
 M. A. Robb, J. R. Cheeseman, G. Scalmani, V. Barone, B. Mennucci, 
 G. A. Petersson, H. Nakatsuji, M. Caricato, X. Li, H. P. Hratchian, 
 A. F. Izmaylov, J. Bloino, G. Zheng, J. L. Sonnenberg, M. Hada, 
 M. Ehara, K. Toyota, R. Fukuda, J. Hasegawa, M. Ishida, T. Nakajima, 
 Y. Honda, O. Kitao, H. Nakai, T. Vreven, J. A. Montgomery, Jr., 
 J. E. Peralta, F. Ogliaro, M. Bearpark, J. J. Heyd, E. Brothers, 
 K. N. Kudin, V. N. Staroverov, T. Keith, R. Kobayashi, J. Normand, 
 K. Raghavachari, A. Rendell, J. C. Burant, S. S. Iyengar, J. Tomasi, 
 M. Cossi, N. Rega, J. M. Millam, M. Klene, J. E. Knox, J. B. Cross, 
 V. Bakken, C. Adamo, J. Jaramillo, R. Gomperts, R. E. Stratmann, 
 O. Yazyev, A. J. Austin, R. Cammi, C. Pomelli, J. W. Ochterski, 
 R. L. Martin, K. Morokuma, V. G. Zakrzewski, G. A. Voth, 
 P. Salvador, J. J. Dannenberg, S. Dapprich, A. D. Daniels, 
 O. Farkas, J. B. Foresman, J. V. Ortiz, J. Cioslowski, 
 and D. J. Fox, Gaussian, Inc., Wallingford CT, 2010.
 
 ******************************************
 Gaussian 09:  EM64L-G09RevB.01 12-Aug-2010
                 8-Feb-2016 
 ******************************************
 --------------------------------------------------
 # freq=raman b3lyp/6-31+g(2df,p) geom=connectivity
 --------------------------------------------------
 1/10=4,30=1,38=1,57=2/1,3;
 2/12=2,17=6,18=5,40=1/2;
 3/5=1,6=6,7=114,11=2,16=1,25=1,30=1,71=2,74=-5/1,2,3;
 4//1;
 5/5=2,38=5,98=1/2;
 8/6=4,10=90,11=11/1;
 10/13=10,15=4/2;
 11/6=3,8=1,9=11,15=111,16=1/1,2,10;
 10/6=1/2;
 6/7=2,8=2,9=2,10=2,18=1,28=1/1;
 7/8=1,10=1,25=1/1,2,3,16;
 1/10=4,30=1/3;
 99//99;
 ------------
 300 5000.com
 ------------
 Symbolic Z-matrix:
 Charge =  0 Multiplicity = 1
 O                     7.803     7.595     12.015 
 C                     8.247     7.899     13.346 
 C                     7.801     9.262     13.848 
 O                     8.043     10.306    12.894 
 H                     7.657     9.865     12.084 
 C                     8.333     9.611     15.229 
 O                     7.531     10.668    15.777 
 H                     7.739     10.894    16.729 
 C                     8.484     5.493     14.16 
 O                     8.131     4.783     12.964 
 H                     7.98      3.803     13.096 
 C                     7.848     6.856     14.377 
 O                     8.302     7.149     15.707 
 C                     7.914     8.463     16.134 
 O                     8.784     8.614     17.265 
 C                     8.237     8.328     18.56 
 C                     8.79      7.038     19.144 
 O                     8.572     5.974     18.207 
 H                     8.863     6.372     17.337 
 C                     8.122     6.697     20.466 
 O                     8.743     5.501     20.957 
 H                     8.293     5.408     21.845 
 C                     8.091     10.845    19.112 
 O                     8.751     11.536    18.041 
 H                     8.629     12.482    18.34 
 C                     8.502     9.449     19.552 
 O                     7.863     9.135     20.798 
 C                     8.424     7.92      21.317 
 O                     7.703     7.59      22.513 
 H                     8.32477   7.39545   23.21809 
 H                     8.56476   7.46491   11.44544 
 H                     6.88254   8.51505   16.4138 
 H                     9.38375   9.81164   15.25285 
 H                     6.73779   9.20092   13.95172 
 H                     9.31651   7.91372   13.31734 
 H                     6.78299   6.75282   14.38137 
 H                     8.22636   4.87538   14.99491 
 H                     9.54596   5.62388   14.16108 
 H                     8.16665   11.47319   19.97488 
 H                     7.05499   10.79132   18.84988 
 H                     9.55682   9.47115   19.73021 
 H                     7.17766   8.21904   18.45599 
 H                     9.84186   7.15108   19.30433 
 H                     7.06775   6.56377   20.34065 
 H                     9.47232   8.01741   21.50789 
 

 GradGradGradGradGradGradGradGradGradGradGradGradGradGradGradGradGradGrad
 Berny optimization.
 Initialization pass.
 Trust Radius=3.00D-01 FncErr=1.00D-07 GrdErr=1.00D-07
 Number of steps in this run=      2 maximum allowed number of steps=      2.
 GradGradGradGradGradGradGradGradGradGradGradGradGradGradGradGradGradGrad

                          Input orientation:                          
 ---------------------------------------------------------------------
 Center     Atomic      Atomic             Coordinates (Angstroms)
 Number     Number       Type             X           Y           Z
 ---------------------------------------------------------------------
      1          8           0        7.803000    7.595000   12.015000
      2          6           0        8.247000    7.899000   13.346000
      3          6           0        7.801000    9.262000   13.848000
      4          8           0        8.043000   10.306000   12.894000
      5          1           0        7.657000    9.865000   12.084000
      6          6           0        8.333000    9.611000   15.229000
      7          8           0        7.531000   10.668000   15.777000
      8          1           0        7.739000   10.894000   16.729000
      9          6           0        8.484000    5.493000   14.160000
     10          8           0        8.131000    4.783000   12.964000
     11          1           0        7.980000    3.803000   13.096000
     12          6           0        7.848000    6.856000   14.377000
     13          8           0        8.302000    7.149000   15.707000
     14          6           0        7.914000    8.463000   16.134000
     15          8           0        8.784000    8.614000   17.265000
     16          6           0        8.237000    8.328000   18.560000
     17          6           0        8.790000    7.038000   19.144000
     18          8           0        8.572000    5.974000   18.207000
     19          1           0        8.863000    6.372000   17.337000
     20          6           0        8.122000    6.697000   20.466000
     21          8           0        8.743000    5.501000   20.957000
     22          1           0        8.293000    5.408000   21.845000
     23          6           0        8.091000   10.845000   19.112000
     24          8           0        8.751000   11.536000   18.041000
     25          1           0        8.629000   12.482000   18.340000
     26          6           0        8.502000    9.449000   19.552000
     27          8           0        7.863000    9.135000   20.798000
     28          6           0        8.424000    7.920000   21.317000
     29          8           0        7.703000    7.590000   22.513000
     30          1           0        8.324771    7.395452   23.218090
     31          1           0        8.564760    7.464913   11.445439
     32          1           0        6.882543    8.515047   16.413800
     33          1           0        9.383750    9.811636   15.252848
     34          1           0        6.737792    9.200917   13.951720
     35          1           0        9.316515    7.913720   13.317341
     36          1           0        6.782995    6.752825   14.381372
     37          1           0        8.226365    4.875382   14.994908
     38          1           0        9.545965    5.623882   14.161084
     39          1           0        8.166654   11.473189   19.974876
     40          1           0        7.054992   10.791319   18.849881
     41          1           0        9.556822    9.471150   19.730213
     42          1           0        7.177656    8.219041   18.455990
     43          1           0        9.841859    7.151076   19.304329
     44          1           0        7.067753    6.563769   20.340648
     45          1           0        9.472319    8.017414   21.507887
 ---------------------------------------------------------------------
                    Distance matrix (angstroms):
                    1          2          3          4          5
     1  O    0.000000
     2  C    1.435658   0.000000
     3  C    2.477657   1.519437   0.000000
     4  O    2.860028   2.457553   1.434788   0.000000
     5  H    2.275737   2.409544   1.869770   0.999788   0.000000
     6  C    3.830790   2.546376   1.520522   2.453436   3.226843
     7  O    4.865178   3.753635   2.402244   2.950403   3.781393
     8  H    5.754068   4.546733   3.311711   3.891707   4.758318
     9  C    3.079479   2.551000   3.843071   4.996219   4.909999
    10  O    2.985888   3.141470   4.577313   5.524145   5.179363
    11  H    3.947044   4.112299   5.513459   6.506442   6.154374
    12  C    2.475316   1.519872   2.463917   3.760294   3.787930
    13  O    3.752170   2.477871   2.858610   4.236354   4.573709
    14  C    4.210927   2.863901   2.424245   3.729731   4.293501
    15  O    5.437207   4.019721   3.614150   4.745270   5.447742
    16  C    6.600202   5.231629   4.823422   6.004471   6.681119
    17  C    7.218522   5.886678   5.828543   7.092273   7.688902
    18  O    6.446694   5.238375   5.514188   6.875612   7.312198
    19  H    5.562644   4.317322   4.653285   5.990743   6.422577
    20  C    8.504561   7.221830   7.104941   8.388463   8.972757
    21  O    9.231890   7.995232   8.097553   9.412226   9.947564
    22  H   10.082260   8.856647   8.890860  10.206532  10.749254
    23  C    7.811072   6.476883   5.504515   6.241502   7.109257
    24  O    7.262428   5.960269   4.863623   5.339080   6.282907
    25  H    8.035588   6.788951   5.588564   5.893835   6.850621
    26  C    7.793092   6.401715   5.749955   6.728603   7.527158
    27  O    8.917191   7.563561   6.951437   7.992300   8.746950
    28  C    9.328369   7.972993   7.614135   8.762710   9.466763
    29  O   10.498477   9.188324   8.825385  10.000871  10.674352
    30  H   11.217009   9.885230   9.568539  10.730216  11.424209
    31  H    0.960000   1.975230   3.095989   3.231461   2.644278
    32  H    4.587283   3.413598   2.825744   4.116208   4.601013
    33  H    4.230355   2.930264   2.186503   2.757928   3.609170
    34  H    2.732128   2.083169   1.070000   2.010857   2.185023
    35  H    2.021980   1.070000   2.096722   2.743003   2.842994
    36  H    2.710975   2.128150   2.759852   4.052770   3.965784
    37  H    4.056527   3.444066   4.553982   5.825723   5.804641
    38  H    3.395425   2.743690   4.047076   5.078054   5.086212
    39  H    8.861841   7.531486   6.523930   7.177494   8.069197
    40  H    7.582320   6.330806   5.283385   6.056749   6.855482
    41  H    8.131442   6.704138   6.142238   7.051414   7.888537
    42  H    6.501295   5.230480   4.765490   6.003328   6.598576
    43  H    7.582106   6.213264   6.196179   7.367616   8.016991
    44  H    8.421427   7.217934   7.069129   8.390945   8.911654
    45  H    9.647796   8.254201   7.938273   9.026607   9.773362
                    6          7          8          9         10
     6  C    0.000000
     7  O    1.435534   0.000000
     8  H    2.061292   1.000322   0.000000
     9  C    4.257169   5.504864   6.027071   0.000000
    10  O    5.336723   6.550282   7.188408   1.434965   0.000000
    11  H    6.197351   7.383603   7.971139   2.059663   1.000312
    12  C    2.924236   4.073307   4.674316   1.519656   2.524676
    13  O    2.508164   3.603152   3.922560   2.273471   3.626465
    14  C    1.520687   2.266310   2.508866   3.611437   4.861933
    15  O    2.311429   2.828970   2.564707   4.412671   5.796686
    16  C    3.570835   3.703934   3.191382   5.240060   6.625215
    17  C    4.707059   5.108686   4.669643   5.226941   6.611483
    18  O    4.706737   5.387227   5.204303   4.076434   5.394628
    19  H    3.900729   4.760613   4.699098   3.318073   4.709976
    20  C    5.996840   6.172912   5.632643   6.430109   7.742318
    21  O    7.061882   7.416147   6.925926   6.801938   8.048485
    22  H    7.838257   8.066528   7.521740   7.687843   8.904439
    23  C    4.081545   3.386319   2.409356   7.302099   8.634081
    24  O    3.433321   2.714318   1.776978   7.186884   8.471324
    25  H    4.243651   3.326435   2.430877   8.144909   9.403403
    26  C    4.329334   4.084045   3.261828   6.687595   8.081518
    27  O    5.609032   5.260300   4.434661   7.596897   8.965673
    28  C    6.319138   6.248244   5.510322   7.557551   8.927442
    29  O    7.585380   7.407926   6.661259   8.647542   9.962220
    30  H    8.290614   8.167587   7.395354   9.257088  10.583422
    31  H    4.356000   5.485512   6.352679   3.356159   3.112367
    32  H    2.169951   2.336925   2.547997   4.095979   5.233349
    33  H    1.070000   2.107316   2.460842   4.544720   5.665279
    34  H    2.084299   2.472480   3.403268   4.103812   4.736519
    35  H    2.739069   4.101712   4.796878   2.695002   3.366259
    36  H    3.360083   4.223256   4.855372   2.128281   2.776017
    37  H    4.742599   5.886393   6.282385   1.070000   2.035244
    38  H    4.302190   5.666956   6.134611   1.070000   2.035244
    39  H    5.100858   4.321406   3.324764   8.347224   9.690835
    40  H    4.017118   3.111975   2.230817   7.218672   8.479463
    41  H    4.666714   4.600467   3.786325   6.928485   8.354242
    42  H    3.699437   3.646812   3.233111   5.252939   6.548069
    43  H    4.993615   5.490981   5.006377   5.572892   6.981017
    44  H    6.084029   6.155176   5.678510   6.430607   7.662674
    45  H    6.577385   6.605860   5.840968   7.832042   9.233557
                   11         12         13         14         15
    11  H    0.000000
    12  C    3.313487   0.000000
    13  O    4.256374   1.435571   0.000000
    14  C    5.563218   2.381985   1.435085   0.000000
    15  O    6.416596   3.508162   2.192239   1.434874   0.000000
    16  C    7.099082   4.451471   3.087697   2.451128   1.434584
    17  C    6.906492   4.862590   3.473245   3.443559   2.452438
    18  O    5.584445   3.996373   2.775522   3.305361   2.811033
    19  H    5.036420   3.166399   1.890860   2.592314   2.244547
    20  C    7.919110   6.097235   4.783804   4.682760   3.789398
    21  O    8.078409   6.777422   5.520225   5.720316   4.829422
    22  H    8.900505   7.620089   6.380142   6.487849   5.612122
    23  C    9.262523   6.196079   5.029807   3.817556   2.978090
    24  O    9.211230   6.011880   4.989482   3.712216   3.023466
    25  H   10.160993   6.925836   5.956552   4.640045   4.017596
    26  C    8.592423   5.825117   4.484866   3.605643   2.450942
    27  O    9.368283   6.813465   5.482262   4.712439   3.688058
    28  C    9.204980   7.044677   5.664047   5.236262   4.126735
    29  O   10.153718   8.170329   6.846526   6.441917   5.455148
    30  H   10.746222   8.870355   7.515167   7.175843   6.093852
    31  H    4.059051   3.078728   4.281325   4.837589   5.935971
    32  H    5.866481   2.798767   2.092966   1.070000   2.085635
    33  H    6.536529   3.444042   2.909651   2.180691   2.417186
    34  H    5.604716   2.629080   3.120596   2.586568   3.938180
    35  H    4.328196   2.097185   2.706382   3.194108   4.044499
    36  H    3.433143   1.070000   2.054658   2.697328   3.972821
    37  H    2.194664   2.108985   2.383723   3.777050   4.409256
    38  H    2.627215   2.108985   2.502656   3.823127   4.376721
    39  H   10.304639   7.263346   6.077145   4.886451   3.987418
    40  H    9.099417   6.010180   4.969831   3.678991   3.200318
    41  H    8.867191   6.198062   4.811777   4.080193   2.721991
    42  H    6.991042   4.352632   3.156911   2.448133   2.038331
    43  H    7.295169   5.323638   3.913049   3.935578   2.723614
    44  H    7.806341   6.021568   4.830792   4.692451   4.075360
    45  H    9.526182   7.405190   5.981144   5.612982   4.339561
                   16         17         18         19         20
    16  C    0.000000
    17  C    1.520186   0.000000
    18  O    2.403778   1.434430   0.000000
    19  H    2.390301   1.927209   0.999992   0.000000
    20  C    2.511219   1.519931   2.414189   3.231926   0.000000
    21  O    3.740799   2.377298   2.795616   3.725244   1.434273
    22  H    4.395539   3.193636   3.692322   4.645025   1.895364
    23  C    2.580951   3.870772   4.977653   4.873842   4.363506
    24  O    3.290110   4.631429   5.567355   5.212970   5.449054
    25  H    4.178251   5.505404   6.509608   6.196198   6.184105
    26  C    1.520174   2.462180   3.726869   3.808474   2.924603
    27  O    2.408271   2.827093   4.148239   4.540120   2.474096
    28  C    2.793292   2.373565   3.671637   4.292951   1.520241
    29  O    4.056601   3.582797   4.680625   5.442435   2.272272
    30  H    4.751332   4.116117   5.214659   5.993694   2.846568
    31  H    7.174212   7.713678   6.923985   5.999491   9.064008
    32  H    2.544743   3.643357   3.539315   3.060581   4.611060
    33  H    3.801772   4.815253   4.910540   4.055363   6.202413
    34  H    4.924008   5.987449   5.646656   4.896877   7.114877
    35  H    5.368655   5.915577   5.312775   4.328999   7.349190
    36  H    4.696407   5.176101   4.294477   3.634169   6.230469
    37  H    4.962919   4.712702   3.412324   2.851414   5.767324
    38  H    5.326922   5.234564   4.176197   3.333551   6.552192
    39  H    3.449498   4.555197   5.790576   5.784930   4.801581
    40  H    2.747565   4.145378   5.091284   5.008800   4.529216
    41  H    2.101933   2.617610   3.939557   3.976630   3.208739
    42  H    1.070000   2.113734   2.654506   2.739359   2.692310
    43  H    2.124794   1.070000   2.049923   2.331418   2.124519
    44  H    2.765928   2.150115   2.676385   3.504510   1.070000
    45  H    3.211311   2.648164   3.985219   4.524926   2.156938
                   21         22         23         24         25
    21  O    0.000000
    22  H    0.999846   0.000000
    23  C    5.690999   6.088601   0.000000
    24  O    6.702563   7.227210   1.435313   0.000000
    25  H    7.456276   7.901860   1.888173   0.999600   0.000000
    26  C    4.197477   4.650937   1.520308   2.588569   3.268664
    27  O    3.742411   3.895079   2.412194   3.762233   4.222668
    28  C    2.466358   2.570231   3.678116   4.890252   5.451275
    29  O    2.804756   2.357000   4.723597   6.055411   6.496389
    30  H    2.979328   2.415854   5.367868   6.642897   7.054169
    31  H    9.713831  10.604509   8.391996   7.753055   8.527031
    32  H    5.760768   6.414130   3.764217   3.907054   4.743108
    33  H    7.178405   8.002388   4.199060   3.338802   4.151024
    34  H    8.172160   8.894311   5.582354   5.121312   5.796480
    35  H    8.032093   8.946909   6.608507   5.979438   6.824146
    36  H    6.974781   7.732685   6.390275   6.335984   7.204299
    37  H    6.017046   6.871090   7.252938   7.342871   8.319398
    38  H    6.844291   7.788394   7.340883   7.116098   8.083189
    39  H    6.079785   6.348216   1.070000   2.021208   1.975926
    40  H    5.939427   6.283592   1.070000   2.021208   2.365562
    41  H    4.234313   4.751711   2.101972   2.786825   3.443656
    42  H    4.011621   4.542173   2.856607   3.694569   4.504739
    43  H    2.581001   3.448520   4.092380   4.691858   5.551550
    44  H    2.077455   2.258342   4.570071   5.731037   6.439375
    45  H    2.677260   2.883311   3.955194   4.991999   5.538883
                   26         27         28         29         30
    26  C    0.000000
    27  O    1.435072   0.000000
    28  C    2.336482   1.435377   0.000000
    29  O    3.586336   2.313839   1.434976   0.000000
    30  H    4.205792   3.015974   1.974624   0.960000   0.000000
    31  H    8.346069   9.526387   9.883047  11.101765  11.775302
    32  H    3.652836   4.535069   5.174122   6.223271   7.044990
    33  H    4.403601   5.789580   6.424434   7.776272   8.390738
    34  H    5.876829   6.938443   7.663641   8.764827   9.573078
    35  H    6.472364   7.717803   8.049296   9.341754   9.963784
    36  H    6.079452   6.929234   7.222059   8.226217   8.993199
    37  H    6.462278   7.207791   7.019801   8.010291   8.601230
    38  H    6.692037   7.694736   7.598559   8.775912   9.309089
    39  H    2.094904   2.497372   3.806925   4.662211   5.212618
    40  H    2.094904   2.681685   4.025584   4.907830   5.676751
    41  H    1.070000   2.030320   2.491434   3.836572   4.241670
    42  H    2.113746   2.606470   3.134992   4.138962   4.967069
    43  H    2.671520   3.175357   2.579227   3.881101   4.204617
    44  H    3.317166   2.729985   2.152216   2.485116   3.248302
    45  H    2.610834   2.083950   1.070000   2.079285   2.151395
                   31         32         33         34         35
    31  H    0.000000
    32  H    5.349509   0.000000
    33  H    4.546891   3.047128   0.000000
    34  H    3.554288   2.559924   3.011147   0.000000
    35  H    2.066538   3.984202   2.711603   2.951123   0.000000
    36  H    3.507343   2.691858   4.108494   2.485921   2.983046
    37  H    4.406689   4.131134   5.076680   4.691945   3.637878
    38  H    3.424454   4.530715   4.330767   4.552455   2.451103
    39  H    9.432712   4.804249   5.151663   6.594185   7.636411
    40  H    8.256521   3.338509   4.395628   5.159649   6.633556
    41  H    8.581763   4.366291   4.493627   6.435133   6.603655
    42  H    7.186139   2.084527   4.202777   4.630984   5.574375
    43  H    7.968163   4.355815   4.868567   6.518244   6.058188
    44  H    9.065198   4.388841   6.465153   6.919670   7.497075
    45  H   10.118388   5.736227   6.507887   8.122437   8.192684
                   36         37         38         39         40
    36  H    0.000000
    37  H    2.446331   0.000000
    38  H    2.992831   1.731144   0.000000
    39  H    7.448734   8.266481   8.361642   0.000000
    40  H    6.029178   7.157600   7.408925   1.722310   0.000000
    41  H    6.610107   6.731590   6.768810   2.449610   2.962597
    42  H    4.348340   4.925336   5.548870   3.724864   2.605150
    43  H    5.809541   5.134171   5.373346   4.683653   4.607007
    44  H    5.969070   5.724505   6.723981   5.044183   4.482714
    45  H    7.721325   7.337824   7.727220   3.999658   4.539054
                   41         42         43         44         45
    41  H    0.000000
    42  H    2.975206   0.000000
    43  H    2.375998   2.993027   0.000000
    44  H    3.875688   2.510765   3.019032   0.000000
    45  H    2.297959   3.823638   2.396407   3.042609   0.000000
 Stoichiometry    C12H22O11
 Framework group  C1[X(C12H22O11)]
 Deg. of freedom   129
 Full point group                 C1      NOp   1
 Largest Abelian subgroup         C1      NOp   1
 Largest concise Abelian subgroup C1      NOp   1
                         Standard orientation:                         
 ---------------------------------------------------------------------
 Center     Atomic      Atomic             Coordinates (Angstroms)
 Number     Number       Type             X           Y           Z
 ---------------------------------------------------------------------
      1          8           0        5.059657   -0.351673   -0.277574
      2          6           0        3.707192   -0.106390    0.136899
      3          6           0        3.178484    1.260706   -0.263356
      4          8           0        4.092947    2.319335    0.055518
      5          1           0        4.927217    1.919736   -0.323811
      6          6           0        1.772026    1.545473    0.239405
      7          8           0        1.217412    2.621984   -0.531494
      8          1           0        0.253155    2.810985   -0.344064
      9          6           0        2.958731   -2.542952    0.239721
     10          8           0        4.185692   -3.201658   -0.106396
     11          1           0        4.087776   -4.177092   -0.305305
     12          6           0        2.720573   -1.159036   -0.341150
     13          8           0        1.369131   -0.925166    0.082846
     14          6           0        0.915047    0.392489   -0.259299
     15          8           0       -0.246052    0.471216    0.580054
     16          6           0       -1.514568    0.173708   -0.020267
     17          6           0       -2.076323   -1.156368    0.455437
     18          8           0       -1.101654   -2.182122    0.219983
     19          1           0       -0.253271   -1.773192    0.556148
     20          6           0       -3.366466   -1.504033   -0.269028
     21          8           0       -3.840202   -2.740702    0.281755
     22          1           0       -4.710837   -2.838317   -0.200073
     23          6           0       -2.136962    2.677979   -0.070849
     24          8           0       -1.107824    3.368341    0.653305
     25          1           0       -1.431143    4.310016    0.564348
     26          6           0       -2.547331    1.252660    0.262916
     27          8           0       -3.763239    0.932798   -0.428957
     28          6           0       -4.262545   -0.320899    0.060171
     29          8           0       -5.425511   -0.651561   -0.712699
     30          1           0       -6.143151   -0.894377   -0.123094
     31          1           0        5.609288   -0.500164    0.495379
     32          1           0        0.665498    0.483653   -1.295790
     33          1           0        1.710049    1.697080    1.296795
     34          1           0        3.109213    1.245380   -1.331001
     35          1           0        3.702667   -0.139789    1.206368
     36          1           0        2.751874   -1.213477   -1.409306
     37          1           0        2.150962   -3.171706   -0.071853
     38          1           0        2.921242   -2.460861    1.305908
     39          1           0       -3.020171    3.277181    0.005308
     40          1           0       -1.841783    2.679236   -1.099327
     41          1           0       -2.758312    1.221451    1.311445
     42          1           0       -1.374985    0.116324   -1.079570
     43          1           0       -2.272069   -1.096137    1.505654
     44          1           0       -3.204990   -1.585278   -1.323648
     45          1           0       -4.488243   -0.277017    1.105175
 ---------------------------------------------------------------------
 Rotational constants (GHZ):      0.4081566      0.1494636      0.1123877
 Standard basis: 6-31+G(2df,p) (6D, 7F)
 There are   846 symmetry adapted basis functions of A   symmetry.
 Integral buffers will be    131072 words long.
 Raffenetti 2 integral format.
 Two-electron integral symmetry is turned on.
   846 basis functions,  1258 primitive gaussians,   915 cartesian basis functions
    91 alpha electrons       91 beta electrons
       nuclear repulsion energy      2300.7351641675 Hartrees.
 NAtoms=   45 NActive=   45 NUniq=   45 SFac= 1.00D+00 NAtFMM=   50 NAOKFM=F Big=F
 One-electron integrals computed using PRISM.
 NBasis=   846 RedAO= T  NBF=   846
 NBsUse=   846 1.00D-06 NBFU=   846
 Harris functional with IExCor=  402 diagonalized for initial guess.
 ExpMin= 4.38D-02 ExpMax= 5.48D+03 ExpMxC= 8.25D+02 IAcc=2 IRadAn=         0 AccDes= 0.00D+00
 HarFok:  IExCor=  402 AccDes= 0.00D+00 IRadAn=         0 IDoV= 1
 ScaDFX=  1.000000  1.000000  1.000000  1.000000
 FoFCou: FMM=F IPFlag=           0 FMFlag=      100000 FMFlg1=           0
         NFxFlg=           0 DoJE=T BraDBF=F KetDBF=T FulRan=T
         Omega=  0.000000  0.000000  1.000000  0.000000  0.000000 ICntrl=     500 IOpCl=  0
         NMat0=    1 NMatS0=    1 NMatT0=    0 NMatD0=    1 NMtDS0=    0 NMtDT0=    0
         I1Cent=           4 NGrid=           0.
 Petite list used in FoFCou.
 Initial guess orbital symmetries:
       Occupied  (A) (A) (A) (A) (A) (A) (A) (A) (A) (A) (A) (A)
                 (A) (A) (A) (A) (A) (A) (A) (A) (A) (A) (A) (A)
                 (A) (A) (A) (A) (A) (A) (A) (A) (A) (A) (A) (A)
                 (A) (A) (A) (A) (A) (A) (A) (A) (A) (A) (A) (A)
                 (A) (A) (A) (A) (A) (A) (A) (A) (A) (A) (A) (A)
                 (A) (A) (A) (A) (A) (A) (A) (A) (A) (A) (A) (A)
                 (A) (A) (A) (A) (A) (A) (A) (A) (A) (A) (A) (A)
                 (A) (A) (A) (A) (A) (A) (A)
       Virtual   (A) (A) (A) (A) (A) (A) (A) (A) (A) (A) (A) (A)
                 (A) (A) (A) (A) (A) (A) (A) (A) (A) (A) (A) (A)
                 (A) (A) (A) (A) (A) (A) (A) (A) (A) (A) (A) (A)
                 (A) (A) (A) (A) (A) (A) (A) (A) (A) (A) (A) (A)
                 (A) (A) (A) (A) (A) (A) (A) (A) (A) (A) (A) (A)
                 (A) (A) (A) (A) (A) (A) (A) (A) (A) (A) (A) (A)
                 (A) (A) (A) (A) (A) (A) (A) (A) (A) (A) (A) (A)
                 (A) (A) (A) (A) (A) (A) (A) (A) (A) (A) (A) (A)
                 (A) (A) (A) (A) (A) (A) (A) (A) (A) (A) (A) (A)
                 (A) (A) (A) (A) (A) (A) (A) (A) (A) (A) (A) (A)
                 (A) (A) (A) (A) (A) (A) (A) (A) (A) (A) (A) (A)
                 (A) (A) (A) (A) (A) (A) (A) (A) (A) (A) (A) (A)
                 (A) (A) (A) (A) (A) (A) (A) (A) (A) (A) (A) (A)
                 (A) (A) (A) (A) (A) (A) (A) (A) (A) (A) (A) (A)
                 (A) (A) (A) (A) (A) (A) (A) (A) (A) (A) (A) (A)
                 (A) (A) (A) (A) (A) (A) (A) (A) (A) (A) (A) (A)
                 (A) (A) (A) (A) (A) (A) (A) (A) (A) (A) (A) (A)
                 (A) (A) (A) (A) (A) (A) (A) (A) (A) (A) (A) (A)
                 (A) (A) (A) (A) (A) (A) (A) (A) (A) (A) (A) (A)
                 (A) (A) (A) (A) (A) (A) (A) (A) (A) (A) (A) (A)
                 (A) (A) (A) (A) (A) (A) (A) (A) (A) (A) (A) (A)
                 (A) (A) (A) (A) (A) (A) (A) (A) (A) (A) (A) (A)
                 (A) (A) (A) (A) (A) (A) (A) (A) (A) (A) (A) (A)
                 (A) (A) (A) (A) (A) (A) (A) (A) (A) (A) (A) (A)
                 (A) (A) (A) (A) (A) (A) (A) (A) (A) (A) (A) (A)
                 (A) (A) (A) (A) (A) (A) (A) (A) (A) (A) (A) (A)
                 (A) (A) (A) (A) (A) (A) (A) (A) (A) (A) (A) (A)
                 (A) (A) (A) (A) (A) (A) (A) (A) (A) (A) (A) (A)
                 (A) (A) (A) (A) (A) (A) (A) (A) (A) (A) (A) (A)
                 (A) (A) (A) (A) (A) (A) (A) (A) (A) (A) (A) (A)
                 (A) (A) (A) (A) (A) (A) (A) (A) (A) (A) (A) (A)
                 (A) (A) (A) (A) (A) (A) (A) (A) (A) (A) (A) (A)
                 (A) (A) (A) (A) (A) (A) (A) (A) (A) (A) (A) (A)
                 (A) (A) (A) (A) (A) (A) (A) (A) (A) (A) (A) (A)
                 (A) (A) (A) (A) (A) (A) (A) (A) (A) (A) (A) (A)
                 (A) (A) (A) (A) (A) (A) (A) (A) (A) (A) (A) (A)
                 (A) (A) (A) (A) (A) (A) (A) (A) (A) (A) (A) (A)
                 (A) (A) (A) (A) (A) (A) (A) (A) (A) (A) (A) (A)
                 (A) (A) (A) (A) (A) (A) (A) (A) (A) (A) (A) (A)
                 (A) (A) (A) (A) (A) (A) (A) (A) (A) (A) (A) (A)
                 (A) (A) (A) (A) (A) (A) (A) (A) (A) (A) (A) (A)
                 (A) (A) (A) (A) (A) (A) (A) (A) (A) (A) (A) (A)
                 (A) (A) (A) (A) (A) (A) (A) (A) (A) (A) (A) (A)
                 (A) (A) (A) (A) (A) (A) (A) (A) (A) (A) (A) (A)
                 (A) (A) (A) (A) (A) (A) (A) (A) (A) (A) (A) (A)
                 (A) (A) (A) (A) (A) (A) (A) (A) (A) (A) (A) (A)
                 (A) (A) (A) (A) (A) (A) (A) (A) (A) (A) (A) (A)
                 (A) (A) (A) (A) (A) (A) (A) (A) (A) (A) (A) (A)
                 (A) (A) (A) (A) (A) (A) (A) (A) (A) (A) (A) (A)
                 (A) (A) (A) (A) (A) (A) (A) (A) (A) (A) (A) (A)
                 (A) (A) (A) (A) (A) (A) (A) (A) (A) (A) (A) (A)
                 (A) (A) (A) (A) (A) (A) (A) (A) (A) (A) (A) (A)
                 (A) (A) (A) (A) (A) (A) (A) (A) (A) (A) (A) (A)
                 (A) (A) (A) (A) (A) (A) (A) (A) (A) (A) (A) (A)
                 (A) (A) (A) (A) (A) (A) (A) (A) (A) (A) (A) (A)
                 (A) (A) (A) (A) (A) (A) (A) (A) (A) (A) (A) (A)
                 (A) (A) (A) (A) (A) (A) (A) (A) (A) (A) (A) (A)
                 (A) (A) (A) (A) (A) (A) (A) (A) (A) (A) (A) (A)
                 (A) (A) (A) (A) (A) (A) (A) (A) (A) (A) (A) (A)
                 (A) (A) (A) (A) (A) (A) (A) (A) (A) (A) (A) (A)
                 (A) (A) (A) (A) (A) (A) (A) (A) (A) (A) (A) (A)
                 (A) (A) (A) (A) (A) (A) (A) (A) (A) (A) (A) (A)
                 (A) (A) (A) (A) (A) (A) (A) (A) (A) (A) (A)
 The electronic state of the initial guess is 1-A.
 Requested convergence on RMS density matrix=1.00D-08 within 128 cycles.
 Requested convergence on MAX density matrix=1.00D-06.
 Requested convergence on             energy=1.00D-06.
 No special actions if energy rises.
 SCF Done:  E(RB3LYP) =  -1298.00416668     A.U. after   13 cycles
             Convg  =    0.2864D-08             -V/T =  2.0064
 Range of M.O.s used for correlation:     1   846
 NBasis=   846 NAE=    91 NBE=    91 NFC=     0 NFV=     0
 NROrb=    846 NOA=    91 NOB=    91 NVA=   755 NVB=   755

 **** Warning!!: The largest alpha MO coefficient is  0.70481712D+02

          Differentiating once with respect to electric field.
                with respect to dipole field.
          Electric field/nuclear overlap derivatives assumed to be zero.
          There are     3 degrees of freedom in the 1st order CPHF.  IDoFFX=0.
      3 vectors produced by pass  0 Test12= 2.29D-12 3.33D-08 XBig12= 1.21D+02 1.30D+00.
 AX will form     3 AO Fock derivatives at one time.
      3 vectors produced by pass  1 Test12= 2.29D-12 3.33D-08 XBig12= 2.52D+01 4.03D-01.
      3 vectors produced by pass  2 Test12= 2.29D-12 3.33D-08 XBig12= 1.05D+01 2.01D-01.
      3 vectors produced by pass  3 Test12= 2.29D-12 3.33D-08 XBig12= 1.24D+00 8.63D-02.
      3 vectors produced by pass  4 Test12= 2.29D-12 3.33D-08 XBig12= 3.78D-01 4.59D-02.
      3 vectors produced by pass  5 Test12= 2.29D-12 3.33D-08 XBig12= 6.76D-02 2.09D-02.
      3 vectors produced by pass  6 Test12= 2.29D-12 3.33D-08 XBig12= 2.66D-02 1.74D-02.
      3 vectors produced by pass  7 Test12= 2.29D-12 3.33D-08 XBig12= 3.32D-03 9.59D-03.
      3 vectors produced by pass  8 Test12= 2.29D-12 3.33D-08 XBig12= 5.52D-04 2.54D-03.
      3 vectors produced by pass  9 Test12= 2.29D-12 3.33D-08 XBig12= 1.39D-04 1.42D-03.
      3 vectors produced by pass 10 Test12= 2.29D-12 3.33D-08 XBig12= 4.22D-05 6.09D-04.
      3 vectors produced by pass 11 Test12= 2.29D-12 3.33D-08 XBig12= 1.08D-05 4.22D-04.
      3 vectors produced by pass 12 Test12= 2.29D-12 3.33D-08 XBig12= 1.07D-06 9.56D-05.
      3 vectors produced by pass 13 Test12= 2.29D-12 3.33D-08 XBig12= 3.45D-07 3.61D-05.
      3 vectors produced by pass 14 Test12= 2.29D-12 3.33D-08 XBig12= 6.03D-08 2.07D-05.
      3 vectors produced by pass 15 Test12= 2.29D-12 3.33D-08 XBig12= 1.53D-08 6.49D-06.
      3 vectors produced by pass 16 Test12= 2.29D-12 3.33D-08 XBig12= 2.43D-09 4.43D-06.
      3 vectors produced by pass 17 Test12= 2.29D-12 3.33D-08 XBig12= 1.78D-10 1.17D-06.
      3 vectors produced by pass 18 Test12= 2.29D-12 3.33D-08 XBig12= 3.67D-11 5.39D-07.
      3 vectors produced by pass 19 Test12= 2.29D-12 3.33D-08 XBig12= 1.27D-11 2.46D-07.
      3 vectors produced by pass 20 Test12= 2.29D-12 3.33D-08 XBig12= 5.58D-12 1.98D-07.
      2 vectors produced by pass 21 Test12= 2.29D-12 3.33D-08 XBig12= 1.48D-12 6.69D-08.
      1 vectors produced by pass 22 Test12= 2.29D-12 3.33D-08 XBig12= 2.24D-13 3.46D-08.
 Inverted reduced A of dimension    66 with in-core refinement.
 End of Minotr Frequency-dependent properties file   721 does not exist.
 End of Minotr Frequency-dependent properties file   722 does not exist.
 Symmetrizing basis deriv contribution to polar:
 IMax=3 JMax=2 DiffMx= 0.00D+00
 G2DrvN: will do     8 centers at a time, making    6 passes doing MaxLOS=3.
 Calling FoFCou, ICntrl=  3107 FMM=F I1Cent=   0 AccDes= 0.00D+00.
 Calling FoFCou, ICntrl=  3107 FMM=F I1Cent=   0 AccDes= 0.00D+00.
 Calling FoFCou, ICntrl=  3107 FMM=F I1Cent=   0 AccDes= 0.00D+00.
 Calling FoFCou, ICntrl=  3107 FMM=F I1Cent=   0 AccDes= 0.00D+00.
 Calling FoFCou, ICntrl=  3107 FMM=F I1Cent=   0 AccDes= 0.00D+00.
 Calling FoFCou, ICntrl=  3107 FMM=F I1Cent=   0 AccDes= 0.00D+00.
 FoFDir/FoFCou used for L=0 through L=3.
 End of G2Drv Frequency-dependent properties file   721 does not exist.
 End of G2Drv Frequency-dependent properties file   722 does not exist.
          IDoAtm=111111111111111111111111111111111111111111111
          Differentiating once with respect to electric field.
                with respect to dipole field.
          Differentiating once with respect to nuclear coordinates.
          There are   138 degrees of freedom in the 1st order CPHF.  IDoFFX=5.
 Will reuse    3 saved solutions.
    135 vectors produced by pass  0 Test12= 6.87D-14 1.00D-09 XBig12= 1.60D-01 8.82D-02.
 AX will form    27 AO Fock derivatives at one time.
    135 vectors produced by pass  1 Test12= 6.87D-14 1.00D-09 XBig12= 2.15D-02 1.31D-02.
    132 vectors produced by pass  2 Test12= 6.87D-14 1.00D-09 XBig12= 1.37D-04 1.31D-03.
    132 vectors produced by pass  3 Test12= 6.87D-14 1.00D-09 XBig12= 7.51D-07 6.06D-05.
    132 vectors produced by pass  4 Test12= 6.87D-14 1.00D-09 XBig12= 2.00D-09 3.38D-06.
    132 vectors produced by pass  5 Test12= 6.87D-14 1.00D-09 XBig12= 5.63D-12 1.15D-07.
     94 vectors produced by pass  6 Test12= 6.87D-14 1.00D-09 XBig12= 2.35D-13 2.50D-08.
      1 vectors produced by pass  7 Test12= 6.87D-14 1.00D-09 XBig12= 6.11D-16 1.13D-09.
 Inverted reduced A of dimension   893 with in-core refinement.
 Isotropic polarizability for W=    0.000000      190.28 Bohr**3.
 End of Minotr Frequency-dependent properties file   721 does not exist.
 End of Minotr Frequency-dependent properties file   722 does not exist.

 **********************************************************************

            Population analysis using the SCF density.

 **********************************************************************

 Orbital symmetries:
       Occupied  (A) (A) (A) (A) (A) (A) (A) (A) (A) (A) (A) (A)
                 (A) (A) (A) (A) (A) (A) (A) (A) (A) (A) (A) (A)
                 (A) (A) (A) (A) (A) (A) (A) (A) (A) (A) (A) (A)
                 (A) (A) (A) (A) (A) (A) (A) (A) (A) (A) (A) (A)
                 (A) (A) (A) (A) (A) (A) (A) (A) (A) (A) (A) (A)
                 (A) (A) (A) (A) (A) (A) (A) (A) (A) (A) (A) (A)
                 (A) (A) (A) (A) (A) (A) (A) (A) (A) (A) (A) (A)
                 (A) (A) (A) (A) (A) (A) (A)
       Virtual   (A) (A) (A) (A) (A) (A) (A) (A) (A) (A) (A) (A)
                 (A) (A) (A) (A) (A) (A) (A) (A) (A) (A) (A) (A)
                 (A) (A) (A) (A) (A) (A) (A) (A) (A) (A) (A) (A)
                 (A) (A) (A) (A) (A) (A) (A) (A) (A) (A) (A) (A)
                 (A) (A) (A) (A) (A) (A) (A) (A) (A) (A) (A) (A)
                 (A) (A) (A) (A) (A) (A) (A) (A) (A) (A) (A) (A)
                 (A) (A) (A) (A) (A) (A) (A) (A) (A) (A) (A) (A)
                 (A) (A) (A) (A) (A) (A) (A) (A) (A) (A) (A) (A)
                 (A) (A) (A) (A) (A) (A) (A) (A) (A) (A) (A) (A)
                 (A) (A) (A) (A) (A) (A) (A) (A) (A) (A) (A) (A)
                 (A) (A) (A) (A) (A) (A) (A) (A) (A) (A) (A) (A)
                 (A) (A) (A) (A) (A) (A) (A) (A) (A) (A) (A) (A)
                 (A) (A) (A) (A) (A) (A) (A) (A) (A) (A) (A) (A)
                 (A) (A) (A) (A) (A) (A) (A) (A) (A) (A) (A) (A)
                 (A) (A) (A) (A) (A) (A) (A) (A) (A) (A) (A) (A)
                 (A) (A) (A) (A) (A) (A) (A) (A) (A) (A) (A) (A)
                 (A) (A) (A) (A) (A) (A) (A) (A) (A) (A) (A) (A)
                 (A) (A) (A) (A) (A) (A) (A) (A) (A) (A) (A) (A)
                 (A) (A) (A) (A) (A) (A) (A) (A) (A) (A) (A) (A)
                 (A) (A) (A) (A) (A) (A) (A) (A) (A) (A) (A) (A)
                 (A) (A) (A) (A) (A) (A) (A) (A) (A) (A) (A) (A)
                 (A) (A) (A) (A) (A) (A) (A) (A) (A) (A) (A) (A)
                 (A) (A) (A) (A) (A) (A) (A) (A) (A) (A) (A) (A)
                 (A) (A) (A) (A) (A) (A) (A) (A) (A) (A) (A) (A)
                 (A) (A) (A) (A) (A) (A) (A) (A) (A) (A) (A) (A)
                 (A) (A) (A) (A) (A) (A) (A) (A) (A) (A) (A) (A)
                 (A) (A) (A) (A) (A) (A) (A) (A) (A) (A) (A) (A)
                 (A) (A) (A) (A) (A) (A) (A) (A) (A) (A) (A) (A)
                 (A) (A) (A) (A) (A) (A) (A) (A) (A) (A) (A) (A)
                 (A) (A) (A) (A) (A) (A) (A) (A) (A) (A) (A) (A)
                 (A) (A) (A) (A) (A) (A) (A) (A) (A) (A) (A) (A)
                 (A) (A) (A) (A) (A) (A) (A) (A) (A) (A) (A) (A)
                 (A) (A) (A) (A) (A) (A) (A) (A) (A) (A) (A) (A)
                 (A) (A) (A) (A) (A) (A) (A) (A) (A) (A) (A) (A)
                 (A) (A) (A) (A) (A) (A) (A) (A) (A) (A) (A) (A)
                 (A) (A) (A) (A) (A) (A) (A) (A) (A) (A) (A) (A)
                 (A) (A) (A) (A) (A) (A) (A) (A) (A) (A) (A) (A)
                 (A) (A) (A) (A) (A) (A) (A) (A) (A) (A) (A) (A)
                 (A) (A) (A) (A) (A) (A) (A) (A) (A) (A) (A) (A)
                 (A) (A) (A) (A) (A) (A) (A) (A) (A) (A) (A) (A)
                 (A) (A) (A) (A) (A) (A) (A) (A) (A) (A) (A) (A)
                 (A) (A) (A) (A) (A) (A) (A) (A) (A) (A) (A) (A)
                 (A) (A) (A) (A) (A) (A) (A) (A) (A) (A) (A) (A)
                 (A) (A) (A) (A) (A) (A) (A) (A) (A) (A) (A) (A)
                 (A) (A) (A) (A) (A) (A) (A) (A) (A) (A) (A) (A)
                 (A) (A) (A) (A) (A) (A) (A) (A) (A) (A) (A) (A)
                 (A) (A) (A) (A) (A) (A) (A) (A) (A) (A) (A) (A)
                 (A) (A) (A) (A) (A) (A) (A) (A) (A) (A) (A) (A)
                 (A) (A) (A) (A) (A) (A) (A) (A) (A) (A) (A) (A)
                 (A) (A) (A) (A) (A) (A) (A) (A) (A) (A) (A) (A)
                 (A) (A) (A) (A) (A) (A) (A) (A) (A) (A) (A) (A)
                 (A) (A) (A) (A) (A) (A) (A) (A) (A) (A) (A) (A)
                 (A) (A) (A) (A) (A) (A) (A) (A) (A) (A) (A) (A)
                 (A) (A) (A) (A) (A) (A) (A) (A) (A) (A) (A) (A)
                 (A) (A) (A) (A) (A) (A) (A) (A) (A) (A) (A) (A)
                 (A) (A) (A) (A) (A) (A) (A) (A) (A) (A) (A) (A)
                 (A) (A) (A) (A) (A) (A) (A) (A) (A) (A) (A) (A)
                 (A) (A) (A) (A) (A) (A) (A) (A) (A) (A) (A) (A)
                 (A) (A) (A) (A) (A) (A) (A) (A) (A) (A) (A) (A)
                 (A) (A) (A) (A) (A) (A) (A) (A) (A) (A) (A) (A)
                 (A) (A) (A) (A) (A) (A) (A) (A) (A) (A) (A) (A)
                 (A) (A) (A) (A) (A) (A) (A) (A) (A) (A) (A) (A)
                 (A) (A) (A) (A) (A) (A) (A) (A) (A) (A) (A)
 The electronic state is 1-A.
 Alpha  occ. eigenvalues --  -19.19433 -19.18936 -19.18106 -19.18059 -19.17669
 Alpha  occ. eigenvalues --  -19.17255 -19.16673 -19.15536 -19.14985 -19.13693
 Alpha  occ. eigenvalues --  -19.13501 -10.30731 -10.29983 -10.26289 -10.25745
 Alpha  occ. eigenvalues --  -10.25131 -10.25097 -10.25002 -10.24570 -10.24380
 Alpha  occ. eigenvalues --  -10.23826 -10.23576 -10.23555  -1.10084  -1.09459
 Alpha  occ. eigenvalues --   -1.06290  -1.05192  -1.04420  -1.03715  -1.02892
 Alpha  occ. eigenvalues --   -1.02113  -1.01643  -1.00613  -1.00051  -0.82051
 Alpha  occ. eigenvalues --   -0.80340  -0.79480  -0.78009  -0.71781  -0.69805
 Alpha  occ. eigenvalues --   -0.66986  -0.64501  -0.63012  -0.62433  -0.61617
 Alpha  occ. eigenvalues --   -0.60062  -0.56402  -0.56071  -0.55218  -0.54537
 Alpha  occ. eigenvalues --   -0.54168  -0.53080  -0.52605  -0.51923  -0.51056
 Alpha  occ. eigenvalues --   -0.50702  -0.49847  -0.48939  -0.48341  -0.46737
 Alpha  occ. eigenvalues --   -0.46179  -0.45244  -0.44014  -0.43621  -0.43095
 Alpha  occ. eigenvalues --   -0.42280  -0.41930  -0.40957  -0.40336  -0.39961
 Alpha  occ. eigenvalues --   -0.39450  -0.38561  -0.38079  -0.35949  -0.35687
 Alpha  occ. eigenvalues --   -0.35454  -0.34935  -0.34518  -0.34198  -0.33598
 Alpha  occ. eigenvalues --   -0.32898  -0.31629  -0.31036  -0.30696  -0.29843
 Alpha  occ. eigenvalues --   -0.29232  -0.28684  -0.28516  -0.27974  -0.26596
 Alpha  occ. eigenvalues --   -0.26350
 Alpha virt. eigenvalues --   -0.02433  -0.02013  -0.01410  -0.00054   0.00381
 Alpha virt. eigenvalues --    0.00986   0.01964   0.02193   0.03237   0.03474
 Alpha virt. eigenvalues --    0.03975   0.04271   0.04728   0.05426   0.05723
 Alpha virt. eigenvalues --    0.06151   0.06394   0.07218   0.07848   0.07920
 Alpha virt. eigenvalues --    0.08726   0.08838   0.09008   0.09778   0.10105
 Alpha virt. eigenvalues --    0.10606   0.10798   0.11130   0.11534   0.11894
 Alpha virt. eigenvalues --    0.12356   0.12967   0.13046   0.13254   0.13940
 Alpha virt. eigenvalues --    0.14162   0.14191   0.14445   0.14636   0.15013
 Alpha virt. eigenvalues --    0.15589   0.15917   0.16637   0.16964   0.17061
 Alpha virt. eigenvalues --    0.17613   0.17696   0.17846   0.18309   0.18394
 Alpha virt. eigenvalues --    0.18964   0.19138   0.19528   0.19570   0.20185
 Alpha virt. eigenvalues --    0.20671   0.20980   0.21078   0.21574   0.21682
 Alpha virt. eigenvalues --    0.22092   0.22333   0.22661   0.22826   0.23170
 Alpha virt. eigenvalues --    0.23190   0.23936   0.24154   0.24410   0.24587
 Alpha virt. eigenvalues --    0.25004   0.25266   0.25449   0.25721   0.25797
 Alpha virt. eigenvalues --    0.26329   0.26574   0.26877   0.27188   0.27504
 Alpha virt. eigenvalues --    0.27718   0.27925   0.28167   0.28415   0.28752
 Alpha virt. eigenvalues --    0.29212   0.29328   0.29815   0.29962   0.30416
 Alpha virt. eigenvalues --    0.30949   0.31276   0.31458   0.32045   0.32325
 Alpha virt. eigenvalues --    0.32585   0.32939   0.33327   0.33438   0.33807
 Alpha virt. eigenvalues --    0.34075   0.34508   0.34663   0.34930   0.35476
 Alpha virt. eigenvalues --    0.35755   0.36214   0.36677   0.37044   0.37389
 Alpha virt. eigenvalues --    0.37438   0.37818   0.38379   0.38990   0.39405
 Alpha virt. eigenvalues --    0.39876   0.40781   0.41079   0.41483   0.41683
 Alpha virt. eigenvalues --    0.41957   0.42454   0.42866   0.43077   0.43904
 Alpha virt. eigenvalues --    0.44629   0.45017   0.45584   0.46150   0.46591
 Alpha virt. eigenvalues --    0.47145   0.47897   0.47976   0.49097   0.50219
 Alpha virt. eigenvalues --    0.50936   0.51307   0.53874   0.55889   0.58413
 Alpha virt. eigenvalues --    0.59492   0.59796   0.60918   0.61294   0.61861
 Alpha virt. eigenvalues --    0.62690   0.63975   0.64184   0.65130   0.65455
 Alpha virt. eigenvalues --    0.66164   0.66500   0.68251   0.69461   0.69770
 Alpha virt. eigenvalues --    0.70328   0.70817   0.71752   0.72236   0.72572
 Alpha virt. eigenvalues --    0.73883   0.74533   0.74823   0.75677   0.76452
 Alpha virt. eigenvalues --    0.76511   0.77381   0.78445   0.78805   0.79816
 Alpha virt. eigenvalues --    0.81336   0.81895   0.82242   0.82598   0.84444
 Alpha virt. eigenvalues --    0.85618   0.86378   0.86770   0.88222   0.88802
 Alpha virt. eigenvalues --    0.89314   0.90184   0.90444   0.90652   0.91223
 Alpha virt. eigenvalues --    0.91939   0.92744   0.93115   0.93283   0.93714
 Alpha virt. eigenvalues --    0.94179   0.94508   0.95284   0.95832   0.96355
 Alpha virt. eigenvalues --    0.96434   0.97314   0.98033   0.98092   0.99047
 Alpha virt. eigenvalues --    0.99538   0.99935   1.00208   1.00514   1.01956
 Alpha virt. eigenvalues --    1.02705   1.04267   1.04277   1.04743   1.05511
 Alpha virt. eigenvalues --    1.06310   1.06337   1.07516   1.07926   1.08415
 Alpha virt. eigenvalues --    1.08619   1.09798   1.09973   1.10650   1.11500
 Alpha virt. eigenvalues --    1.12271   1.12676   1.13160   1.13649   1.13897
 Alpha virt. eigenvalues --    1.14648   1.15470   1.15869   1.16131   1.16700
 Alpha virt. eigenvalues --    1.17625   1.18134   1.18524   1.19078   1.19367
 Alpha virt. eigenvalues --    1.19629   1.20088   1.21168   1.21656   1.22171
 Alpha virt. eigenvalues --    1.22561   1.22903   1.23719   1.24016   1.24439
 Alpha virt. eigenvalues --    1.24913   1.25391   1.26086   1.26523   1.27566
 Alpha virt. eigenvalues --    1.28609   1.28804   1.29480   1.30102   1.30823
 Alpha virt. eigenvalues --    1.31083   1.32395   1.33076   1.33332   1.34156
 Alpha virt. eigenvalues --    1.34260   1.34726   1.35229   1.36503   1.36755
 Alpha virt. eigenvalues --    1.36898   1.37661   1.38501   1.39340   1.39716
 Alpha virt. eigenvalues --    1.40375   1.41257   1.42100   1.42392   1.43138
 Alpha virt. eigenvalues --    1.43896   1.44387   1.45146   1.45972   1.47509
 Alpha virt. eigenvalues --    1.47797   1.48047   1.48497   1.49790   1.50450
 Alpha virt. eigenvalues --    1.51908   1.52164   1.53167   1.54307   1.55149
 Alpha virt. eigenvalues --    1.57042   1.57675   1.58290   1.59050   1.59417
 Alpha virt. eigenvalues --    1.59832   1.60179   1.61805   1.62347   1.63849
 Alpha virt. eigenvalues --    1.64719   1.65015   1.65959   1.66743   1.67488
 Alpha virt. eigenvalues --    1.69127   1.69688   1.70693   1.71226   1.71985
 Alpha virt. eigenvalues --    1.72364   1.73817   1.74544   1.74599   1.75178
 Alpha virt. eigenvalues --    1.76856   1.77813   1.78938   1.79714   1.81129
 Alpha virt. eigenvalues --    1.81722   1.83989   1.85017   1.85463   1.85555
 Alpha virt. eigenvalues --    1.86722   1.87455   1.89080   1.89804   1.91234
 Alpha virt. eigenvalues --    1.92703   1.92784   1.93143   1.94319   1.94932
 Alpha virt. eigenvalues --    1.95480   1.97176   1.97974   1.99667   2.00035
 Alpha virt. eigenvalues --    2.00724   2.03147   2.04261   2.05047   2.05941
 Alpha virt. eigenvalues --    2.07616   2.08527   2.09435   2.10346   2.13352
 Alpha virt. eigenvalues --    2.14398   2.15612   2.16358   2.18758   2.20698
 Alpha virt. eigenvalues --    2.22763   2.23095   2.23305   2.24536   2.26495
 Alpha virt. eigenvalues --    2.27773   2.28307   2.28856   2.30382   2.31653
 Alpha virt. eigenvalues --    2.33592   2.34175   2.36338   2.37159   2.40476
 Alpha virt. eigenvalues --    2.41823   2.43703   2.44446   2.46160   2.48447
 Alpha virt. eigenvalues --    2.50971   2.51887   2.52788   2.54898   2.55144
 Alpha virt. eigenvalues --    2.56116   2.57777   2.58742   2.59309   2.60206
 Alpha virt. eigenvalues --    2.61606   2.61935   2.63829   2.65806   2.66746
 Alpha virt. eigenvalues --    2.68029   2.68311   2.69495   2.70046   2.71697
 Alpha virt. eigenvalues --    2.72877   2.74536   2.75812   2.78479   2.79796
 Alpha virt. eigenvalues --    2.80867   2.81170   2.82145   2.82716   2.83002
 Alpha virt. eigenvalues --    2.84270   2.86441   2.87081   2.87659   2.88567
 Alpha virt. eigenvalues --    2.89638   2.90339   2.91040   2.91777   2.92235
 Alpha virt. eigenvalues --    2.93456   2.93515   2.95657   2.96342   2.97611
 Alpha virt. eigenvalues --    2.98981   2.99779   3.00078   3.01306   3.02421
 Alpha virt. eigenvalues --    3.03146   3.04131   3.04318   3.05528   3.07291
 Alpha virt. eigenvalues --    3.08026   3.08802   3.09275   3.09685   3.10506
 Alpha virt. eigenvalues --    3.11843   3.12706   3.13293   3.15283   3.18032
 Alpha virt. eigenvalues --    3.19175   3.19680   3.20730   3.21313   3.21599
 Alpha virt. eigenvalues --    3.22916   3.23846   3.25121   3.26674   3.27837
 Alpha virt. eigenvalues --    3.28843   3.29687   3.30871   3.32182   3.32881
 Alpha virt. eigenvalues --    3.34308   3.35807   3.36141   3.38039   3.39515
 Alpha virt. eigenvalues --    3.40445   3.41679   3.42602   3.43164   3.43721
 Alpha virt. eigenvalues --    3.45060   3.47737   3.50391   3.51546   3.51645
 Alpha virt. eigenvalues --    3.52349   3.56884   3.58431   3.60043   3.60389
 Alpha virt. eigenvalues --    3.63899   3.64679   3.65213   3.65971   3.66776
 Alpha virt. eigenvalues --    3.68007   3.70758   3.71514   3.72931   3.73753
 Alpha virt. eigenvalues --    3.75685   3.76514   3.77456   3.78880   3.79054
 Alpha virt. eigenvalues --    3.80461   3.82237   3.83920   3.84638   3.87401
 Alpha virt. eigenvalues --    3.87937   3.88006   3.90442   3.90787   3.91363
 Alpha virt. eigenvalues --    3.93926   3.95198   3.99346   4.02168   4.03375
 Alpha virt. eigenvalues --    4.05700   4.06333   4.07582   4.11905   4.14798
 Alpha virt. eigenvalues --    4.15782   4.16634   4.18262   4.18833   4.19793
 Alpha virt. eigenvalues --    4.20301   4.22425   4.23350   4.23683   4.25553
 Alpha virt. eigenvalues --    4.28469   4.29093   4.29545   4.30553   4.31468
 Alpha virt. eigenvalues --    4.32245   4.32639   4.32935   4.35273   4.36583
 Alpha virt. eigenvalues --    4.36911   4.37664   4.38031   4.38809   4.39775
 Alpha virt. eigenvalues --    4.40549   4.40809   4.42455   4.43108   4.43759
 Alpha virt. eigenvalues --    4.44398   4.45934   4.46296   4.47293   4.47759
 Alpha virt. eigenvalues --    4.48090   4.49372   4.50105   4.50741   4.51077
 Alpha virt. eigenvalues --    4.51655   4.52188   4.53169   4.53778   4.54850
 Alpha virt. eigenvalues --    4.55219   4.56492   4.56711   4.57180   4.58229
 Alpha virt. eigenvalues --    4.58745   4.59573   4.61412   4.61611   4.62781
 Alpha virt. eigenvalues --    4.63403   4.63663   4.64102   4.64511   4.65925
 Alpha virt. eigenvalues --    4.66288   4.67557   4.67714   4.68364   4.68769
 Alpha virt. eigenvalues --    4.69067   4.70066   4.71022   4.71942   4.72584
 Alpha virt. eigenvalues --    4.73585   4.74311   4.74894   4.75713   4.76290
 Alpha virt. eigenvalues --    4.76849   4.77157   4.78205   4.78493   4.79061
 Alpha virt. eigenvalues --    4.80478   4.81155   4.81510   4.82676   4.82795
 Alpha virt. eigenvalues --    4.83779   4.84170   4.84427   4.85337   4.86833
 Alpha virt. eigenvalues --    4.87165   4.88122   4.89677   4.90545   4.90935
 Alpha virt. eigenvalues --    4.91563   4.93370   4.94112   4.94782   4.96740
 Alpha virt. eigenvalues --    4.97694   4.98827   4.99658   5.00770   5.03067
 Alpha virt. eigenvalues --    5.04196   5.05820   5.06984   5.08880   5.11225
 Alpha virt. eigenvalues --    5.11753   5.14845   5.15983   5.16396   5.17899
 Alpha virt. eigenvalues --    5.19635   5.20815   5.21708   5.22688   5.24107
 Alpha virt. eigenvalues --    5.24907   5.26922   5.27919   5.28706   5.30551
 Alpha virt. eigenvalues --    5.32093   5.33229   5.34380   5.35308   5.36065
 Alpha virt. eigenvalues --    5.37652   5.38174   5.39196   5.40278   5.41595
 Alpha virt. eigenvalues --    5.41815   5.42531   5.43451   5.43897   5.44374
 Alpha virt. eigenvalues --    5.45100   5.45735   5.46453   5.47440   5.48294
 Alpha virt. eigenvalues --    5.49080   5.50019   5.51278   5.51812   5.52674
 Alpha virt. eigenvalues --    5.52874   5.55272   5.56655   5.56987   5.59578
 Alpha virt. eigenvalues --    5.60665   5.62015   5.63274   5.63798   5.66274
 Alpha virt. eigenvalues --    5.68573   5.70330   5.70996   5.71288   5.72900
 Alpha virt. eigenvalues --    5.76772   5.77032   5.79696   5.80014   5.80992
 Alpha virt. eigenvalues --    5.85583   5.86882   5.88191   5.88718   5.90798
 Alpha virt. eigenvalues --    5.91004   5.92814   5.93128   5.93930   5.95217
 Alpha virt. eigenvalues --    5.96039   5.96364   5.97804   5.99606   6.00289
 Alpha virt. eigenvalues --    6.02654   6.04010   6.05075   6.05587   6.05911
 Alpha virt. eigenvalues --    6.08768   6.10159   6.10893   6.13427   6.14074
 Alpha virt. eigenvalues --    6.16264   6.17322   6.19660   6.21416   6.22667
 Alpha virt. eigenvalues --    6.24649   6.26718   6.29754   6.35439   6.37477
 Alpha virt. eigenvalues --    6.59303   6.69879   7.00178   7.04845   7.09377
 Alpha virt. eigenvalues --    7.10879   7.17750   7.19585   7.24026   7.25862
 Alpha virt. eigenvalues --    7.30425   7.40985   7.52068   7.57580   7.75352
 Alpha virt. eigenvalues --    7.91908   8.29968  12.06263  12.22009  12.24560
 Alpha virt. eigenvalues --   12.32587  12.50399  12.59253  12.86650  12.95720
 Alpha virt. eigenvalues --   13.03216  13.10257  13.28123  13.39566  13.45313
 Alpha virt. eigenvalues --   13.46191  13.50976  13.52040  13.54397  13.62174
 Alpha virt. eigenvalues --   13.63376  13.87253  13.92066  14.18122  14.33644
          Condensed to atoms (all electrons):
              1          2          3          4          5          6
     1  O    8.033656   0.390202  -0.149303  -0.011617   0.020963   0.019753
     2  C    0.390202   6.472300  -0.308983  -0.005406  -0.069684  -0.797721
     3  C   -0.149303  -0.308983   7.149851   0.228442  -0.016335   0.103021
     4  O   -0.011617  -0.005406   0.228442   8.092576   0.245898  -0.125597
     5  H    0.020963  -0.069684  -0.016335   0.245898   0.418500   0.050007
     6  C    0.019753  -0.797721   0.103021  -0.125597   0.050007   7.277792
     7  O    0.000069   0.029177  -0.087571   0.006857  -0.000456   0.240851
     8  H    0.000012  -0.005754   0.002218  -0.000299   0.000014  -0.004457
     9  C   -0.014553   0.065201  -0.398862   0.011383  -0.002024   0.140018
    10  O   -0.011261   0.030068   0.011572  -0.000164  -0.000009   0.000222
    11  H    0.001410  -0.010340  -0.001053   0.000001   0.000000   0.000240
    12  C   -0.098311  -0.537073  -0.043691   0.013266   0.010809   0.123881
    13  O   -0.000111  -0.099014  -0.029770  -0.001337  -0.000041   0.043537
    14  C   -0.004177   0.435962  -0.152149   0.013871   0.002220  -1.231897
    15  O   -0.000391   0.002535   0.007689   0.000561  -0.000037  -0.096990
    16  C    0.001524   0.049836  -0.187703  -0.002075   0.000725  -0.086121
    17  C    0.000307  -0.030573   0.009176   0.000112   0.000024   0.089826
    18  O    0.000006   0.005809  -0.002257  -0.000006   0.000000   0.002726
    19  H   -0.000005  -0.004235   0.004353   0.000002   0.000000  -0.000204
    20  C    0.000022  -0.003640  -0.002590  -0.000066   0.000001   0.058146
    21  O    0.000000  -0.000029   0.000040   0.000000   0.000000   0.000017
    22  H    0.000000   0.000001   0.000000   0.000000   0.000000  -0.000027
    23  C    0.000081   0.006730  -0.023784  -0.000219   0.000016  -0.052484
    24  O   -0.000003   0.000707   0.000279   0.000014  -0.000002   0.023654
    25  H    0.000000   0.000104   0.000052   0.000003   0.000000  -0.000683
    26  C   -0.000099  -0.011944  -0.019504   0.000579  -0.000008   0.025059
    27  O    0.000000  -0.000137   0.000541   0.000001   0.000000   0.002391
    28  C    0.000000   0.000404   0.000753   0.000013   0.000000  -0.015633
    29  O    0.000000   0.000016   0.000002   0.000000   0.000000  -0.000356
    30  H    0.000000   0.000000   0.000000   0.000000   0.000000   0.000004
    31  H    0.279001   0.001417  -0.005569   0.000369  -0.001950  -0.001039
    32  H   -0.000036  -0.025778  -0.014686  -0.000059   0.000009   0.045067
    33  H   -0.000682   0.018615  -0.070228   0.003134  -0.000160   0.292015
    34  H   -0.000350   0.047548   0.200716  -0.016489  -0.004085  -0.164619
    35  H   -0.013587   0.369175  -0.096530   0.003493   0.000097   0.002887
    36  H    0.003815   0.091485  -0.057792   0.000546   0.000002  -0.005475
    37  H    0.000174  -0.004025   0.004835   0.000001   0.000000  -0.001272
    38  H   -0.000586   0.020203  -0.023310   0.000066  -0.000001   0.005627
    39  H    0.000000   0.000008   0.000203   0.000000   0.000000   0.001949
    40  H    0.000000   0.000011   0.000312  -0.000002   0.000000  -0.007140
    41  H    0.000000  -0.000095   0.000848   0.000000   0.000000  -0.003901
    42  H   -0.000001  -0.002090   0.003554   0.000006   0.000000   0.012226
    43  H    0.000000   0.000283   0.000310   0.000000   0.000000   0.007123
    44  H    0.000000   0.000082  -0.000026   0.000000   0.000000   0.000543
    45  H    0.000000   0.000004   0.000006   0.000000   0.000000  -0.000128
              7          8          9         10         11         12
     1  O    0.000069   0.000012  -0.014553  -0.011261   0.001410  -0.098311
     2  C    0.029177  -0.005754   0.065201   0.030068  -0.010340  -0.537073
     3  C   -0.087571   0.002218  -0.398862   0.011572  -0.001053  -0.043691
     4  O    0.006857  -0.000299   0.011383  -0.000164   0.000001   0.013266
     5  H   -0.000456   0.000014  -0.002024  -0.000009   0.000000   0.010809
     6  C    0.240851  -0.004457   0.140018   0.000222   0.000240   0.123881
     7  O    8.126795   0.249049   0.000986   0.000006   0.000000   0.010574
     8  H    0.249049   0.356632   0.000400   0.000000   0.000000   0.001321
     9  C    0.000986   0.000400   7.284384   0.181768  -0.009724  -1.759054
    10  O    0.000006   0.000000   0.181768   8.158239   0.244156  -0.074905
    11  H    0.000000   0.000000  -0.009724   0.244156   0.419141   0.016018
    12  C    0.010574   0.001321  -1.759054  -0.074905   0.016018   9.233157
    13  O    0.005248  -0.000336   0.035251   0.002153  -0.001017   0.000793
    14  C   -0.077275  -0.024278  -0.266771   0.002917  -0.002202  -0.674955
    15  O    0.001038   0.009325  -0.023358  -0.000003  -0.000005   0.005783
    16  C    0.032009   0.027883  -0.073954  -0.000802  -0.000244   0.087409
    17  C    0.006460  -0.000607  -0.008107   0.000356   0.000027  -0.075101
    18  O   -0.000048  -0.000054   0.002303  -0.000099  -0.000002  -0.013367
    19  H   -0.000055  -0.000002   0.007002   0.000000   0.000000  -0.013490
    20  C    0.000958   0.001018   0.002024   0.000007   0.000013  -0.005486
    21  O   -0.000005  -0.000001   0.000152   0.000000   0.000000  -0.000033
    22  H    0.000000   0.000000   0.000000   0.000000   0.000000   0.000005
    23  C    0.038569   0.020278   0.001736  -0.000008   0.000000  -0.002168
    24  O   -0.074358   0.011965   0.000033   0.000000   0.000000  -0.000465
    25  H    0.002691  -0.001891  -0.000006   0.000000   0.000000  -0.000131
    26  C   -0.044160  -0.035818   0.011535  -0.000011  -0.000001   0.020438
    27  O    0.000238  -0.000133  -0.000012   0.000000   0.000000   0.000038
    28  C   -0.000580  -0.000178  -0.001188  -0.000001   0.000000   0.002173
    29  O    0.000002  -0.000001  -0.000009   0.000000   0.000000   0.000015
    30  H    0.000000   0.000000   0.000000   0.000000   0.000000   0.000000
    31  H   -0.000020   0.000000   0.001922  -0.001304  -0.000042  -0.009948
    32  H   -0.012167  -0.000395   0.005216   0.000040   0.000000   0.043440
    33  H   -0.018312  -0.002112   0.005264   0.000014   0.000000   0.041324
    34  H    0.009220  -0.000205   0.011694  -0.000097   0.000000   0.024264
    35  H    0.000969   0.000001   0.009876  -0.001368  -0.000015  -0.112286
    36  H   -0.000207   0.000003   0.088859   0.004023  -0.000223   0.031762
    37  H   -0.000015   0.000000   0.398228  -0.010959  -0.012972  -0.030467
    38  H    0.000022   0.000000   0.635615  -0.053778   0.003027  -0.280270
    39  H   -0.000304   0.000188  -0.000004   0.000000   0.000000  -0.000062
    40  H    0.002107   0.001704  -0.000015   0.000000   0.000000   0.000282
    41  H   -0.000418   0.000123   0.000043   0.000000   0.000000   0.000473
    42  H   -0.002833  -0.000218  -0.000626   0.000000   0.000000  -0.000245
    43  H   -0.000013  -0.000002  -0.000260   0.000000   0.000000  -0.000829
    44  H    0.000008   0.000000  -0.000045   0.000000   0.000000   0.000009
    45  H    0.000002   0.000000   0.000005   0.000000   0.000000   0.000015
             13         14         15         16         17         18
     1  O   -0.000111  -0.004177  -0.000391   0.001524   0.000307   0.000006
     2  C   -0.099014   0.435962   0.002535   0.049836  -0.030573   0.005809
     3  C   -0.029770  -0.152149   0.007689  -0.187703   0.009176  -0.002257
     4  O   -0.001337   0.013871   0.000561  -0.002075   0.000112  -0.000006
     5  H   -0.000041   0.002220  -0.000037   0.000725   0.000024   0.000000
     6  C    0.043537  -1.231897  -0.096990  -0.086121   0.089826   0.002726
     7  O    0.005248  -0.077275   0.001038   0.032009   0.006460  -0.000048
     8  H   -0.000336  -0.024278   0.009325   0.027883  -0.000607  -0.000054
     9  C    0.035251  -0.266771  -0.023358  -0.073954  -0.008107   0.002303
    10  O    0.002153   0.002917  -0.000003  -0.000802   0.000356  -0.000099
    11  H   -0.001017  -0.002202  -0.000005  -0.000244   0.000027  -0.000002
    12  C    0.000793  -0.674955   0.005783   0.087409  -0.075101  -0.013367
    13  O    7.985068   0.162662  -0.033950   0.017981   0.008017  -0.018893
    14  C    0.162662   8.554767   0.318941  -0.718462  -0.398482  -0.003530
    15  O   -0.033950   0.318941   7.820516   0.114822   0.001208  -0.013076
    16  C    0.017981  -0.718462   0.114822  11.358513  -2.311411  -0.009994
    17  C    0.008017  -0.398482   0.001208  -2.311411   8.077994   0.262270
    18  O   -0.018893  -0.003530  -0.013076  -0.009994   0.262270   8.070422
    19  H    0.010640   0.003250   0.024142  -0.103898   0.050323   0.238783
    20  C   -0.016894  -0.097080   0.018756  -1.248463   0.632970  -0.104722
    21  O   -0.000365   0.006066   0.000137   0.047508  -0.133456   0.003755
    22  H    0.000003  -0.000853  -0.000018  -0.015422   0.016385   0.000117
    23  C    0.001214  -0.097922  -0.006923   0.183202  -0.226738   0.013301
    24  O   -0.000340   0.064364  -0.015569  -0.009899   0.002925   0.000051
    25  H   -0.000024  -0.008584   0.001352  -0.009877  -0.000176   0.000000
    26  C   -0.019825  -0.226502  -0.062226  -2.206068   0.357189   0.013661
    27  O    0.000405   0.007451   0.001830   0.029791  -0.000435  -0.001411
    28  C    0.002936  -0.013082   0.003663   0.714569  -0.267476  -0.004219
    29  O    0.000058  -0.003389  -0.000168  -0.024761  -0.036809   0.001090
    30  H    0.000000   0.000031  -0.000001   0.002098   0.013309  -0.000034
    31  H   -0.000562   0.001415  -0.000005   0.000103  -0.000030   0.000000
    32  H   -0.034527   0.258574  -0.028329  -0.014778   0.019246  -0.002162
    33  H    0.005289   0.011863  -0.006276  -0.010900  -0.001068   0.000119
    34  H    0.004413   0.108385   0.002767   0.000886   0.000158   0.000049
    35  H    0.007985   0.078718   0.000752  -0.004543   0.001124   0.000033
    36  H   -0.023587   0.117371  -0.001920  -0.004862   0.004974  -0.000235
    37  H   -0.005855  -0.010777  -0.000569   0.005184  -0.001487  -0.000171
    38  H   -0.005137   0.004788  -0.000903  -0.005273   0.003550  -0.000061
    39  H    0.000039  -0.000129   0.000267   0.030808   0.007198   0.000011
    40  H   -0.000039   0.001377   0.002945   0.042922  -0.005600   0.000054
    41  H   -0.000285   0.034309  -0.001869  -0.007184  -0.071253   0.000739
    42  H   -0.006382  -0.039129  -0.014920   0.110894   0.015930  -0.001658
    43  H   -0.000823  -0.011431  -0.002821  -0.063788   0.303964  -0.016784
    44  H    0.000061  -0.010400   0.000626   0.081179  -0.158848   0.008801
    45  H    0.000016   0.001174   0.000694   0.035997  -0.044066   0.000970
             19         20         21         22         23         24
     1  O   -0.000005   0.000022   0.000000   0.000000   0.000081  -0.000003
     2  C   -0.004235  -0.003640  -0.000029   0.000001   0.006730   0.000707
     3  C    0.004353  -0.002590   0.000040   0.000000  -0.023784   0.000279
     4  O    0.000002  -0.000066   0.000000   0.000000  -0.000219   0.000014
     5  H    0.000000   0.000001   0.000000   0.000000   0.000016  -0.000002
     6  C   -0.000204   0.058146   0.000017  -0.000027  -0.052484   0.023654
     7  O   -0.000055   0.000958  -0.000005   0.000000   0.038569  -0.074358
     8  H   -0.000002   0.001018  -0.000001   0.000000   0.020278   0.011965
     9  C    0.007002   0.002024   0.000152   0.000000   0.001736   0.000033
    10  O    0.000000   0.000007   0.000000   0.000000  -0.000008   0.000000
    11  H    0.000000   0.000013   0.000000   0.000000   0.000000   0.000000
    12  C   -0.013490  -0.005486  -0.000033   0.000005  -0.002168  -0.000465
    13  O    0.010640  -0.016894  -0.000365   0.000003   0.001214  -0.000340
    14  C    0.003250  -0.097080   0.006066  -0.000853  -0.097922   0.064364
    15  O    0.024142   0.018756   0.000137  -0.000018  -0.006923  -0.015569
    16  C   -0.103898  -1.248463   0.047508  -0.015422   0.183202  -0.009899
    17  C    0.050323   0.632970  -0.133456   0.016385  -0.226738   0.002925
    18  O    0.238783  -0.104722   0.003755   0.000117   0.013301   0.000051
    19  H    0.380067   0.016101  -0.000455   0.000020  -0.004677   0.000025
    20  C    0.016101   6.671499   0.185823  -0.013935   0.014303  -0.005426
    21  O   -0.000455   0.185823   8.077366   0.237553   0.000847   0.000010
    22  H    0.000020  -0.013935   0.237553   0.436104   0.000100   0.000000
    23  C   -0.004677   0.014303   0.000847   0.000100   6.593415  -0.092831
    24  O    0.000025  -0.005426   0.000010   0.000000  -0.092831   8.226393
    25  H    0.000000   0.000962   0.000000   0.000000   0.027016   0.243903
    26  C    0.010448   0.446811  -0.013916   0.008190  -0.865101   0.122015
    27  O    0.000148  -0.086186   0.001738  -0.000250  -0.081257   0.003024
    28  C    0.003972  -0.560933   0.027250  -0.011077  -0.109239   0.008537
    29  O   -0.000010  -0.062926  -0.008367   0.018076   0.008898   0.000026
    30  H    0.000000  -0.041130  -0.000001  -0.002571  -0.000983   0.000000
    31  H    0.000000   0.000000   0.000000   0.000000   0.000001   0.000000
    32  H    0.000417   0.007811   0.000002   0.000000  -0.001404   0.000079
    33  H   -0.000018   0.000103   0.000000   0.000000   0.000318   0.000766
    34  H    0.000000  -0.000069   0.000000   0.000000   0.000918   0.000111
    35  H    0.000002  -0.000018   0.000000   0.000000   0.000076   0.000014
    36  H    0.000099   0.000087  -0.000001   0.000000   0.000080  -0.000001
    37  H    0.000273  -0.000692  -0.000001   0.000000  -0.000006   0.000000
    38  H    0.000140   0.000193   0.000000   0.000000  -0.000002   0.000000
    39  H    0.000000  -0.001841  -0.000006   0.000000   0.389649  -0.017365
    40  H   -0.000001   0.001014   0.000003   0.000000   0.591277  -0.066069
    41  H    0.000046  -0.011063   0.000221   0.000003   0.106101  -0.000782
    42  H    0.000397   0.061899  -0.000035   0.000005  -0.020192   0.000310
    43  H   -0.003802  -0.005038   0.000165  -0.000222   0.014241  -0.000024
    44  H   -0.000124   0.315455  -0.015736  -0.005329   0.008632   0.000009
    45  H    0.000004  -0.068714   0.001982   0.000195   0.003516   0.000032
             25         26         27         28         29         30
     1  O    0.000000  -0.000099   0.000000   0.000000   0.000000   0.000000
     2  C    0.000104  -0.011944  -0.000137   0.000404   0.000016   0.000000
     3  C    0.000052  -0.019504   0.000541   0.000753   0.000002   0.000000
     4  O    0.000003   0.000579   0.000001   0.000013   0.000000   0.000000
     5  H    0.000000  -0.000008   0.000000   0.000000   0.000000   0.000000
     6  C   -0.000683   0.025059   0.002391  -0.015633  -0.000356   0.000004
     7  O    0.002691  -0.044160   0.000238  -0.000580   0.000002   0.000000
     8  H   -0.001891  -0.035818  -0.000133  -0.000178  -0.000001   0.000000
     9  C   -0.000006   0.011535  -0.000012  -0.001188  -0.000009   0.000000
    10  O    0.000000  -0.000011   0.000000  -0.000001   0.000000   0.000000
    11  H    0.000000  -0.000001   0.000000   0.000000   0.000000   0.000000
    12  C   -0.000131   0.020438   0.000038   0.002173   0.000015   0.000000
    13  O   -0.000024  -0.019825   0.000405   0.002936   0.000058   0.000000
    14  C   -0.008584  -0.226502   0.007451  -0.013082  -0.003389   0.000031
    15  O    0.001352  -0.062226   0.001830   0.003663  -0.000168  -0.000001
    16  C   -0.009877  -2.206068   0.029791   0.714569  -0.024761   0.002098
    17  C   -0.000176   0.357189  -0.000435  -0.267476  -0.036809   0.013309
    18  O    0.000000   0.013661  -0.001411  -0.004219   0.001090  -0.000034
    19  H    0.000000   0.010448   0.000148   0.003972  -0.000010   0.000000
    20  C    0.000962   0.446811  -0.086186  -0.560933  -0.062926  -0.041130
    21  O    0.000000  -0.013916   0.001738   0.027250  -0.008367  -0.000001
    22  H    0.000000   0.008190  -0.000250  -0.011077   0.018076  -0.002571
    23  C    0.027016  -0.865101  -0.081257  -0.109239   0.008898  -0.000983
    24  O    0.243903   0.122015   0.003024   0.008537   0.000026   0.000000
    25  H    0.414380  -0.009851  -0.000700  -0.002212  -0.000001   0.000000
    26  C   -0.009851   9.109932   0.160855  -0.719565   0.005925  -0.000645
    27  O   -0.000700   0.160855   7.860578   0.250314  -0.018165   0.002877
    28  C   -0.002212  -0.719565   0.250314   5.929453   0.278582   0.011628
    29  O   -0.000001   0.005925  -0.018165   0.278582   8.086762   0.270797
    30  H    0.000000  -0.000645   0.002877   0.011628   0.270797   0.401764
    31  H    0.000000   0.000000   0.000000   0.000000   0.000000   0.000000
    32  H    0.000004   0.029954   0.000249  -0.001270  -0.000003   0.000000
    33  H   -0.000003   0.000187   0.000004   0.000028   0.000000   0.000000
    34  H    0.000000  -0.000491   0.000000  -0.000005   0.000000   0.000000
    35  H    0.000000  -0.000386   0.000000  -0.000004   0.000000   0.000000
    36  H    0.000000  -0.000605   0.000000  -0.000043   0.000000   0.000000
    37  H    0.000000   0.000268   0.000000   0.000043   0.000000   0.000000
    38  H    0.000000  -0.000014   0.000000  -0.000028   0.000000   0.000000
    39  H   -0.014619  -0.071509  -0.002394   0.003943  -0.000107   0.000000
    40  H    0.000129  -0.275471   0.002336   0.002336  -0.000035   0.000000
    41  H   -0.000147   0.183014  -0.032295   0.041198  -0.000122   0.000003
    42  H   -0.000007   0.129721   0.003857  -0.005487  -0.000677   0.000003
    43  H    0.000000   0.053243   0.001516  -0.035619   0.000886   0.000021
    44  H    0.000000   0.013044  -0.001993   0.024177   0.003659   0.000042
    45  H    0.000000   0.009910  -0.039725   0.387313  -0.013565  -0.008969
             31         32         33         34         35         36
     1  O    0.279001  -0.000036  -0.000682  -0.000350  -0.013587   0.003815
     2  C    0.001417  -0.025778   0.018615   0.047548   0.369175   0.091485
     3  C   -0.005569  -0.014686  -0.070228   0.200716  -0.096530  -0.057792
     4  O    0.000369  -0.000059   0.003134  -0.016489   0.003493   0.000546
     5  H   -0.001950   0.000009  -0.000160  -0.004085   0.000097   0.000002
     6  C   -0.001039   0.045067   0.292015  -0.164619   0.002887  -0.005475
     7  O   -0.000020  -0.012167  -0.018312   0.009220   0.000969  -0.000207
     8  H    0.000000  -0.000395  -0.002112  -0.000205   0.000001   0.000003
     9  C    0.001922   0.005216   0.005264   0.011694   0.009876   0.088859
    10  O   -0.001304   0.000040   0.000014  -0.000097  -0.001368   0.004023
    11  H   -0.000042   0.000000   0.000000   0.000000  -0.000015  -0.000223
    12  C   -0.009948   0.043440   0.041324   0.024264  -0.112286   0.031762
    13  O   -0.000562  -0.034527   0.005289   0.004413   0.007985  -0.023587
    14  C    0.001415   0.258574   0.011863   0.108385   0.078718   0.117371
    15  O   -0.000005  -0.028329  -0.006276   0.002767   0.000752  -0.001920
    16  C    0.000103  -0.014778  -0.010900   0.000886  -0.004543  -0.004862
    17  C   -0.000030   0.019246  -0.001068   0.000158   0.001124   0.004974
    18  O    0.000000  -0.002162   0.000119   0.000049   0.000033  -0.000235
    19  H    0.000000   0.000417  -0.000018   0.000000   0.000002   0.000099
    20  C    0.000000   0.007811   0.000103  -0.000069  -0.000018   0.000087
    21  O    0.000000   0.000002   0.000000   0.000000   0.000000  -0.000001
    22  H    0.000000   0.000000   0.000000   0.000000   0.000000   0.000000
    23  C    0.000001  -0.001404   0.000318   0.000918   0.000076   0.000080
    24  O    0.000000   0.000079   0.000766   0.000111   0.000014  -0.000001
    25  H    0.000000   0.000004  -0.000003   0.000000   0.000000   0.000000
    26  C    0.000000   0.029954   0.000187  -0.000491  -0.000386  -0.000605
    27  O    0.000000   0.000249   0.000004   0.000000   0.000000   0.000000
    28  C    0.000000  -0.001270   0.000028  -0.000005  -0.000004  -0.000043
    29  O    0.000000  -0.000003   0.000000   0.000000   0.000000   0.000000
    30  H    0.000000   0.000000   0.000000   0.000000   0.000000   0.000000
    31  H    0.390609   0.000001   0.000017  -0.000161  -0.012823  -0.000168
    32  H    0.000001   0.565050   0.003476   0.001042  -0.000043   0.001759
    33  H    0.000017   0.003476   0.569509   0.006091   0.002126  -0.000088
    34  H   -0.000161   0.001042   0.006091   0.633655   0.007313   0.002182
    35  H   -0.012823  -0.000043   0.002126   0.007313   0.627949   0.006838
    36  H   -0.000168   0.001759  -0.000088   0.002182   0.006838   0.625647
    37  H    0.000000  -0.000032   0.000000   0.000006   0.000045  -0.004758
    38  H    0.000015  -0.000015  -0.000023  -0.000004   0.004509   0.006071
    39  H    0.000000   0.000002   0.000001   0.000000   0.000000   0.000000
    40  H    0.000000   0.000066  -0.000005   0.000000   0.000000   0.000000
    41  H    0.000000  -0.000008  -0.000004   0.000000   0.000000   0.000000
    42  H    0.000000   0.007826  -0.000011  -0.000007   0.000000  -0.000010
    43  H    0.000000  -0.000004  -0.000004   0.000000   0.000000   0.000000
    44  H    0.000000  -0.000003   0.000000   0.000000   0.000000   0.000000
    45  H    0.000000   0.000000   0.000000   0.000000   0.000000   0.000000
             37         38         39         40         41         42
[...]
 10729,0.00001938,0.00021597,0.00017959,0.00022297,0.00068730,-0.000033
 67,-0.00482514,-0.01690360,-0.00391241,0.01075708,-0.34349373,-0.02892
 701,-0.03494765,-0.01500604,-0.00123869,-0.00497315,0.00240554,-0.0008
 7828,0.00091270,-0.00056844,-0.00008786,0.00010631,-0.00067057,-0.0003
 8385,0.00089775,0.00062064,-0.00003784,0.00016081,0.,0.00006050,-0.000
 09214,0.00031295,0.00028079,0.00024905,0.00018683,0.00008844,-0.000117
 52,0.00002582,-0.00002213,-0.00001952,-0.00774997,-0.00087906,-0.00145
 560,0.00207318,0.00088121,-0.00017797,-0.00018553,0.00003527,-0.000089
 93,0.00006614,-0.00001220,-0.00011558,-0.00000074,-0.00002231,-0.00000
 998,-0.00000147,-0.00000335,-0.00000477,0.00155193,0.00025553,0.000905
 26,0.00002669,0.00022985,-0.00032133,0.00000859,-0.00000147,0.00003489
 ,0.00001427,0.00000061,-0.00000998,0.00002996,0.00000892,0.00004266,-0
 .00000683,0.00001449,0.00000069,0.00001583,0.00000423,-0.00001212,0.00
 021100,-0.00001507,0.00002472,0.00038125,-0.00075623,0.00016995,0.0005
 6536,-0.00065317,-0.00032413,0.37360228,0.00000276,-0.00002463,0.00001
 706,-0.00000112,0.00004054,-0.00001583,0.00002019,0.00001315,0.0000090
 3,0.00000535,-0.00002321,-0.00001616,-0.00000497,0.00000953,-0.0000006
 3,-0.00005150,0.00004930,0.00003413,0.00018128,-0.00002529,-0.00015255
 ,-0.00017602,-0.00027811,0.00010140,0.00002019,-0.00001738,-0.00000942
 ,-0.00000805,0.00001903,0.00002456,0.00000355,-0.00000242,-0.00000366,
 -0.00005974,0.00003219,-0.00002327,0.00028924,-0.00009761,0.00022546,-
 0.00097604,0.00124962,-0.00094339,-0.00786649,0.00036133,0.00420603,-0
 .02897492,-0.04617173,-0.00521516,0.03171665,0.00039393,0.00623917,-0.
 00200711,0.00301894,0.00034891,0.00044184,-0.00017091,-0.00023026,0.00
 104252,0.00108362,-0.00066518,-0.00044076,-0.00017633,-0.00012721,-0.0
 0008773,0.00000062,0.00000216,-0.00165735,0.00201930,0.00040798,0.0003
 9199,0.00000866,-0.00012488,-0.00002493,-0.00002569,-0.00000063,-0.029
 47373,-0.00509559,-0.00672432,0.00151542,0.00163193,0.00255318,0.00020
 010,-0.00036926,-0.00003238,-0.00003108,0.00010771,0.00009634,-0.00001
 233,0.00000541,0.00000416,0.00000094,0.00000095,-0.00000205,0.00035874
 ,0.00025847,0.00034076,0.00005688,0.00001917,-0.00004380,0.00000917,0.
 00000567,0.00001278,0.00000166,-0.00000555,0.00000039,-0.00000476,0.00
 001202,-0.00000456,0.00000620,-0.00001328,-0.00000010,-0.00000630,-0.0
 0000365,0.00000380,0.00039252,0.00024522,0.00013041,0.00098249,-0.0002
 8829,0.00038161,-0.00085845,-0.00331443,-0.00360117,0.03383053,0.05048
 400,-0.00000870,-0.00001538,-0.00003016,0.00001126,0.00001862,0.000032
 13,-0.00003170,0.00002914,0.00002825,-0.00002195,-0.00000575,-0.000008
 29,0.00000409,-0.00000014,-0.00000077,0.00027267,0.00026819,-0.0001295
 0,-0.00026130,-0.00000827,0.00001686,0.00009991,-0.00004850,-0.0000907
 2,-0.00001889,0.00002799,-0.00001161,-0.00000153,-0.00003057,-0.000012
 26,0.00000176,0.00000007,-0.00000386,-0.00001670,-0.00009196,-0.000127
 63,-0.00077604,-0.00028140,-0.00015679,0.00763494,0.00066616,0.0023692
 9,0.03746082,0.00802989,-0.01762072,-0.04238699,-0.00545130,-0.0434765
 2,-0.01372074,-0.00097318,-0.00142896,0.00159570,-0.00060845,0.0007064
 9,0.00004934,0.00025931,-0.00008618,-0.00145370,0.00002817,0.00013935,
 0.00040566,-0.00000363,-0.00004443,-0.00003528,-0.00000948,-0.00003175
 ,-0.00007983,0.00115888,0.00028587,0.00014449,0.00003607,0.00009950,-0
 .00001410,0.00003347,0.00002911,-0.02167192,-0.00390590,-0.00363385,0.
 00053898,0.00034221,0.00236153,-0.00050619,0.00027116,-0.00022594,0.00
 008542,0.00001153,-0.00018586,0.00002076,-0.00000773,0.00000422,-0.000
 00091,0.00000332,0.00000560,-0.00130314,0.00024043,-0.00039171,-0.0002
 9674,-0.00009798,-0.00001476,-0.00005967,-0.00001182,-0.00005408,-0.00
 001318,0.00000804,0.00001082,-0.00001835,-0.00002493,-0.00006171,-0.00
 000236,-0.00001003,-0.00000101,-0.00000587,0.00000805,0.00000555,0.000
 13482,0.00013205,0.00002063,0.00054412,-0.00027203,0.00025948,-0.00050
 232,-0.00284641,-0.00276254,0.03445293,0.00038375,0.06496744,0.0000075
 9,0.00002351,-0.00006496,-0.00003411,-0.00003148,0.00003996,0.00000404
 ,-0.00003338,0.00003625,0.00000716,0.00005420,-0.00004280,0.00000029,-
 0.00001121,0.00000594,0.00003039,-0.00007790,-0.00000844,0.00003993,0.
 00014764,0.00004446,-0.00008493,-0.00010243,-0.00010152,-0.00002481,0.
 00000149,0.00010008,0.00000516,-0.00003464,-0.00008726,-0.00000663,0.0
 0001392,0.00001857,0.00002032,0.00006978,0.00011673,-0.00004722,0.0002
 3026,-0.00024220,0.00018266,-0.00031587,-0.00013752,0.00154274,0.00008
 426,-0.00024497,-0.01507572,-0.00022209,-0.00059771,-0.34423528,-0.022
 80786,-0.03687066,0.00094684,-0.00755635,-0.00829682,0.00013354,-0.000
 90261,0.00039622,-0.01735528,0.00022363,-0.00147927,0.00203078,0.00033
 045,-0.00072122,0.00026893,0.00013768,-0.00012976,0.00054423,0.0003402
 7,0.00015729,0.00003753,-0.00000219,0.00007550,-0.00000281,0.00001493,
 -0.00000039,-0.00092709,-0.00119324,-0.00073888,0.00071572,0.00040848,
 0.00024348,-0.00193550,-0.00130216,-0.00142126,0.00094911,0.00025146,0
 .00010066,-0.00003051,-0.00000992,0.00020269,-0.00000987,-0.00000245,0
 .00000974,0.00008347,-0.00001093,0.00023243,-0.00000558,0.00001929,-0.
 00003639,0.00001043,-0.00000087,0.00000213,0.00000838,-0.00000046,-0.0
 0000685,-0.00000208,-0.00000519,-0.00000372,0.00001451,0.00004353,0.00
 000289,0.00000507,-0.00000047,-0.00000532,-0.00001288,0.00012320,-0.00
 000748,0.00013510,-0.00033476,0.00005625,0.00113471,0.00058156,0.00072
 037,-0.00004972,0.00180849,-0.00075328,0.36996393,0.00000280,0.0000378
 6,-0.00006329,-0.00003725,-0.00005834,0.00002644,0.00001510,-0.0000259
 1,-0.00000816,-0.00000468,0.00004628,-0.00000939,0.00000724,-0.0000156
 9,0.00000303,-0.00013073,-0.00002763,-0.00003387,-0.00006348,0.0000982
 1,0.00007568,0.00003794,0.00003240,-0.00006335,-0.00002864,-0.00002537
 ,0.00014681,0.00000564,-0.00003048,-0.00010676,-0.00000905,0.00001670,
 0.00002342,0.00004662,0.00013357,0.00011189,-0.00003951,0.00054760,-0.
 00036764,0.00013334,-0.00035921,-0.00020938,-0.00158198,0.00146231,-0.
 00127221,0.03148052,-0.00139455,0.00405776,-0.02436824,-0.03989763,0.0
 0162400,-0.02865818,-0.01351499,-0.01813769,-0.00028828,-0.00040601,0.
 00135692,-0.00949931,0.00026702,0.00035268,-0.00008071,0.00069232,-0.0
 0084402,0.00014176,0.00009070,-0.00021638,0.00004699,-0.00001780,0.000
 03207,-0.00006873,-0.00003440,0.00005716,0.00000141,0.00000876,-0.0000
 0242,0.00188252,0.00205554,0.00121878,-0.00031116,-0.00017844,-0.00034
 192,0.00083574,-0.00036391,-0.00082669,0.00024239,-0.00007232,0.000180
 29,0.00000077,0.00007254,0.00008387,-0.00000705,-0.00000166,0.00000708
 ,-0.00022109,0.00000770,-0.00005594,-0.00000588,-0.00001417,0.00002727
 ,-0.00000110,-0.00000070,-0.00000012,0.00000126,-0.00000021,-0.0000018
 3,-0.00001120,-0.00001978,-0.00000904,0.00000821,0.00006622,0.00001327
 ,0.00000812,0.00001190,-0.00001469,-0.00007682,-0.00003286,-0.00001100
 ,-0.00022477,0.00002776,-0.00007644,-0.00067401,-0.00042078,-0.0004161
 6,0.00197768,-0.00459823,0.00222510,0.02973516,0.05555605,0.00001152,0
 .00002417,-0.00005498,-0.00004785,-0.00003863,0.00002199,0.00000452,-0
 .00004865,0.00002088,0.00000712,0.00004131,-0.00001546,0.00000006,-0.0
 0001100,0.00000571,-0.00000520,-0.00001250,0.00004401,0.00004518,0.000
 07955,0.00001045,-0.00005153,-0.00003639,-0.00001609,-0.00005580,-0.00
 002996,0.00011053,0.00002044,-0.00001793,-0.00007612,-0.00000869,0.000
 01133,0.00001987,0.00002426,0.00010862,0.00009433,0.00005579,0.0003021
 0,-0.00040248,-0.00018426,-0.00051421,-0.00040829,0.00067107,-0.001022
 27,0.00172230,-0.01575741,0.00233543,-0.00068906,-0.03877211,0.0022292
 5,-0.04633912,-0.02462629,-0.01626100,-0.01189703,-0.00115245,-0.00059
 330,0.00090676,0.03164500,0.00271361,0.00146934,-0.00140024,-0.0011907
 8,0.00214113,-0.00005140,-0.00050264,0.00041392,0.00016434,0.00017438,
 0.00006404,0.00002757,0.00000305,0.00001162,0.00000281,-0.00000450,-0.
 00000056,0.00027086,-0.00115086,-0.00046787,-0.00014573,-0.00022717,-0
 .00016947,0.00157080,0.00062045,0.00057338,-0.00041067,-0.00004784,-0.
 00006203,-0.00007533,-0.00012872,-0.00003156,-0.00000934,-0.00000127,0
 .00000356,0.00018347,0.00002043,0.00004316,0.00000883,0.00002614,-0.00
 002914,0.00000968,0.00000025,0.00000358,0.00001107,0.00000005,-0.00000
 950,0.00000436,-0.00001152,0.00000175,0.00000466,0.00005376,0.00001049
 ,0.00002199,0.00000719,-0.00002371,0.00002757,0.00008582,0.00000202,0.
 00008135,-0.00012358,0.00000803,0.00048854,-0.00017526,0.00044367,-0.0
 0099721,0.00195611,-0.00058288,0.04659451,0.01048483,0.05854557,0.0000
 0348,-0.00000432,-0.00002492,-0.00000549,0.00000232,0.00001695,-0.0000
 0760,-0.00001351,0.00002260,0.00000672,0.00001098,-0.00002166,-0.00000
 208,-0.00000043,0.00000412,0.00000905,-0.00000633,0.00002247,0.0000203
 3,0.00001490,-0.00002078,-0.00001385,-0.00001830,0.00000391,-0.0000132
 1,0.00001279,0.00001469,0.00001122,-0.00001719,-0.00001635,-0.00000680
 ,0.00000399,0.00000231,-0.00000266,0.00001042,0.00004127,0.00002539,-0
 .00002410,-0.00007075,-0.00005968,-0.00003475,0.00014163,0.00054861,0.
 00008363,-0.00002544,-0.00086586,0.00078807,-0.00049580,-0.01363064,-0
 .00426502,-0.00161962,0.00166604,0.00052989,-0.00061415,0.00018978,0.0
 0001947,-0.00007277,-0.34871715,-0.04912990,-0.03331168,-0.01212244,0.
 00926301,-0.00631230,0.00013043,0.00078564,0.00042232,-0.00000064,-0.0
 0004149,0.00000333,0.00003913,0.00003836,-0.00002315,-0.00000993,-0.00
 000588,-0.00000232,0.00002484,-0.00004569,-0.00008107,0.00145373,-0.00
 079020,0.00038554,-0.00682118,-0.00002637,0.00169441,0.00155911,0.0004
 9092,0.00077984,0.00036026,0.00038180,0.00032998,-0.00000409,0.0000020
 6,0.00000396,0.00002271,-0.00002056,0.00002514,-0.00000020,0.00000507,
 -0.00000710,0.00000588,0.00000008,-0.00000076,0.00000449,0.00000072,-0
 .00000332,0.00000492,-0.00000242,0.00000195,-0.00000705,0.00000501,-0.
 00000040,0.00000682,0.00000210,-0.00000582,0.00000142,0.00000093,0.000
 01142,0.00002553,-0.00003227,0.00001206,0.00006749,0.00017530,0.000003
 06,0.00089187,-0.00046539,0.00023648,-0.00019522,-0.00055128,0.0018051
 9,0.37499933,0.00000126,-0.00000392,0.00001407,0.00000266,0.00000442,-
 0.00000936,-0.00000538,0.00000713,-0.00000550,0.00000392,-0.00000968,0
 .00000739,-0.00000188,0.00000302,-0.00000131,0.00000391,0.00000605,0.0
 0000015,0.00001587,-0.00001141,-0.00000130,-0.00001522,-0.00000438,-0.
 00000793,0.00000270,0.00000189,-0.00002330,-0.00000291,0.00000759,0.00
 001987,0.00000424,-0.00000343,-0.00000578,-0.00000302,-0.00001021,-0.0
 0001529,0.00002660,-0.00004209,0.00004174,-0.00005355,0.00006307,-0.00
 000316,0.00020513,-0.00003176,-0.00001932,-0.00100498,0.00010272,-0.00
 011741,-0.00609829,-0.00058040,-0.00184285,0.00083648,0.00046411,0.000
 27380,-0.00004802,-0.00003242,-0.00008513,-0.04942069,-0.04687832,-0.0
 0651173,0.03722273,-0.00918709,0.01001384,0.00055291,0.00075657,-0.001
 29081,-0.00006166,0.00003877,-0.00003534,0.00003134,-0.00002120,-0.000
 00622,-0.00000489,0.00000295,0.00000480,-0.00020536,-0.00024542,0.0000
 9195,0.00121805,0.00209420,0.00045173,-0.02736599,-0.00442745,-0.00269
 195,0.00119210,0.00163530,0.00237475,0.00008198,-0.00001080,0.00038788
 ,0.00000121,0.00000024,-0.00000266,0.00001668,-0.00000148,0.00001435,0
 .00000193,0.00000194,-0.00000533,0.00000070,0.00000052,0.00000098,0.00
 000088,-0.00000055,-0.00000022,0.00000156,0.00000363,0.00000194,0.0000
 0143,-0.00000832,0.00000001,-0.00000052,-0.00000280,0.00000211,0.00000
 376,-0.00001396,-0.00000010,0.00003365,-0.00004458,0.00003089,0.000202
 09,0.00011138,-0.00002279,0.00011916,-0.00019028,0.00051383,-0.0003081
 6,0.00000439,0.00135532,0.04318451,0.05980003,-0.00000181,-0.00000886,
 0.00000445,0.00000286,0.00001041,-0.00000284,0.00001006,0.00001960,0.0
 0000125,-0.00000267,-0.00001007,-0.00000596,0.00000016,0.00000402,-0.0
 0000186,-0.00001284,-0.00001499,-0.00001659,-0.00001187,-0.00001231,-0
 .00000555,0.00001019,-0.00000133,0.00000664,0.00000917,0.00001107,-0.0
 0002157,-0.00000684,-0.00000404,0.00001234,0.00000379,-0.00000194,-0.0
 0000712,0.00001402,-0.00001249,-0.00000393,0.00000587,-0.00009989,0.00
 004242,0.00006268,0.00018543,0.00009844,-0.00059103,-0.00011917,-0.000
 32162,0.00137120,-0.00114164,0.00125979,0.03118252,0.00648071,0.002390
 16,-0.00200953,-0.00004960,0.00268891,-0.00019261,0.00026029,0.0002519
 3,-0.03126361,-0.00621701,-0.04621031,-0.01486549,0.00622030,-0.000956
 68,-0.00123240,-0.00013856,0.00048194,0.00003410,0.00001725,0.00008635
 ,-0.00000289,-0.00000002,-0.00000653,-0.00000604,-0.00000116,-0.000000
 04,0.00036852,0.00021172,-0.00038300,0.00145875,0.00075397,0.00085583,
 -0.02213676,-0.00626966,-0.00404179,-0.00011501,0.00050490,0.00217800,
 -0.00005477,0.00011240,0.00047429,0.00000100,0.00000165,-0.00000105,-0
 .00003026,0.00000908,-0.00004868,0.00000095,-0.00000748,0.00001028,-0.
 00000284,0.00000092,-0.00000119,-0.00000289,-0.00000067,0.00000297,-0.
 00000610,0.00000264,-0.00000741,0.00000060,-0.00000998,0.00000099,-0.0
 0000433,-0.00000119,0.00000444,-0.00001183,0.00002917,0.00000209,-0.00
 000495,0.00001770,-0.00000245,-0.00013328,-0.00001272,-0.00017411,-0.0
 0053679,0.00044247,-0.00032212,0.00236298,0.00128843,-0.00485823,0.036
 92814,0.00007888,0.04885002,0.00000376,-0.00000764,-0.00001061,-0.0000
 0511,0.00000892,0.00000697,-0.00000200,-0.00000167,0.00001199,0.000006
 43,0.00000028,-0.00001556,-0.00000273,0.00000216,0.00000223,-0.0000265
 7,0.00001593,0.00001152,0.00001838,-0.00002612,-0.00004621,0.00001006,
 0.00000930,0.00004298,-0.00001094,0.00000802,-0.00000468,0.00000889,-0
 .00000709,0.00000051,-0.00000420,0.00000051,-0.00000070,-0.00000397,-0
 .00000784,0.00001058,0.00002027,-0.00006399,-0.00002707,0.00002021,0.0
 0006494,0.00008030,0.00006139,-0.00011036,-0.00030012,0.00008163,0.000
 53774,-0.00001426,-0.00101394,-0.00016889,0.00061671,0.00059897,0.0001
 6687,0.00030709,-0.00003389,0.00003552,-0.00013572,-0.00689663,0.00099
 190,-0.00133142,0.00184077,-0.00050038,0.00103368,-0.00036533,-0.00000
 579,0.00001603,0.00069835,-0.00011342,-0.00002841,-0.00000613,0.000221
 07,-0.00013713,-0.00001412,-0.00000852,-0.00002977,-0.00012029,-0.0009
 3651,0.00166227,-0.01117890,0.00989037,-0.00679456,-0.34084428,-0.0390
 7041,-0.05863143,-0.01331028,-0.00547137,0.00519532,0.00053006,0.00024
 593,0.00074534,-0.00000294,0.00000139,0.00000167,0.00000445,-0.0000041
 3,0.00000027,0.00000300,-0.00000118,-0.00000148,0.00000401,0.00000085,
 0.00000049,0.00000371,-0.00000006,-0.00000193,0.00000374,-0.00000030,0
 .00000022,-0.00000417,-0.00000274,-0.00000043,0.00000483,0.00000086,-0
 .00000263,-0.00002036,-0.00004712,0.00000282,0.00006711,-0.00025805,0.
 00015401,0.00085332,0.00033020,-0.00110138,0.00005884,-0.00008993,0.00
 026724,0.00121265,0.00033190,-0.00001105,0.00040717,-0.00036895,-0.000
 58811,0.36734478,0.00000087,0.00001358,0.00001437,0.00000155,-0.000015
 39,-0.00000663,-0.00000721,0.00000287,-0.00001255,-0.00000098,0.000004
 00,0.00001634,0.00000019,-0.00000266,-0.00000270,0.00002477,-0.0000391
 6,-0.00002189,-0.00000829,0.00005626,0.00007603,-0.00002831,-0.0000323
 3,-0.00009641,-0.00000164,-0.00001745,0.00000728,0.00000534,0.00001349
 ,0.00000104,-0.00000400,-0.00000045,0.00000372,-0.00001147,0.00000905,
 -0.00000998,-0.00000375,0.00010903,0.00003610,-0.00008484,-0.00007416,
 -0.00011377,0.00002027,0.00031073,0.00028563,-0.00042236,-0.00059338,0
 .00015281,-0.00140766,-0.00004804,0.00114486,0.00060731,0.00001337,-0.
 00035854,0.00012386,-0.00009714,0.00003442,-0.02522648,-0.00118039,-0.
 00685810,0.00140080,0.00300164,0.00097394,-0.00046249,-0.00005148,0.00
 010164,0.00002742,0.00014272,-0.00008187,-0.00016082,-0.00020909,0.000
 15325,0.00001011,0.00003773,0.00002706,0.00469521,0.00149764,-0.004215
 24,0.03396266,-0.00991337,0.01568357,-0.03933845,-0.04769213,-0.009450
 82,-0.00586497,0.00119121,0.00328901,-0.00098047,0.00080341,-0.0002185
 4,0.00000119,-0.00000242,-0.00000215,0.00000390,-0.00000320,0.00000121
 ,-0.00000193,0.00000456,-0.00000339,0.00000042,-0.00000120,0.00000081,
 0.00000029,0.00000068,-0.00000031,0.00000344,-0.00000184,0.00000404,0.
 00000072,0.00000656,0.00000031,0.00000154,0.00000159,-0.00000080,0.000
 05271,0.00001656,-0.00000326,-0.00018638,0.00006315,-0.00005010,-0.001
 45033,0.00019718,-0.00005753,-0.00000641,-0.00017844,0.00000942,0.0006
 2345,0.00027522,-0.00048319,-0.00031659,-0.00334794,-0.00252822,0.0344
 0781,0.05572942,0.00000120,-0.00000311,-0.00001975,-0.00000566,0.00000
 320,0.00001269,0.00000196,-0.00000373,0.00001615,0.00000063,0.00000756
 ,-0.00001983,0.00000009,-0.00000010,0.00000225,-0.00001790,-0.00000309
 ,0.00000099,0.00000913,-0.00000100,-0.00002704,0.00000192,-0.00000145,
 0.00002370,-0.00000598,0.00001011,0.00001194,0.00000222,-0.00001295,-0
 .00001440,-0.00000151,0.00000268,0.00000219,0.00000572,0.00000687,0.00
 002594,0.00000379,-0.00002677,-0.00005253,0.00004746,0.00002461,0.0000
 6897,0.00004286,0.00000650,-0.00027605,0.00021561,-0.00010599,-0.00015
 078,-0.00189117,-0.00033206,0.00066016,0.00057838,0.00010234,-0.000004
 43,0.00001731,0.00001556,0.00001676,-0.02205148,-0.00241748,-0.0016962
 5,0.00191808,0.00061899,0.00127921,0.00016447,-0.00028466,-0.00021903,
 0.00005069,0.00001774,-0.00001103,0.00008340,0.00011704,-0.00009149,-0
 .00000859,-0.00001316,-0.00000945,-0.00321430,-0.00001601,0.00273425,-
 0.01189386,0.00685961,-0.00318108,-0.06403244,-0.01215544,-0.05796015,
 0.03763022,0.00864548,-0.00693232,0.00187033,-0.00043422,0.00353870,-0
 .00000278,0.00000100,0.00000314,0.00000291,-0.00000606,0.00000702,0.00
 000068,-0.00000047,-0.00000207,0.00000259,0.00000030,0.00000025,0.0000
 0181,-0.00000016,-0.00000155,0.,-0.00000095,-0.00000150,-0.00000113,0.
 00000276,-0.00000036,0.00000185,0.00000015,-0.00000193,-0.00000524,-0.
 00003392,-0.00000256,0.00013419,-0.00006642,0.00001263,0.00081176,0.00
 018647,-0.00012501,0.00018942,0.00001495,0.00015450,0.00047953,-0.0003
 0836,-0.00055850,-0.00018258,-0.00297551,-0.00230293,0.05904440,0.0025
 5914,0.06509056\\0.01359083,-0.01072674,-0.01344891,-0.02080455,-0.002
 07428,-0.00356579,0.00411727,-0.02346634,0.01515668,0.00774966,0.02817
 847,0.01959849,-0.01366747,-0.02158034,-0.01447745,0.05017059,0.003348
 84,-0.00703614,-0.00153228,-0.01502100,0.00040718,-0.01179709,0.006292
 32,0.03130908,0.00573713,0.02449922,0.01404765,0.01033317,0.01743657,0
 .00629513,-0.00692228,-0.03714795,-0.00484779,-0.00314326,0.02593874,0
 .00622046,0.01346086,-0.02209043,0.02631252,-0.07340632,0.02390638,-0.
 02432167,0.01394976,-0.00702622,-0.01830872,-0.00120820,-0.00390746,0.
 00115268,0.02119324,0.03032759,0.02861805,-0.01295452,-0.01948652,0.01
 428456,0.01062716,0.01903593,-0.01832612,-0.04330276,-0.00765363,0.037
 14055,0.02539155,-0.01720832,-0.03442995,-0.01616197,0.00640406,0.0235
 9073,0.01720124,-0.00144353,-0.01041664,-0.00470009,-0.02015452,-0.020
 83183,-0.00937936,0.02697619,0.02082512,-0.01336727,-0.00414099,0.0117
 2753,-0.00710025,0.01066808,0.00213092,0.05006784,0.01643548,-0.026891
 67,-0.00706143,-0.01476688,-0.00457497,-0.00128416,-0.00597507,-0.0037
 1602,-0.00062611,0.00217336,-0.00200934,0.01662343,0.00053859,-0.00044
 733,-0.01534674,-0.00132811,-0.00157423,0.02336284,0.00021153,-0.00532
 032,-0.02153406,0.00019571,-0.00078628,0.02128912,0.00126334,0.0006838
 9,0.00311334,0.00575556,-0.01687421,-0.01984178,-0.00332637,-0.0014446
 6,0.00054039,-0.00589629,-0.01800626,0.02222432,0.00064918,0.00160204,
 -0.02314794,-0.00159302,-0.00239795,0.01963082,0.00204078,0.00101800,-
 0.02097260,-0.00145022,-0.00450085,0.01689398,0.00012224,-0.00047876,-
 0.01800606,-0.00493392,-0.00308740\\\@


 THERE IS MUCH PLEASURE TO BE GAINED FROM USELESS KNOWLEDGE

                                       -- BERTRAND RUSSELL
 Job cpu time:  4 days  0 hours  4 minutes 29.8 seconds.
 File lengths (MBytes):  RWF=   2340 Int=      0 D2E=      0 Chk=     43 Scr=      1
 Normal termination of Gaussian 09 at Fri Feb 12 14:00:22 2016.
Gaussian '09 finished on node024 at Fri Feb 12 14:00:22 EST 2016.
