Gaussian '09 started on node027 at Mon Feb 29 14:22:25 EST 2016.
 Entering Gaussian System, Link 0=/usr/local/gaussian/g09/g09
 Initial command:
 /usr/local/gaussian/g09/l1.exe /home/srmcgrat/thesis/gaussian/cellobiose/280/8000/2/gdp/gaussian19518/Gau-19554.inp -scrdir=/home/srmcgrat/thesis/gaussian/cellobiose/280/8000/2/gdp/gaussian19518/
 Entering Link 1 = /usr/local/gaussian/g09/l1.exe PID=     19556.
  
 Copyright (c) 1988,1990,1992,1993,1995,1998,2003,2009,2010,
            Gaussian, Inc.  All Rights Reserved.
  
 This is part of the Gaussian(R) 09 program.  It is based on
 the Gaussian(R) 03 system (copyright 2003, Gaussian, Inc.),
 the Gaussian(R) 98 system (copyright 1998, Gaussian, Inc.),
 the Gaussian(R) 94 system (copyright 1995, Gaussian, Inc.),
 the Gaussian 92(TM) system (copyright 1992, Gaussian, Inc.),
 the Gaussian 90(TM) system (copyright 1990, Gaussian, Inc.),
 the Gaussian 88(TM) system (copyright 1988, Gaussian, Inc.),
 the Gaussian 86(TM) system (copyright 1986, Carnegie Mellon
 University), and the Gaussian 82(TM) system (copyright 1983,
 Carnegie Mellon University). Gaussian is a federally registered
 trademark of Gaussian, Inc.
  
 This software contains proprietary and confidential information,
 including trade secrets, belonging to Gaussian, Inc.
  
 This software is provided under written license and may be
 used, copied, transmitted, or stored only in accord with that
 written license.
  
 The following legend is applicable only to US Government
 contracts under FAR:
  
                    RESTRICTED RIGHTS LEGEND
  
 Use, reproduction and disclosure by the US Government is
 subject to restrictions as set forth in subparagraphs (a)
 and (c) of the Commercial Computer Software - Restricted
 Rights clause in FAR 52.227-19.
  
 Gaussian, Inc.
 340 Quinnipiac St., Bldg. 40, Wallingford CT 06492
  
  
 ---------------------------------------------------------------
 Warning -- This program may not be used in any manner that
 competes with the business of Gaussian, Inc. or will provide
 assistance to any competitor of Gaussian, Inc.  The licensee
 of this program is prohibited from giving any competitor of
 Gaussian, Inc. access to this program.  By using this program,
 the user acknowledges that Gaussian, Inc. is engaged in the
 business of creating and licensing software in the field of
 computational chemistry and represents and warrants to the
 licensee that it is not a competitor of Gaussian, Inc. and that
 it will not use this program in any manner prohibited above.
 ---------------------------------------------------------------
  

 Cite this work as:
 Gaussian 09, Revision B.01,
 M. J. Frisch, G. W. Trucks, H. B. Schlegel, G. E. Scuseria, 
 M. A. Robb, J. R. Cheeseman, G. Scalmani, V. Barone, B. Mennucci, 
 G. A. Petersson, H. Nakatsuji, M. Caricato, X. Li, H. P. Hratchian, 
 A. F. Izmaylov, J. Bloino, G. Zheng, J. L. Sonnenberg, M. Hada, 
 M. Ehara, K. Toyota, R. Fukuda, J. Hasegawa, M. Ishida, T. Nakajima, 
 Y. Honda, O. Kitao, H. Nakai, T. Vreven, J. A. Montgomery, Jr., 
 J. E. Peralta, F. Ogliaro, M. Bearpark, J. J. Heyd, E. Brothers, 
 K. N. Kudin, V. N. Staroverov, T. Keith, R. Kobayashi, J. Normand, 
 K. Raghavachari, A. Rendell, J. C. Burant, S. S. Iyengar, J. Tomasi, 
 M. Cossi, N. Rega, J. M. Millam, M. Klene, J. E. Knox, J. B. Cross, 
 V. Bakken, C. Adamo, J. Jaramillo, R. Gomperts, R. E. Stratmann, 
 O. Yazyev, A. J. Austin, R. Cammi, C. Pomelli, J. W. Ochterski, 
 R. L. Martin, K. Morokuma, V. G. Zakrzewski, G. A. Voth, 
 P. Salvador, J. J. Dannenberg, S. Dapprich, A. D. Daniels, 
 O. Farkas, J. B. Foresman, J. V. Ortiz, J. Cioslowski, 
 and D. J. Fox, Gaussian, Inc., Wallingford CT, 2010.
 
 ******************************************
 Gaussian 09:  EM64L-G09RevB.01 12-Aug-2010
                29-Feb-2016 
 ******************************************
 ------------------------------------------------
 # freq=raman b3lyp/6-31+g(d,p) geom=connectivity
 ------------------------------------------------
 1/10=4,30=1,38=1,57=2/1,3;
 2/12=2,17=6,18=5,40=1/2;
 3/5=1,6=6,7=111,11=2,16=1,25=1,30=1,71=2,74=-5/1,2,3;
 4//1;
 5/5=2,38=5,98=1/2;
 8/6=4,10=90,11=11/1;
 10/13=10,15=4/2;
 11/6=3,8=1,9=11,15=111,16=1/1,2,10;
 10/6=1/2;
 6/7=2,8=2,9=2,10=2,18=1,28=1/1;
 7/8=1,10=1,25=1/1,2,3,16;
 1/10=4,30=1/3;
 99//99;
 ------------
 280 8000.com
 ------------
 Symbolic Z-matrix:
 Charge =  0 Multiplicity = 1
 O                     7.676     7.606     22.973 
 C                     8.292     7.915     24.232 
 C                     7.891     9.322     24.645 
 O                     8.071     10.296    23.607 
 H                     7.895     9.796     22.759 
 C                     8.379     9.647     26.047 
 O                     7.968     10.961    26.45 
 H                     8.083     10.948    27.443 
 C                     8.275     5.462     25.075 
 O                     7.996     4.783     23.842 
 H                     7.983     3.793     23.982 
 C                     7.957     6.925     25.336 
 O                     8.488     7.351     26.6 
 C                     7.984     8.605     27.081 
 O                     8.688     8.905     28.295 
 C                     8.225     8.422     29.564 
 C                     8.961     7.15      29.952 
 O                     8.751     6.045     29.06 
 H                     8.788     6.424     28.136 
 C                     8.573     6.752     31.367 
 O                     9.209     5.611     31.961 
 H                     8.704     5.365     32.788 
 C                     7.609     10.776    30.095 
 O                     8.327     11.557    29.128 
 H                     8.041     12.513    29.178 
 C                     8.32      9.531     30.599 
 O                     7.81      9.048     31.85 
 C                     8.523     7.909     32.353 
 O                     7.804     7.56      33.545 
 H                     8.35616   7.44452   22.31504 
 H                     8.427     7.35477   34.24597 
 H                     7.39575   11.40156   30.93649 
 H                     6.68033   10.47502   29.65696 
 H                     9.35375   9.77204   30.73372 
 H                     7.19013   8.17265   29.45552 
 H                     10.00811   7.37013   29.95213 
 H                     7.55097   6.45048   31.26988 
 H                     9.51997   8.19926   32.61125 
 H                     7.77461   4.90696   25.8408 
 H                     9.32534   5.35018   25.24583 
 H                     6.8931    6.9687    25.44142 
 H                     9.35256   7.90246   24.09074 
 H                     6.82804   9.26656   24.7543 
 H                     9.44827   9.65441   26.00828 
 H                     6.92507   8.57599   27.23175 
 

 GradGradGradGradGradGradGradGradGradGradGradGradGradGradGradGradGradGrad
 Berny optimization.
 Initialization pass.
 Trust Radius=3.00D-01 FncErr=1.00D-07 GrdErr=1.00D-07
 Number of steps in this run=      2 maximum allowed number of steps=      2.
 GradGradGradGradGradGradGradGradGradGradGradGradGradGradGradGradGradGrad

                          Input orientation:                          
 ---------------------------------------------------------------------
 Center     Atomic      Atomic             Coordinates (Angstroms)
 Number     Number       Type             X           Y           Z
 ---------------------------------------------------------------------
      1          8           0        7.676000    7.606000   22.973000
      2          6           0        8.292000    7.915000   24.232000
      3          6           0        7.891000    9.322000   24.645000
      4          8           0        8.071000   10.296000   23.607000
      5          1           0        7.895000    9.796000   22.759000
      6          6           0        8.379000    9.647000   26.047000
      7          8           0        7.968000   10.961000   26.450000
      8          1           0        8.083000   10.948000   27.443000
      9          6           0        8.275000    5.462000   25.075000
     10          8           0        7.996000    4.783000   23.842000
     11          1           0        7.983000    3.793000   23.982000
     12          6           0        7.957000    6.925000   25.336000
     13          8           0        8.488000    7.351000   26.600000
     14          6           0        7.984000    8.605000   27.081000
     15          8           0        8.688000    8.905000   28.295000
     16          6           0        8.225000    8.422000   29.564000
     17          6           0        8.961000    7.150000   29.952000
     18          8           0        8.751000    6.045000   29.060000
     19          1           0        8.788000    6.424000   28.136000
     20          6           0        8.573000    6.752000   31.367000
     21          8           0        9.209000    5.611000   31.961000
     22          1           0        8.704000    5.365000   32.788000
     23          6           0        7.609000   10.776000   30.095000
     24          8           0        8.327000   11.557000   29.128000
     25          1           0        8.041000   12.513000   29.178000
     26          6           0        8.320000    9.531000   30.599000
     27          8           0        7.810000    9.048000   31.850000
     28          6           0        8.523000    7.909000   32.353000
     29          8           0        7.804000    7.560000   33.545000
     30          1           0        8.356159    7.444516   22.315043
     31          1           0        8.426996    7.354767   34.245967
     32          1           0        7.395754   11.401562   30.936486
     33          1           0        6.680331   10.475017   29.656955
     34          1           0        9.353755    9.772040   30.733725
     35          1           0        7.190130    8.172648   29.455522
     36          1           0       10.008111    7.370135   29.952130
     37          1           0        7.550965    6.450484   31.269876
     38          1           0        9.519975    8.199255   32.611250
     39          1           0        7.774612    4.906965   25.840799
     40          1           0        9.325339    5.350176   25.245833
     41          1           0        6.893103    6.968695   25.441420
     42          1           0        9.352560    7.902459   24.090736
     43          1           0        6.828042    9.266563   24.754305
     44          1           0        9.448273    9.654406   26.008277
     45          1           0        6.925070    8.575991   27.231749
 ---------------------------------------------------------------------
                    Distance matrix (angstroms):
                    1          2          3          4          5
     1  O    0.000000
     2  C    1.435276   0.000000
     3  C    2.405507   1.520204   0.000000
     4  O    2.791788   2.471564   1.434754   0.000000
     5  H    2.211302   2.421879   1.944656   1.000040   0.000000
     6  C    3.756244   2.510302   1.519662   2.543554   3.326770
     7  O    4.840539   3.781880   2.439319   2.921555   3.871180
     8  H    5.596027   4.421910   3.241843   3.891034   4.827246
     9  C    3.061689   2.593867   3.902814   5.056105   4.928672
    10  O    2.971008   3.170038   4.610678   5.518516   5.129645
    11  H    3.956172   4.141119   5.569369   6.514398   6.126947
    12  C    2.475175   1.520244   2.495485   3.790261   3.858421
    13  O    3.725520   2.442117   2.839591   4.219593   4.591618
    14  C    4.238930   2.947501   2.541030   3.864677   4.483981
    15  O    5.570927   4.200582   3.759202   4.928784   5.663040
    16  C    6.663973   5.356469   5.011798   6.246714   6.950166
    17  C    7.110949   5.809577   5.833244   7.137818   7.738018
    18  O    6.375258   5.197804   5.565119   6.947561   7.382773
    19  H    5.412046   4.208362   4.624943   6.001526   6.409365
    20  C    8.484878   7.234622   7.228783   8.545732   9.155506
    21  O    9.333502   8.117065   8.308580   9.645392  10.193999
    22  H   10.119935   8.937415   9.089954  10.440604  10.994048
    23  C    7.795914   6.559465   5.647667   6.522115   7.406692
    24  O    7.342903   6.102148   5.028182   5.668959   6.622077
    25  H    7.919211   6.757775   5.545545   5.996001   6.971870
    26  C    7.891529   6.568937   5.973093   7.038131   7.855982
    27  O    8.994357   7.716861   7.210663   8.341024   9.122117
    28  C    9.423037   8.124287   7.861886   9.077147   9.797958
    29  O   10.572875   9.332531   9.073159  10.311199  11.015706
    30  H    0.960000   1.974891   3.028204   3.143474   2.437056
    31  H   11.300748  10.030535   9.815084  11.043786  11.755554
    32  H    8.826207   7.609829   6.644745   7.443090   8.348554
    33  H    7.341517   6.211385   5.283452   6.210311   7.036922
    34  H    8.230154   6.844585   6.278117   7.260179   8.107081
    35  H    6.525354   5.344687   4.995333   6.284088   6.926436
    36  H    7.362243   5.996816   6.038010   7.250776   7.879795
    37  H    8.377888   7.226731   7.228431   8.589418   9.151276
    38  H    9.830975   8.473521   8.208243   9.358012  10.112219
    39  H    3.939389   3.450246   4.575589   5.841182   5.780540
    40  H    3.602060   2.945161   4.265409   5.359134   5.291083
    41  H    2.666868   2.077283   2.677336   3.977876   4.024032
    42  H    2.036682   1.070000   2.111507   2.757796   2.735599
    43  H    2.578672   2.059781   1.070000   1.980149   2.323778
    44  H    4.068148   2.741835   2.096215   2.841594   3.604235
    45  H    4.431899   3.362128   2.860214   4.172577   4.736526
                    6          7          8          9         10
     6  C    0.000000
     7  O    1.434547   0.000000
     8  H    1.931070   0.999721   0.000000
     9  C    4.297653   5.676608   5.978335   0.000000
    10  O    5.354177   6.705977   7.140168   1.434981   0.000000
    11  H    6.220157   7.580994   7.948745   2.016302   0.999934
    12  C    2.844800   4.186934   4.543111   1.519741   2.611842
    13  O    2.364171   3.650342   3.716596   2.437071   3.800428
    14  C    1.520179   2.439089   2.372866   3.739942   5.009885
    15  O    2.387373   2.854744   2.294728   4.732147   6.107287
    16  C    3.727416   4.026111   3.301436   5.377288   6.784987
    17  C    4.671483   5.270083   4.635814   5.206253   6.623142
    18  O    4.710728   5.620698   5.205797   4.055452   5.421272
    19  H    3.862503   4.909110   4.630750   3.249359   4.664609
    20  C    6.059791   6.500661   5.765786   6.429788   7.799712
    21  O    7.207884   7.780341   7.082639   6.950651   8.250764
    22  H    7.992636   8.486881   7.754003   7.725530   8.992825
    23  C    4.272452   3.667306   2.699512   7.340474   8.669823
    24  O    3.625378   2.766908   1.808215   7.319736   8.598746
    25  H    4.258094   3.139429   2.336924   8.161248   9.392967
    26  C    4.553860   4.402613   3.467621   6.861003   8.264716
    27  O    5.861516   5.731015   4.806889   7.679599   9.074849
    28  C    6.542707   6.668443   5.791133   7.682356   9.082220
    29  O    7.804242   7.869735   6.985040   8.738670  10.094395
    30  H    4.333470   5.441893   6.216507   3.399164   3.089495
    31  H    8.513501   8.601901   7.701300   9.365485  10.725776
    32  H    5.286996   4.544240   3.589215   8.390977   9.720977
    33  H    4.074661   3.489818   2.663229   6.976218   8.242799
    34  H    4.788650   4.656634   3.718409   7.194534   8.615677
    35  H    3.899378   4.172907   3.542604   5.264364   6.606873
    36  H    4.805014   5.414912   4.775238   5.516434   6.933653
    37  H    6.179142   6.614369   5.929223   6.314889   7.625740
    38  H    6.818150   6.927977   6.027545   8.114037   9.533785
    39  H    4.782859   6.087681   6.257496   1.070000   2.014839
    40  H    4.472150   5.896926   6.140569   1.070000   2.014839
    41  H    3.122168   4.255718   4.610536   2.077025   2.924345
    42  H    2.796107   4.103390   4.703698   2.843545   3.410740
    43  H    2.054571   2.654431   3.410459   4.083042   4.722157
    44  H    1.070000   2.023244   2.365542   4.452398   5.525618
    45  H    2.159770   2.717923   2.647991   4.021296   5.198468
                   11         12         13         14         15
    11  H    0.000000
    12  C    3.412245   0.000000
    13  O    4.446157   1.435665   0.000000
    14  C    5.723561   2.422427   1.434536   0.000000
    15  O    6.725440   3.634617   2.308233   1.435065   0.000000
    16  C    7.255683   4.493197   3.162516   2.501371   1.434580
    17  C    6.918586   4.729281   3.391170   3.363658   2.429033
    18  O    5.607799   3.908070   2.797571   3.325407   2.961215
    19  H    4.982560   2.963370   1.818963   2.552685   2.488100
    20  C    7.977594   6.064845   4.805238   4.706413   3.753108
    21  O    8.274820   6.869114   5.682232   5.854832   4.955949
    22  H    8.974222   7.650092   6.502476   6.601958   5.720044
    23  C    9.288215   6.131834   4.971749   3.733371   2.811562
    24  O    9.320909   5.997632   4.909902   3.608623   2.803090
    25  H   10.150871   6.781870   5.787239   4.435439   3.770406
    26  C    8.764867   5.884061   4.557700   3.653313   2.415723
    27  O    9.463106   6.852805   5.558956   4.792691   3.664609
    28  C    9.343805   7.108228   5.780104   5.344990   4.181699
    29  O   10.279752   8.234945   6.981731   6.550399   5.491173
    30  H    4.031322   3.091182   4.288004   4.919306   6.164659
    31  H   10.873470   8.932699   7.646211   7.286706   6.155108
    32  H   10.324725   7.191665   6.033669   4.799121   3.857482
    33  H    8.862923   5.736127   4.729918   3.439776   2.889742
    34  H    9.122153   6.260351   4.868125   4.071929   2.672520
    35  H    7.054743   4.372091   3.242465   2.540770   2.031444
    36  H    7.248408   5.070883   3.680744   3.723614   2.616215
    37  H    7.769300   5.966650   4.847340   4.730343   4.020869
    38  H    9.810267   7.549562   6.157892   5.753913   4.451997
    39  H    2.177034   2.088194   2.656806   3.906073   4.779295
    40  H    2.413285   2.088194   2.556991   3.970001   4.726563
    41  H    3.660987   1.070000   2.008024   2.560424   3.887653
    42  H    4.333032   2.110378   2.710715   3.362767   4.372936
    43  H    5.647148   2.663801   3.135512   2.680936   4.015806
    44  H    6.372512   3.182061   2.564750   2.096684   2.523634
    45  H    5.878528   2.717447   2.083857   1.070000   2.084867
                   16         17         18         19         20
    16  C    0.000000
    17  C    1.519942   0.000000
    18  O    2.486126   1.435545   0.000000
    19  H    2.519555   1.963380   0.999393   0.000000
    20  C    2.482099   1.520254   2.419459   3.254715   0.000000
    21  O    3.823034   2.542854   2.968825   3.933044   1.434996
    22  H    4.468654   3.360829   3.789801   4.771754   1.990018
    23  C    2.490529   3.872496   4.975716   4.916058   4.328956
    24  O    3.166816   4.527978   5.528702   5.248264   5.306756
    25  H    4.113287   5.496112   6.507922   6.222515   6.185779
    26  C    1.519912   2.549245   3.834903   3.992348   2.894248
    27  O    2.406220   2.920549   4.205662   4.651414   2.467200
    28  C    2.851402   2.555920   3.790822   4.478676   1.520968
    29  O    4.094954   3.796893   4.827759   5.613914   2.447020
    30  H    7.315740   7.666530   6.899926   5.925494   9.080998
    31  H    4.806309   4.331887   5.358612   6.190989   2.945012
    32  H    3.383660   4.636269   5.835293   5.878537   4.815566
    33  H    2.570899   4.042801   4.926365   4.813139   4.513015
    34  H    2.113043   2.764135   4.129830   4.275234   3.182964
    35  H    1.070000   2.104348   2.668265   2.711475   2.753964
    36  H    2.106312   1.070000   2.032783   2.383730   2.107959
    37  H    2.692807   2.052880   2.547166   3.369293   1.070000
    38  H    3.318480   2.912903   4.224159   4.869824   2.130603
    39  H    5.140092   4.831221   3.551297   2.931944   5.880517
    40  H    5.412339   5.051744   3.919249   3.129680   6.324540
    41  H    4.569651   4.965320   4.171224   3.338875   6.162914
    42  H    5.612302   5.922325   5.339065   4.343815   7.407786
    43  H    5.079168   6.003781   5.710976   4.832956   7.286676
    44  H    3.957068   4.697067   4.777763   3.924116   6.156783
    45  H    2.674495   3.684864   3.616965   2.986510   4.810708
                   21         22         23         24         25
    21  O    0.000000
    22  H    0.999735   0.000000
    23  C    5.720068   6.142491   0.000000
    24  O    6.645203   7.202680   1.435470   0.000000
    25  H    7.533055   8.035271   2.011139   0.999116   0.000000
    26  C    4.244027   4.721730   1.519724   2.503710   3.315027
    27  O    3.712478   3.904301   2.471115   3.737868   4.381686
    28  C    2.430034   2.587261   3.762134   4.873084   5.613356
    29  O    2.877791   2.490196   4.720506   5.979919   6.607501
    30  H    9.855638  10.683080   8.496161   7.958000   8.537507
    31  H    2.978813   2.482252   5.441000   6.622866   7.241592
    32  H    6.153706   6.448232   1.070000   2.040098   2.178051
    33  H    5.946549   6.325421   1.070000   2.040098   2.496837
    34  H    4.340670   4.905531   2.111889   2.611256   3.414156
    35  H    4.112821   4.613036   2.713269   3.585190   4.431665
    36  H    2.787237   3.709910   4.168460   4.586411   5.560383
    37  H    1.982792   2.193733   4.482610   5.591634   6.431965
    38  H    2.686745   2.954667   4.077126   4.983038   5.708149
    39  H    6.325345   7.024042   7.250602   7.438668   8.310213
    40  H    6.721237   7.567731   7.476617   7.388678   8.271488
    41  H    7.050648   7.734560   6.055071   6.058009   6.783731
    42  H    8.198320   9.083046   6.881019   6.307256   6.989817
    43  H    8.424284   9.125879   5.604580   5.159669   5.619582
    44  H    7.200090   8.057145   4.619762   3.822275   4.494343
    45  H    6.031030   6.659353   3.675052   3.800998   4.531361
                   26         27         28         29         30
    26  C    0.000000
    27  O    1.434709   0.000000
    28  C    2.397626   1.434817   0.000000
    29  O    3.581901   2.255483   1.435140   0.000000
    30  H    8.542755   9.684258  10.050082  11.244116   0.000000
    31  H    4.248271   2.998063   1.974770   0.960000  11.931472
    32  H    2.113559   2.558391   3.933852   4.661396   9.534666
    33  H    2.113559   2.849908   4.153135   4.987670   8.117635
    34  H    1.070000   2.038010   2.604443   3.898478   8.791289
    35  H    2.104583   2.623739   3.200224   4.180431   7.271605
    36  H    2.817356   3.353928   2.874040   4.219344   7.814062
    37  H    3.245161   2.674085   2.060407   2.543863   9.045743
    38  H    2.694928   2.055209   1.070000   2.055506  10.389224
    39  H    6.657299   7.297939   7.209789   8.148262   4.382729
    40  H    6.866323   7.719143   7.596259   8.722039   3.730295
    41  H    5.933133   6.799566   7.163147   8.176024   3.484418
    42  H    6.787918   7.993618   8.303808   9.586367   2.087010
    43  H    6.037908   7.166652   7.902913   9.007840   3.406610
    44  H    4.728950   6.097327   6.645155   7.993270   4.440305
    45  H    3.767791   4.725900   5.406058   6.454602   5.244259
                   31         32         33         34         35
    31  H    0.000000
    32  H    5.328478   0.000000
    33  H    5.817717   1.734219   0.000000
    34  H    4.363249   2.555429   2.966615   0.000000
    35  H    5.014692   3.558290   2.366722   2.978780   0.000000
    36  H    4.575718   4.903648   4.560870   2.609257   2.971811
    37  H    3.231451   4.964717   4.422260   3.817099   2.527436
    38  H    2.140108   4.191887   4.687273   2.454870   3.922691
    39  H    8.778621   8.263737   6.838399   7.078373   4.906376
    40  H    9.264330   8.527960   7.260720   7.047740   5.499722
    41  H    8.945497   7.078044   5.487285   6.474723   4.201278
    42  H   10.212020   7.933291   6.688920   6.901060   5.790512
    43  H    9.813423   6.565050   5.051550   6.510622   4.840372
    44  H    8.613413   5.617173   4.652715   4.727856   4.379306
    45  H    7.276429   4.682998   3.089954   4.426384   2.275545
                   36         37         38         39         40
    36  H    0.000000
    37  H    2.935946   0.000000
    38  H    2.827833   2.955416   0.000000
    39  H    5.287605   5.648659   7.728161   0.000000
    40  H    5.166782   6.375592   7.899652   1.719061   0.000000
    41  H    5.496447   5.888312   7.734416   2.277563   2.928076
    42  H    5.921913   7.542813   8.527326   3.811249   2.801632
    43  H    6.381745   7.134815   8.373604   4.591575   4.670780
    44  H    4.591872   6.445876   6.761794   5.036605   4.372966
    45  H    4.284822   4.606082   5.984521   4.014750   4.484533
                   41         42         43         44         45
    41  H    0.000000
    42  H    2.957227   0.000000
    43  H    2.399283   2.945216   0.000000
    44  H    3.750102   2.599124   2.930611   0.000000
    45  H    2.406179   4.026453   2.573721   3.004400   0.000000
 Stoichiometry    C12H22O11
 Framework group  C1[X(C12H22O11)]
 Deg. of freedom   129
 Full point group                 C1      NOp   1
 Largest Abelian subgroup         C1      NOp   1
 Largest concise Abelian subgroup C1      NOp   1
                         Standard orientation:                         
 ---------------------------------------------------------------------
 Center     Atomic      Atomic             Coordinates (Angstroms)
 Number     Number       Type             X           Y           Z
 ---------------------------------------------------------------------
      1          8           0       -5.027959   -0.418793    0.399047
      2          6           0       -3.737967   -0.187795   -0.186254
      3          6           0       -3.311604    1.241350    0.108330
      4          8           0       -4.319817    2.214261   -0.200654
      5          1           0       -5.185067    1.746981   -0.018798
      6          6           0       -1.883758    1.496962   -0.344761
      7          8           0       -1.469820    2.834540   -0.032564
      8          1           0       -0.473405    2.793641   -0.102768
      9          6           0       -2.949841   -2.644564    0.080749
     10          8           0       -4.207844   -3.274152    0.363978
     11          1           0       -4.090026   -4.261535    0.469153
     12          6           0       -2.670636   -1.164207    0.281254
     13          8           0       -1.376653   -0.809300   -0.229415
     14          6           0       -0.889979    0.475290    0.183949
     15          8           0        0.358536    0.690400   -0.490106
     16          6           0        1.596352    0.227227    0.067837
     17          6           0        1.986998   -1.111294   -0.537126
     18          8           0        1.063249   -2.177356   -0.270689
     19          1           0        0.150038   -1.786530   -0.380621
     20          6           0        3.375624   -1.499024   -0.054885
     21          8           0        3.970717   -2.701988   -0.562777
     22          1           0        4.770414   -2.917482   -0.002852
     23          6           0        2.152173    2.616327    0.499112
     24          8           0        1.233120    3.348464   -0.325443
     25          1           0        1.291890    4.324844   -0.121826
     26          6           0        2.658235    1.304809   -0.078283
     27          8           0        3.876112    0.846090    0.525656
     28          6           0        4.383559   -0.360013   -0.062997
     29          8           0        5.536697   -0.665847    0.734727
     30          1           0       -5.660342   -0.627570   -0.292404
     31          1           0        6.258405   -0.937595    0.162983
     32          1           0        2.997416    3.242984    0.693445
     33          1           0        1.669370    2.406035    1.430550
     34          1           0        2.841133    1.451617   -1.122264
     35          1           0        1.439444    0.071767    1.114791
     36          1           0        2.035553   -0.984062   -1.598424
     37          1           0        3.229461   -1.707769    0.984328
     38          1           0        4.689381   -0.163177   -1.069292
     39          1           0       -2.217792   -3.167153    0.660322
     40          1           0       -2.737841   -2.851305   -0.947460
     41          1           0       -2.608731   -1.029094    1.340882
     42          1           0       -3.835139   -0.290942   -1.246829
     43          1           0       -3.247932    1.277578    1.175820
     44          1           0       -1.877706    1.411073   -1.411291
     45          1           0       -0.784167    0.536741    1.246929
 ---------------------------------------------------------------------
 Rotational constants (GHZ):      0.4033309      0.1437820      0.1087813
 Standard basis: 6-31+G(d,p) (6D, 7F)
 There are   547 symmetry adapted basis functions of A   symmetry.
 Integral buffers will be    131072 words long.
 Raffenetti 2 integral format.
 Two-electron integral symmetry is turned on.
   547 basis functions,   890 primitive gaussians,   547 cartesian basis functions
    91 alpha electrons       91 beta electrons
       nuclear repulsion energy      2278.3700176855 Hartrees.
 NAtoms=   45 NActive=   45 NUniq=   45 SFac= 1.00D+00 NAtFMM=   50 NAOKFM=F Big=F
 One-electron integrals computed using PRISM.
 NBasis=   547 RedAO= T  NBF=   547
 NBsUse=   547 1.00D-06 NBFU=   547
 Harris functional with IExCor=  402 diagonalized for initial guess.
 ExpMin= 4.38D-02 ExpMax= 5.48D+03 ExpMxC= 8.25D+02 IAcc=2 IRadAn=         0 AccDes= 0.00D+00
 HarFok:  IExCor=  402 AccDes= 0.00D+00 IRadAn=         0 IDoV= 1
 ScaDFX=  1.000000  1.000000  1.000000  1.000000
 FoFCou: FMM=F IPFlag=           0 FMFlag=      100000 FMFlg1=           0
         NFxFlg=           0 DoJE=T BraDBF=F KetDBF=T FulRan=T
         Omega=  0.000000  0.000000  1.000000  0.000000  0.000000 ICntrl=     500 IOpCl=  0
         NMat0=    1 NMatS0=    1 NMatT0=    0 NMatD0=    1 NMtDS0=    0 NMtDT0=    0
         I1Cent=           4 NGrid=           0.
 Petite list used in FoFCou.
 Initial guess orbital symmetries:
       Occupied  (A) (A) (A) (A) (A) (A) (A) (A) (A) (A) (A) (A)
                 (A) (A) (A) (A) (A) (A) (A) (A) (A) (A) (A) (A)
                 (A) (A) (A) (A) (A) (A) (A) (A) (A) (A) (A) (A)
                 (A) (A) (A) (A) (A) (A) (A) (A) (A) (A) (A) (A)
                 (A) (A) (A) (A) (A) (A) (A) (A) (A) (A) (A) (A)
                 (A) (A) (A) (A) (A) (A) (A) (A) (A) (A) (A) (A)
                 (A) (A) (A) (A) (A) (A) (A) (A) (A) (A) (A) (A)
                 (A) (A) (A) (A) (A) (A) (A)
       Virtual   (A) (A) (A) (A) (A) (A) (A) (A) (A) (A) (A) (A)
                 (A) (A) (A) (A) (A) (A) (A) (A) (A) (A) (A) (A)
                 (A) (A) (A) (A) (A) (A) (A) (A) (A) (A) (A) (A)
                 (A) (A) (A) (A) (A) (A) (A) (A) (A) (A) (A) (A)
                 (A) (A) (A) (A) (A) (A) (A) (A) (A) (A) (A) (A)
                 (A) (A) (A) (A) (A) (A) (A) (A) (A) (A) (A) (A)
                 (A) (A) (A) (A) (A) (A) (A) (A) (A) (A) (A) (A)
                 (A) (A) (A) (A) (A) (A) (A) (A) (A) (A) (A) (A)
                 (A) (A) (A) (A) (A) (A) (A) (A) (A) (A) (A) (A)
                 (A) (A) (A) (A) (A) (A) (A) (A) (A) (A) (A) (A)
                 (A) (A) (A) (A) (A) (A) (A) (A) (A) (A) (A) (A)
                 (A) (A) (A) (A) (A) (A) (A) (A) (A) (A) (A) (A)
                 (A) (A) (A) (A) (A) (A) (A) (A) (A) (A) (A) (A)
                 (A) (A) (A) (A) (A) (A) (A) (A) (A) (A) (A) (A)
                 (A) (A) (A) (A) (A) (A) (A) (A) (A) (A) (A) (A)
                 (A) (A) (A) (A) (A) (A) (A) (A) (A) (A) (A) (A)
                 (A) (A) (A) (A) (A) (A) (A) (A) (A) (A) (A) (A)
                 (A) (A) (A) (A) (A) (A) (A) (A) (A) (A) (A) (A)
                 (A) (A) (A) (A) (A) (A) (A) (A) (A) (A) (A) (A)
                 (A) (A) (A) (A) (A) (A) (A) (A) (A) (A) (A) (A)
                 (A) (A) (A) (A) (A) (A) (A) (A) (A) (A) (A) (A)
                 (A) (A) (A) (A) (A) (A) (A) (A) (A) (A) (A) (A)
                 (A) (A) (A) (A) (A) (A) (A) (A) (A) (A) (A) (A)
                 (A) (A) (A) (A) (A) (A) (A) (A) (A) (A) (A) (A)
                 (A) (A) (A) (A) (A) (A) (A) (A) (A) (A) (A) (A)
                 (A) (A) (A) (A) (A) (A) (A) (A) (A) (A) (A) (A)
                 (A) (A) (A) (A) (A) (A) (A) (A) (A) (A) (A) (A)
                 (A) (A) (A) (A) (A) (A) (A) (A) (A) (A) (A) (A)
                 (A) (A) (A) (A) (A) (A) (A) (A) (A) (A) (A) (A)
                 (A) (A) (A) (A) (A) (A) (A) (A) (A) (A) (A) (A)
                 (A) (A) (A) (A) (A) (A) (A) (A) (A) (A) (A) (A)
                 (A) (A) (A) (A) (A) (A) (A) (A) (A) (A) (A) (A)
                 (A) (A) (A) (A) (A) (A) (A) (A) (A) (A) (A) (A)
                 (A) (A) (A) (A) (A) (A) (A) (A) (A) (A) (A) (A)
                 (A) (A) (A) (A) (A) (A) (A) (A) (A) (A) (A) (A)
                 (A) (A) (A) (A) (A) (A) (A) (A) (A) (A) (A) (A)
                 (A) (A) (A) (A) (A) (A) (A) (A) (A) (A) (A) (A)
                 (A) (A) (A) (A) (A) (A) (A) (A) (A) (A) (A) (A)
 The electronic state of the initial guess is 1-A.
 Requested convergence on RMS density matrix=1.00D-08 within 128 cycles.
 Requested convergence on MAX density matrix=1.00D-06.
 Requested convergence on             energy=1.00D-06.
 No special actions if energy rises.
 SCF Done:  E(RB3LYP) =  -1297.93564164     A.U. after   13 cycles
             Convg  =    0.7556D-08             -V/T =  2.0088
 Range of M.O.s used for correlation:     1   547
 NBasis=   547 NAE=    91 NBE=    91 NFC=     0 NFV=     0
 NROrb=    547 NOA=    91 NOB=    91 NVA=   456 NVB=   456

 **** Warning!!: The largest alpha MO coefficient is  0.71210171D+02

          Differentiating once with respect to electric field.
                with respect to dipole field.
          Electric field/nuclear overlap derivatives assumed to be zero.
          There are     3 degrees of freedom in the 1st order CPHF.  IDoFFX=0.
      3 vectors produced by pass  0 Test12= 1.38D-12 3.33D-08 XBig12= 1.20D+02 1.42D+00.
 AX will form     3 AO Fock derivatives at one time.
      3 vectors produced by pass  1 Test12= 1.38D-12 3.33D-08 XBig12= 2.12D+01 3.74D-01.
      3 vectors produced by pass  2 Test12= 1.38D-12 3.33D-08 XBig12= 9.04D+00 2.30D-01.
      3 vectors produced by pass  3 Test12= 1.38D-12 3.33D-08 XBig12= 8.75D-01 7.79D-02.
      3 vectors produced by pass  4 Test12= 1.38D-12 3.33D-08 XBig12= 2.55D-01 4.21D-02.
      3 vectors produced by pass  5 Test12= 1.38D-12 3.33D-08 XBig12= 5.22D-02 1.74D-02.
      3 vectors produced by pass  6 Test12= 1.38D-12 3.33D-08 XBig12= 1.47D-02 1.23D-02.
      3 vectors produced by pass  7 Test12= 1.38D-12 3.33D-08 XBig12= 2.10D-03 8.47D-03.
      3 vectors produced by pass  8 Test12= 1.38D-12 3.33D-08 XBig12= 4.27D-04 2.59D-03.
      3 vectors produced by pass  9 Test12= 1.38D-12 3.33D-08 XBig12= 1.20D-04 1.75D-03.
      3 vectors produced by pass 10 Test12= 1.38D-12 3.33D-08 XBig12= 3.08D-05 7.24D-04.
      3 vectors produced by pass 11 Test12= 1.38D-12 3.33D-08 XBig12= 6.17D-06 4.16D-04.
      3 vectors produced by pass 12 Test12= 1.38D-12 3.33D-08 XBig12= 1.31D-06 1.54D-04.
      3 vectors produced by pass 13 Test12= 1.38D-12 3.33D-08 XBig12= 2.28D-07 4.36D-05.
      3 vectors produced by pass 14 Test12= 1.38D-12 3.33D-08 XBig12= 2.48D-08 1.51D-05.
      3 vectors produced by pass 15 Test12= 1.38D-12 3.33D-08 XBig12= 4.48D-09 9.11D-06.
      3 vectors produced by pass 16 Test12= 1.38D-12 3.33D-08 XBig12= 8.24D-10 3.92D-06.
      3 vectors produced by pass 17 Test12= 1.38D-12 3.33D-08 XBig12= 7.44D-11 6.33D-07.
      3 vectors produced by pass 18 Test12= 1.38D-12 3.33D-08 XBig12= 2.74D-11 4.02D-07.
      3 vectors produced by pass 19 Test12= 1.38D-12 3.33D-08 XBig12= 1.31D-11 4.69D-07.
      2 vectors produced by pass 20 Test12= 1.38D-12 3.33D-08 XBig12= 6.04D-12 2.31D-07.
      2 vectors produced by pass 21 Test12= 1.38D-12 3.33D-08 XBig12= 1.70D-12 1.04D-07.
      1 vectors produced by pass 22 Test12= 1.38D-12 3.33D-08 XBig12= 4.41D-13 3.84D-08.
 Inverted reduced A of dimension    65 with in-core refinement.
 End of Minotr Frequency-dependent properties file   721 does not exist.
 End of Minotr Frequency-dependent properties file   722 does not exist.
 Symmetrizing basis deriv contribution to polar:
 IMax=3 JMax=2 DiffMx= 0.00D+00
 G2DrvN: will do    23 centers at a time, making    2 passes doing MaxLOS=2.
 Calling FoFCou, ICntrl=  3107 FMM=F I1Cent=   0 AccDes= 0.00D+00.
 Calling FoFCou, ICntrl=  3107 FMM=F I1Cent=   0 AccDes= 0.00D+00.
 FoFDir/FoFCou used for L=0 through L=2.
 End of G2Drv Frequency-dependent properties file   721 does not exist.
 End of G2Drv Frequency-dependent properties file   722 does not exist.
          IDoAtm=111111111111111111111111111111111111111111111
          Differentiating once with respect to electric field.
                with respect to dipole field.
          Differentiating once with respect to nuclear coordinates.
          There are   138 degrees of freedom in the 1st order CPHF.  IDoFFX=5.
 Will reuse    3 saved solutions.
    135 vectors produced by pass  0 Test12= 4.15D-14 1.00D-09 XBig12= 2.01D-01 9.18D-02.
 AX will form    68 AO Fock derivatives at one time.
    135 vectors produced by pass  1 Test12= 4.15D-14 1.00D-09 XBig12= 3.65D-02 1.64D-02.
    132 vectors produced by pass  2 Test12= 4.15D-14 1.00D-09 XBig12= 2.35D-04 2.09D-03.
    132 vectors produced by pass  3 Test12= 4.15D-14 1.00D-09 XBig12= 7.66D-07 7.16D-05.
    132 vectors produced by pass  4 Test12= 4.15D-14 1.00D-09 XBig12= 1.47D-09 2.36D-06.
    131 vectors produced by pass  5 Test12= 4.15D-14 1.00D-09 XBig12= 3.80D-12 1.68D-07.
     77 vectors produced by pass  6 Test12= 4.15D-14 1.00D-09 XBig12= 1.17D-13 2.13D-08.
 Inverted reduced A of dimension   874 with in-core refinement.
 Isotropic polarizability for W=    0.000000      188.41 Bohr**3.
 End of Minotr Frequency-dependent properties file   721 does not exist.
 End of Minotr Frequency-dependent properties file   722 does not exist.

 **********************************************************************

            Population analysis using the SCF density.

 **********************************************************************

 Orbital symmetries:
       Occupied  (A) (A) (A) (A) (A) (A) (A) (A) (A) (A) (A) (A)
                 (A) (A) (A) (A) (A) (A) (A) (A) (A) (A) (A) (A)
                 (A) (A) (A) (A) (A) (A) (A) (A) (A) (A) (A) (A)
                 (A) (A) (A) (A) (A) (A) (A) (A) (A) (A) (A) (A)
                 (A) (A) (A) (A) (A) (A) (A) (A) (A) (A) (A) (A)
                 (A) (A) (A) (A) (A) (A) (A) (A) (A) (A) (A) (A)
                 (A) (A) (A) (A) (A) (A) (A) (A) (A) (A) (A) (A)
                 (A) (A) (A) (A) (A) (A) (A)
       Virtual   (A) (A) (A) (A) (A) (A) (A) (A) (A) (A) (A) (A)
                 (A) (A) (A) (A) (A) (A) (A) (A) (A) (A) (A) (A)
                 (A) (A) (A) (A) (A) (A) (A) (A) (A) (A) (A) (A)
                 (A) (A) (A) (A) (A) (A) (A) (A) (A) (A) (A) (A)
                 (A) (A) (A) (A) (A) (A) (A) (A) (A) (A) (A) (A)
                 (A) (A) (A) (A) (A) (A) (A) (A) (A) (A) (A) (A)
                 (A) (A) (A) (A) (A) (A) (A) (A) (A) (A) (A) (A)
                 (A) (A) (A) (A) (A) (A) (A) (A) (A) (A) (A) (A)
                 (A) (A) (A) (A) (A) (A) (A) (A) (A) (A) (A) (A)
                 (A) (A) (A) (A) (A) (A) (A) (A) (A) (A) (A) (A)
                 (A) (A) (A) (A) (A) (A) (A) (A) (A) (A) (A) (A)
                 (A) (A) (A) (A) (A) (A) (A) (A) (A) (A) (A) (A)
                 (A) (A) (A) (A) (A) (A) (A) (A) (A) (A) (A) (A)
                 (A) (A) (A) (A) (A) (A) (A) (A) (A) (A) (A) (A)
                 (A) (A) (A) (A) (A) (A) (A) (A) (A) (A) (A) (A)
                 (A) (A) (A) (A) (A) (A) (A) (A) (A) (A) (A) (A)
                 (A) (A) (A) (A) (A) (A) (A) (A) (A) (A) (A) (A)
                 (A) (A) (A) (A) (A) (A) (A) (A) (A) (A) (A) (A)
                 (A) (A) (A) (A) (A) (A) (A) (A) (A) (A) (A) (A)
                 (A) (A) (A) (A) (A) (A) (A) (A) (A) (A) (A) (A)
                 (A) (A) (A) (A) (A) (A) (A) (A) (A) (A) (A) (A)
                 (A) (A) (A) (A) (A) (A) (A) (A) (A) (A) (A) (A)
                 (A) (A) (A) (A) (A) (A) (A) (A) (A) (A) (A) (A)
                 (A) (A) (A) (A) (A) (A) (A) (A) (A) (A) (A) (A)
                 (A) (A) (A) (A) (A) (A) (A) (A) (A) (A) (A) (A)
                 (A) (A) (A) (A) (A) (A) (A) (A) (A) (A) (A) (A)
                 (A) (A) (A) (A) (A) (A) (A) (A) (A) (A) (A) (A)
                 (A) (A) (A) (A) (A) (A) (A) (A) (A) (A) (A) (A)
                 (A) (A) (A) (A) (A) (A) (A) (A) (A) (A) (A) (A)
                 (A) (A) (A) (A) (A) (A) (A) (A) (A) (A) (A) (A)
                 (A) (A) (A) (A) (A) (A) (A) (A) (A) (A) (A) (A)
                 (A) (A) (A) (A) (A) (A) (A) (A) (A) (A) (A) (A)
                 (A) (A) (A) (A) (A) (A) (A) (A) (A) (A) (A) (A)
                 (A) (A) (A) (A) (A) (A) (A) (A) (A) (A) (A) (A)
                 (A) (A) (A) (A) (A) (A) (A) (A) (A) (A) (A) (A)
                 (A) (A) (A) (A) (A) (A) (A) (A) (A) (A) (A) (A)
                 (A) (A) (A) (A) (A) (A) (A) (A) (A) (A) (A) (A)
                 (A) (A) (A) (A) (A) (A) (A) (A) (A) (A) (A) (A)
 The electronic state is 1-A.
 Alpha  occ. eigenvalues --  -19.20557 -19.19980 -19.19699 -19.19204 -19.19177
 Alpha  occ. eigenvalues --  -19.18305 -19.17582 -19.17374 -19.16045 -19.15349
 Alpha  occ. eigenvalues --  -19.14365 -10.32470 -10.31454 -10.27099 -10.27051
 Alpha  occ. eigenvalues --  -10.26678 -10.26246 -10.25934 -10.25388 -10.25250
 Alpha  occ. eigenvalues --  -10.25224 -10.24714 -10.24498  -1.10913  -1.09448
 Alpha  occ. eigenvalues --   -1.06122  -1.05539  -1.04855  -1.03910  -1.03144
 Alpha  occ. eigenvalues --   -1.02998  -1.02033  -1.01280  -1.00406  -0.83154
 Alpha  occ. eigenvalues --   -0.80997  -0.79772  -0.79020  -0.72722  -0.70707
 Alpha  occ. eigenvalues --   -0.67968  -0.65272  -0.63947  -0.63213  -0.61654
 Alpha  occ. eigenvalues --   -0.60585  -0.57039  -0.56331  -0.55627  -0.55291
 Alpha  occ. eigenvalues --   -0.54416  -0.53762  -0.53448  -0.52294  -0.51894
 Alpha  occ. eigenvalues --   -0.51065  -0.50752  -0.49843  -0.48890  -0.46941
 Alpha  occ. eigenvalues --   -0.46519  -0.45946  -0.45253  -0.44300  -0.44042
 Alpha  occ. eigenvalues --   -0.42806  -0.42053  -0.41326  -0.40666  -0.39709
 Alpha  occ. eigenvalues --   -0.39288  -0.38180  -0.37771  -0.36596  -0.36173
 Alpha  occ. eigenvalues --   -0.35724  -0.34957  -0.34571  -0.34511  -0.34208
 Alpha  occ. eigenvalues --   -0.33291  -0.31870  -0.31472  -0.30835  -0.30424
 Alpha  occ. eigenvalues --   -0.29769  -0.28954  -0.28354  -0.27394  -0.27228
 Alpha  occ. eigenvalues --   -0.26651
 Alpha virt. eigenvalues --   -0.02262  -0.01989  -0.01832  -0.00638   0.00062
 Alpha virt. eigenvalues --    0.00659   0.01714   0.02173   0.02696   0.03238
 Alpha virt. eigenvalues --    0.03750   0.04234   0.04449   0.05225   0.05456
 Alpha virt. eigenvalues --    0.06049   0.06402   0.06838   0.07430   0.08032
 Alpha virt. eigenvalues --    0.08526   0.08826   0.09072   0.09498   0.09911
 Alpha virt. eigenvalues --    0.10216   0.10769   0.11080   0.12025   0.12094
 Alpha virt. eigenvalues --    0.12325   0.12682   0.12944   0.13431   0.13486
 Alpha virt. eigenvalues --    0.13719   0.14174   0.14446   0.14922   0.15228
 Alpha virt. eigenvalues --    0.15456   0.16000   0.16595   0.16641   0.17071
 Alpha virt. eigenvalues --    0.17124   0.17556   0.17586   0.17816   0.18578
 Alpha virt. eigenvalues --    0.18653   0.18851   0.18978   0.19572   0.19761
 Alpha virt. eigenvalues --    0.20650   0.20701   0.21058   0.21093   0.21210
 Alpha virt. eigenvalues --    0.21853   0.22066   0.22182   0.22445   0.22871
 Alpha virt. eigenvalues --    0.23093   0.23419   0.23696   0.24315   0.24365
 Alpha virt. eigenvalues --    0.24830   0.25022   0.25275   0.25430   0.26047
 Alpha virt. eigenvalues --    0.26290   0.26378   0.26606   0.27124   0.27322
 Alpha virt. eigenvalues --    0.27598   0.27850   0.28042   0.28143   0.28798
 Alpha virt. eigenvalues --    0.29072   0.29335   0.29474   0.29934   0.30312
 Alpha virt. eigenvalues --    0.30713   0.30988   0.31639   0.31987   0.32142
 Alpha virt. eigenvalues --    0.32364   0.32531   0.33064   0.33624   0.33913
 Alpha virt. eigenvalues --    0.34224   0.34329   0.34777   0.35211   0.35356
 Alpha virt. eigenvalues --    0.35874   0.36139   0.36546   0.37035   0.37280
 Alpha virt. eigenvalues --    0.37801   0.38049   0.38354   0.38768   0.39022
 Alpha virt. eigenvalues --    0.39367   0.40171   0.40381   0.40674   0.41170
 Alpha virt. eigenvalues --    0.41796   0.42400   0.42797   0.43522   0.43726
 Alpha virt. eigenvalues --    0.44213   0.45352   0.45587   0.45975   0.46642
 Alpha virt. eigenvalues --    0.47011   0.47200   0.47941   0.49456   0.50129
 Alpha virt. eigenvalues --    0.51251   0.52533   0.55291   0.61904   0.62678
 Alpha virt. eigenvalues --    0.64461   0.65049   0.67801   0.68236   0.69520
 Alpha virt. eigenvalues --    0.69815   0.70863   0.71884   0.73214   0.74172
 Alpha virt. eigenvalues --    0.74766   0.75363   0.76663   0.77521   0.78769
 Alpha virt. eigenvalues --    0.79501   0.79900   0.81211   0.81437   0.82886
 Alpha virt. eigenvalues --    0.83665   0.85552   0.86746   0.88208   0.88821
 Alpha virt. eigenvalues --    0.89867   0.91058   0.92459   0.93156   0.94689
 Alpha virt. eigenvalues --    0.95081   0.96191   0.96576   0.99175   1.00314
 Alpha virt. eigenvalues --    1.01288   1.02100   1.02524   1.03370   1.03880
 Alpha virt. eigenvalues --    1.04063   1.05519   1.06707   1.06847   1.07421
 Alpha virt. eigenvalues --    1.07713   1.07994   1.08999   1.09124   1.10767
 Alpha virt. eigenvalues --    1.11363   1.11966   1.12747   1.13708   1.14386
 Alpha virt. eigenvalues --    1.14898   1.17644   1.19483   1.20672   1.20891
 Alpha virt. eigenvalues --    1.21238   1.22501   1.23404   1.23708   1.24539
 Alpha virt. eigenvalues --    1.25799   1.26666   1.27010   1.27481   1.28293
 Alpha virt. eigenvalues --    1.28696   1.29484   1.29513   1.30778   1.31744
 Alpha virt. eigenvalues --    1.31928   1.32662   1.33464   1.33752   1.34198
 Alpha virt. eigenvalues --    1.34681   1.34791   1.36071   1.37554   1.38005
 Alpha virt. eigenvalues --    1.38501   1.39278   1.41434   1.42516   1.42979
 Alpha virt. eigenvalues --    1.44433   1.44735   1.46433   1.47041   1.47713
 Alpha virt. eigenvalues --    1.48643   1.49161   1.49819   1.51003   1.52198
 Alpha virt. eigenvalues --    1.52928   1.55418   1.56839   1.57300   1.58092
 Alpha virt. eigenvalues --    1.58395   1.58936   1.59413   1.60721   1.61051
 Alpha virt. eigenvalues --    1.62102   1.62314   1.62853   1.63647   1.64738
 Alpha virt. eigenvalues --    1.66028   1.67145   1.67979   1.68111   1.68696
 Alpha virt. eigenvalues --    1.69618   1.70489   1.72057   1.73156   1.73372
 Alpha virt. eigenvalues --    1.74011   1.75079   1.75352   1.76050   1.76691
 Alpha virt. eigenvalues --    1.77376   1.78849   1.79757   1.80959   1.81855
 Alpha virt. eigenvalues --    1.81954   1.82824   1.85036   1.85928   1.86673
 Alpha virt. eigenvalues --    1.87060   1.87932   1.88723   1.89565   1.90961
 Alpha virt. eigenvalues --    1.91448   1.92397   1.92903   1.93622   1.94363
 Alpha virt. eigenvalues --    1.94648   1.95940   1.96227   1.97157   1.97353
 Alpha virt. eigenvalues --    1.98755   1.99564   1.99649   2.00310   2.01320
 Alpha virt. eigenvalues --    2.01665   2.04150   2.04650   2.06071   2.06566
 Alpha virt. eigenvalues --    2.07433   2.07810   2.08761   2.09682   2.10643
 Alpha virt. eigenvalues --    2.12001   2.12638   2.14227   2.14267   2.16047
 Alpha virt. eigenvalues --    2.16787   2.17279   2.17672   2.18654   2.19387
 Alpha virt. eigenvalues --    2.20762   2.22097   2.23493   2.25415   2.26480
 Alpha virt. eigenvalues --    2.28181   2.29974   2.31751   2.33400   2.33735
 Alpha virt. eigenvalues --    2.35167   2.36610   2.38212   2.38772   2.39018
 Alpha virt. eigenvalues --    2.40159   2.40721   2.43318   2.43357   2.43447
 Alpha virt. eigenvalues --    2.45006   2.46277   2.47152   2.48440   2.49408
 Alpha virt. eigenvalues --    2.49837   2.50655   2.51755   2.53259   2.54803
 Alpha virt. eigenvalues --    2.55425   2.56854   2.57405   2.58340   2.58772
 Alpha virt. eigenvalues --    2.59710   2.61466   2.61584   2.62213   2.63795
 Alpha virt. eigenvalues --    2.64383   2.64840   2.66466   2.68209   2.69377
 Alpha virt. eigenvalues --    2.69577   2.70377   2.70699   2.71915   2.73417
 Alpha virt. eigenvalues --    2.74828   2.74955   2.77770   2.78330   2.78896
 Alpha virt. eigenvalues --    2.80840   2.81319   2.83074   2.83586   2.84166
 Alpha virt. eigenvalues --    2.85117   2.86656   2.88416   2.88878   2.89784
 Alpha virt. eigenvalues --    2.91105   2.91747   2.91958   2.93655   2.94441
 Alpha virt. eigenvalues --    2.95436   2.97268   2.98511   2.99372   3.00049
 Alpha virt. eigenvalues --    3.00442   3.02618   3.03418   3.05042   3.07812
 Alpha virt. eigenvalues --    3.08653   3.08989   3.09752   3.11255   3.15619
 Alpha virt. eigenvalues --    3.17053   3.18514   3.21005   3.22103   3.31212
 Alpha virt. eigenvalues --    3.32434   3.36047   3.36466   3.38293   3.39925
 Alpha virt. eigenvalues --    3.41915   3.43987   3.45665   3.46828   3.47653
 Alpha virt. eigenvalues --    3.49409   3.50225   3.51950   3.52318   3.54825
 Alpha virt. eigenvalues --    3.55522   3.57198   3.60766   3.61433   3.65787
 Alpha virt. eigenvalues --    3.67306   3.72180   3.73980   4.29514   4.32142
 Alpha virt. eigenvalues --    4.33982   4.36730   4.38475   4.42014   4.44444
 Alpha virt. eigenvalues --    4.46441   4.48458   4.50659   4.51975   4.55355
 Alpha virt. eigenvalues --    4.56874   4.57756   4.62318   4.64250   4.67277
 Alpha virt. eigenvalues --    4.75009   4.79205   4.84211   4.85902   4.87684
 Alpha virt. eigenvalues --    4.89971
          Condensed to atoms (all electrons):
              1          2          3          4          5          6
     1  O    8.281803   0.268806  -0.112713  -0.028111   0.040793   0.097797
     2  C    0.268806   9.537602  -1.414059  -0.015311  -0.094402  -3.094271
     3  C   -0.112713  -1.414059   9.559408   0.381408  -0.005140  -0.317911
     4  O   -0.028111  -0.015311   0.381408   8.212935   0.192361  -0.233599
     5  H    0.040793  -0.094402  -0.005140   0.192361   0.425872   0.069072
     6  C    0.097797  -3.094271  -0.317911  -0.233599   0.069072  12.689494
     7  O   -0.002108   0.065449  -0.260050   0.017616  -0.001357   0.334443
     8  H    0.000024  -0.012855   0.040270  -0.000746   0.000003   0.027869
     9  C   -0.035879  -0.285181  -0.080812   0.004366  -0.005041   0.336764
    10  O   -0.001919   0.018280   0.024346   0.000049  -0.000043  -0.004997
    11  H    0.001478  -0.006951  -0.000699   0.000000   0.000000  -0.000330
    12  C   -0.168860  -1.385255  -0.444576   0.005344   0.025972   0.480028
    13  O    0.002246  -0.012835   0.033151  -0.000321  -0.000091  -0.218202
    14  C    0.017856   1.600892  -0.746086   0.003949   0.000526  -3.720246
    15  O    0.000501  -0.058991   0.015359  -0.000174   0.000076   0.291075
    16  C    0.002253   0.178104  -0.396610   0.001698   0.000963  -0.312909
    17  C    0.000551  -0.023293  -0.039277   0.000503   0.000095   0.162754
    18  O    0.000012   0.008448  -0.000798  -0.000013   0.000000   0.005870
    19  H   -0.000019  -0.003147   0.004168  -0.000002   0.000000   0.005493
    20  C    0.000089   0.002268  -0.010658  -0.000026   0.000003   0.110584
    21  O    0.000000  -0.000020   0.000005   0.000000   0.000000  -0.000431
    22  H    0.000000  -0.000002   0.000002   0.000000   0.000000  -0.000009
    23  C    0.000154   0.012493   0.008497   0.000158   0.000015  -0.161977
    24  O    0.000002   0.003237  -0.009876  -0.000199  -0.000002  -0.018643
    25  H    0.000000  -0.000023   0.001305   0.000005   0.000000  -0.002347
    26  C   -0.000455   0.029178  -0.042786   0.000275  -0.000049  -0.387796
    27  O    0.000000  -0.000212   0.000450   0.000001   0.000000   0.004250
    28  C    0.000003   0.000036  -0.002870   0.000007   0.000000  -0.003304
    29  O    0.000000   0.000002   0.000049   0.000000   0.000000  -0.000321
    30  H    0.240478   0.059324  -0.030226   0.003078  -0.004830   0.002425
    31  H    0.000000   0.000000   0.000000   0.000000   0.000000  -0.000005
    32  H    0.000000  -0.000002   0.000008   0.000000   0.000000   0.001468
    33  H    0.000000  -0.000039   0.000398   0.000004   0.000000   0.005294
    34  H    0.000000  -0.000177   0.000814   0.000000   0.000000   0.007873
    35  H   -0.000002  -0.001545   0.004096  -0.000001   0.000000   0.019577
    36  H    0.000000   0.000021   0.001037   0.000000   0.000000   0.002393
    37  H    0.000000   0.000087   0.000071   0.000000   0.000000  -0.000209
    38  H    0.000000  -0.000002   0.000015   0.000000   0.000000   0.000090
    39  H    0.000373   0.003770  -0.007424   0.000019   0.000000   0.002980
    40  H    0.000134  -0.022801   0.004041  -0.000001   0.000000   0.013864
    41  H    0.004376   0.029224  -0.045266   0.000173  -0.000015  -0.041055
    42  H   -0.053842   0.464167  -0.089725   0.000538  -0.000396  -0.056265
    43  H   -0.009526   0.178509   0.220082  -0.055208  -0.002680  -0.365340
    44  H   -0.001171   0.126631  -0.238029   0.004814  -0.000153   0.191000
    45  H   -0.000012   0.037155  -0.040061  -0.000234   0.000002  -0.104760
              7          8          9         10         11         12
     1  O   -0.002108   0.000024  -0.035879  -0.001919   0.001478  -0.168860
     2  C    0.065449  -0.012855  -0.285181   0.018280  -0.006951  -1.385255
     3  C   -0.260050   0.040270  -0.080812   0.024346  -0.000699  -0.444576
     4  O    0.017616  -0.000746   0.004366   0.000049   0.000000   0.005344
     5  H   -0.001357   0.000003  -0.005041  -0.000043   0.000000   0.025972
     6  C    0.334443   0.027869   0.336764  -0.004997  -0.000330   0.480028
     7  O    8.252727   0.190696   0.002664   0.000031   0.000000   0.034155
     8  H    0.190696   0.370948   0.000128   0.000000   0.000000   0.001938
     9  C    0.002664   0.000128   8.541552   0.065816   0.006352  -2.581119
    10  O    0.000031   0.000000   0.065816   8.349147   0.198336   0.015299
    11  H    0.000000   0.000000   0.006352   0.198336   0.427534   0.021356
    12  C    0.034155   0.001938  -2.581119   0.015299   0.021356  11.208846
    13  O    0.010663   0.003290   0.031656  -0.001151  -0.000224  -0.100165
    14  C   -0.063120  -0.040680  -0.785629   0.002792  -0.003659  -0.991321
    15  O   -0.014214   0.025947   0.003339  -0.000021   0.000005   0.033914
    16  C   -0.001298  -0.030680  -0.237533  -0.002076   0.000090  -0.010438
    17  C    0.002319  -0.002571  -0.016536  -0.000177  -0.000089  -0.137388
    18  O   -0.000038   0.000003   0.013672  -0.000023   0.000011  -0.024375
    19  H   -0.000045  -0.000011  -0.006106   0.000018  -0.000003   0.011160
    20  C    0.001694   0.000981   0.007258   0.000016  -0.000002  -0.043861
    21  O   -0.000003   0.000000   0.000145   0.000000   0.000000   0.000017
    22  H    0.000000   0.000000   0.000010   0.000000   0.000000   0.000002
    23  C   -0.002573   0.020186  -0.008807  -0.000033  -0.000001  -0.051337
    24  O   -0.023121  -0.008917   0.000461   0.000000   0.000000   0.003463
    25  H    0.002065  -0.001947  -0.000019   0.000000   0.000000  -0.000557
    26  C    0.005387  -0.014171   0.017131   0.000044   0.000004   0.159416
    27  O    0.000022  -0.000059  -0.000173   0.000000   0.000000   0.000141
    28  C    0.000082  -0.000311  -0.003365  -0.000003   0.000000   0.003996
    29  O   -0.000002   0.000000   0.000001   0.000000   0.000000   0.000100
    30  H    0.000009   0.000000   0.005883  -0.001469  -0.000025  -0.023570
    31  H    0.000000   0.000000   0.000000   0.000000   0.000000   0.000000
    32  H   -0.000356   0.000235  -0.000007   0.000000   0.000000  -0.000117
    33  H    0.001616   0.001085   0.000021   0.000000   0.000000   0.000255
    34  H   -0.000130   0.000043   0.000043   0.000000   0.000000   0.000044
    35  H   -0.000395   0.000191  -0.000099   0.000001   0.000000  -0.000011
    36  H   -0.000039   0.000009  -0.000441   0.000000   0.000000   0.001917
    37  H   -0.000001   0.000000  -0.000139   0.000000   0.000000   0.000845
    38  H   -0.000001   0.000000   0.000000   0.000000   0.000000   0.000040
    39  H   -0.000010   0.000000   0.400213  -0.045762  -0.011557  -0.031673
    40  H   -0.000005   0.000000   0.677165  -0.066610  -0.001561  -0.316716
    41  H    0.000067   0.000002   0.002376   0.005091  -0.000097   0.211717
    42  H    0.000156   0.000000  -0.007801  -0.000326   0.000012  -0.120798
    43  H    0.010036  -0.000261   0.026869   0.000115   0.000001  -0.001658
    44  H   -0.042641  -0.004143   0.017429   0.000043   0.000000   0.019742
    45  H    0.006985  -0.001481   0.005433   0.000056   0.000000  -0.003779
             13         14         15         16         17         18
     1  O    0.002246   0.017856   0.000501   0.002253   0.000551   0.000012
     2  C   -0.012835   1.600892  -0.058991   0.178104  -0.023293   0.008448
     3  C    0.033151  -0.746086   0.015359  -0.396610  -0.039277  -0.000798
     4  O   -0.000321   0.003949  -0.000174   0.001698   0.000503  -0.000013
     5  H   -0.000091   0.000526   0.000076   0.000963   0.000095   0.000000
     6  C   -0.218202  -3.720246   0.291075  -0.312909   0.162754   0.005870
     7  O    0.010663  -0.063120  -0.014214  -0.001298   0.002319  -0.000038
     8  H    0.003290  -0.040680   0.025947  -0.030680  -0.002571   0.000003
     9  C    0.031656  -0.785629   0.003339  -0.237533  -0.016536   0.013672
    10  O   -0.001151   0.002792  -0.000021  -0.002076  -0.000177  -0.000023
    11  H   -0.000224  -0.003659   0.000005   0.000090  -0.000089   0.000011
    12  C   -0.100165  -0.991321   0.033914  -0.010438  -0.137388  -0.024375
    13  O    8.475807   0.267579  -0.030932   0.019734  -0.076056   0.025547
    14  C    0.267579  11.527159  -0.045156  -0.999685  -0.229843  -0.077822
    15  O   -0.030932  -0.045156   8.371514  -0.041612   0.028618  -0.003573
    16  C    0.019734  -0.999685  -0.041612  12.687478  -2.212909  -0.084569
    17  C   -0.076056  -0.229843   0.028618  -2.212909   9.154634   0.346306
    18  O    0.025547  -0.077822  -0.003573  -0.084569   0.346306   8.228300
    19  H    0.024973  -0.012589   0.013463  -0.056930   0.040831   0.181948
    20  C   -0.002379  -0.426137   0.003103  -0.758360  -1.308315  -0.121174
    21  O   -0.000036   0.000030   0.000285  -0.011083  -0.179812   0.008405
    22  H   -0.000005   0.000399   0.000037  -0.010620   0.070730  -0.000836
    23  C    0.023414  -0.387122  -0.027561   0.248629  -0.304487   0.003590
    24  O   -0.003741   0.148381  -0.023923  -0.078334  -0.001907  -0.000017
    25  H    0.000034  -0.014718   0.001971   0.002559   0.000299   0.000001
    26  C    0.013888   0.021854  -0.102609  -3.211835   0.000697   0.055778
    27  O    0.000375   0.010130   0.011717  -0.083654   0.020781  -0.000309
    28  C   -0.000105   0.046126   0.018141   0.625842   0.339769   0.016035
    29  O    0.000012  -0.000480   0.000201  -0.016567   0.037681  -0.000738
    30  H   -0.000513  -0.001958  -0.000009   0.000174  -0.000069   0.000000
    31  H    0.000000   0.000063   0.000000  -0.004770   0.006066  -0.000048
    32  H   -0.000006  -0.002819   0.000176   0.041946  -0.003169   0.000027
    33  H    0.000247  -0.006136   0.005236  -0.016383   0.001733  -0.000017
    34  H   -0.000343   0.040913   0.006253   0.022123   0.000830  -0.000375
    35  H   -0.000019   0.025676  -0.062440   0.346896   0.021699  -0.002704
    36  H    0.001385   0.046164  -0.007566   0.053190   0.335694  -0.049440
    37  H    0.000413   0.005578  -0.000791   0.119986  -0.185346   0.000167
    38  H    0.000009   0.006372   0.000290   0.103640  -0.009909  -0.000738
    39  H    0.001235   0.005623  -0.000138   0.004513   0.000100  -0.000929
    40  H    0.008271  -0.003948  -0.000154  -0.006063   0.001071   0.000141
    41  H   -0.050244   0.109270  -0.000333  -0.002111   0.004431   0.000067
    42  H    0.011401   0.079845  -0.000361   0.000355   0.000937   0.000061
    43  H    0.010586   0.162008  -0.000603   0.010945   0.000613   0.000036
    44  H    0.021439   0.107770  -0.015957   0.012755   0.000098   0.000116
    45  H   -0.061580   0.361174  -0.058734   0.049401   0.026486  -0.000863
             19         20         21         22         23         24
     1  O   -0.000019   0.000089   0.000000   0.000000   0.000154   0.000002
     2  C   -0.003147   0.002268  -0.000020  -0.000002   0.012493   0.003237
     3  C    0.004168  -0.010658   0.000005   0.000002   0.008497  -0.009876
     4  O   -0.000002  -0.000026   0.000000   0.000000   0.000158  -0.000199
     5  H    0.000000   0.000003   0.000000   0.000000   0.000015  -0.000002
     6  C    0.005493   0.110584  -0.000431  -0.000009  -0.161977  -0.018643
     7  O   -0.000045   0.001694  -0.000003   0.000000  -0.002573  -0.023121
     8  H   -0.000011   0.000981   0.000000   0.000000   0.020186  -0.008917
     9  C   -0.006106   0.007258   0.000145   0.000010  -0.008807   0.000461
    10  O    0.000018   0.000016   0.000000   0.000000  -0.000033   0.000000
    11  H   -0.000003  -0.000002   0.000000   0.000000  -0.000001   0.000000
    12  C    0.011160  -0.043861   0.000017   0.000002  -0.051337   0.003463
    13  O    0.024973  -0.002379  -0.000036  -0.000005   0.023414  -0.003741
    14  C   -0.012589  -0.426137   0.000030   0.000399  -0.387122   0.148381
    15  O    0.013463   0.003103   0.000285   0.000037  -0.027561  -0.023923
    16  C   -0.056930  -0.758360  -0.011083  -0.010620   0.248629  -0.078334
    17  C    0.040831  -1.308315  -0.179812   0.070730  -0.304487  -0.001907
    18  O    0.181948  -0.121174   0.008405  -0.000836   0.003590  -0.000017
    19  H    0.361337   0.011444  -0.000688   0.000015  -0.003462   0.000043
    20  C    0.011444   9.320459   0.296849  -0.047553   0.178497  -0.008529
    21  O   -0.000688   0.296849   8.233924   0.218204   0.004398   0.000027
    22  H    0.000015  -0.047553   0.218204   0.422961  -0.000261   0.000000
    23  C   -0.003462   0.178497   0.004398  -0.000261   7.014153  -0.256901
    24  O    0.000043  -0.008529   0.000027   0.000000  -0.256901   8.525757
    25  H    0.000000   0.000884   0.000000   0.000000   0.066790   0.197723
    26  C    0.012328   0.435148   0.032156  -0.000144  -1.110829   0.260146
    27  O    0.000143  -0.214357   0.009110   0.000264  -0.058507   0.003624
    28  C   -0.005109  -1.377866  -0.057156  -0.015246  -0.255300   0.011721
    29  O    0.000041  -0.160701   0.005749   0.021200  -0.014186   0.000140
    30  H    0.000000   0.000001   0.000000   0.000000   0.000005   0.000000
    31  H    0.000000  -0.033900  -0.000139  -0.001677   0.001289   0.000000
    32  H    0.000000   0.002040  -0.000007   0.000000   0.440173  -0.035991
    33  H    0.000001  -0.003345   0.000001   0.000000   0.509032  -0.084344
    34  H    0.000007  -0.043208   0.000154   0.000003  -0.009805   0.002371
    35  H   -0.000859   0.002105  -0.000821   0.000010  -0.017772  -0.000247
    36  H   -0.004714  -0.111765  -0.000128  -0.000182   0.010742  -0.000085
    37  H   -0.000053   0.390749  -0.050545  -0.009010   0.014417  -0.000013
    38  H    0.000005  -0.140804   0.003917  -0.000131   0.000034  -0.000046
    39  H    0.000493  -0.000735   0.000000   0.000000   0.000012   0.000000
    40  H   -0.000210   0.000645   0.000001   0.000000   0.000024   0.000000
    41  H    0.000323   0.001083   0.000000   0.000000   0.000941   0.000007
    42  H   -0.000004   0.000058   0.000000   0.000000   0.000164   0.000005
    43  H   -0.000001   0.000018   0.000000   0.000000   0.001176   0.000112
    44  H   -0.000030   0.000478   0.000000   0.000000   0.004834   0.000383
    45  H    0.000137   0.009537  -0.000002   0.000000   0.018552  -0.000009
             25         26         27         28         29         30
     1  O    0.000000  -0.000455   0.000000   0.000003   0.000000   0.240478
     2  C   -0.000023   0.029178  -0.000212   0.000036   0.000002   0.059324
     3  C    0.001305  -0.042786   0.000450  -0.002870   0.000049  -0.030226
     4  O    0.000005   0.000275   0.000001   0.000007   0.000000   0.003078
     5  H    0.000000  -0.000049   0.000000   0.000000   0.000000  -0.004830
     6  C   -0.002347  -0.387796   0.004250  -0.003304  -0.000321   0.002425
     7  O    0.002065   0.005387   0.000022   0.000082  -0.000002   0.000009
     8  H   -0.001947  -0.014171  -0.000059  -0.000311   0.000000   0.000000
     9  C   -0.000019   0.017131  -0.000173  -0.003365   0.000001   0.005883
    10  O    0.000000   0.000044   0.000000  -0.000003   0.000000  -0.001469
    11  H    0.000000   0.000004   0.000000   0.000000   0.000000  -0.000025
    12  C   -0.000557   0.159416   0.000141   0.003996   0.000100  -0.023570
    13  O    0.000034   0.013888   0.000375  -0.000105   0.000012  -0.000513
    14  C   -0.014718   0.021854   0.010130   0.046126  -0.000480  -0.001958
    15  O    0.001971  -0.102609   0.011717   0.018141   0.000201  -0.000009
    16  C    0.002559  -3.211835  -0.083654   0.625842  -0.016567   0.000174
    17  C    0.000299   0.000697   0.020781   0.339769   0.037681  -0.000069
    18  O    0.000001   0.055778  -0.000309   0.016035  -0.000738   0.000000
    19  H    0.000000   0.012328   0.000143  -0.005109   0.000041   0.000000
    20  C    0.000884   0.435148  -0.214357  -1.377866  -0.160701   0.000001
    21  O    0.000000   0.032156   0.009110  -0.057156   0.005749   0.000000
    22  H    0.000000  -0.000144   0.000264  -0.015246   0.021200   0.000000
    23  C    0.066790  -1.110829  -0.058507  -0.255300  -0.014186   0.000005
    24  O    0.197723   0.260146   0.003624   0.011721   0.000140   0.000000
    25  H    0.404678  -0.033298  -0.000440  -0.002541   0.000001   0.000000
    26  C   -0.033298  10.939007   0.294374  -0.802667  -0.042006  -0.000004
    27  O   -0.000440   0.294374   8.328481   0.114331  -0.048700   0.000000
    28  C   -0.002541  -0.802667   0.114331   6.248761   0.383448   0.000000
    29  O    0.000001  -0.042006  -0.048700   0.383448   8.233258   0.000000
    30  H    0.000000  -0.000004   0.000000   0.000000   0.000000   0.384069
    31  H    0.000000   0.014302   0.003637   0.022729   0.228800   0.000000
    32  H   -0.011535  -0.107651  -0.002433   0.002692  -0.000300   0.000000
    33  H   -0.000062  -0.147693   0.007104   0.006153  -0.000027   0.000000
    34  H   -0.000084   0.216087  -0.039535   0.036953  -0.001098   0.000000
    35  H   -0.000007  -0.123167   0.006104   0.006433  -0.000747   0.000000
    36  H    0.000000  -0.055987   0.002709  -0.002240  -0.000559   0.000000
    37  H    0.000000  -0.030224   0.006311  -0.029827  -0.007149   0.000000
    38  H    0.000000  -0.080997  -0.055943   0.454406  -0.058267   0.000000
    39  H    0.000000   0.000106   0.000000   0.000065   0.000000  -0.000024
    40  H    0.000000  -0.000094   0.000000  -0.000048   0.000000   0.000041
    41  H    0.000000  -0.001694  -0.000001  -0.000095   0.000000  -0.000076
    42  H    0.000000  -0.000027   0.000000  -0.000008   0.000000  -0.010872
    43  H    0.000000   0.000916   0.000000  -0.000015   0.000000   0.000254
    44  H   -0.000007   0.004073  -0.000006  -0.000087   0.000000   0.000026
    45  H    0.000012  -0.026402   0.000078  -0.000988  -0.000001   0.000002
             31         32         33         34         35         36
     1  O    0.000000   0.000000   0.000000   0.000000  -0.000002   0.000000
     2  C    0.000000  -0.000002  -0.000039  -0.000177  -0.001545   0.000021
     3  C    0.000000   0.000008   0.000398   0.000814   0.004096   0.001037
     4  O    0.000000   0.000000   0.000004   0.000000  -0.000001   0.000000
     5  H    0.000000   0.000000   0.000000   0.000000   0.000000   0.000000
     6  C   -0.000005   0.001468   0.005294   0.007873   0.019577   0.002393
     7  O    0.000000  -0.000356   0.001616  -0.000130  -0.000395  -0.000039
     8  H    0.000000   0.000235   0.001085   0.000043   0.000191   0.000009
     9  C    0.000000  -0.000007   0.000021   0.000043  -0.000099  -0.000441
    10  O    0.000000   0.000000   0.000000   0.000000   0.000001   0.000000
    11  H    0.000000   0.000000   0.000000   0.000000   0.000000   0.000000
    12  C    0.000000  -0.000117   0.000255   0.000044  -0.000011   0.001917
    13  O    0.000000  -0.000006   0.000247  -0.000343  -0.000019   0.001385
    14  C    0.000063  -0.002819  -0.006136   0.040913   0.025676   0.046164
    15  O    0.000000   0.000176   0.005236   0.006253  -0.062440  -0.007566
    16  C   -0.004770   0.041946  -0.016383   0.022123   0.346896   0.053190
    17  C    0.006066  -0.003169   0.001733   0.000830   0.021699   0.335694
    18  O   -0.000048   0.000027  -0.000017  -0.000375  -0.002704  -0.049440
    19  H    0.000000   0.000000   0.000001   0.000007  -0.000859  -0.004714
    20  C   -0.033900   0.002040  -0.003345  -0.043208   0.002105  -0.111765
    21  O   -0.000139  -0.000007   0.000001   0.000154  -0.000821  -0.000128
    22  H   -0.001677   0.000000   0.000000   0.000003   0.000010  -0.000182
    23  C    0.001289   0.440173   0.509032  -0.009805  -0.017772   0.010742
    24  O    0.000000  -0.035991  -0.084344   0.002371  -0.000247  -0.000085
    25  H    0.000000  -0.011535  -0.000062  -0.000084  -0.000007   0.000000
    26  C    0.014302  -0.107651  -0.147693   0.216087  -0.123167  -0.055987
    27  O    0.003637  -0.002433   0.007104  -0.039535   0.006104   0.002709
    28  C    0.022729   0.002692   0.006153   0.036953   0.006433  -0.002240
    29  O    0.228800  -0.000300  -0.000027  -0.001098  -0.000747  -0.000559
    30  H    0.000000   0.000000   0.000000   0.000000   0.000000   0.000000
    31  H    0.404353   0.000000   0.000000   0.000023   0.000002   0.000008
    32  H    0.000000   0.575926  -0.042193  -0.003867   0.000170   0.000004
    33  H    0.000000  -0.042193   0.610080   0.006248   0.005250   0.000009
    34  H    0.000023  -0.003867   0.006248   0.594373   0.006397   0.003102
    35  H    0.000002   0.000170   0.005250   0.006397   0.613259   0.006420
    36  H    0.000008   0.000004   0.000009   0.003102   0.006420   0.619748
    37  H    0.000280   0.000001   0.000005   0.000156   0.003767   0.007618
    38  H   -0.007009  -0.000035  -0.000001   0.007101   0.000080   0.002622
    39  H    0.000000   0.000000   0.000000   0.000000   0.000000   0.000000
    40  H    0.000000   0.000000   0.000000   0.000000   0.000000   0.000000
    41  H    0.000000   0.000000   0.000000   0.000000  -0.000004   0.000000
    42  H    0.000000   0.000000   0.000000   0.000000   0.000000   0.000000
    43  H    0.000000   0.000000   0.000000   0.000000  -0.000004   0.000000
    44  H    0.000000   0.000000  -0.000009  -0.000009   0.000000  -0.000013
    45  H    0.000000   0.000003   0.000197   0.000000   0.009161  -0.000018
             37         38         39         40         41         42
     1  O    0.000000   0.000000   0.000373   0.000134   0.004376  -0.053842
     2  C    0.000087  -0.000002   0.003770  -0.022801   0.029224   0.464167
     3  C    0.000071   0.000015  -0.007424   0.004041  -0.045266  -0.089725
     4  O    0.000000   0.000000   0.000019  -0.000001   0.000173   0.000538
     5  H    0.000000   0.000000   0.000000   0.000000  -0.000015  -0.000396
     6  C   -0.000209   0.000090   0.002980   0.013864  -0.041055  -0.056265
     7  O   -0.000001  -0.000001  -0.000010  -0.000005   0.000067   0.000156
     8  H    0.000000   0.000000   0.000000   0.000000   0.000002   0.000000
     9  C   -0.000139   0.000000   0.400213   0.677165   0.002376  -0.007801
    10  O    0.000000   0.000000  -0.045762  -0.066610   0.005091  -0.000326
    11  H    0.000000   0.000000  -0.011557  -0.001561  -0.000097   0.000012
    12  C    0.000845   0.000040  -0.031673  -0.316716   0.211717  -0.120798
    13  O    0.000413   0.000009   0.001235   0.008271  -0.050244   0.011401
    14  C    0.005578   0.006372   0.005623  -0.003948   0.109270   0.079845
    15  O   -0.000791   0.000290  -0.000138  -0.000154  -0.000333  -0.000361
    16  C    0.119986   0.103640   0.004513  -0.006063  -0.002111   0.000355
    17  C   -0.185346  -0.009909   0.000100   0.001071   0.004431   0.000937
    18  O    0.000167  -0.000738  -0.000929   0.000141   0.000067   0.000061
    19  H   -0.000053   0.000005   0.000493  -0.000210   0.000323  -0.000004
    20  C    0.390749  -0.140804  -0.000735   0.000645   0.001083   0.000058
    21  O   -0.050545   0.003917   0.000000   0.000001   0.000000   0.000000
    22  H   -0.009010  -0.000131   0.000000   0.000000   0.000000   0.000000
    23  C    0.014417   0.000034   0.000012   0.000024   0.000941   0.000164
    24  O   -0.000013  -0.000046   0.000000   0.000000   0.000007   0.000005
    25  H    0.000000   0.000000   0.000000   0.000000   0.000000   0.000000
    26  C   -0.030224  -0.080997   0.000106  -0.000094  -0.001694  -0.000027
    27  O    0.006311  -0.055943   0.000000   0.000000  -0.000001   0.000000
    28  C   -0.029827   0.454406   0.000065  -0.000048  -0.000095  -0.000008
    29  O   -0.007149  -0.058267   0.000000   0.000000   0.000000   0.000000
    30  H    0.000000   0.000000  -0.000024   0.000041  -0.000076  -0.010872
    31  H    0.000280  -0.007009   0.000000   0.000000   0.000000   0.000000
    32  H    0.000001  -0.000035   0.000000   0.000000   0.000000   0.000000
    33  H    0.000005  -0.000001   0.000000   0.000000   0.000000   0.000000
    34  H    0.000156   0.007101   0.000000   0.000000   0.000000   0.000000
    35  H    0.003767   0.000080   0.000000   0.000000  -0.000004   0.000000
    36  H    0.007618   0.002622   0.000000   0.000000   0.000000   0.000000
    37  H    0.608966   0.006847   0.000000   0.000000   0.000000   0.000000
    38  H    0.006847   0.642458   0.000000   0.000000   0.000000   0.000000
    39  H    0.000000   0.000000   0.603439  -0.050670  -0.013553  -0.000097
    40  H    0.000000   0.000000  -0.050670   0.610810   0.008066   0.003497
    41  H    0.000000   0.000000  -0.013553   0.008066   0.628043   0.007330
    42  H    0.000000   0.000000  -0.000097   0.003497   0.007330   0.623743
    43  H    0.000000   0.000000   0.000002   0.000001   0.005379   0.007863
    44  H    0.000000   0.000000   0.000001  -0.000008   0.000123   0.004323
    45  H   -0.000005   0.000000  -0.000009   0.000003   0.006670   0.000040
             43         44         45
     1  O   -0.009526  -0.001171  -0.000012
     2  C    0.178509   0.126631   0.037155
     3  C    0.220082  -0.238029  -0.040061
     4  O   -0.055208   0.004814  -0.000234
     5  H   -0.002680  -0.000153   0.000002
     6  C   -0.365340   0.191000  -0.104760
     7  O    0.010036  -0.042641   0.006985
     8  H   -0.000261  -0.004143  -0.001481
     9  C    0.026869   0.017429   0.005433
    10  O    0.000115   0.000043   0.000056
    11  H    0.000001   0.000000   0.000000
    12  C   -0.001658   0.019742  -0.003779
    13  O    0.010586   0.021439  -0.061580
    14  C    0.162008   0.107770   0.361174
    15  O   -0.000603  -0.015957  -0.058734
    16  C    0.010945   0.012755   0.049401
    17  C    0.000613   0.000098   0.026486
    18  O    0.000036   0.000116  -0.000863
    19  H   -0.000001  -0.000030   0.000137
    20  C    0.000018   0.000478   0.009537
    21  O    0.000000   0.000000  -0.000002
    22  H    0.000000   0.000000   0.000000
    23  C    0.001176   0.004834   0.018552
    24  O    0.000112   0.000383  -0.000009
    25  H    0.000000  -0.000007   0.000012
    26  C    0.000916   0.004073  -0.026402
    27  O    0.000000  -0.000006   0.000078
    28  C   -0.000015  -0.000087  -0.000988
    29  O    0.000000   0.000000  -0.000001
    30  H    0.000254   0.000026   0.000002
    31  H    0.000000   0.000000   0.000000
    32  H    0.000000   0.000000   0.000003
    33  H    0.000000  -0.000009   0.000197
    34  H    0.000000  -0.000009   0.000000
    35  H   -0.000004   0.000000   0.009161
    36  H    0.000000  -0.000013  -0.000018
    37  H    0.000000   0.000000  -0.000005
    38  H    0.000000   0.000000   0.000000
    39  H    0.000002   0.000001  -0.000009
    40  H    0.000001  -0.000008   0.000003
    41  H    0.005379   0.000123   0.006670
    42  H    0.007863   0.004323   0.000040
    43  H    0.663392   0.009191   0.004694
    44  H    0.009191   0.629275   0.005677
    45  H    0.004694   0.005677   0.624812
 Mulliken atomic charges:
              1
     1  O   -0.545113
     2  C   -0.192309
     3  C    0.036672
     4  O   -0.495358
     5  H    0.358448
     6  C    0.182473
     7  O   -0.527374
     8  H    0.434983
     9  C   -0.112061
    10  O   -0.554867
    11  H    0.370020
    12  C    0.197863
    13  O   -0.428407
    14  C   -0.038979
    15  O   -0.335368
    16  C    0.053751
    17  C    0.124823
    18  O   -0.525140
    19  H    0.425608
    20  C    0.037685
    21  O   -0.512506
    22  H    0.351838
    23  C    0.088553
    24  O   -0.602757
    25  H    0.389255
    26  C   -0.189714
    27  O   -0.319811
    28  C    0.221422
    29  O   -0.558833
    30  H    0.377878
    31  H    0.365997
    32  H    0.145620
    33  H    0.140279
    34  H    0.146719
    35  H    0.133549
    36  H    0.138385
    37  H    0.147049
    38  H    0.125956
    39  H    0.139637
    40  H    0.141113
    41  H    0.129781
    42  H    0.136027
    43  H    0.122499
    44  H    0.142042
    45  H    0.132670
 Sum of Mulliken atomic charges =   0.00000
 Mulliken charges with hydrogens summed into heavy atoms:
              1
     1  O   -0.167235
     2  C   -0.056283
     3  C    0.159172
     4  O   -0.136910
     6  C    0.324515
     7  O   -0.092391
     9  C    0.168690
    10  O   -0.184848
    12  C    0.327645
    13  O   -0.428407
    14  C    0.093692
    15  O   -0.335368
    16  C    0.187300
    17  C    0.263208
    18  O   -0.099532
    20  C    0.184734
    21  O   -0.160668
    23  C    0.374452
    24  O   -0.213502
    26  C   -0.042995
    27  O   -0.319811
    28  C    0.347378
    29  O   -0.192836
 Sum of Mulliken charges with hydrogens summed into heavy atoms =   0.00000
 APT atomic charges:
              1
     1  O   -0.636909
     2  C    0.393853
     3  C    0.414464
     4  O   -0.627840
     5  H    0.280617
     6  C    0.370074
     7  O   -0.697816
     8  H    0.426724
     9  C    0.470941
    10  O   -0.619813
    11  H    0.263312
    12  C    0.477790
    13  O   -0.891565
    14  C    0.939391
    15  O   -0.881701
    16  C    0.455181
    17  C    0.390764
    18  O   -0.696688
    19  H    0.402680
    20  C    0.363378
    21  O   -0.620417
    22  H    0.260326
    23  C    0.441150
    24  O   -0.645412
    25  H    0.264631
    26  C    0.450882
    27  O   -0.784094
    28  C    0.915759
    29  O   -0.669708
    30  H    0.268699
    31  H    0.270593
    32  H   -0.029702
    33  H   -0.036514
    34  H   -0.047428
    35  H   -0.043043
    36  H   -0.055930
    37  H   -0.044126
    38  H   -0.089459
    39  H   -0.049712
    40  H   -0.055173
    41  H   -0.060312
    42  H   -0.055908
    43  H   -0.070017
    44  H   -0.049921
    45  H   -0.062005
 Sum of APT charges=   0.00000
 APT Atomic charges with hydrogens summed into heavy atoms:
              1
[...]
 0,0.00010222,-0.00031282,-0.00022817,0.00012603,0.00001583,0.00020977,
 -0.00000604,0.00003260,-0.00004810,-0.00003621,-0.00000099,0.00000518,
 0.00006083,-0.00003738,0.00003655,-0.00008066,0.00005660,-0.00005218,-
 0.00000469,0.00000760,-0.00000614,0.00001162,-0.00001140,0.00000950,-0
 .00000226,0.00000004,-0.00000162,-0.00001857,-0.00000873,-0.00000639,0
 .00002754,0.00001774,0.00003208,-0.00001271,-0.00000574,-0.00000433,-0
 .00001134,-0.00001245,-0.00000948,0.00001595,-0.00000819,0.00002132,-0
 .00001864,0.00001285,-0.00001468,0.00000370,-0.00000263,0.00000699,0.0
 0111461,-0.00005338,-0.00052330,-0.00000181,-0.00000037,-0.00000096,0.
 00000059,0.00000095,0.00000134,0.00000840,0.00000258,-0.00000110,0.000
 00649,0.00000177,0.00000635,0.00001032,-0.00000133,-0.00000265,0.00001
 068,0.00000526,0.00001062,0.00000616,0.00000184,-0.00000346,0.00000464
 ,0.00000101,0.00000277,0.00021136,-0.00002205,0.00000011,0.00025246,-0
 .00087760,0.00016177,0.00051733,-0.00090405,0.00092958,0.37679335,-0.0
 1054894,0.00074919,-0.00404627,0.00752278,-0.04500058,0.00090869,0.035
 92562,-0.00259616,-0.00796313,-0.00277555,0.00338212,-0.00007395,0.000
 43524,-0.00010610,0.00043373,0.00132285,0.00123469,0.00162888,-0.00066
 050,-0.00018899,-0.00003032,-0.00007972,0.00002366,0.00006208,-0.00077
 521,0.00168377,-0.00086569,0.00011324,-0.00016121,-0.00002936,0.000015
 13,-0.00004133,-0.00004976,-0.02737753,-0.00039424,0.00677806,0.001516
 62,0.00084045,-0.00127452,0.00025166,-0.00055975,-0.00007223,0.0000054
 1,0.00012312,-0.00003541,-0.00003777,0.00000545,-0.00001009,0.00000611
 ,-0.00000135,-0.00001185,0.00002269,-0.00000948,0.00000025,-0.00002931
 ,0.00002349,-0.00000886,-0.00000660,0.00000261,-0.00000125,0.00000383,
 0.00000025,0.00000068,-0.00000127,-0.00000025,-0.00000068,0.00000332,-
 0.00000875,0.00001121,-0.00001078,-0.00000451,-0.00004307,0.00000739,0
 .00000537,0.00000447,0.00000617,-0.00000502,0.00000316,-0.00000279,0.0
 0000564,-0.00000505,0.00000312,-0.00000473,0.00000330,0.00000057,0.000
 00116,-0.00000244,-0.00064658,0.00146965,0.00031914,0.00000010,0.00000
 031,0.00000049,0.00000031,0.00000162,-0.00000298,-0.00000273,-0.000001
 96,0.00000336,-0.00000123,0.00000190,-0.00000028,0.00000498,-0.0000057
 4,0.00000405,0.00000082,0.00000280,0.00000126,0.00000144,-0.00000004,-
 0.00000044,-0.00000037,0.00000088,0.00000001,0.00036070,0.00028759,0.0
 0000476,0.00071418,-0.00020301,0.00002262,-0.00140587,-0.00270400,0.00
 374395,-0.00481595,0.04829336,-0.04254366,-0.00400415,-0.01461577,0.05
 451398,0.00007770,-0.05035128,0.01164288,0.00050964,-0.00119907,-0.001
 16595,-0.00020403,0.00121278,-0.00036966,-0.00052337,-0.00007429,0.001
 26625,0.00011741,0.00064933,-0.00040807,-0.00000368,-0.00006377,0.0000
 3128,0.00003155,0.00002463,-0.00033077,-0.00124071,0.00075021,-0.00001
 774,0.00020139,0.00013133,0.00000901,-0.00002475,0.00006737,0.02700120
 ,0.00142277,-0.00420804,-0.00140346,-0.00046401,0.00237347,0.00044386,
 -0.00011863,-0.00016050,-0.00013339,0.00002244,-0.00019012,0.00001267,
 -0.00005107,0.00003753,0.00002663,-0.00000214,0.00000424,-0.00005383,0
 .00000711,0.00000200,0.00006527,0.00000108,-0.00000110,0.00000470,-0.0
 0000946,0.00001111,-0.00001159,0.00001336,-0.00001648,0.00000259,-0.00
 000055,0.00000328,0.00001865,0.00001306,0.00000516,-0.00001952,-0.0000
 2000,-0.00001850,0.00000791,0.00000627,0.00000282,0.00000329,0.0000160
 4,0.00001473,-0.00001158,0.00000719,-0.00002999,0.00001424,-0.00001297
 ,0.00002538,0.00000115,0.00000280,-0.00001619,-0.00327903,0.00045108,0
 .00325915,0.00000083,0.00000086,0.00000325,-0.00000199,-0.00000332,-0.
 00000227,-0.00000866,0.00000058,0.00000252,-0.00000497,-0.00000303,-0.
 00000619,-0.00001066,-0.00000023,0.00000851,-0.00001029,-0.00000516,-0
 .00001154,-0.00000570,-0.00000144,0.00000373,-0.00000364,-0.00000093,-
 0.00000312,-0.00018871,-0.00020373,0.00000940,-0.00056144,0.00038941,0
 .00002607,0.00103167,0.00297970,-0.00380882,-0.04523317,0.00315416,0.0
 6687295,0.00202596,0.00008595,-0.00017546,-0.01613443,0.00317901,0.000
 53968,-0.34452317,-0.00719355,0.02159174,-0.00184468,-0.01010475,0.012
 83747,-0.00045443,-0.00095154,-0.00018345,-0.01919835,0.00143073,-0.00
 350533,0.00254293,-0.00037232,0.00054225,0.00007353,0.00001109,0.00013
 263,0.00070648,0.00019751,-0.00011907,0.00004227,-0.00005828,-0.000048
 88,-0.00001177,0.00000738,-0.00000514,-0.00082928,-0.00140917,0.000771
 05,0.00041966,0.00056027,-0.00022061,-0.00108094,-0.00121035,0.0011818
 4,0.00075479,0.00004139,-0.00013595,-0.00006814,0.00004565,-0.00010258
 ,-0.00001271,-0.00000963,-0.00003169,0.00005244,0.00000892,0.00001287,
 -0.00003146,-0.00000970,0.00002409,-0.00002216,0.00000683,-0.00000035,
 0.00001692,-0.00000060,0.00000467,-0.00000621,-0.00000089,-0.00000413,
 -0.00010172,-0.00006202,0.00002168,0.00005742,0.00004157,-0.00004534,-
 0.00002700,-0.00001274,0.00000534,0.00000199,0.00001241,-0.00000509,0.
 00002326,-0.00000306,-0.00001037,-0.00001455,0.00000073,-0.00000606,0.
 00000709,0.00000266,0.00000059,0.00039782,-0.00047362,-0.00027621,-0.0
 0000139,-0.00000136,-0.00000092,0.00001366,0.00000614,-0.00000384,0.00
 003043,0.00001670,-0.00000518,0.00001335,-0.00000343,0.00001271,0.0000
 1448,0.00001139,-0.00004439,0.00001367,0.00000171,0.00001135,0.0000081
 9,0.00000303,-0.00000245,0.00000525,0.00000187,0.00000307,-0.00003035,
 0.00015791,-0.00000692,0.00008798,-0.00034802,0.00002002,0.00137324,0.
 00058745,-0.00069387,0.00034900,0.00188654,0.00034838,0.37458799,-0.00
 197565,0.00242332,0.00190290,0.03687897,-0.00631823,-0.00378005,-0.007
 93364,-0.03745539,-0.00722319,-0.02993192,-0.01361008,0.02302106,-0.00
 089755,-0.00042413,-0.00044789,-0.01267253,0.00190266,-0.00190405,0.00
 039693,0.00103995,0.00131809,0.00002992,0.00007566,-0.00001610,-0.0001
 2966,-0.00001717,-0.00010877,-0.00004054,0.00001621,0.00000478,-0.0000
 0327,0.00001334,0.00001645,0.00221185,0.00185282,-0.00118822,-0.000318
 76,-0.00018029,0.00028162,0.00053431,-0.00010748,0.00112573,0.00010122
 ,-0.00008159,-0.00014804,0.00004957,-0.00000140,0.00000764,-0.00000183
 ,-0.00002222,-0.00001991,-0.00000719,0.00000891,0.00002960,0.00000453,
 0.00000015,-0.00002942,-0.00000264,0.00000084,0.00000543,0.00000148,0.
 00000248,-0.00000529,-0.00000145,0.00000088,-0.00000058,-0.00001619,0.
 00001327,-0.00002041,0.00003906,0.00000679,0.00008775,-0.00002236,-0.0
 0000952,-0.00001447,-0.00000572,0.00003165,0.00000646,0.00000723,-0.00
 001373,-0.00001294,-0.00000199,0.00000214,0.00000246,0.00000119,-0.000
 00084,-0.00000086,0.00010198,0.00029867,0.00053075,-0.00000032,0.00000
 011,0.00000012,0.00000017,-0.00000380,0.00000227,0.00000644,0.00000877
 ,-0.00000473,0.00000366,-0.00000466,0.00000247,0.00000172,0.00000700,-
 0.00001840,0.00000036,0.00000178,0.00000154,-0.00000013,0.00000010,0.0
 0000020,0.00000056,0.00000016,0.00000024,-0.00009082,-0.00004609,-0.00
 002342,-0.00019758,0.00014296,-0.00001198,-0.00075620,-0.00014210,0.00
 033082,0.00182000,-0.00581983,-0.00221371,0.01352534,0.05627309,-0.000
 24308,0.00094591,0.00146028,0.01355790,-0.00376157,0.00022104,0.021774
 92,-0.00675319,-0.03892298,0.03050713,0.02090788,-0.01866675,0.0016366
 2,0.00062994,0.00001502,-0.03752987,-0.00214804,-0.00386928,0.00205767
 ,0.00145100,0.00236344,-0.00000394,0.00033891,0.00000065,-0.00018677,-
 0.00005854,0.00000594,-0.00002498,0.00001885,0.00002106,0.00000247,0.0
 0000661,0.00000021,-0.00055619,0.00103029,-0.00029198,0.00023814,0.000
 33232,-0.00025077,-0.00190455,-0.00049162,0.00086578,0.00038022,-0.000
 01357,0.00003555,0.00015450,0.00002407,0.00005130,-0.00000943,-0.00001
 652,0.00000528,0.00001750,0.00001791,-0.00000817,-0.00002177,-0.000022
 77,0.00001398,0.00000086,-0.00000673,0.00000987,-0.00000060,0.00001121
 ,-0.00001046,-0.00000121,-0.00000120,0.00000064,-0.00001456,0.00001930
 ,-0.00000173,0.00003763,-0.00000086,0.00010459,-0.00000503,-0.00000108
 ,-0.00001597,-0.00001697,0.00001302,0.00002267,0.00000691,-0.00000190,
 -0.00002591,-0.00000071,-0.00000568,0.00001699,0.00000537,0.00000204,-
 0.00001262,-0.00001478,0.00038590,0.00011453,-0.00000058,0.00000001,0.
 00000249,0.00000220,-0.00000380,0.00000226,0.00000776,0.00000290,-0.00
 000303,0.00000564,-0.00000183,0.00000592,0.00002285,0.00001930,-0.0000
 6677,0.00000548,-0.00000138,0.00000811,0.00000009,0.00000132,-0.000001
 31,-0.00000007,0.00000076,-0.00000032,-0.00002679,-0.00007455,-0.00000
 998,-0.00001774,0.00010355,-0.00004276,-0.00034627,-0.00001718,0.00037
 668,0.00079725,-0.00203078,-0.00060258,-0.02875000,-0.00935633,0.06315
 407,0.00055534,-0.00004327,-0.00004296,-0.00065450,0.00113388,0.000495
 47,-0.01540026,-0.00316898,-0.00209930,0.00161498,0.00081455,-0.000635
 09,-0.00006000,0.00011005,0.00006253,-0.35334656,-0.01708940,0.0084657
 1,-0.00716903,0.01536743,0.00592801,-0.00058011,0.00032838,-0.00121210
 ,-0.00003280,-0.00002001,0.00000229,0.00005230,0.00003782,0.00003258,-
 0.00001674,-0.00000637,0.00000273,-0.00019405,-0.00032316,-0.00018290,
 0.00261424,0.00022470,-0.00086719,-0.01346997,-0.00027961,0.00078928,0
 .00132567,0.00029041,-0.00140092,0.00042654,0.00002919,0.00016370,-0.0
 0005683,0.00003640,0.00004760,0.00007430,-0.00001460,-0.00007929,-0.00
 007310,-0.00006927,0.00006230,-0.00000417,0.00000570,0.00002216,0.0000
 1311,-0.00001109,-0.00002125,-0.00000340,0.00000259,0.00000131,-0.0000
 0116,0.00017651,-0.00016278,0.00016276,-0.00005274,0.00061829,-0.00005
 335,-0.00005932,-0.00012037,-0.00001991,0.00012002,0.00001799,0.000048
 18,-0.00011028,-0.00001798,-0.00004434,0.00006364,0.00000174,0.0000152
 3,-0.00001848,-0.00001089,-0.00003447,-0.00010588,-0.00010698,-0.00000
 249,0.00000156,0.00000379,-0.00000233,-0.00002948,0.00004177,0.0000283
 9,0.00000702,-0.00003212,0.00001602,-0.00000753,0.00002270,0.00004932,
 0.00008085,-0.00030966,0.00002326,-0.00000965,0.00002716,0.00000769,0.
 00000504,-0.00000628,0.00000732,-0.00000229,0.00000236,0.00001422,-0.0
 0001322,-0.00000609,0.00005251,-0.00006109,0.00000426,0.00013296,0.000
 20515,0.00000781,0.00079167,-0.00083573,-0.00043481,0.00005889,-0.0008
 1319,-0.00214022,0.38294588,0.00015353,0.00000065,0.00009446,-0.000968
 05,0.00036760,0.00005197,-0.00829511,0.00164665,-0.00095290,0.00065392
 ,0.00048081,-0.00069661,-0.00009484,0.00001205,0.00006209,-0.01396753,
 -0.03585220,0.00445072,0.04175100,-0.02087664,-0.00987297,0.00135823,0
 .00010461,0.00156908,-0.00004223,0.00005057,0.00000650,0.00001816,-0.0
 0001635,0.00000607,-0.00000204,0.00000071,-0.00000156,-0.00028716,-0.0
 0028563,-0.00020036,0.00021764,0.00212588,0.00014128,-0.02627176,-0.00
 280293,0.00332266,0.00095310,0.00078917,-0.00163623,-0.00011642,0.0000
 2904,-0.00005422,0.00005311,0.00002767,-0.00006670,0.00008261,-0.00001
 156,0.00001065,-0.00010843,0.00001897,0.00003373,-0.00001794,0.0000120
 6,-0.00000521,0.00000721,0.00000857,0.00000575,-0.00000242,-0.00000294
 ,-0.00000288,-0.00014885,-0.00020772,0.00022489,-0.00027715,-0.0000327
 6,-0.00077035,0.00010762,0.00008282,0.00013449,0.00008689,-0.00006739,
 -0.00001632,-0.00003032,0.00007985,-0.00002717,0.00002705,-0.00005126,
 0.00000710,-0.00000252,0.00001662,-0.00000418,0.00002798,0.00001867,-0
 .00000727,0.00000130,-0.00000045,-0.00000089,0.00002400,0.00002718,-0.
 00002933,0.00001504,-0.00002354,0.00004894,-0.00000731,0.00002716,0.00
 000897,0.00016106,0.00005342,-0.00008200,0.00001971,-0.00001428,0.0000
 2328,0.00000614,0.00000332,-0.00000521,-0.00000302,0.00000412,0.000000
 45,0.00000097,-0.00000381,0.00001182,0.00003265,-0.00005662,-0.0000063
 4,0.00020804,0.00011550,0.00001776,0.00020071,-0.00017523,-0.00035864,
 -0.00026497,-0.00002908,-0.00170697,0.00507212,0.05725350,0.00060044,0
 .00016285,-0.00019385,-0.00137065,0.00150899,0.00114118,-0.03719995,-0
 .00458551,-0.00203977,0.00245440,0.00061793,0.00226106,0.00005477,-0.0
 0018505,0.00029987,0.00558011,0.00451128,-0.04557987,0.01206103,-0.008
 55047,0.00191207,0.00102439,-0.00000122,0.00037313,-0.00003821,-0.0000
 0721,0.00006441,0.00001337,0.00000784,0.00000509,0.00000035,-0.0000005
 1,0.00000673,-0.00025237,-0.00023908,-0.00035615,-0.00143699,-0.001644
 33,0.00064240,0.02812367,0.00546902,-0.00292262,-0.00021379,-0.0005015
 3,0.00210944,0.00024441,-0.00004734,-0.00017166,-0.00003459,0.00000329
 ,0.00011955,-0.00010159,0.00000371,-0.00003919,0.00011712,-0.00001361,
 0.00004632,0.00002062,-0.00003693,-0.00001862,-0.00001464,-0.00000608,
 0.00001295,0.00000469,-0.00000221,0.00000300,0.00009932,0.00002254,0.0
 0003345,-0.00018780,-0.00006648,-0.00022460,0.00002130,0.00002612,0.00
 007236,-0.00001506,-0.00005406,-0.00002720,-0.00004026,0.00001615,0.00
 005824,0.00001394,0.00001103,-0.00000737,-0.00000948,-0.00000256,0.000
 00493,0.00010080,-0.00012746,-0.00007905,0.00000161,-0.00000060,-0.000
 00137,-0.00002402,-0.00000757,-0.00000337,-0.00005001,-0.00000913,0.00
 002334,-0.00002345,-0.00001155,-0.00005389,-0.00030381,-0.00010677,0.0
 0005838,-0.00004793,0.00003155,-0.00003753,-0.00000978,-0.00000583,0.0
 0000986,-0.00000340,-0.00000177,-0.00000468,0.00000460,-0.00002747,0.0
 0000744,0.00001133,-0.00002632,0.00000405,0.00012566,0.00004738,-0.000
 19039,0.00073897,-0.00051449,-0.00023318,-0.00281180,-0.00203317,-0.00
 585049,-0.00789114,0.00351616,0.05174995,0.00006179,-0.00004982,0.0002
 2058,0.00011302,0.00033011,-0.00008084,-0.00033414,-0.00015027,-0.0003
 4444,0.00027597,0.00007843,-0.00015616,-0.00000735,0.00002055,0.000047
 36,-0.00763956,0.00080120,0.00216241,0.00190394,-0.00052083,-0.0010550
 1,-0.00068360,-0.00028980,-0.00004078,0.00046871,-0.00023729,0.0002199
 8,0.00002780,0.00018634,0.00004874,-0.00001373,-0.00000359,0.00003255,
 -0.00016204,-0.00048404,-0.00084885,-0.00796722,0.00900563,0.00494822,
 -0.35176381,-0.01756041,0.04878936,-0.01677040,-0.00462994,-0.00777810
 ,0.00044134,-0.00080189,0.00317114,0.00019943,0.00014044,-0.00016207,0
 .00033975,-0.00000326,-0.00031728,-0.00037113,-0.00028576,0.00062951,-
 0.00006425,0.00007064,0.00004710,0.00003855,0.00002970,-0.00006396,-0.
 00001667,0.00000432,-0.00000886,-0.00060206,-0.00003206,-0.00003659,0.
 00021355,-0.00003224,0.00000984,-0.00000435,-0.00006207,-0.00005106,0.
 00052934,0.00031361,0.00000977,0.00006823,-0.00012160,-0.00028003,-0.0
 0002030,0.00000407,0.00005634,0.00002521,0.00000013,-0.00004809,0.0000
 0662,0.00000142,-0.00000055,0.00000017,0.00000327,0.00000761,0.0001107
 9,0.00000940,0.00003803,0.00026067,0.00002731,-0.00001771,0.00003859,0
 .00011645,0.00025424,0.00090189,0.00061851,-0.00135651,0.00010431,-0.0
 0020397,0.00015556,0.00002767,0.00002206,-0.00003529,0.00000478,0.0000
 0479,0.00000054,-0.00002360,0.00001459,-0.00002114,0.00004213,-0.00023
 965,-0.00007886,0.00054303,0.00053882,0.00110411,0.00000568,-0.0001164
 0,-0.00023416,0.00071404,0.00010461,0.00059697,0.00018880,-0.00033168,
 0.00066384,0.37878841,-0.00001077,0.00035965,-0.00030121,-0.00045009,-
 0.00067976,-0.00010222,-0.00111796,-0.00015427,-0.00154053,0.00042457,
 0.00007062,0.00024574,0.00008372,-0.00012386,0.00001733,-0.02325398,0.
 00131988,0.00560412,0.00178356,0.00285155,-0.00083186,-0.00061886,-0.0
 0023509,-0.00025486,-0.00001675,0.00007396,-0.00005958,-0.00017097,-0.
 00028589,-0.00017291,0.00000150,0.00003268,-0.00003643,0.00436628,0.00
 193922,0.00478061,0.03574658,-0.01311103,-0.01465304,-0.01908537,-0.04
 309119,0.00655384,-0.01047572,0.00329894,-0.00340742,0.00083706,-0.000
 72203,0.00124235,0.00008233,-0.00033691,-0.00022314,-0.00020591,0.0001
 3927,0.00062012,0.00025678,0.00023444,-0.00120285,0.00004069,0.0000462
 9,0.00011077,-0.00002411,0.00008236,-0.00007806,-0.00000617,-0.0000017
 2,0.00000241,-0.00027629,0.00002273,-0.00006851,0.00009827,-0.00005062
 ,0.00003673,-0.00002170,-0.00002443,-0.00003960,-0.00004605,0.00028594
 ,0.00007540,-0.00000885,-0.00003678,-0.00020687,0.00003785,-0.00007679
 ,0.00012412,0.00001164,0.00001772,-0.00006190,-0.00002383,0.00001207,0
 .00000743,0.00000022,0.00000084,0.00001182,0.00006460,-0.00001321,0.00
 002957,0.00010865,0.00001448,-0.00005816,0.00001733,-0.00003906,0.0000
 1069,0.00029925,0.00008068,-0.00015406,0.00002995,-0.00001441,0.000046
 59,-0.00001032,-0.00000759,-0.00000948,-0.00000758,0.00000371,-0.00000
 763,-0.00001415,-0.00003441,0.00001755,-0.00023151,0.00014648,-0.00004
 007,-0.00160949,0.00025105,-0.00013047,-0.00000600,-0.00014684,0.00004
 410,0.00065977,0.00016390,0.00021310,-0.00096837,-0.00284677,0.0028604
 9,0.01371019,0.05058422,-0.00009691,-0.00006941,-0.00025778,-0.0000384
 5,0.00025329,-0.00015000,0.00186138,-0.00007615,0.00180736,-0.00064178
 ,-0.00006663,-0.00001551,-0.00000840,-0.00000638,-0.00000782,0.0242221
 2,0.00147689,-0.00144047,-0.00211151,-0.00047954,0.00104958,-0.0001293
 5,0.00023768,-0.00013486,-0.00011571,-0.00009862,0.00002015,-0.0000638
 0,-0.00010334,-0.00008581,0.00001432,0.00001296,-0.00000814,0.00257849
 ,0.00050598,0.00293497,0.01073154,-0.00666044,-0.00152952,0.05339330,0
 .00801805,-0.05281983,-0.03553434,-0.00488796,-0.01191175,-0.00491951,
 -0.00255828,0.00577475,0.00023077,0.00022515,-0.00060677,0.00008085,0.
 00011296,0.00033131,-0.00012420,-0.00001150,-0.00050138,-0.00002515,0.
 00012438,0.00011219,0.00002451,0.00007921,-0.00008864,-0.00001815,0.00
 000289,-0.00001037,-0.00030551,0.00011964,0.00004553,0.00010606,-0.000
 14579,0.00010486,0.00003992,-0.00002918,-0.00007727,-0.00010879,-0.000
 10791,-0.00001720,0.00012967,0.00005936,-0.00019214,0.00001650,-0.0000
 7526,0.00010602,0.00002255,0.00001910,-0.00006717,-0.00002269,-0.00000
 117,0.00001327,0.00000065,0.00000296,0.00001149,0.00005918,-0.00001492
 ,0.00003065,0.00009184,-0.00003729,0.00000229,0.00015385,0.00011361,0.
 00007777,0.00156822,0.00041533,0.00000392,0.00030055,-0.00008860,0.000
 03197,0.00003019,0.00001536,-0.00004846,-0.00000503,0.00000061,0.00000
 109,-0.00000811,-0.00000782,-0.00001570,-0.00014119,0.00009866,-0.0000
 2677,-0.00090453,0.00000250,0.00000272,-0.00022630,-0.00001543,0.00011
 185,-0.00086639,-0.00009644,-0.00022449,0.00095682,0.00275550,-0.00298
 440,-0.05019750,0.00098596,0.06064847\\0.00834710,-0.00484927,-0.00962
 960,-0.01756164,-0.00697867,0.00856026,0.03284442,0.00416142,0.0052850
 8,-0.01670660,0.01657741,0.00673681,-0.00181681,-0.01321831,-0.0239545
 5,-0.01114404,-0.03972104,0.00550316,0.00633986,0.01917007,-0.01645558
 ,-0.00182754,-0.01283879,0.01797881,-0.02054011,0.02735712,-0.01339535
 ,0.01034496,0.00329724,0.01087963,-0.00141809,-0.03403239,-0.00286379,
 0.03417572,-0.00564559,0.02328594,-0.00975623,0.01792609,0.00065027,-0
 .03304980,0.00182790,-0.00140044,0.00296907,-0.00041717,0.02118105,0.0
 0618760,0.01169957,0.01439530,-0.01847906,0.02059296,-0.00530997,0.006
 42960,-0.02089689,0.00875148,-0.00044904,0.01152698,-0.01703180,0.0347
 5901,0.01511624,-0.01197103,-0.00695944,-0.00315315,-0.01146584,-0.010
 83029,-0.00972598,0.02745142,0.00790491,-0.01068866,-0.00888258,-0.002
 95464,-0.01786799,-0.00372194,-0.00696794,0.03013048,-0.00097757,-0.01
 484832,0.01027016,0.00956093,0.00564952,-0.00214651,0.00710765,0.01494
 992,-0.01146963,-0.00987007,-0.00318441,0.00335806,0.01997027,-0.00265
 310,0.00637082,0.00079081,-0.00465806,-0.00278750,-0.00382570,0.004979
 34,-0.00745114,-0.01624633,0.01881603,0.00419502,0.00598087,-0.0216191
 6,-0.00745475,-0.00200721,0.02169384,0.00455600,0.00031105,-0.02293032
 ,-0.00690907,0.00241259,0.02397329,0.00220674,0.00352630,-0.02010564,-
 0.00781207,-0.00630697,0.00669821,0.00551650,-0.01830100,-0.02197574,0
 .00110943,-0.00672532,0.02413823,-0.00178373,0.00010541,-0.02204167,0.
 00068497,0.00221193,0.02632744,0.00268563,-0.00283773,-0.02308110,0.00
 314261,-0.00362207,0.02003071,0.00436888,-0.00583457\\\@


 IT IS BY EATING THE LIGHT OF A STAR THAT WE EXIST, 
 IN THE FINAL ANALYSIS, 
 JUST AS IT IS BY PERCEIVING THE LIGHT OF STARS
 THAT WE DEFINE THE WORLD AROUND US.

                                    -- GILBERT GROSVENOR
 Job cpu time:  0 days 13 hours  0 minutes 47.1 seconds.
 File lengths (MBytes):  RWF=   1323 Int=      0 D2E=      0 Chk=     19 Scr=      1
 Normal termination of Gaussian 09 at Tue Mar  1 03:24:16 2016.
Gaussian '09 finished on node027 at Tue Mar  1 03:24:16 EST 2016.
