Gaussian '09 started on node015 at Wed Mar 23 08:13:22 EDT 2016.
 Entering Gaussian System, Link 0=/usr/local/gaussian/g09/g09
 Initial command:
 /usr/local/gaussian/g09/l1.exe /home/srmcgrat/thesis/gaussian/cellobiose/320K/7742ps/1/2dp/gaussian23589/Gau-23625.inp -scrdir=/home/srmcgrat/thesis/gaussian/cellobiose/320K/7742ps/1/2dp/gaussian23589/
 Entering Link 1 = /usr/local/gaussian/g09/l1.exe PID=     23627.
  
 Copyright (c) 1988,1990,1992,1993,1995,1998,2003,2009,2010,
            Gaussian, Inc.  All Rights Reserved.
  
 This is part of the Gaussian(R) 09 program.  It is based on
 the Gaussian(R) 03 system (copyright 2003, Gaussian, Inc.),
 the Gaussian(R) 98 system (copyright 1998, Gaussian, Inc.),
 the Gaussian(R) 94 system (copyright 1995, Gaussian, Inc.),
 the Gaussian 92(TM) system (copyright 1992, Gaussian, Inc.),
 the Gaussian 90(TM) system (copyright 1990, Gaussian, Inc.),
 the Gaussian 88(TM) system (copyright 1988, Gaussian, Inc.),
 the Gaussian 86(TM) system (copyright 1986, Carnegie Mellon
 University), and the Gaussian 82(TM) system (copyright 1983,
 Carnegie Mellon University). Gaussian is a federally registered
 trademark of Gaussian, Inc.
  
 This software contains proprietary and confidential information,
 including trade secrets, belonging to Gaussian, Inc.
  
 This software is provided under written license and may be
 used, copied, transmitted, or stored only in accord with that
 written license.
  
 The following legend is applicable only to US Government
 contracts under FAR:
  
                    RESTRICTED RIGHTS LEGEND
  
 Use, reproduction and disclosure by the US Government is
 subject to restrictions as set forth in subparagraphs (a)
 and (c) of the Commercial Computer Software - Restricted
 Rights clause in FAR 52.227-19.
  
 Gaussian, Inc.
 340 Quinnipiac St., Bldg. 40, Wallingford CT 06492
  
  
 ---------------------------------------------------------------
 Warning -- This program may not be used in any manner that
 competes with the business of Gaussian, Inc. or will provide
 assistance to any competitor of Gaussian, Inc.  The licensee
 of this program is prohibited from giving any competitor of
 Gaussian, Inc. access to this program.  By using this program,
 the user acknowledges that Gaussian, Inc. is engaged in the
 business of creating and licensing software in the field of
 computational chemistry and represents and warrants to the
 licensee that it is not a competitor of Gaussian, Inc. and that
 it will not use this program in any manner prohibited above.
 ---------------------------------------------------------------
  

 Cite this work as:
 Gaussian 09, Revision B.01,
 M. J. Frisch, G. W. Trucks, H. B. Schlegel, G. E. Scuseria, 
 M. A. Robb, J. R. Cheeseman, G. Scalmani, V. Barone, B. Mennucci, 
 G. A. Petersson, H. Nakatsuji, M. Caricato, X. Li, H. P. Hratchian, 
 A. F. Izmaylov, J. Bloino, G. Zheng, J. L. Sonnenberg, M. Hada, 
 M. Ehara, K. Toyota, R. Fukuda, J. Hasegawa, M. Ishida, T. Nakajima, 
 Y. Honda, O. Kitao, H. Nakai, T. Vreven, J. A. Montgomery, Jr., 
 J. E. Peralta, F. Ogliaro, M. Bearpark, J. J. Heyd, E. Brothers, 
 K. N. Kudin, V. N. Staroverov, T. Keith, R. Kobayashi, J. Normand, 
 K. Raghavachari, A. Rendell, J. C. Burant, S. S. Iyengar, J. Tomasi, 
 M. Cossi, N. Rega, J. M. Millam, M. Klene, J. E. Knox, J. B. Cross, 
 V. Bakken, C. Adamo, J. Jaramillo, R. Gomperts, R. E. Stratmann, 
 O. Yazyev, A. J. Austin, R. Cammi, C. Pomelli, J. W. Ochterski, 
 R. L. Martin, K. Morokuma, V. G. Zakrzewski, G. A. Voth, 
 P. Salvador, J. J. Dannenberg, S. Dapprich, A. D. Daniels, 
 O. Farkas, J. B. Foresman, J. V. Ortiz, J. Cioslowski, 
 and D. J. Fox, Gaussian, Inc., Wallingford CT, 2010.
 
 ******************************************
 Gaussian 09:  EM64L-G09RevB.01 12-Aug-2010
                23-Mar-2016 
 ******************************************
 -------------------------------------------------
 # freq=raman b3lyp/6-31+g(2d,p) geom=connectivity
 -------------------------------------------------
 1/10=4,30=1,38=1,57=2/1,3;
 2/12=2,17=6,18=5,40=1/2;
 3/5=1,6=6,7=112,11=2,16=1,25=1,30=1,71=2,74=-5/1,2,3;
 4//1;
 5/5=2,38=5,98=1/2;
 8/6=4,10=90,11=11/1;
 10/13=10,15=4/2;
 11/6=3,8=1,9=11,15=111,16=1/1,2,10;
 10/6=1/2;
 6/7=2,8=2,9=2,10=2,18=1,28=1/1;
 7/8=1,10=1,25=1/1,2,3,16;
 1/10=4,30=1/3;
 99//99;
 -----------------
 320 7742/7742.com
 -----------------
 Symbolic Z-matrix:
 Charge =  0 Multiplicity = 1
 O                     7.483     7.777     12.185 
 C                     8.105     8.143     13.425 
 C                     7.375     9.405     13.856 
 O                     7.486     10.525    12.966 
 H                     7.405     10.096    12.066 
 C                     7.912     9.786     15.225 
 O                     7.429     10.958    15.897 
 H                     7.944     11.091    16.743 
 C                     8.505     5.723     14.215 
 O                     8.281     4.967     13.016 
 H                     8.613     4.036     13.165 
 C                     7.86      7.075     14.478 
 O                     8.501     7.536     15.676 
 C                     7.799     8.656     16.235 
 O                     8.735     8.86      17.304 
 C                     8.335     8.462     18.623 
 C                     9.        7.184     19.107 
 O                     8.824     6.11      18.172 
 H                     9.121     6.474     17.29 
 C                     8.645     6.807     20.537 
 O                     9.573     5.891     21.135 
 H                     9.109     5.48      21.919 
 C                     7.984     10.81     19.374 
 O                     8.606     11.518    18.292 
 H                     8.371     12.49     18.321 
 C                     8.54      9.449     19.761 
 O                     7.866     9.11      20.982 
 C                     8.657     8.013     21.462 
 O                     8.079     7.67      22.729 
 H                     8.77838   7.49816   23.36377 
 H                     8.03224   11.43663   20.23997 
 H                     6.95238   10.67778   19.12265 
 H                     9.58793   9.54268   19.95587 
 H                     7.28449   8.26487   18.57329 
 H                     10.04989   7.39028   19.1163 
 H                     7.66854   6.36962   20.54825 
 H                     9.66562   8.33903   21.6079 
 H                     8.15989   7.58429   11.53209 
 H                     8.22298   5.08929   15.02973 
 H                     9.5621    5.87293   14.28545 
 H                     6.80994   6.95621   14.6458 
 H                     9.15087   8.32724   13.29421 
 H                     6.33687   9.16754   13.95995 
 H                     8.95983   9.94864   15.08183 
 H                     6.80329   8.43145   16.556 
 

 GradGradGradGradGradGradGradGradGradGradGradGradGradGradGradGradGradGrad
 Berny optimization.
 Initialization pass.
 Trust Radius=3.00D-01 FncErr=1.00D-07 GrdErr=1.00D-07
 Number of steps in this run=      2 maximum allowed number of steps=      2.
 GradGradGradGradGradGradGradGradGradGradGradGradGradGradGradGradGradGrad

                          Input orientation:                          
 ---------------------------------------------------------------------
 Center     Atomic      Atomic             Coordinates (Angstroms)
 Number     Number       Type             X           Y           Z
 ---------------------------------------------------------------------
      1          8           0        7.483000    7.777000   12.185000
      2          6           0        8.105000    8.143000   13.425000
      3          6           0        7.375000    9.405000   13.856000
      4          8           0        7.486000   10.525000   12.966000
      5          1           0        7.405000   10.096000   12.066000
      6          6           0        7.912000    9.786000   15.225000
      7          8           0        7.429000   10.958000   15.897000
      8          1           0        7.944000   11.091000   16.743000
      9          6           0        8.505000    5.723000   14.215000
     10          8           0        8.281000    4.967000   13.016000
     11          1           0        8.613000    4.036000   13.165000
     12          6           0        7.860000    7.075000   14.478000
     13          8           0        8.501000    7.536000   15.676000
     14          6           0        7.799000    8.656000   16.235000
     15          8           0        8.735000    8.860000   17.304000
     16          6           0        8.335000    8.462000   18.623000
     17          6           0        9.000000    7.184000   19.107000
     18          8           0        8.824000    6.110000   18.172000
     19          1           0        9.121000    6.474000   17.290000
     20          6           0        8.645000    6.807000   20.537000
     21          8           0        9.573000    5.891000   21.135000
     22          1           0        9.109000    5.480000   21.919000
     23          6           0        7.984000   10.810000   19.374000
     24          8           0        8.606000   11.518000   18.292000
     25          1           0        8.371000   12.490000   18.321000
     26          6           0        8.540000    9.449000   19.761000
     27          8           0        7.866000    9.110000   20.982000
     28          6           0        8.657000    8.013000   21.462000
     29          8           0        8.079000    7.670000   22.729000
     30          1           0        8.778382    7.498156   23.363771
     31          1           0        8.032237   11.436632   20.239971
     32          1           0        6.952380   10.677775   19.122650
     33          1           0        9.587927    9.542677   19.955867
     34          1           0        7.284492    8.264868   18.573294
     35          1           0       10.049887    7.390278   19.116303
     36          1           0        7.668540    6.369621   20.548247
     37          1           0        9.665622    8.339031   21.607895
     38          1           0        8.159887    7.584287   11.532094
     39          1           0        8.222982    5.089290   15.029726
     40          1           0        9.562100    5.872927   14.285446
     41          1           0        6.809937    6.956210   14.645798
     42          1           0        9.150872    8.327241   13.294205
     43          1           0        6.336873    9.167542   13.959950
     44          1           0        8.959832    9.948638   15.081830
     45          1           0        6.803293    8.431445   16.556004
 ---------------------------------------------------------------------
                    Distance matrix (angstroms):
                    1          2          3          4          5
     1  O    0.000000
     2  C    1.434726   0.000000
     3  C    2.335442   1.520298   0.000000
     4  O    2.856829   2.503551   1.434859   0.000000
     5  H    2.323361   2.480139   1.918979   1.000301   0.000000
     6  C    3.669022   2.444729   1.519109   2.414680   3.214410
     7  O    4.888826   3.806834   2.565230   2.963359   3.926854
     8  H    5.654245   4.441368   3.391331   3.846537   4.811951
     9  C    3.063380   2.576917   3.868191   5.065330   4.995131
    10  O    3.037016   3.207060   4.606765   5.614792   5.289283
    11  H    4.028943   4.146458   5.553043   6.589146   6.276198
    12  C    2.427505   1.519690   2.459880   3.785303   3.892456
    13  O    3.644377   2.364797   2.841379   4.160342   4.559267
    14  C    4.156320   2.872787   2.529905   3.778557   4.428250
    15  O    5.380014   3.994700   3.746375   4.811494   5.543757
    16  C    6.530159   5.212856   4.953296   6.080988   6.821225
    17  C    7.111049   5.831452   5.928446   7.153066   7.784565
    18  O    6.357778   5.213833   5.620007   6.955926   7.428660
    19  H    5.517416   4.330825   4.840623   6.146609   6.584354
    20  C    8.488053   7.256517   7.279991   8.513921   9.171312
    21  O    9.382302   8.165208   8.376350   9.620919  10.228832
    22  H   10.132662   8.958104   9.133693  10.403959  11.013296
    23  C    7.818683   6.520593   5.726537   6.433638   7.365589
    24  O    7.249252   5.943847   5.065395   5.532334   6.498274
    25  H    7.787901   6.552708   5.517741   5.772389   6.766788
    26  C    7.829981   6.483807   6.018985   6.959937   7.805117
    27  O    8.905660   7.622366   7.148985   8.148796   8.982192
    28  C    9.353967   8.056983   7.837884   8.936633   9.705216
    29  O   10.561373   9.316052   9.068405  10.189153  10.956246
    30  H   11.257028   9.982406   9.798124  10.906222  11.673671
    31  H    8.864374   7.569487   6.731610   7.351197   8.306896
    32  H    7.538371   6.341674   5.434718   6.181620   7.095043
    33  H    8.242252   6.841812   6.490330   7.364869   8.204958
    34  H    6.409970   5.214692   4.853963   6.049012   6.761098
    35  H    7.401448   6.061362   6.235777   7.363846   8.001446
    36  H    8.482868   7.353640   7.354309   8.648177   9.268434
    37  H    9.688688   8.332691   8.153227   9.176686   9.962184
    38  H    0.960000   1.974402   3.054764   3.340359   2.676492
    39  H    3.982941   3.451696   4.552148   5.860806   5.875364
    40  H    3.515682   2.831384   4.176526   5.262405   5.235777
    41  H    2.679969   2.139160   2.634321   4.001880   4.107035
    42  H    2.077233   1.070000   2.151952   2.776627   2.772195
    43  H    2.529360   2.112376   1.070000   2.037430   2.364313
    44  H    3.910073   2.595410   2.076028   2.642179   3.396241
    45  H    4.471686   3.403061   2.926547   4.211554   4.826275
                    6          7          8          9         10
     6  C    0.000000
     7  O    1.434732   0.000000
     8  H    2.002092   0.999315   0.000000
     9  C    4.228442   5.602868   5.959944   0.000000
    10  O    5.314001   6.702100   7.176871   1.435031   0.000000
    11  H    6.147967   7.535235   7.938682   1.990008   0.999593
    12  C    2.812514   4.156562   4.611457   1.520887   2.599682
    13  O    2.369140   3.592786   3.753234   2.328413   3.704559
    14  C    1.519792   2.355918   2.491649   3.630609   4.919655
    15  O    2.420133   2.843746   2.432645   4.408581   5.809347
    16  C    3.671282   3.805513   3.255599   5.192445   6.607298
    17  C    4.798341   5.197616   4.687033   5.129445   6.521682
    18  O    4.798909   5.533964   5.256120   3.988656   5.309014
    19  H    4.085982   4.990949   4.795959   3.224761   4.609092
    20  C    6.134254   6.343426   5.765283   6.415788   7.751357
    21  O    7.270354   7.596570   6.998807   7.003945   8.272920
    22  H    8.048856   8.312362   7.722145   7.731460   8.956124
    23  C    4.274104   3.524125   2.646266   7.263903   8.640198
    24  O    3.589979   2.726711   1.737807   7.086195   8.417684
    25  H    4.136123   3.018305   2.151654   7.916406   9.205795
    26  C    4.591650   4.294403   3.487077   6.681498   8.102495
    27  O    5.796735   5.428011   4.679697   7.594233   8.988539
    28  C    6.526770   6.414845   5.679033   7.601724   8.986346
    29  O    7.798420   7.609840   6.895916   8.744168  10.084115
    30  H    8.498496   8.339306   7.578874   9.323407  10.664450
    31  H    5.281001   4.410712   3.515118   8.316812   9.700710
    32  H    4.111910   3.272691   2.610900   7.144610   8.465776
    33  H    5.024843   4.810250   3.927126   6.979987   8.414668
    34  H    3.730775   3.799526   3.431028   5.190902   6.538538
    35  H    5.045026   5.473719   4.874697   5.402709   6.798157
    36  H    6.329919   6.537943   6.070189   6.420888   7.686169
    37  H    6.775711   6.669018   5.848463   7.927519   9.333190
    38  H    4.306569   5.564938   6.284678   3.283516   3.011119
    39  H    4.711043   5.985343   6.247692   1.070000   2.018269
    40  H    4.349452   5.745014   5.990501   1.070000   2.018269
    41  H    3.091558   4.238286   4.772928   2.140008   2.962638
    42  H    2.718593   4.081700   4.581385   2.836739   3.482140
    43  H    2.112787   2.854933   3.745386   4.078075   4.723899
    44  H    1.070000   2.006679   2.257519   4.337543   5.435548
    45  H    2.199004   2.685009   2.899899   3.963809   5.168909
                   11         12         13         14         15
    11  H    0.000000
    12  C    3.395070   0.000000
    13  O    4.309021   1.434784   0.000000
    14  C    5.606416   2.364388   1.435160   0.000000
    15  O    6.357451   3.455159   2.111425   1.435435   0.000000
    16  C    7.032533   4.396637   3.093516   2.455092   1.434631
    17  C    6.735506   4.768556   3.484920   3.443482   2.475886
    18  O    5.423656   3.937786   2.892719   3.359272   2.885107
    19  H    4.818458   3.139851   2.029098   2.760767   2.417062
    20  C    7.875649   6.115516   4.917469   4.758332   3.830822
    21  O    8.239146   6.975090   5.801370   5.899348   4.918716
    22  H    8.886150   7.711842   6.600898   6.641606   5.732582
    23  C    9.210559   6.159255   4.966042   3.811465   2.941326
    24  O    9.070088   5.902827   4.765585   3.615735   2.838617
    25  H    9.905201   6.659729   5.617387   4.402060   3.787306
    26  C    8.533060   5.831669   4.510911   3.689255   2.534126
    27  O    9.349277   6.814930   5.570847   4.769131   3.787525
    28  C    9.201015   7.091637   5.807724   5.335836   4.244109
    29  O   10.245058   8.275324   7.066884   6.574392   5.592590
    30  H   10.771667   8.943121   7.692866   7.288290   6.211065
    31  H   10.254845   7.228680   6.022001   4.881199   3.968984
    32  H    9.075485   5.947818   4.914099   3.625308   3.128822
    33  H    8.797151   6.251575   4.850302   4.222714   2.868089
    34  H    6.992703   4.303304   3.225749   2.425968   2.017242
    35  H    6.980963   5.138955   3.775708   3.869167   2.678330
    36  H    7.800649   6.114092   5.078604   4.883508   4.226637
    37  H    9.534494   7.462805   6.098244   5.696732   4.434070
    38  H    3.932180   3.004608   4.158202   4.836955   5.939116
    39  H    2.176864   2.092654   2.545850   3.788650   4.433141
    40  H    2.351699   2.092654   2.413584   3.828156   4.326473
    41  H    3.737837   1.070000   2.063290   2.528457   3.794249
    42  H    4.326749   2.153097   2.592555   3.253293   4.066354
    43  H    5.669693   2.639512   3.207835   2.752334   4.126532
    44  H    6.225256   3.135608   2.526734   2.085244   2.484697
    45  H    5.838997   2.697160   2.111501   1.070000   2.115337
                   16         17         18         19         20
    16  C    0.000000
    17  C    1.519791   0.000000
    18  O    2.444264   1.434809   0.000000
    19  H    2.519291   1.954541   0.999314   0.000000
    20  C    2.549220   1.520873   2.472059   3.298556   0.000000
    21  O    3.801688   2.472440   3.064038   3.915127   1.434519
    22  H    4.511653   3.289809   3.810267   4.734535   1.971332
    23  C    2.490041   3.775105   4.923454   4.943351   4.220604
    24  O    3.085796   4.427529   5.413722   5.168285   5.218723
    25  H    4.039466   5.400655   6.397797   6.149611   6.105917
    26  C    1.520276   2.401987   3.708706   3.910758   2.755606
    27  O    2.490933   2.917372   4.220647   4.706844   2.471573
    28  C    2.892267   2.520102   3.804392   4.470951   1.519936
    29  O    4.189515   3.768729   4.873897   5.665589   2.422806
    30  H    4.858034   4.274097   5.374341   6.169034   2.913095
    31  H    3.399220   4.506114   5.768570   5.874985   4.679444
    32  H    2.659125   4.049624   5.027054   5.072795   4.455138
    33  H    2.124671   2.574800   3.943227   4.091656   2.951399
    34  H    1.070000   2.096685   2.678540   2.868242   2.798661
    35  H    2.081531   1.070000   2.008387   2.244500   2.081418
    36  H    2.920410   2.124427   2.655003   3.568853   1.070000
    37  H    3.270363   2.834013   4.181182   4.734889   2.129696
    38  H    7.147167   7.631856   6.833953   5.942218   9.051400
    39  H    4.929436   4.649272   3.358119   2.798696   5.784349
    40  H    5.198409   5.028146   3.963117   3.095675   6.387135
    41  H    4.517893   4.974997   4.148087   3.544763   6.172194
    42  H    5.392574   5.926073   5.368043   4.404744   7.417892
    43  H    5.121947   6.125260   5.768512   5.108401   7.359157
    44  H    3.891065   4.883321   4.929781   4.120085   6.303006
    45  H    2.572845   3.590156   3.476177   3.121235   4.677503
                   21         22         23         24         25
    21  O    0.000000
    22  H    0.999436   0.000000
    23  C    5.461008   6.012616   0.000000
    24  O    6.378155   7.061557   1.434877   0.000000
    25  H    7.273940   7.913934   2.020143   1.000425   0.000000
    26  C    3.951497   4.553426   1.520272   2.538322   3.368953
    27  O    3.646809   3.949673   2.342987   3.685399   4.331322
    28  C    2.334281   2.613282   3.554699   4.726153   5.476423
    29  O    2.817395   2.552078   4.596156   5.896762   6.538205
    30  H    2.860382   2.503922   5.245725   6.473926   7.107321
    31  H    5.824866   6.281721   1.070000   2.032342   2.215128
    32  H    5.816392   6.283904   1.070000   2.032342   2.437064
    33  H    3.837359   4.537467   2.125384   2.763066   3.583352
    34  H    4.175507   4.719965   2.758286   3.522553   4.369885
    35  H    2.559374   3.519878   4.003597   4.449986   5.427553
    36  H    2.049469   2.178374   4.603839   5.698709   6.550810
    37  H    2.495008   2.929279   3.731464   4.714213   5.450713
    38  H    9.852914  10.640332   8.481253   7.833865   8.378534
    39  H    6.303940   6.956995   7.187235   7.219241   8.100920
    40  H    6.849587   7.657078   7.263503   6.988094   7.841561
    41  H    7.132947   7.769450   6.211764   6.109874   6.823991
    42  H    8.221407   9.082710   6.670051   5.954475   6.573083
    43  H    8.525819   9.199409   5.892591   5.425887   5.847663
    44  H    7.313088   8.169325   4.485188   3.590722   4.159022
    45  H    5.923879   6.541333   3.872040   3.973695   4.695187
                   26         27         28         29         30
    26  C    0.000000
    27  O    1.435283   0.000000
    28  C    2.229167   1.435092   0.000000
    29  O    3.490900   2.273978   1.434232   0.000000
    30  H    4.103971   3.017170   1.973963   0.960000   0.000000
    31  H    2.106636   2.447746   3.688487   4.514972   5.081973
    32  H    2.106636   2.598039   3.934376   4.829260   5.606369
    33  H    1.070000   2.050656   2.339866   3.670701   4.055766
    34  H    2.095022   2.618065   3.208090   4.272587   5.076241
    35  H    2.633197   3.347780   2.798251   4.124829   4.435013
    36  H    3.295720   2.781512   2.124309   2.571992   3.229940
    37  H    2.431065   2.055426   1.070000   2.054714   2.139478
    38  H    8.446096   9.576789   9.951580  11.197526  11.848145
    39  H    6.441469   7.191878   7.078884   8.121553   8.692952
    40  H    6.619266   7.628842   7.543345   8.759148   9.255894
    41  H    5.947471   6.775067   7.140662   8.213293   8.953856
    42  H    6.591733   7.833632   8.188744   9.518205  10.110504
    43  H    6.211696   7.186844   7.937047   9.064981   9.857975
    44  H    4.724460   6.059025   6.674202   8.027905   8.638769
    45  H    3.784649   4.602089   5.261190   6.349261   7.149664
                   31         32         33         34         35
    31  H    0.000000
    32  H    1.729266   0.000000
    33  H    2.467377   2.988111   0.000000
    34  H    3.660195   2.496841   2.974916   0.000000
    35  H    4.659025   4.516882   2.356077   2.950793   0.000000
    36  H    5.089392   4.594062   3.755429   2.764035   2.960239
    37  H    3.759560   4.359799   2.045482   3.857990   2.693663
    38  H    9.522813   8.285184   8.765532   7.127973   7.818566
    39  H    8.214121   7.042558   6.779573   4.849941   5.033115
    40  H    8.291662   7.300394   6.754363   5.412441   5.086991
    41  H    7.270692   5.823447   6.527165   4.166895   5.538151
    42  H    7.691769   6.658013   6.785723   5.599647   5.965145
    43  H    6.889245   5.414159   6.830894   4.795388   6.597963
    44  H    5.448025   4.570528   4.931079   4.222815   4.900040
    45  H    4.910506   3.414074   4.533001   2.080567   4.263746
                   36         37         38         39         40
    36  H    0.000000
    37  H    2.998294   0.000000
    38  H    9.110864  10.215608   0.000000
    39  H    5.692164   7.477589   4.296792   0.000000
    40  H    6.561627   7.727267   3.532124   1.720836   0.000000
    41  H    5.993346   7.651009   3.451376   2.372654   2.979557
    42  H    7.658375   8.329619   2.153850   3.789108   2.678680
    43  H    7.280615   8.382009   3.424114   4.618870   4.621961
    44  H    6.660218   6.758587   4.339435   4.915173   4.196234
    45  H    4.575782   5.807157   5.272351   3.938913   4.394595
                   41         42         43         44         45
    41  H    0.000000
    42  H    3.030925   0.000000
    43  H    2.363084   3.011297   0.000000
    44  H    3.710363   2.420956   2.957810   0.000000
    45  H    2.413555   4.020113   2.738409   3.020880   0.000000
 Stoichiometry    C12H22O11
 Framework group  C1[X(C12H22O11)]
 Deg. of freedom   129
 Full point group                 C1      NOp   1
 Largest Abelian subgroup         C1      NOp   1
 Largest concise Abelian subgroup C1      NOp   1
                         Standard orientation:                         
 ---------------------------------------------------------------------
 Center     Atomic      Atomic             Coordinates (Angstroms)
 Number     Number       Type             X           Y           Z
 ---------------------------------------------------------------------
      1          8           0       -5.017867   -0.402071    0.359702
      2          6           0       -3.721394   -0.130138   -0.191342
      3          6           0       -3.352484    1.235227    0.366322
      4          8           0       -4.219276    2.316391   -0.005937
      5          1           0       -5.126134    1.898808    0.055989
      6          6           0       -1.935606    1.536489   -0.091268
      7          8           0       -1.303904    2.775564    0.261017
      8          1           0       -0.411607    2.831454   -0.185428
      9          6           0       -2.915234   -2.576780   -0.123900
     10          8           0       -4.135858   -3.296743    0.102027
     11          1           0       -3.962921   -4.267529   -0.061842
     12          6           0       -2.704751   -1.137386    0.319879
     13          8           0       -1.447548   -0.775014   -0.268961
     14          6           0       -0.949633    0.446698    0.296006
     15          8           0        0.205378    0.507417   -0.554134
     16          6           0        1.477092    0.188330    0.028182
     17          6           0        2.012647   -1.175423   -0.375703
     18          8           0        1.056974   -2.214924   -0.121137
     19          1           0        0.210157   -1.909640   -0.555109
     20          6           0        3.399307   -1.480082    0.169650
     21          8           0        4.076203   -2.527424   -0.539384
     22          1           0        4.809167   -2.853293    0.056809
     23          6           0        2.208977    2.567994    0.071178
     24          8           0        1.196729    3.159630   -0.755981
     25          1           0        1.210547    4.156833   -0.676957
     26          6           0        2.636939    1.138895   -0.221655
     27          8           0        3.785389    0.920894    0.611157
     28          6           0        4.330370   -0.284249    0.054278
     29          8           0        5.533744   -0.521118    0.797786
     30          1           0        6.231071   -0.797147    0.198500
     31          1           0        3.080337    3.185635    0.006750
     32          1           0        1.859272    2.599661    1.081922
     33          1           0        2.931685    1.066142   -1.247682
     34          1           0        1.325806    0.160481    1.087067
     35          1           0        2.123725   -1.138758   -1.439290
     36          1           0        3.313938   -1.756421    1.199820
     37          1           0        4.574383   -0.121740   -0.974775
     38          1           0       -5.604603   -0.705065   -0.337102
     39          1           0       -2.136002   -3.151233    0.331842
     40          1           0       -2.743033   -2.596422   -1.179770
     41          1           0       -2.638894   -1.086284    1.386627
     42          1           0       -3.750320   -0.115671   -1.260853
     43          1           0       -3.349945    1.166784    1.434128
     44          1           0       -1.976827    1.529221   -1.160449
     45          1           0       -0.726889    0.385919    1.340798
 ---------------------------------------------------------------------
 Rotational constants (GHZ):      0.4168484      0.1448392      0.1106257
 Standard basis: 6-31+G(2d,p) (6D, 7F)
 There are   685 symmetry adapted basis functions of A   symmetry.
 Integral buffers will be    131072 words long.
 Raffenetti 2 integral format.
 Two-electron integral symmetry is turned on.
   685 basis functions,  1028 primitive gaussians,   685 cartesian basis functions
    91 alpha electrons       91 beta electrons
       nuclear repulsion energy      2292.5640890198 Hartrees.
 NAtoms=   45 NActive=   45 NUniq=   45 SFac= 1.00D+00 NAtFMM=   50 NAOKFM=F Big=F
 One-electron integrals computed using PRISM.
 NBasis=   685 RedAO= T  NBF=   685
 NBsUse=   685 1.00D-06 NBFU=   685
 Harris functional with IExCor=  402 diagonalized for initial guess.
 ExpMin= 4.38D-02 ExpMax= 5.48D+03 ExpMxC= 8.25D+02 IAcc=2 IRadAn=         0 AccDes= 0.00D+00
 HarFok:  IExCor=  402 AccDes= 0.00D+00 IRadAn=         0 IDoV= 1
 ScaDFX=  1.000000  1.000000  1.000000  1.000000
 FoFCou: FMM=F IPFlag=           0 FMFlag=      100000 FMFlg1=           0
         NFxFlg=           0 DoJE=T BraDBF=F KetDBF=T FulRan=T
         Omega=  0.000000  0.000000  1.000000  0.000000  0.000000 ICntrl=     500 IOpCl=  0
         NMat0=    1 NMatS0=    1 NMatT0=    0 NMatD0=    1 NMtDS0=    0 NMtDT0=    0
         I1Cent=           4 NGrid=           0.
 Petite list used in FoFCou.
 Initial guess orbital symmetries:
       Occupied  (A) (A) (A) (A) (A) (A) (A) (A) (A) (A) (A) (A)
                 (A) (A) (A) (A) (A) (A) (A) (A) (A) (A) (A) (A)
                 (A) (A) (A) (A) (A) (A) (A) (A) (A) (A) (A) (A)
                 (A) (A) (A) (A) (A) (A) (A) (A) (A) (A) (A) (A)
                 (A) (A) (A) (A) (A) (A) (A) (A) (A) (A) (A) (A)
                 (A) (A) (A) (A) (A) (A) (A) (A) (A) (A) (A) (A)
                 (A) (A) (A) (A) (A) (A) (A) (A) (A) (A) (A) (A)
                 (A) (A) (A) (A) (A) (A) (A)
       Virtual   (A) (A) (A) (A) (A) (A) (A) (A) (A) (A) (A) (A)
                 (A) (A) (A) (A) (A) (A) (A) (A) (A) (A) (A) (A)
                 (A) (A) (A) (A) (A) (A) (A) (A) (A) (A) (A) (A)
                 (A) (A) (A) (A) (A) (A) (A) (A) (A) (A) (A) (A)
                 (A) (A) (A) (A) (A) (A) (A) (A) (A) (A) (A) (A)
                 (A) (A) (A) (A) (A) (A) (A) (A) (A) (A) (A) (A)
                 (A) (A) (A) (A) (A) (A) (A) (A) (A) (A) (A) (A)
                 (A) (A) (A) (A) (A) (A) (A) (A) (A) (A) (A) (A)
                 (A) (A) (A) (A) (A) (A) (A) (A) (A) (A) (A) (A)
                 (A) (A) (A) (A) (A) (A) (A) (A) (A) (A) (A) (A)
                 (A) (A) (A) (A) (A) (A) (A) (A) (A) (A) (A) (A)
                 (A) (A) (A) (A) (A) (A) (A) (A) (A) (A) (A) (A)
                 (A) (A) (A) (A) (A) (A) (A) (A) (A) (A) (A) (A)
                 (A) (A) (A) (A) (A) (A) (A) (A) (A) (A) (A) (A)
                 (A) (A) (A) (A) (A) (A) (A) (A) (A) (A) (A) (A)
                 (A) (A) (A) (A) (A) (A) (A) (A) (A) (A) (A) (A)
                 (A) (A) (A) (A) (A) (A) (A) (A) (A) (A) (A) (A)
                 (A) (A) (A) (A) (A) (A) (A) (A) (A) (A) (A) (A)
                 (A) (A) (A) (A) (A) (A) (A) (A) (A) (A) (A) (A)
                 (A) (A) (A) (A) (A) (A) (A) (A) (A) (A) (A) (A)
                 (A) (A) (A) (A) (A) (A) (A) (A) (A) (A) (A) (A)
                 (A) (A) (A) (A) (A) (A) (A) (A) (A) (A) (A) (A)
                 (A) (A) (A) (A) (A) (A) (A) (A) (A) (A) (A) (A)
                 (A) (A) (A) (A) (A) (A) (A) (A) (A) (A) (A) (A)
                 (A) (A) (A) (A) (A) (A) (A) (A) (A) (A) (A) (A)
                 (A) (A) (A) (A) (A) (A) (A) (A) (A) (A) (A) (A)
                 (A) (A) (A) (A) (A) (A) (A) (A) (A) (A) (A) (A)
                 (A) (A) (A) (A) (A) (A) (A) (A) (A) (A) (A) (A)
                 (A) (A) (A) (A) (A) (A) (A) (A) (A) (A) (A) (A)
                 (A) (A) (A) (A) (A) (A) (A) (A) (A) (A) (A) (A)
                 (A) (A) (A) (A) (A) (A) (A) (A) (A) (A) (A) (A)
                 (A) (A) (A) (A) (A) (A) (A) (A) (A) (A) (A) (A)
                 (A) (A) (A) (A) (A) (A) (A) (A) (A) (A) (A) (A)
                 (A) (A) (A) (A) (A) (A) (A) (A) (A) (A) (A) (A)
                 (A) (A) (A) (A) (A) (A) (A) (A) (A) (A) (A) (A)
                 (A) (A) (A) (A) (A) (A) (A) (A) (A) (A) (A) (A)
                 (A) (A) (A) (A) (A) (A) (A) (A) (A) (A) (A) (A)
                 (A) (A) (A) (A) (A) (A) (A) (A) (A) (A) (A) (A)
                 (A) (A) (A) (A) (A) (A) (A) (A) (A) (A) (A) (A)
                 (A) (A) (A) (A) (A) (A) (A) (A) (A) (A) (A) (A)
                 (A) (A) (A) (A) (A) (A) (A) (A) (A) (A) (A) (A)
                 (A) (A) (A) (A) (A) (A) (A) (A) (A) (A) (A) (A)
                 (A) (A) (A) (A) (A) (A) (A) (A) (A) (A) (A) (A)
                 (A) (A) (A) (A) (A) (A) (A) (A) (A) (A) (A) (A)
                 (A) (A) (A) (A) (A) (A) (A) (A) (A) (A) (A) (A)
                 (A) (A) (A) (A) (A) (A) (A) (A) (A) (A) (A) (A)
                 (A) (A) (A) (A) (A) (A) (A) (A) (A) (A) (A) (A)
                 (A) (A) (A) (A) (A) (A) (A) (A) (A) (A) (A) (A)
                 (A) (A) (A) (A) (A) (A) (A) (A) (A) (A) (A) (A)
                 (A) (A) (A) (A) (A) (A)
 The electronic state of the initial guess is 1-A.
 Requested convergence on RMS density matrix=1.00D-08 within 128 cycles.
 Requested convergence on MAX density matrix=1.00D-06.
 Requested convergence on             energy=1.00D-06.
 No special actions if energy rises.
 SCF Done:  E(RB3LYP) =  -1297.97742629     A.U. after   13 cycles
             Convg  =    0.4814D-08             -V/T =  2.0063
 Range of M.O.s used for correlation:     1   685
 NBasis=   685 NAE=    91 NBE=    91 NFC=     0 NFV=     0
 NROrb=    685 NOA=    91 NOB=    91 NVA=   594 NVB=   594

 **** Warning!!: The largest alpha MO coefficient is  0.66855842D+02

          Differentiating once with respect to electric field.
                with respect to dipole field.
          Electric field/nuclear overlap derivatives assumed to be zero.
          There are     3 degrees of freedom in the 1st order CPHF.  IDoFFX=0.
      3 vectors produced by pass  0 Test12= 1.80D-12 3.33D-08 XBig12= 1.23D+02 1.05D+00.
 AX will form     3 AO Fock derivatives at one time.
      3 vectors produced by pass  1 Test12= 1.80D-12 3.33D-08 XBig12= 2.72D+01 3.59D-01.
      3 vectors produced by pass  2 Test12= 1.80D-12 3.33D-08 XBig12= 1.16D+01 2.17D-01.
      3 vectors produced by pass  3 Test12= 1.80D-12 3.33D-08 XBig12= 1.19D+00 8.88D-02.
      3 vectors produced by pass  4 Test12= 1.80D-12 3.33D-08 XBig12= 3.62D-01 4.54D-02.
      3 vectors produced by pass  5 Test12= 1.80D-12 3.33D-08 XBig12= 6.75D-02 1.86D-02.
      3 vectors produced by pass  6 Test12= 1.80D-12 3.33D-08 XBig12= 2.27D-02 1.73D-02.
      3 vectors produced by pass  7 Test12= 1.80D-12 3.33D-08 XBig12= 3.01D-03 9.06D-03.
      3 vectors produced by pass  8 Test12= 1.80D-12 3.33D-08 XBig12= 6.35D-04 3.22D-03.
      3 vectors produced by pass  9 Test12= 1.80D-12 3.33D-08 XBig12= 1.54D-04 1.44D-03.
      3 vectors produced by pass 10 Test12= 1.80D-12 3.33D-08 XBig12= 4.51D-05 8.48D-04.
      3 vectors produced by pass 11 Test12= 1.80D-12 3.33D-08 XBig12= 1.05D-05 4.55D-04.
      3 vectors produced by pass 12 Test12= 1.80D-12 3.33D-08 XBig12= 1.26D-06 1.18D-04.
      3 vectors produced by pass 13 Test12= 1.80D-12 3.33D-08 XBig12= 3.95D-07 5.22D-05.
      3 vectors produced by pass 14 Test12= 1.80D-12 3.33D-08 XBig12= 6.02D-08 2.16D-05.
      3 vectors produced by pass 15 Test12= 1.80D-12 3.33D-08 XBig12= 1.02D-08 1.09D-05.
      3 vectors produced by pass 16 Test12= 1.80D-12 3.33D-08 XBig12= 1.14D-09 3.71D-06.
      3 vectors produced by pass 17 Test12= 1.80D-12 3.33D-08 XBig12= 1.44D-10 8.82D-07.
      3 vectors produced by pass 18 Test12= 1.80D-12 3.33D-08 XBig12= 1.28D-11 2.58D-07.
      3 vectors produced by pass 19 Test12= 1.80D-12 3.33D-08 XBig12= 1.51D-11 3.48D-07.
      3 vectors produced by pass 20 Test12= 1.80D-12 3.33D-08 XBig12= 4.90D-12 1.60D-07.
      3 vectors produced by pass 21 Test12= 1.80D-12 3.33D-08 XBig12= 4.67D-12 1.93D-07.
      1 vectors produced by pass 22 Test12= 1.80D-12 3.33D-08 XBig12= 2.00D-12 8.28D-08.
 Inverted reduced A of dimension    67 with in-core refinement.
 End of Minotr Frequency-dependent properties file   721 does not exist.
 End of Minotr Frequency-dependent properties file   722 does not exist.
 Symmetrizing basis deriv contribution to polar:
 IMax=3 JMax=2 DiffMx= 0.00D+00
 G2DrvN: will do    16 centers at a time, making    3 passes doing MaxLOS=2.
 Calling FoFCou, ICntrl=  3107 FMM=F I1Cent=   0 AccDes= 0.00D+00.
 Calling FoFCou, ICntrl=  3107 FMM=F I1Cent=   0 AccDes= 0.00D+00.
 Calling FoFCou, ICntrl=  3107 FMM=F I1Cent=   0 AccDes= 0.00D+00.
 FoFDir/FoFCou used for L=0 through L=2.
 End of G2Drv Frequency-dependent properties file   721 does not exist.
 End of G2Drv Frequency-dependent properties file   722 does not exist.
          IDoAtm=111111111111111111111111111111111111111111111
          Differentiating once with respect to electric field.
                with respect to dipole field.
          Differentiating once with respect to nuclear coordinates.
          There are   138 degrees of freedom in the 1st order CPHF.  IDoFFX=5.
 Will reuse    3 saved solutions.
    135 vectors produced by pass  0 Test12= 5.41D-14 1.00D-09 XBig12= 1.51D-01 5.37D-02.
 AX will form    45 AO Fock derivatives at one time.
    135 vectors produced by pass  1 Test12= 5.41D-14 1.00D-09 XBig12= 1.65D-02 1.04D-02.
    132 vectors produced by pass  2 Test12= 5.41D-14 1.00D-09 XBig12= 1.39D-04 1.23D-03.
    132 vectors produced by pass  3 Test12= 5.41D-14 1.00D-09 XBig12= 6.39D-07 6.41D-05.
    132 vectors produced by pass  4 Test12= 5.41D-14 1.00D-09 XBig12= 1.53D-09 2.56D-06.
    132 vectors produced by pass  5 Test12= 5.41D-14 1.00D-09 XBig12= 2.94D-12 1.12D-07.
     83 vectors produced by pass  6 Test12= 5.41D-14 1.00D-09 XBig12= 1.21D-13 2.25D-08.
 Inverted reduced A of dimension   881 with in-core refinement.
 Isotropic polarizability for W=    0.000000      190.97 Bohr**3.
 End of Minotr Frequency-dependent properties file   721 does not exist.
 End of Minotr Frequency-dependent properties file   722 does not exist.

 **********************************************************************

            Population analysis using the SCF density.

 **********************************************************************

 Orbital symmetries:
       Occupied  (A) (A) (A) (A) (A) (A) (A) (A) (A) (A) (A) (A)
                 (A) (A) (A) (A) (A) (A) (A) (A) (A) (A) (A) (A)
                 (A) (A) (A) (A) (A) (A) (A) (A) (A) (A) (A) (A)
                 (A) (A) (A) (A) (A) (A) (A) (A) (A) (A) (A) (A)
                 (A) (A) (A) (A) (A) (A) (A) (A) (A) (A) (A) (A)
                 (A) (A) (A) (A) (A) (A) (A) (A) (A) (A) (A) (A)
                 (A) (A) (A) (A) (A) (A) (A) (A) (A) (A) (A) (A)
                 (A) (A) (A) (A) (A) (A) (A)
       Virtual   (A) (A) (A) (A) (A) (A) (A) (A) (A) (A) (A) (A)
                 (A) (A) (A) (A) (A) (A) (A) (A) (A) (A) (A) (A)
                 (A) (A) (A) (A) (A) (A) (A) (A) (A) (A) (A) (A)
                 (A) (A) (A) (A) (A) (A) (A) (A) (A) (A) (A) (A)
                 (A) (A) (A) (A) (A) (A) (A) (A) (A) (A) (A) (A)
                 (A) (A) (A) (A) (A) (A) (A) (A) (A) (A) (A) (A)
                 (A) (A) (A) (A) (A) (A) (A) (A) (A) (A) (A) (A)
                 (A) (A) (A) (A) (A) (A) (A) (A) (A) (A) (A) (A)
                 (A) (A) (A) (A) (A) (A) (A) (A) (A) (A) (A) (A)
                 (A) (A) (A) (A) (A) (A) (A) (A) (A) (A) (A) (A)
                 (A) (A) (A) (A) (A) (A) (A) (A) (A) (A) (A) (A)
                 (A) (A) (A) (A) (A) (A) (A) (A) (A) (A) (A) (A)
                 (A) (A) (A) (A) (A) (A) (A) (A) (A) (A) (A) (A)
                 (A) (A) (A) (A) (A) (A) (A) (A) (A) (A) (A) (A)
                 (A) (A) (A) (A) (A) (A) (A) (A) (A) (A) (A) (A)
                 (A) (A) (A) (A) (A) (A) (A) (A) (A) (A) (A) (A)
                 (A) (A) (A) (A) (A) (A) (A) (A) (A) (A) (A) (A)
                 (A) (A) (A) (A) (A) (A) (A) (A) (A) (A) (A) (A)
                 (A) (A) (A) (A) (A) (A) (A) (A) (A) (A) (A) (A)
                 (A) (A) (A) (A) (A) (A) (A) (A) (A) (A) (A) (A)
                 (A) (A) (A) (A) (A) (A) (A) (A) (A) (A) (A) (A)
                 (A) (A) (A) (A) (A) (A) (A) (A) (A) (A) (A) (A)
                 (A) (A) (A) (A) (A) (A) (A) (A) (A) (A) (A) (A)
                 (A) (A) (A) (A) (A) (A) (A) (A) (A) (A) (A) (A)
                 (A) (A) (A) (A) (A) (A) (A) (A) (A) (A) (A) (A)
                 (A) (A) (A) (A) (A) (A) (A) (A) (A) (A) (A) (A)
                 (A) (A) (A) (A) (A) (A) (A) (A) (A) (A) (A) (A)
                 (A) (A) (A) (A) (A) (A) (A) (A) (A) (A) (A) (A)
                 (A) (A) (A) (A) (A) (A) (A) (A) (A) (A) (A) (A)
                 (A) (A) (A) (A) (A) (A) (A) (A) (A) (A) (A) (A)
                 (A) (A) (A) (A) (A) (A) (A) (A) (A) (A) (A) (A)
                 (A) (A) (A) (A) (A) (A) (A) (A) (A) (A) (A) (A)
                 (A) (A) (A) (A) (A) (A) (A) (A) (A) (A) (A) (A)
                 (A) (A) (A) (A) (A) (A) (A) (A) (A) (A) (A) (A)
                 (A) (A) (A) (A) (A) (A) (A) (A) (A) (A) (A) (A)
                 (A) (A) (A) (A) (A) (A) (A) (A) (A) (A) (A) (A)
                 (A) (A) (A) (A) (A) (A) (A) (A) (A) (A) (A) (A)
                 (A) (A) (A) (A) (A) (A) (A) (A) (A) (A) (A) (A)
                 (A) (A) (A) (A) (A) (A) (A) (A) (A) (A) (A) (A)
                 (A) (A) (A) (A) (A) (A) (A) (A) (A) (A) (A) (A)
                 (A) (A) (A) (A) (A) (A) (A) (A) (A) (A) (A) (A)
                 (A) (A) (A) (A) (A) (A) (A) (A) (A) (A) (A) (A)
                 (A) (A) (A) (A) (A) (A) (A) (A) (A) (A) (A) (A)
                 (A) (A) (A) (A) (A) (A) (A) (A) (A) (A) (A) (A)
                 (A) (A) (A) (A) (A) (A) (A) (A) (A) (A) (A) (A)
                 (A) (A) (A) (A) (A) (A) (A) (A) (A) (A) (A) (A)
                 (A) (A) (A) (A) (A) (A) (A) (A) (A) (A) (A) (A)
                 (A) (A) (A) (A) (A) (A) (A) (A) (A) (A) (A) (A)
                 (A) (A) (A) (A) (A) (A) (A) (A) (A) (A) (A) (A)
                 (A) (A) (A) (A) (A) (A)
 The electronic state is 1-A.
 Alpha  occ. eigenvalues --  -19.18799 -19.18530 -19.17956 -19.17863 -19.17695
 Alpha  occ. eigenvalues --  -19.16991 -19.16872 -19.16321 -19.15431 -19.14473
 Alpha  occ. eigenvalues --  -19.12975 -10.30504 -10.30434 -10.26060 -10.25541
 Alpha  occ. eigenvalues --  -10.25488 -10.25399 -10.25213 -10.24879 -10.24492
 Alpha  occ. eigenvalues --  -10.24319 -10.24131 -10.23748  -1.10471  -1.09698
 Alpha  occ. eigenvalues --   -1.05425  -1.05154  -1.04333  -1.03630  -1.02977
 Alpha  occ. eigenvalues --   -1.02575  -1.01975  -1.01182  -0.99879  -0.82539
 Alpha  occ. eigenvalues --   -0.80366  -0.79102  -0.78418  -0.71734  -0.69846
 Alpha  occ. eigenvalues --   -0.67160  -0.65142  -0.63463  -0.62191  -0.61699
 Alpha  occ. eigenvalues --   -0.60737  -0.56650  -0.55625  -0.54768  -0.54467
 Alpha  occ. eigenvalues --   -0.53891  -0.53724  -0.52956  -0.52448  -0.51498
 Alpha  occ. eigenvalues --   -0.50432  -0.49854  -0.48976  -0.48573  -0.46554
 Alpha  occ. eigenvalues --   -0.45870  -0.45028  -0.44558  -0.44033  -0.43644
 Alpha  occ. eigenvalues --   -0.42626  -0.42067  -0.41037  -0.40710  -0.39923
 Alpha  occ. eigenvalues --   -0.38767  -0.38272  -0.37233  -0.36676  -0.36191
 Alpha  occ. eigenvalues --   -0.35590  -0.35209  -0.34597  -0.34061  -0.33474
 Alpha  occ. eigenvalues --   -0.32888  -0.32221  -0.31450  -0.30422  -0.29685
 Alpha  occ. eigenvalues --   -0.29444  -0.28707  -0.28619  -0.27233  -0.26464
 Alpha  occ. eigenvalues --   -0.26387
 Alpha virt. eigenvalues --   -0.01922  -0.01806  -0.01585  -0.00251   0.00201
 Alpha virt. eigenvalues --    0.00853   0.01904   0.02329   0.02980   0.03028
 Alpha virt. eigenvalues --    0.03807   0.04097   0.04540   0.05278   0.05675
 Alpha virt. eigenvalues --    0.06169   0.06617   0.06860   0.07921   0.08193
 Alpha virt. eigenvalues --    0.08509   0.09035   0.09163   0.09629   0.10106
 Alpha virt. eigenvalues --    0.10431   0.11024   0.11491   0.11743   0.11840
 Alpha virt. eigenvalues --    0.12574   0.12734   0.13081   0.13182   0.13607
 Alpha virt. eigenvalues --    0.13851   0.14222   0.14384   0.14961   0.15498
 Alpha virt. eigenvalues --    0.15837   0.15887   0.16867   0.17024   0.17153
 Alpha virt. eigenvalues --    0.17415   0.17436   0.17833   0.18268   0.18378
 Alpha virt. eigenvalues --    0.18710   0.19191   0.19500   0.19647   0.19815
 Alpha virt. eigenvalues --    0.20672   0.20811   0.21019   0.21359   0.21773
 Alpha virt. eigenvalues --    0.21816   0.22393   0.22489   0.22979   0.23221
 Alpha virt. eigenvalues --    0.23375   0.23693   0.23909   0.24388   0.24611
 Alpha virt. eigenvalues --    0.24904   0.25394   0.25539   0.25821   0.26186
 Alpha virt. eigenvalues --    0.26338   0.26537   0.26828   0.27103   0.27524
 Alpha virt. eigenvalues --    0.27550   0.27928   0.28091   0.28402   0.28595
 Alpha virt. eigenvalues --    0.28844   0.29000   0.29672   0.30159   0.30807
 Alpha virt. eigenvalues --    0.30855   0.31083   0.31727   0.31859   0.32185
 Alpha virt. eigenvalues --    0.32364   0.32717   0.32897   0.33376   0.33982
 Alpha virt. eigenvalues --    0.34057   0.34212   0.34559   0.34817   0.35551
 Alpha virt. eigenvalues --    0.35671   0.36207   0.36431   0.36644   0.37045
 Alpha virt. eigenvalues --    0.37606   0.37947   0.38323   0.38370   0.39307
 Alpha virt. eigenvalues --    0.39461   0.39777   0.40188   0.40587   0.41530
 Alpha virt. eigenvalues --    0.41961   0.42438   0.42647   0.43104   0.43826
 Alpha virt. eigenvalues --    0.44153   0.44266   0.45606   0.46094   0.46681
 Alpha virt. eigenvalues --    0.47198   0.48386   0.48452   0.48996   0.49913
 Alpha virt. eigenvalues --    0.50701   0.51147   0.54378   0.57738   0.59303
 Alpha virt. eigenvalues --    0.59771   0.60954   0.61555   0.62004   0.62333
 Alpha virt. eigenvalues --    0.63193   0.64041   0.65472   0.66564   0.67197
 Alpha virt. eigenvalues --    0.67717   0.68503   0.69147   0.69516   0.71139
 Alpha virt. eigenvalues --    0.71556   0.72033   0.72369   0.73576   0.73806
 Alpha virt. eigenvalues --    0.74114   0.74934   0.75769   0.76357   0.76644
 Alpha virt. eigenvalues --    0.78220   0.79104   0.79673   0.80195   0.81531
 Alpha virt. eigenvalues --    0.81806   0.83338   0.83925   0.84997   0.85577
 Alpha virt. eigenvalues --    0.85950   0.87182   0.88066   0.88367   0.89633
 Alpha virt. eigenvalues --    0.89803   0.90175   0.91103   0.91920   0.92248
 Alpha virt. eigenvalues --    0.92572   0.92850   0.93628   0.93724   0.94575
 Alpha virt. eigenvalues --    0.94766   0.95469   0.96004   0.96451   0.96751
 Alpha virt. eigenvalues --    0.97350   0.98103   0.98560   0.99195   0.99700
 Alpha virt. eigenvalues --    1.00758   1.01197   1.02063   1.02357   1.02565
 Alpha virt. eigenvalues --    1.03307   1.04765   1.05321   1.06263   1.06898
 Alpha virt. eigenvalues --    1.07077   1.07254   1.07855   1.08253   1.08510
 Alpha virt. eigenvalues --    1.08760   1.09722   1.10033   1.10896   1.11274
 Alpha virt. eigenvalues --    1.12108   1.13094   1.13600   1.13970   1.14592
 Alpha virt. eigenvalues --    1.15123   1.15270   1.15739   1.16233   1.16828
 Alpha virt. eigenvalues --    1.17656   1.18395   1.18683   1.19186   1.19465
 Alpha virt. eigenvalues --    1.20034   1.20368   1.20909   1.22043   1.22826
 Alpha virt. eigenvalues --    1.23144   1.23927   1.24173   1.24490   1.24892
 Alpha virt. eigenvalues --    1.25556   1.26370   1.26797   1.27116   1.28154
 Alpha virt. eigenvalues --    1.28893   1.29215   1.29342   1.30120   1.31063
 Alpha virt. eigenvalues --    1.32567   1.32814   1.32944   1.33850   1.34427
 Alpha virt. eigenvalues --    1.35185   1.35627   1.36494   1.36974   1.37481
 Alpha virt. eigenvalues --    1.37804   1.38463   1.39219   1.39697   1.40839
 Alpha virt. eigenvalues --    1.41445   1.42079   1.43026   1.43468   1.44065
 Alpha virt. eigenvalues --    1.44578   1.46381   1.46497   1.47474   1.47985
 Alpha virt. eigenvalues --    1.48457   1.49680   1.50313   1.50782   1.51181
 Alpha virt. eigenvalues --    1.52865   1.53652   1.55196   1.56264   1.57266
 Alpha virt. eigenvalues --    1.57938   1.58951   1.60066   1.61332   1.61576
 Alpha virt. eigenvalues --    1.62687   1.62988   1.63605   1.64374   1.64787
 Alpha virt. eigenvalues --    1.66345   1.66997   1.67193   1.67412   1.69712
 Alpha virt. eigenvalues --    1.70208   1.71771   1.73311   1.74181   1.75015
 Alpha virt. eigenvalues --    1.76242   1.76944   1.77535   1.78937   1.79188
 Alpha virt. eigenvalues --    1.79608   1.80839   1.81367   1.82517   1.83043
 Alpha virt. eigenvalues --    1.83342   1.85175   1.85844   1.87628   1.88538
 Alpha virt. eigenvalues --    1.88740   1.90524   1.91061   1.92213   1.93859
 Alpha virt. eigenvalues --    1.94991   1.95745   1.96973   1.98742   1.99093
 Alpha virt. eigenvalues --    1.99706   2.02477   2.03631   2.04672   2.05241
 Alpha virt. eigenvalues --    2.06449   2.07900   2.08534   2.10510   2.10617
 Alpha virt. eigenvalues --    2.12652   2.12930   2.14224   2.17145   2.19290
 Alpha virt. eigenvalues --    2.20709   2.21474   2.23734   2.24248   2.25290
 Alpha virt. eigenvalues --    2.26277   2.27659   2.28272   2.30139   2.31581
 Alpha virt. eigenvalues --    2.33386   2.34308   2.35233   2.36421   2.38215
 Alpha virt. eigenvalues --    2.38983   2.40548   2.44758   2.49350   2.53029
 Alpha virt. eigenvalues --    2.54101   2.54574   2.55129   2.57303   2.57639
 Alpha virt. eigenvalues --    2.60948   2.63171   2.65805   2.67515   2.67706
 Alpha virt. eigenvalues --    2.69222   2.69733   2.70266   2.71275   2.73389
 Alpha virt. eigenvalues --    2.73953   2.75090   2.77160   2.77977   2.79288
 Alpha virt. eigenvalues --    2.80520   2.81688   2.82334   2.83569   2.84860
 Alpha virt. eigenvalues --    2.86186   2.89154   2.90670   2.91083   2.92567
 Alpha virt. eigenvalues --    2.93273   2.94514   2.95312   2.95725   2.96115
 Alpha virt. eigenvalues --    2.97707   2.99823   3.00247   3.00854   3.01142
 Alpha virt. eigenvalues --    3.01627   3.02348   3.03168   3.04095   3.05206
 Alpha virt. eigenvalues --    3.05768   3.06171   3.07567   3.08152   3.09107
 Alpha virt. eigenvalues --    3.09839   3.10536   3.11925   3.12845   3.14786
 Alpha virt. eigenvalues --    3.15340   3.16973   3.19307   3.21459   3.23575
 Alpha virt. eigenvalues --    3.25533   3.27034   3.30660   3.76051   3.80195
 Alpha virt. eigenvalues --    3.97543   4.04832   4.08030   4.08820   4.12344
 Alpha virt. eigenvalues --    4.12534   4.13381   4.15052   4.16024   4.17798
 Alpha virt. eigenvalues --    4.18678   4.20653   4.21006   4.21439   4.21888
 Alpha virt. eigenvalues --    4.22675   4.23265   4.25125   4.25699   4.26226
 Alpha virt. eigenvalues --    4.27919   4.28144   4.29194   4.29962   4.30656
 Alpha virt. eigenvalues --    4.31025   4.31516   4.32012   4.32323   4.33435
 Alpha virt. eigenvalues --    4.33574   4.33953   4.34580   4.35159   4.35692
 Alpha virt. eigenvalues --    4.36125   4.36786   4.37420   4.37919   4.38538
 Alpha virt. eigenvalues --    4.39936   4.40662   4.41672   4.42362   4.43278
 Alpha virt. eigenvalues --    4.44577   4.45363   4.47851   4.48761   4.49544
 Alpha virt. eigenvalues --    4.49820   4.50449   4.52684   4.54674   4.55751
 Alpha virt. eigenvalues --    4.56275   4.56342   4.57867   4.59647   4.59766
 Alpha virt. eigenvalues --    4.61350   4.61923   4.62731   4.63728   4.64803
 Alpha virt. eigenvalues --    4.64955   4.65245   4.66410   4.66887   4.67210
 Alpha virt. eigenvalues --    4.67329   4.68467   4.69798   4.70237   4.71344
 Alpha virt. eigenvalues --    4.71888   4.72276   4.73468   4.73535   4.75005
 Alpha virt. eigenvalues --    4.76237   4.76335   4.76667   4.77806   4.77887
 Alpha virt. eigenvalues --    4.78323   4.78800   4.79484   4.80119   4.80507
 Alpha virt. eigenvalues --    4.81765   4.82671   4.83166   4.85561   4.86833
 Alpha virt. eigenvalues --    4.87582   4.88257   4.89477   4.91072   4.91474
 Alpha virt. eigenvalues --    4.91982   4.94673   4.95612   4.96941   4.98309
 Alpha virt. eigenvalues --    4.99841   5.01953   5.02440   5.04043   5.05491
 Alpha virt. eigenvalues --    5.08179   5.09396   5.12794   5.15547   5.18995
 Alpha virt. eigenvalues --    5.25297   5.26869   5.31467   5.34472   5.40097
 Alpha virt. eigenvalues --    5.49440   5.87990   6.11764   6.35743   6.71349
 Alpha virt. eigenvalues --    6.74701   6.75147   6.78342   6.80394   6.82096
 Alpha virt. eigenvalues --    6.86367   6.95876   6.96950   7.01414   7.02902
 Alpha virt. eigenvalues --    7.14353  11.89408  11.93675  12.07439  12.14411
 Alpha virt. eigenvalues --   12.30176  12.41987  12.68869  12.78832  12.83927
 Alpha virt. eigenvalues --   12.97632  13.16875  13.20336  13.24000  13.25838
 Alpha virt. eigenvalues --   13.28586  13.32864  13.41638  13.46785  13.47782
 Alpha virt. eigenvalues --   13.59135  13.62206  13.67741  14.02010
          Condensed to atoms (all electrons):
              1          2          3          4          5          6
     1  O    8.250966   0.082599   0.007443  -0.026968   0.021378   0.023406
     2  C    0.082599   7.288612  -0.407992   0.068717  -0.070806  -1.418449
     3  C    0.007443  -0.407992   6.315458   0.178807   0.051217   0.138566
     4  O   -0.026968   0.068717   0.178807   8.202807   0.227698  -0.099184
     5  H    0.021378  -0.070806   0.051217   0.227698   0.431486  -0.008489
     6  C    0.023406  -1.418449   0.138566  -0.099184  -0.008489   8.258972
     7  O   -0.000580   0.015567  -0.113686   0.008621  -0.000367   0.266852
     8  H    0.000005  -0.002391   0.017643  -0.000249   0.000011   0.019524
     9  C   -0.015138  -0.045022  -0.275891   0.007637  -0.002409   0.230295
    10  O   -0.006968   0.011998   0.018831  -0.000054  -0.000037  -0.005569
    11  H    0.001422  -0.006419  -0.001879   0.000001   0.000000   0.000233
    12  C   -0.044637  -0.514746   0.054679  -0.000662   0.004781   0.353729
    13  O    0.003015  -0.040750  -0.098716  -0.002420   0.000083  -0.011220
    14  C   -0.004389   0.452129   0.121253   0.004099   0.008231  -1.762950
    15  O   -0.000225  -0.018853   0.016588   0.000561  -0.000024   0.035859
    16  C   -0.000239   0.103216  -0.106678  -0.005931   0.000726  -0.273312
    17  C    0.000574  -0.044629   0.034804  -0.000129   0.000028   0.080954
    18  O    0.000018   0.006072  -0.001808  -0.000007   0.000000   0.001884
    19  H   -0.000012  -0.003573   0.002627   0.000001   0.000000   0.001606
    20  C    0.000046   0.005383  -0.011656  -0.000044   0.000000   0.043356
    21  O    0.000000   0.000000   0.000011   0.000000   0.000000  -0.000154
    22  H    0.000000   0.000000   0.000001   0.000000   0.000000  -0.000014
    23  C    0.000005   0.024885  -0.028039  -0.000356  -0.000008  -0.085445
    24  O    0.000005  -0.003254  -0.002757  -0.000084  -0.000001   0.007531
    25  H    0.000000   0.000311   0.001035   0.000005   0.000000  -0.002828
    26  C   -0.000251  -0.008672  -0.013915   0.000666   0.000008   0.060252
    27  O    0.000000  -0.000099   0.000426   0.000000   0.000000   0.002776
    28  C    0.000002  -0.002813   0.003024   0.000004   0.000000  -0.004490
    29  O    0.000000   0.000013   0.000011   0.000000   0.000000  -0.000262
    30  H    0.000000   0.000000   0.000000   0.000000   0.000000   0.000001
    31  H    0.000000  -0.000043   0.000088   0.000000   0.000000   0.001591
    32  H    0.000000   0.000200  -0.000519  -0.000001   0.000000  -0.004498
    33  H    0.000000  -0.000057   0.000286   0.000000   0.000000  -0.002943
    34  H   -0.000001  -0.002139   0.003106   0.000005   0.000000   0.013938
    35  H    0.000000   0.000659   0.000276   0.000000   0.000000   0.007225
    36  H    0.000000   0.000123  -0.000024   0.000000   0.000000   0.000038
    37  H    0.000000   0.000008   0.000006   0.000000   0.000000  -0.000170
    38  H    0.257374   0.074779  -0.042403   0.001991  -0.002496   0.004560
    39  H   -0.000238  -0.007009   0.001335   0.000000   0.000000   0.001233
    40  H    0.001699  -0.012775  -0.002427  -0.000004   0.000000   0.012987
    41  H    0.006167   0.047963  -0.027596   0.000380   0.000006  -0.042659
    42  H   -0.008078   0.312982  -0.017898   0.001241   0.000020  -0.016610
    43  H   -0.000445   0.004502   0.305742  -0.024954  -0.001614  -0.166536
    44  H    0.000548   0.048624  -0.201535   0.004092  -0.000287   0.402566
    45  H    0.000133   0.002565  -0.055714   0.000061   0.000000   0.017066
              7          8          9         10         11         12
     1  O   -0.000580   0.000005  -0.015138  -0.006968   0.001422  -0.044637
     2  C    0.015567  -0.002391  -0.045022   0.011998  -0.006419  -0.514746
     3  C   -0.113686   0.017643  -0.275891   0.018831  -0.001879   0.054679
     4  O    0.008621  -0.000249   0.007637  -0.000054   0.000001  -0.000662
     5  H   -0.000367   0.000011  -0.002409  -0.000037   0.000000   0.004781
     6  C    0.266852   0.019524   0.230295  -0.005569   0.000233   0.353729
     7  O    8.268779   0.246197  -0.000745   0.000003   0.000000   0.013498
     8  H    0.246197   0.343760  -0.000313   0.000000   0.000000  -0.003805
     9  C   -0.000745  -0.000313   6.834570   0.083826  -0.014692  -0.991522
    10  O    0.000003   0.000000   0.083826   8.271389   0.231605   0.014185
    11  H    0.000000   0.000000  -0.014692   0.231605   0.440992   0.025278
    12  C    0.013498  -0.003805  -0.991522   0.014185   0.025278   7.936803
    13  O    0.001147  -0.001175  -0.016784  -0.004175  -0.000064   0.012302
    14  C   -0.067548  -0.068457  -0.536982   0.011440  -0.002825  -0.777142
    15  O    0.007223   0.012350  -0.005586  -0.000075   0.000005   0.005378
    16  C    0.031831   0.029467  -0.068416  -0.001241   0.000024  -0.006558
    17  C   -0.000133   0.003799  -0.031991   0.000265  -0.000050  -0.138460
    18  O   -0.000068  -0.000031   0.000305  -0.000089   0.000002  -0.004735
    19  H   -0.000049  -0.000002   0.006195   0.000009  -0.000004  -0.016257
    20  C    0.001350   0.000663   0.004298   0.000029   0.000006   0.003205
    21  O   -0.000001   0.000000   0.000137   0.000000   0.000000  -0.000037
    22  H    0.000000   0.000000  -0.000002   0.000000   0.000000   0.000002
    23  C    0.027914   0.003494  -0.005431  -0.000002   0.000000  -0.016017
    24  O   -0.036438   0.001596   0.000353   0.000000   0.000000   0.001491
    25  H    0.001030  -0.003940  -0.000016   0.000000   0.000000  -0.000105
    26  C   -0.042060  -0.021794   0.016891  -0.000034   0.000008   0.079533
    27  O    0.000092  -0.000014   0.000009   0.000000   0.000000  -0.000191
    28  C   -0.000383  -0.000089   0.000608  -0.000002   0.000000  -0.003153
    29  O   -0.000001   0.000000  -0.000015   0.000000   0.000000   0.000027
    30  H    0.000000   0.000000   0.000000   0.000000   0.000000   0.000001
    31  H   -0.000626   0.000392   0.000000   0.000000   0.000000   0.000035
    32  H    0.002369  -0.000242  -0.000055   0.000000   0.000000  -0.000579
    33  H   -0.000100  -0.000002  -0.000021   0.000000   0.000000  -0.000193
    34  H   -0.001721  -0.000022  -0.001090   0.000001   0.000000   0.001225
    35  H   -0.000025  -0.000001  -0.000512   0.000000   0.000000  -0.000935
    36  H    0.000002   0.000000  -0.000117   0.000000   0.000000   0.000226
    37  H    0.000001   0.000000  -0.000004   0.000000   0.000000  -0.000004
    38  H    0.000003   0.000000   0.010003   0.000274  -0.000029  -0.045313
    39  H   -0.000015   0.000000   0.419746  -0.025474  -0.009896  -0.049135
    40  H    0.000005   0.000000   0.605301  -0.053686  -0.002089  -0.239837
    41  H    0.000148   0.000003   0.038214   0.001199  -0.000198   0.096170
    42  H    0.000665   0.000003  -0.033798  -0.001159  -0.000009  -0.049812
    43  H    0.006038  -0.000110   0.017826  -0.000176   0.000000   0.036619
    44  H   -0.028812  -0.005832   0.021849   0.000022   0.000000   0.049292
    45  H    0.002662   0.000279   0.016737   0.000025   0.000000   0.067185
             13         14         15         16         17         18
     1  O    0.003015  -0.004389  -0.000225  -0.000239   0.000574   0.000018
     2  C   -0.040750   0.452129  -0.018853   0.103216  -0.044629   0.006072
     3  C   -0.098716   0.121253   0.016588  -0.106678   0.034804  -0.001808
     4  O   -0.002420   0.004099   0.000561  -0.005931  -0.000129  -0.000007
     5  H    0.000083   0.008231  -0.000024   0.000726   0.000028   0.000000
     6  C   -0.011220  -1.762950   0.035859  -0.273312   0.080954   0.001884
     7  O    0.001147  -0.067548   0.007223   0.031831  -0.000133  -0.000068
     8  H   -0.001175  -0.068457   0.012350   0.029467   0.003799  -0.000031
     9  C   -0.016784  -0.536982  -0.005586  -0.068416  -0.031991   0.000305
    10  O   -0.004175   0.011440  -0.000075  -0.001241   0.000265  -0.000089
    11  H   -0.000064  -0.002825   0.000005   0.000024  -0.000050   0.000002
    12  C    0.012302  -0.777142   0.005378  -0.006558  -0.138460  -0.004735
    13  O    8.237106   0.237933  -0.058126   0.020747   0.000997  -0.021996
    14  C    0.237933   8.688184   0.158206  -0.605249  -0.021238  -0.033153
    15  O   -0.058126   0.158206   8.078399   0.210834  -0.007597  -0.003498
    16  C    0.020747  -0.605249   0.210834  10.201169  -1.260415  -0.082248
    17  C    0.000997  -0.021238  -0.007597  -1.260415   7.377756   0.285324
    18  O   -0.021996  -0.033153  -0.003498  -0.082248   0.285324   8.204292
    19  H    0.015008   0.021550   0.015355  -0.083824   0.058601   0.239477
    20  C   -0.020850  -0.161858  -0.001091  -1.026235  -0.277343  -0.031571
    21  O   -0.000069  -0.000429   0.000437   0.013677  -0.020715   0.003828
    22  H    0.000002  -0.000096  -0.000020  -0.004418   0.011390  -0.000477
    23  C    0.006829  -0.162699   0.010281   0.431136  -0.296019   0.011602
    24  O   -0.003098   0.106806  -0.037483  -0.012989   0.000847   0.000019
    25  H    0.000026  -0.008476   0.002712  -0.024457  -0.001563  -0.000002
    26  C   -0.017220  -0.440873  -0.104221  -2.571286  -0.342199   0.014272
    27  O    0.000217   0.010347   0.001345   0.052881  -0.000720  -0.000880
    28  C    0.001383   0.104547   0.006558   0.565893   0.415074  -0.008821
    29  O    0.000034  -0.001838  -0.000010   0.000679   0.019253   0.000379
    30  H    0.000000   0.000021  -0.000001  -0.000855   0.003935  -0.000027
    31  H    0.000032   0.006874  -0.000184   0.012829   0.004118   0.000017
    32  H    0.000077  -0.014407   0.004274   0.104619   0.000315   0.000056
    33  H   -0.000319   0.016116  -0.002539   0.044417  -0.040407   0.000262
    34  H   -0.003943  -0.047873  -0.035050   0.151850   0.035016  -0.004831
    35  H   -0.000321  -0.016321  -0.005673  -0.122337   0.342774  -0.032060
    36  H    0.000074  -0.011879   0.000213   0.038892  -0.092107   0.003475
    37  H    0.000033  -0.001076   0.000474   0.028598  -0.009588   0.000057
    38  H   -0.000845  -0.000739  -0.000004   0.000144  -0.000054   0.000000
    39  H   -0.000462  -0.001888  -0.000379   0.004281  -0.001486  -0.000141
    40  H   -0.004267   0.005058  -0.000478  -0.007377   0.004237  -0.000323
    41  H   -0.021271   0.165032  -0.002990  -0.008791   0.008613  -0.000305
    42  H    0.004770   0.082467  -0.000024  -0.003927   0.001691   0.000022
    43  H    0.005548   0.053955   0.000401  -0.001616   0.000563   0.000026
    44  H    0.010702  -0.042292  -0.011233  -0.008458  -0.001818   0.000083
    45  H   -0.024897   0.236599  -0.033994   0.003779   0.004812  -0.001909
             19         20         21         22         23         24
     1  O   -0.000012   0.000046   0.000000   0.000000   0.000005   0.000005
     2  C   -0.003573   0.005383   0.000000   0.000000   0.024885  -0.003254
     3  C    0.002627  -0.011656   0.000011   0.000001  -0.028039  -0.002757
     4  O    0.000001  -0.000044   0.000000   0.000000  -0.000356  -0.000084
     5  H    0.000000   0.000000   0.000000   0.000000  -0.000008  -0.000001
     6  C    0.001606   0.043356  -0.000154  -0.000014  -0.085445   0.007531
     7  O   -0.000049   0.001350  -0.000001   0.000000   0.027914  -0.036438
     8  H   -0.000002   0.000663   0.000000   0.000000   0.003494   0.001596
     9  C    0.006195   0.004298   0.000137  -0.000002  -0.005431   0.000353
    10  O    0.000009   0.000029   0.000000   0.000000  -0.000002   0.000000
    11  H   -0.000004   0.000006   0.000000   0.000000   0.000000   0.000000
    12  C   -0.016257   0.003205  -0.000037   0.000002  -0.016017   0.001491
    13  O    0.015008  -0.020850  -0.000069   0.000002   0.006829  -0.003098
    14  C    0.021550  -0.161858  -0.000429  -0.000096  -0.162699   0.106806
    15  O    0.015355  -0.001091   0.000437  -0.000020   0.010281  -0.037483
    16  C   -0.083824  -1.026235   0.013677  -0.004418   0.431136  -0.012989
    17  C    0.058601  -0.277343  -0.020715   0.011390  -0.296019   0.000847
    18  O    0.239477  -0.031571   0.003828  -0.000477   0.011602   0.000019
    19  H    0.386542   0.003174  -0.000352   0.000011  -0.002272   0.000053
    20  C    0.003174   6.693336   0.068208   0.008386   0.151481  -0.008298
    21  O   -0.000352   0.068208   8.201492   0.247305  -0.002413   0.000000
    22  H    0.000011   0.008386   0.247305   0.425991   0.000253   0.000000
    23  C   -0.002272   0.151481  -0.002413   0.000253   6.833340  -0.120306
    24  O    0.000053  -0.008298   0.000000   0.000000  -0.120306   8.379027
    25  H    0.000000   0.001184   0.000000   0.000000   0.006438   0.247745
    26  C   -0.007172   0.817576  -0.014027   0.005737  -1.217748   0.125141
    27  O    0.000052  -0.076619   0.004312  -0.000799  -0.056567   0.002372
    28  C    0.003475  -0.529218   0.036071  -0.030603  -0.331287   0.013342
    29  O    0.000009  -0.063136   0.018672   0.007919   0.007462   0.000038
    30  H    0.000000  -0.034215  -0.002111  -0.000781  -0.001621  -0.000002
    31  H    0.000000  -0.002834  -0.000003   0.000000   0.390726  -0.026305
    32  H   -0.000001  -0.000112   0.000004   0.000000   0.597774  -0.062003
    33  H    0.000020  -0.024130   0.000109   0.000002   0.108298   0.002109
    34  H    0.000320   0.042333  -0.000357   0.000006  -0.027993   0.000530
    35  H   -0.005846   0.016816  -0.004507  -0.000080   0.015636  -0.000040
    36  H   -0.000098   0.330123  -0.018390  -0.009274   0.006493  -0.000001
    37  H    0.000004  -0.101445   0.000896   0.000060  -0.000762   0.000001
    38  H    0.000000   0.000001   0.000000   0.000000   0.000003   0.000000
    39  H    0.000248  -0.001185   0.000000   0.000000  -0.000031   0.000000
    40  H    0.000101   0.000411   0.000000   0.000000  -0.000009  -0.000001
    41  H    0.000145   0.000351   0.000000   0.000000   0.000164  -0.000003
    42  H   -0.000002   0.000006   0.000000   0.000000   0.000014   0.000006
    43  H   -0.000001   0.000004   0.000000   0.000000   0.000090   0.000022
    44  H   -0.000019   0.000610   0.000000   0.000000   0.003402   0.000775
    45  H    0.000082   0.011056   0.000004   0.000000   0.007480  -0.000207
             25         26         27         28         29         30
     1  O    0.000000  -0.000251   0.000000   0.000002   0.000000   0.000000
     2  C    0.000311  -0.008672  -0.000099  -0.002813   0.000013   0.000000
     3  C    0.001035  -0.013915   0.000426   0.003024   0.000011   0.000000
     4  O    0.000005   0.000666   0.000000   0.000004   0.000000   0.000000
     5  H    0.000000   0.000008   0.000000   0.000000   0.000000   0.000000
     6  C   -0.002828   0.060252   0.002776  -0.004490  -0.000262   0.000001
     7  O    0.001030  -0.042060   0.000092  -0.000383  -0.000001   0.000000
     8  H   -0.003940  -0.021794  -0.000014  -0.000089   0.000000   0.000000
     9  C   -0.000016   0.016891   0.000009   0.000608  -0.000015   0.000000
    10  O    0.000000  -0.000034   0.000000  -0.000002   0.000000   0.000000
    11  H    0.000000   0.000008   0.000000   0.000000   0.000000   0.000000
    12  C   -0.000105   0.079533  -0.000191  -0.003153   0.000027   0.000001
    13  O    0.000026  -0.017220   0.000217   0.001383   0.000034   0.000000
    14  C   -0.008476  -0.440873   0.010347   0.104547  -0.001838   0.000021
    15  O    0.002712  -0.104221   0.001345   0.006558  -0.000010  -0.000001
    16  C   -0.024457  -2.571286   0.052881   0.565893   0.000679  -0.000855
    17  C   -0.001563  -0.342199  -0.000720   0.415074   0.019253   0.003935
    18  O   -0.000002   0.014272  -0.000880  -0.008821   0.000379  -0.000027
    19  H    0.000000  -0.007172   0.000052   0.003475   0.000009   0.000000
    20  C    0.001184   0.817576  -0.076619  -0.529218  -0.063136  -0.034215
    21  O    0.000000  -0.014027   0.004312   0.036071   0.018672  -0.002111
    22  H    0.000000   0.005737  -0.000799  -0.030603   0.007919  -0.000781
    23  C    0.006438  -1.217748  -0.056567  -0.331287   0.007462  -0.001621
    24  O    0.247745   0.125141   0.002372   0.013342   0.000038  -0.000002
    25  H    0.405886   0.025027  -0.000746  -0.002420  -0.000002   0.000000
    26  C    0.025027  10.506290   0.127041  -0.966928  -0.056791   0.005564
    27  O   -0.000746   0.127041   8.112077   0.169380  -0.025535   0.005425
    28  C   -0.002420  -0.966928   0.169380   5.762313   0.245333   0.016303
    29  O   -0.000002  -0.056791  -0.025535   0.245333   8.181278   0.259552
    30  H    0.000000   0.005564   0.005425   0.016303   0.259552   0.418537
    31  H   -0.009885  -0.049415  -0.004034   0.006424  -0.000149   0.000000
    32  H   -0.000917  -0.324859   0.003940   0.000667   0.000081   0.000000
    33  H   -0.000177   0.133810  -0.034698   0.045449   0.000858  -0.000005
    34  H   -0.000004   0.119673   0.001012   0.001618  -0.000541   0.000002
    35  H    0.000000   0.076112   0.001075  -0.038810  -0.000188   0.000014
    36  H    0.000000   0.008941   0.003329   0.004038  -0.000813   0.000047
    37  H    0.000000  -0.027435  -0.040421   0.444303  -0.025538  -0.008416
    38  H    0.000000  -0.000003   0.000000   0.000000   0.000000   0.000000
    39  H    0.000000   0.000085   0.000000   0.000089   0.000000   0.000000
    40  H    0.000000  -0.000326   0.000000  -0.000004   0.000000   0.000000
    41  H    0.000000  -0.001698   0.000000   0.000025   0.000000   0.000000
    42  H    0.000000  -0.000495   0.000000   0.000004   0.000000   0.000000
    43  H    0.000000   0.000135   0.000000  -0.000002   0.000000   0.000000
    44  H   -0.000005  -0.003077   0.000001  -0.000048   0.000000   0.000000
    45  H    0.000010   0.016865   0.000153  -0.002268  -0.000002   0.000000
             31         32         33         34         35         36
     1  O    0.000000   0.000000   0.000000  -0.000001   0.000000   0.000000
     2  C   -0.000043   0.000200  -0.000057  -0.002139   0.000659   0.000123
     3  C    0.000088  -0.000519   0.000286   0.003106   0.000276  -0.000024
     4  O    0.000000  -0.000001   0.000000   0.000005   0.000000   0.000000
     5  H    0.000000   0.000000   0.000000   0.000000   0.000000   0.000000
     6  C    0.001591  -0.004498  -0.002943   0.013938   0.007225   0.000038
     7  O   -0.000626   0.002369  -0.000100  -0.001721  -0.000025   0.000002
     8  H    0.000392  -0.000242  -0.000002  -0.000022  -0.000001   0.000000
     9  C    0.000000  -0.000055  -0.000021  -0.001090  -0.000512  -0.000117
    10  O    0.000000   0.000000   0.000000   0.000001   0.000000   0.000000
    11  H    0.000000   0.000000   0.000000   0.000000   0.000000   0.000000
    12  C    0.000035  -0.000579  -0.000193   0.001225  -0.000935   0.000226
    13  O    0.000032   0.000077  -0.000319  -0.003943  -0.000321   0.000074
    14  C    0.006874  -0.014407   0.016116  -0.047873  -0.016321  -0.011879
    15  O   -0.000184   0.004274  -0.002539  -0.035050  -0.005673   0.000213
    16  C    0.012829   0.104619   0.044417   0.151850  -0.122337   0.038892
    17  C    0.004118   0.000315  -0.040407   0.035016   0.342774  -0.092107
    18  O    0.000017   0.000056   0.000262  -0.004831  -0.032060   0.003475
    19  H    0.000000  -0.000001   0.000020   0.000320  -0.005846  -0.000098
    20  C   -0.002834  -0.000112  -0.024130   0.042333   0.016816   0.330123
    21  O   -0.000003   0.000004   0.000109  -0.000357  -0.004507  -0.018390
    22  H    0.000000   0.000000   0.000002   0.000006  -0.000080  -0.009274
    23  C    0.390726   0.597774   0.108298  -0.027993   0.015636   0.006493
    24  O   -0.026305  -0.062003   0.002109   0.000530  -0.000040  -0.000001
    25  H   -0.009885  -0.000917  -0.000177  -0.000004   0.000000   0.000000
    26  C   -0.049415  -0.324859   0.133810   0.119673   0.076112   0.008941
    27  O   -0.004034   0.003940  -0.034698   0.001012   0.001075   0.003329
    28  C    0.006424   0.000667   0.045449   0.001618  -0.038810   0.004038
    29  O   -0.000149   0.000081   0.000858  -0.000541  -0.000188  -0.000813
    30  H    0.000000   0.000000  -0.000005   0.000002   0.000014   0.000047
    31  H    0.572671  -0.042673  -0.004288   0.000059   0.000007   0.000001
    32  H   -0.042673   0.569648   0.005863   0.002090  -0.000010  -0.000006
    33  H   -0.004288   0.005863   0.616426   0.006383   0.003012  -0.000011
    34  H    0.000059   0.002090   0.006383   0.623348   0.006918   0.001149
    35  H    0.000007  -0.000010   0.003012   0.006918   0.629743   0.006557
    36  H    0.000001  -0.000006  -0.000011   0.001149   0.006557   0.587147
    37  H   -0.000025  -0.000021   0.004625  -0.000017   0.001571   0.005234
    38  H    0.000000   0.000000   0.000000   0.000000   0.000000   0.000000
    39  H    0.000000   0.000000   0.000000  -0.000002   0.000000   0.000000
    40  H    0.000000   0.000000   0.000000   0.000000   0.000000   0.000000
    41  H    0.000000   0.000000   0.000000  -0.000020   0.000000   0.000000
    42  H    0.000000   0.000000   0.000000   0.000000   0.000000   0.000000
    43  H    0.000000   0.000000   0.000000  -0.000002   0.000000   0.000000
    44  H    0.000000  -0.000005  -0.000002  -0.000001  -0.000004   0.000000
    45  H    0.000000   0.000045  -0.000005   0.007233  -0.000007  -0.000003
             37         38         39         40         41         42
     1  O    0.000000   0.257374  -0.000238   0.001699   0.006167  -0.008078
     2  C    0.000008   0.074779  -0.007009  -0.012775   0.047963   0.312982
     3  C    0.000006  -0.042403   0.001335  -0.002427  -0.027596  -0.017898
     4  O    0.000000   0.001991   0.000000  -0.000004   0.000380   0.001241
     5  H    0.000000  -0.002496   0.000000   0.000000   0.000006   0.000020
     6  C   -0.000170   0.004560   0.001233   0.012987  -0.042659  -0.016610
     7  O    0.000001   0.000003  -0.000015   0.000005   0.000148   0.000665
     8  H    0.000000   0.000000   0.000000   0.000000   0.000003   0.000003
     9  C   -0.000004   0.010003   0.419746   0.605301   0.038214  -0.033798
    10  O    0.000000   0.000274  -0.025474  -0.053686   0.001199  -0.001159
    11  H    0.000000  -0.000029  -0.009896  -0.002089  -0.000198  -0.000009
    12  C   -0.000004  -0.045313  -0.049135  -0.239837   0.096170  -0.049812
    13  O    0.000033  -0.000845  -0.000462  -0.004267  -0.021271   0.004770
    14  C   -0.001076  -0.000739  -0.001888   0.005058   0.165032   0.082467
    15  O    0.000474  -0.000004  -0.000379  -0.000478  -0.002990  -0.000024
    16  C    0.028598   0.000144   0.004281  -0.007377  -0.008791  -0.003927
    17  C   -0.009588  -0.000054  -0.001486   0.004237   0.008613   0.001691
    18  O    0.000057   0.000000  -0.000141  -0.000323  -0.000305   0.000022
    19  H    0.000004   0.000000   0.000248   0.000101   0.000145  -0.000002
    20  C   -0.101445   0.000001  -0.001185   0.000411   0.000351   0.000006
    21  O    0.000896   0.000000   0.000000   0.000000   0.000000   0.000000
    22  H    0.000060   0.000000   0.000000   0.000000   0.000000   0.000000
    23  C   -0.000762   0.000003  -0.000031  -0.000009   0.000164   0.000014
    24  O    0.000001   0.000000   0.000000  -0.000001  -0.000003   0.000006
    25  H    0.000000   0.000000   0.000000   0.000000   0.000000   0.000000
    26  C   -0.027435  -0.000003   0.000085  -0.000326  -0.001698  -0.000495
    27  O   -0.040421   0.000000   0.000000   0.000000   0.000000   0.000000
    28  C    0.444303   0.000000   0.000089  -0.000004   0.000025   0.000004
    29  O   -0.025538   0.000000   0.000000   0.000000   0.000000   0.000000
    30  H   -0.008416   0.000000   0.000000   0.000000   0.000000   0.000000
    31  H   -0.000025   0.000000   0.000000   0.000000   0.000000   0.000000
    32  H   -0.000021   0.000000   0.000000   0.000000   0.000000   0.000000
    33  H    0.004625   0.000000   0.000000   0.000000   0.000000   0.000000
    34  H   -0.000017   0.000000  -0.000002   0.000000  -0.000020   0.000000
    35  H    0.001571   0.000000   0.000000   0.000000   0.000000   0.000000
    36  H    0.005234   0.000000   0.000000   0.000000   0.000000   0.000000
    37  H    0.596773   0.000000   0.000000   0.000000   0.000000   0.000000
    38  H    0.000000   0.416107   0.000009  -0.000108  -0.000280  -0.012422
    39  H    0.000000   0.000009   0.575554  -0.049052  -0.006593  -0.000028
    40  H    0.000000  -0.000108  -0.049052   0.593139   0.006396   0.002269
    41  H    0.000000  -0.000280  -0.006593   0.006396   0.618246   0.005619
    42  H    0.000000  -0.012422  -0.000028   0.002269   0.005619   0.595958
    43  H    0.000000  -0.000064   0.000004  -0.000008   0.002614   0.005522
    44  H    0.000000   0.000022   0.000002  -0.000032  -0.000078   0.002756
    45  H    0.000000   0.000002   0.000009  -0.000022   0.001744  -0.000065
             43         44         45
     1  O   -0.000445   0.000548   0.000133
     2  C    0.004502   0.048624   0.002565
     3  C    0.305742  -0.201535  -0.055714
     4  O   -0.024954   0.004092   0.000061
     5  H   -0.001614  -0.000287   0.000000
     6  C   -0.166536   0.402566   0.017066
     7  O    0.006038  -0.028812   0.002662
     8  H   -0.000110  -0.005832   0.000279
     9  C    0.017826   0.021849   0.016737
    10  O   -0.000176   0.000022   0.000025
    11  H    0.000000   0.000000   0.000000
    12  C    0.036619   0.049292   0.067185
    13  O    0.005548   0.010702  -0.024897
    14  C    0.053955  -0.042292   0.236599
    15  O    0.000401  -0.011233  -0.033994
    16  C   -0.001616  -0.008458   0.003779
    17  C    0.000563  -0.001818   0.004812
    18  O    0.000026   0.000083  -0.001909
    19  H   -0.000001  -0.000019   0.000082
    20  C    0.000004   0.000610   0.011056
    21  O    0.000000   0.000000   0.000004
    22  H    0.000000   0.000000   0.000000
    23  C    0.000090   0.003402   0.007480
    24  O    0.000022   0.000775  -0.000207
[...]
 0.00001944,-0.00002967,0.00005710,0.00002498,0.00008640,-0.00000199,-0
 .00000268,0.00002799,-0.00001145,0.00000977,0.00000778,0.00001337,-0.0
 0000433,-0.00001752,-0.00000978,-0.00000601,0.00002325,-0.00000463,-0.
 00000859,0.00000658,0.00000297,0.00000521,-0.00000446,-0.00000127,-0.0
 0000156,-0.00000050,-0.00001745,-0.00001045,0.00001336,0.00002455,0.00
 001184,-0.00000344,-0.00000763,-0.00000072,0.00000346,-0.00000747,-0.0
 0000472,0.00000911,0.00000810,0.00000601,-0.00001088,-0.00000474,-0.00
 000245,0.00001110,0.00000542,0.00000204,-0.00001143,-0.00000076,-0.000
 00002,0.00000171,0.00000017,-0.00000079,-0.00000292,0.00000419,0.00000
 262,0.00000037,0.00000364,-0.00000038,0.00000265,0.00000654,0.00000231
 ,-0.00000618,0.00000443,0.00000053,0.00000444,0.00000171,0.00000200,-0
 .00000216,0.00000178,0.00000085,0.00000035,0.00107819,0.00015723,-0.00
 059380,0.00016060,-0.00000215,0.00000039,0.00036471,-0.00060341,0.0001
 0906,0.00056895,-0.00029396,0.00019737,0.36953838,-0.00998968,-0.00161
 901,-0.00404451,-0.04949877,-0.05367829,0.00945431,0.02941510,0.004346
 49,-0.00597933,-0.00245576,0.00256495,0.00005486,0.00026683,-0.0000383
 9,0.00033084,0.00156259,0.00117280,0.00125368,-0.00053412,-0.00021138,
 0.00000237,-0.00002087,-0.00002477,0.00005023,-0.00130114,0.00145473,-
 0.00080510,0.00025437,-0.00008398,-0.00003554,-0.00000121,-0.00006104,
 -0.00003353,-0.02649777,-0.00427058,0.00571772,0.00135962,0.00109044,-
 0.00223653,0.00029282,-0.00038995,-0.00016507,0.00000626,0.00010769,0.
 00005473,-0.00003089,0.00003085,-0.00001154,0.00000099,0.00001018,-0.0
 0000377,0.00002318,-0.00001305,-0.00002622,-0.00002663,0.00001393,0.00
 002829,-0.00000711,-0.00000075,-0.00000131,0.00000486,-0.00000122,-0.0
 0000088,-0.00000114,-0.00000012,-0.00000038,0.00000493,-0.00000139,-0.
 00000087,-0.00002036,-0.00000954,-0.00002888,0.00000704,0.00000554,-0.
 00000066,-0.00000383,-0.00000618,0.00000304,0.00000120,-0.00000038,0.0
 0000274,-0.00000150,0.00000381,0.00000134,0.00000193,-0.00000094,-0.00
 000309,-0.00000022,0.00000038,0.00000064,-0.00000063,0.00000075,-0.000
 00177,-0.00000183,-0.00000109,0.00000285,0.00000009,0.00000192,0.00000
 039,0.00000266,-0.00000650,0.00000519,0.00000246,0.00000267,0.00000401
 ,0.00000137,0.00000061,-0.00000182,0.00000036,0.00000060,0.00000026,-0
 .00076555,0.00130645,0.00017697,0.00038206,0.00031635,-0.00004181,0.00
 084848,-0.00022437,0.00004586,-0.00046267,-0.00277364,0.00343435,0.055
 28969,0.05541158,-0.03824703,-0.00939889,-0.01062789,0.04993373,0.0083
 6334,-0.05002361,0.01045373,0.00335228,-0.00140468,-0.00108320,-0.0002
 6696,0.00086727,-0.00028059,-0.00047997,-0.00009879,0.00134424,0.00025
 161,0.00034260,-0.00038506,-0.00000087,0.00001271,0.00004799,0.0000167
 9,-0.00000058,0.00014861,-0.00109072,0.00059708,-0.00007379,0.00013824
 ,0.00010505,0.00002534,-0.00001433,0.00008358,0.02245944,0.00374168,-0
 .00321696,-0.00020700,-0.00035854,0.00217940,0.00048740,-0.00008824,-0
 .00026297,-0.00011232,-0.00003747,-0.00015815,-0.00000060,-0.00003261,
 0.00000587,0.00002111,0.00000845,0.00001389,-0.00004696,-0.00000566,-0
 .00001772,0.00005929,0.00001142,-0.00001112,0.00000526,-0.00000432,0.0
 0000617,-0.00001015,0.00000612,-0.00000929,0.00000192,-0.00000032,0.00
 000218,0.00001401,0.00001015,-0.00000524,-0.00002580,-0.00001555,-0.00
 001302,0.00000677,0.00000374,0.00000213,0.00000682,0.00001147,0.000008
 94,-0.00000970,0.00000012,-0.00001241,0.00000823,-0.00000350,0.0000136
 7,-0.00000043,0.00000010,-0.00000998,0.00000085,0.00000065,0.00000204,
 -0.00000165,-0.00000262,-0.00000063,-0.00000542,0.00000015,0.00000300,
 -0.00000513,-0.00000230,-0.00000691,-0.00001219,-0.00000148,0.00001712
 ,-0.00001038,-0.00000503,-0.00001079,-0.00000296,-0.00000125,0.0000039
 6,-0.00000188,-0.00000122,-0.00000181,-0.00237268,0.00058561,0.0034577
 6,-0.00016347,-0.00016946,0.00001368,-0.00059671,0.00023589,0.00009332
 ,0.00022830,0.00271314,-0.00313036,-0.04196906,-0.00499397,0.06188120,
 0.00219921,-0.00048244,-0.00089823,-0.01989252,-0.00218854,-0.00045103
 ,-0.33741450,-0.05766736,0.02306408,0.00376366,-0.00643974,0.00602824,
 -0.00013315,-0.00069751,-0.00010723,-0.01436181,-0.00126353,-0.0011955
 5,0.00156967,-0.00066141,-0.00063283,0.00008930,0.00001151,0.00019832,
 0.00060432,0.00036309,-0.00018393,0.00005274,-0.00004315,-0.00002858,-
 0.00000778,-0.00000220,0.00000334,-0.00105902,-0.00167282,0.00096419,0
 .00036809,0.00050783,-0.00016259,-0.00075125,-0.00108659,0.00050062,0.
 00039247,0.00015047,-0.00024525,-0.00008311,0.00004449,-0.00004057,0.0
 0000536,-0.00002229,-0.00005927,0.00003599,0.00002686,0.00003092,-0.00
 002013,-0.00001488,0.00000066,-0.00002009,0.00000182,0.00000626,0.0000
 0973,0.00001233,-0.00000150,-0.00000500,-0.00000329,-0.00000385,-0.000
 06995,-0.00006109,0.00006932,0.00001397,0.00004584,-0.00011194,-0.0000
 0740,0.00000134,0.00002276,-0.00000074,-0.00001236,0.00000753,0.000010
 76,0.00002581,-0.00002234,-0.00000017,-0.00002002,0.00000958,0.0000058
 0,0.00000895,-0.00000796,-0.00000090,-0.00000152,0.00000014,0.00000892
 ,0.00000602,-0.00001085,0.00001696,0.00000435,-0.00000246,0.00000749,-
 0.00000044,0.00000815,0.00001155,0.00000699,-0.00004263,0.00001193,0.0
 0000121,0.00000802,0.00000444,0.00000295,-0.00000474,0.00000297,0.0000
 0241,0.00000130,0.00052335,-0.00045318,-0.00025852,-0.00004279,0.00014
 639,0.00000182,0.00021568,-0.00030233,0.00001627,0.00110215,0.00066636
 ,-0.00068545,-0.00055942,0.00248624,0.00072909,0.36307236,-0.00142552,
 0.00187778,0.00168003,0.02939755,0.00150409,-0.00225481,-0.06005025,-0
 .05035728,-0.00086481,-0.02773272,-0.02064947,0.01776590,-0.00039995,-
 0.00062333,-0.00076119,-0.01212328,-0.00018001,-0.00114172,0.00067197,
 0.00056199,0.00110885,0.00007536,0.00001565,-0.00006123,0.00010188,0.0
 0002167,-0.00000968,-0.00004225,-0.00002310,-0.00002924,-0.00000493,0.
 00001860,0.00000716,0.00174749,0.00170502,-0.00085748,-0.00009733,-0.0
 0026228,0.00044668,0.00046146,-0.00046078,0.00052240,0.00008334,0.0000
 0538,-0.00027782,-0.00004752,0.00003692,-0.00001667,0.00000944,-0.0000
 2403,-0.00004891,0.00000032,0.00000964,0.00004877,-0.00000535,0.000007
 02,-0.00004551,-0.00000828,0.00000971,0.00000610,0.00000404,0.00000253
 ,-0.00000312,-0.00000234,0.00000072,-0.00000187,-0.00002581,0.00000072
 ,0.00000417,0.00006200,0.00002613,0.00007278,-0.00002225,-0.00001310,0
 .00000157,-0.00000142,0.00002211,0.00000423,0.00000787,-0.00000751,-0.
 00000783,-0.00000326,0.00000030,-0.00000127,0.00000093,0.00000061,0.00
 000320,-0.00000036,-0.00000058,-0.00000111,0.00000237,-0.00000251,0.00
 000273,0.00000854,0.00000472,-0.00000679,0.00000325,-0.00000524,0.0000
 0192,0.00000293,0.00000636,-0.00001274,0.00000326,0.00000079,0.0000019
 2,0.00000149,0.00000061,-0.00000108,0.00000109,-0.00000006,0.00000053,
 0.00006518,0.00026580,0.00043523,-0.00007883,-0.00005145,-0.00002150,-
 0.00019694,-0.00002200,0.00001291,-0.00007746,-0.00067089,0.00025012,0
 .00229192,-0.00415708,-0.00198229,0.06816536,0.07091364,-0.00013055,0.
 00086130,0.00133565,0.01406916,-0.00106329,-0.00008942,0.02186294,-0.0
 0097429,-0.04274488,0.02299018,0.02034133,-0.00959066,0.00123854,0.000
 53822,0.00033517,-0.03511780,-0.00628624,0.00032418,0.00228933,0.00062
 819,0.00171220,-0.00003237,0.00020884,0.00005451,-0.00014350,-0.000148
 81,0.00006758,-0.00001913,0.00000957,0.00000498,-0.00000238,0.00001115
 ,-0.00000413,-0.00067526,0.00096558,-0.00043295,-0.00001542,0.00039762
 ,-0.00027075,-0.00089790,-0.00095630,0.00144582,0.00034327,0.00006577,
 -0.00015102,0.00007540,0.00004169,0.00002647,0.00001070,-0.00001695,-0
 .00002754,0.00000932,0.00002240,0.00000321,-0.00000498,-0.00002712,0.0
 0000675,-0.00000887,-0.00000260,0.00001372,-0.00000195,0.00001358,-0.0
 0001408,-0.00000166,-0.00000149,-0.00000071,-0.00002244,-0.00000245,0.
 00002087,0.00006292,0.00001251,0.00008223,-0.00000424,0.00000296,-0.00
 001079,-0.00000045,0.00002101,0.00002518,0.00000467,0.00000276,-0.0000
 3382,0.00000500,-0.00001078,0.00002186,0.00000474,0.00000311,-0.000016
 89,0.00000023,0.00000071,0.00000282,0.00000306,-0.00000376,-0.00000290
 ,0.00000795,0.00000406,-0.00000498,0.00000249,-0.00000421,0.00000337,0
 .00001920,0.00001623,-0.00005851,0.00000223,-0.00000100,0.00000471,-0.
 00000001,0.00000119,-0.00000182,0.00000025,0.00000066,-0.00000025,-0.0
 0012382,0.00030925,0.00017684,-0.00000718,-0.00009017,-0.00001020,-0.0
 0005742,0.00008979,-0.00004168,-0.00042237,0.00022723,0.00040358,0.000
 90109,-0.00184536,-0.00062393,-0.02376588,-0.01230578,0.05399655,0.000
 79737,0.00040382,0.00005586,-0.00067187,0.00123137,0.00089580,-0.01847
 302,-0.00698984,-0.00063041,0.00192311,0.00093261,0.00064025,0.0001141
 6,0.00005955,0.00009665,-0.33727099,-0.05847112,0.03473305,-0.01237395
 ,0.01278232,0.01143814,-0.00001033,0.00029761,-0.00151363,-0.00003293,
 -0.00001903,0.00001408,0.00002770,0.00006168,0.00002807,-0.00001144,-0
 .00000992,0.00000321,-0.00007279,-0.00024442,-0.00006572,0.00227302,0.
 00049930,-0.00112098,-0.00640753,-0.00033942,0.00077605,0.00099719,0.0
 0039477,-0.00103143,0.00031739,0.00020120,0.00001603,0.00002529,0.0000
 7130,0.00000463,0.00001631,-0.00002444,-0.00011133,0.00001173,-0.00004
 893,0.00007177,-0.00002427,0.00001256,0.00002564,0.00001589,-0.0000160
 2,-0.00002409,-0.00000476,0.00000513,0.00000050,0.00001019,0.00016887,
 -0.00013367,0.00030831,-0.00005761,0.00074736,-0.00010780,-0.00008526,
 -0.00011403,-0.00002442,0.00012901,0.00003672,0.00004445,-0.00011139,-
 0.00000664,-0.00004121,0.00006974,-0.00000709,0.00000865,-0.00002161,-
 0.00000278,-0.00000171,0.00000241,0.00000172,0.00000870,-0.00003756,0.
 00005204,0.00003490,0.00001192,-0.00005413,0.00000877,-0.00002016,0.00
 000552,-0.00002715,0.00006378,-0.00028388,-0.00000066,-0.00001398,0.00
 000984,0.00000410,0.00000333,-0.00000189,0.00000382,-0.00000381,0.0000
 0204,0.00001859,-0.00018231,-0.00014737,0.00001709,-0.00001124,-0.0000
 0900,0.00004564,-0.00004212,-0.00000190,0.00008137,0.00020478,-0.00003
 287,0.00115039,-0.00055851,-0.00014288,0.00007933,-0.00089940,-0.00279
 365,0.36680803,0.00021194,-0.00010757,0.00006830,-0.00162029,-0.000024
 15,-0.00041956,-0.00804145,-0.00101608,-0.00145195,0.00093479,0.000627
 35,-0.00032223,-0.00002435,-0.00004202,0.00001315,-0.05640115,-0.04652
 151,0.01175710,0.04001665,-0.01195366,-0.01738053,0.00111981,0.0013581
 3,0.00145382,-0.00006315,0.00000915,-0.00001995,0.00003177,-0.00000127
 ,0.00002561,-0.00000618,-0.00000435,-0.00000361,-0.00019987,-0.0003856
 4,-0.00019481,0.00005922,0.00173720,0.00003602,-0.02802982,-0.00834327
 ,0.00629461,0.00051571,0.00103397,-0.00188829,-0.00020232,0.00023873,0
 .00001392,0.00008655,0.00000782,-0.00016559,0.00009996,-0.00001343,0.0
 0003542,-0.00008282,-0.00001306,0.00004402,-0.00003384,0.00002213,0.00
 000601,0.00000702,0.00002095,-0.00000880,-0.00000525,-0.00000299,-0.00
 000449,0.00001617,-0.00004606,0.00014384,-0.00036255,-0.00012746,-0.00
 037839,0.00014326,0.00007422,0.00002854,0.00007043,-0.00005574,-0.0000
 0319,-0.00001321,0.00005220,-0.00003487,0.00001993,-0.00004356,0.00001
 739,0.00000121,0.00001442,-0.00001146,0.00000084,-0.00000047,0.0000010
 9,-0.00001693,0.00000143,-0.00001435,-0.00003449,-0.00003470,0.0000677
 0,0.00000146,0.00003765,0.00002221,0.00020958,0.00004071,-0.00012450,0
 .00002606,-0.00001874,0.00002781,0.00000548,0.00000406,-0.00000758,-0.
 00000127,0.00000350,-0.00000026,-0.00000465,-0.00000202,-0.00001371,0.
 00000754,-0.00000075,0.00001895,0.00005414,-0.00005034,-0.00001029,0.0
 0018814,0.00019738,0.00002446,0.00011436,-0.00012335,-0.00045912,-0.00
 016134,0.00021745,-0.00145201,0.05065020,0.06635636,0.00040551,0.00027
 256,-0.00002860,-0.00163541,0.00022844,0.00087378,-0.03450265,-0.00917
 859,-0.00163505,0.00180025,-0.00008612,0.00281162,0.00013895,-0.000245
 36,0.00034878,0.03202332,0.01202037,-0.04604275,0.01887515,-0.01160224
 ,-0.00579365,0.00155364,-0.00016021,0.00083751,-0.00005397,-0.00000996
 ,0.00006101,0.00001407,-0.00000405,-0.00000741,0.00000417,0.00000100,0
 .00000095,-0.00012767,-0.00026740,-0.00037313,-0.00102564,-0.00220052,
 0.00072673,0.02576402,0.00980585,-0.00574001,0.00031794,-0.00071451,0.
 00175935,0.00036545,-0.00013314,-0.00035602,-0.00007580,-0.00002057,0.
 00019576,-0.00008379,0.00000193,-0.00001847,0.00006115,0.00003441,0.00
 000340,0.00003547,-0.00003454,-0.00002563,-0.00001050,-0.00002037,0.00
 002733,0.00000702,-0.00000040,0.00000479,0.00013899,0.00006369,-0.0000
 4006,-0.00033359,-0.00007031,-0.00017806,0.00007306,0.00003492,0.00008
 657,-0.00005525,-0.00004092,-0.00000250,-0.00003313,0.00000004,0.00007
 273,0.00000660,0.00001372,-0.00002358,-0.00000902,-0.00000467,0.000017
 57,0.00000090,-0.00000093,-0.00000294,-0.00003211,-0.00001270,0.000015
 52,-0.00005833,-0.00001841,0.00004903,-0.00002430,-0.00000303,-0.00006
 054,-0.00033684,-0.00009809,0.00008266,-0.00004423,0.00003454,-0.00003
 062,-0.00000626,-0.00000707,0.00001128,-0.00000212,0.00000007,-0.00000
 184,0.00013807,-0.00005282,-0.00003179,0.00001294,-0.00001576,0.000007
 14,0.00001641,-0.00001051,0.00001062,0.00006595,0.00006778,-0.00017728
 ,0.00041538,-0.00027378,-0.00015399,-0.00205238,-0.00153952,-0.0055428
 4,-0.04153677,0.00143471,0.06085451,0.00011968,-0.00012121,0.00025583,
 0.00013921,0.00044556,-0.00011688,0.00014190,-0.00039825,0.00038004,0.
 00007415,0.00011068,-0.00012102,-0.00002950,0.00001185,0.00004165,0.00
 036659,0.00181884,0.00041223,0.00110949,-0.00077116,-0.00109575,-0.000
 30787,-0.00008118,-0.00001971,0.00046168,-0.00010303,0.00004572,0.0000
 0689,0.00019224,0.00008853,-0.00000334,-0.00000690,0.00002243,-0.00044
 471,-0.00067769,-0.00106451,-0.01155955,0.00582338,0.00713889,-0.31126
 467,-0.06964644,0.08867604,-0.02050490,-0.00539977,-0.00313253,-0.0002
 1724,-0.00109225,0.00447368,0.00028356,0.00030341,-0.00032549,0.000434
 13,-0.00010344,-0.00017815,-0.00028953,-0.00024516,0.00045612,-0.00006
 565,0.00010197,0.00001752,0.00003602,0.00000654,-0.00002472,-0.0000153
 3,0.00000178,-0.00001073,-0.00035566,0.00000370,0.00010808,0.00015140,
 -0.00004762,0.00001075,-0.00000009,-0.00004985,-0.00005574,0.00060842,
 0.00014175,-0.00014164,0.00004320,-0.00008803,-0.00022394,-0.00000654,
 -0.00000912,0.00000030,0.00000463,0.00000252,-0.00000742,-0.00000031,0
 .00000320,-0.00000032,0.00007330,0.00000874,0.00000431,0.00014454,-0.0
 0002051,-0.00004075,0.00006418,0.00012560,0.00026558,0.00149141,0.0004
 6418,-0.00127150,0.00015606,-0.00021299,0.00017664,0.00001996,0.000021
 91,-0.00004119,0.00000010,0.00000219,0.00000269,0.00000222,-0.00000689
 ,-0.00001461,-0.00002191,0.00001833,0.00000041,0.00013769,-0.00020795,
 -0.00006382,0.00069856,0.00043956,0.00083918,0.00002238,-0.00003493,-0
 .00021511,0.00025152,0.00007645,0.00034659,0.00040533,0.00071270,-0.00
 019466,0.33763856,-0.00010619,0.00036834,-0.00027621,-0.00019137,-0.00
 066488,-0.00014818,-0.00109936,-0.00052819,-0.00139411,0.00050009,0.00
 009440,0.00049280,0.00013193,-0.00012599,0.00005456,-0.02183953,-0.001
 40559,0.00825206,0.00130611,0.00325319,-0.00115450,-0.00035494,-0.0000
 9731,0.00006994,0.00038459,0.00013348,0.00007096,-0.00018454,-0.000262
 23,-0.00017622,-0.00000071,0.00003731,-0.00001712,0.00360095,0.0019875
 5,0.00378647,0.03073136,-0.00206939,-0.01636891,-0.07363662,-0.0625229
 5,0.02584240,-0.00826275,0.00138629,0.00029011,0.00069439,-0.00039303,
 0.00167909,0.00024185,-0.00001256,-0.00006891,-0.00024319,0.00008263,0
 .00020158,0.00005049,0.00009189,-0.00064947,0.00002598,0.00004299,0.00
 008617,-0.00002592,0.00004472,-0.00006463,-0.00000616,-0.00000436,0.00
 000145,-0.00024970,-0.00000229,0.00001185,0.00009459,-0.00001841,-0.00
 002050,-0.00002236,-0.00002874,-0.00002603,0.00002769,0.00013720,0.000
 04365,0.00001086,-0.00004236,-0.00013639,0.00001196,-0.00001478,0.0000
 8478,0.00001085,0.00000472,-0.00005495,0.00000149,0.00000224,0.0000101
 8,0.00006218,-0.00001216,0.00000387,0.00008904,-0.00002736,-0.00008962
 ,0.00001018,-0.00001733,0.00003986,0.00061262,0.00038514,0.00001425,0.
 00002137,-0.00007452,0.00004782,-0.00000530,-0.00000073,-0.00000198,-0
 .00000193,-0.00000410,-0.00000377,-0.00001371,0.00001474,0.00001890,-0
 .00001522,-0.00004608,0.00001921,-0.00027047,-0.00006866,-0.00006660,-
 0.00108681,0.00012396,0.00010901,-0.00001133,-0.00014571,-0.00003428,0
 .00056943,0.00027472,0.00039589,-0.00004917,-0.00312261,0.00281248,0.0
 6848728,0.06324686,-0.00012874,-0.00007633,-0.00033889,-0.00009808,0.0
 0029309,-0.00009040,0.00143158,-0.00007686,0.00161691,-0.00060877,0.00
 001465,-0.00015682,-0.00001804,-0.00001782,-0.00000507,0.02135583,0.00
 320758,-0.00296410,-0.00209738,-0.00049051,0.00182469,-0.00022583,0.00
 008715,-0.00022003,-0.00001102,-0.00007422,0.00003507,-0.00007590,-0.0
 0017846,-0.00012229,0.00001354,0.00002283,-0.00001217,0.00297560,0.000
 90143,0.00269067,0.01230099,-0.00410257,-0.00486677,0.09574318,0.02871
 891,-0.07733802,-0.02916125,-0.00487520,-0.00449810,-0.00542310,-0.002
 71428,0.00484166,0.00004740,0.00008673,-0.00047308,0.00006610,0.000120
 43,0.00029772,-0.00015558,-0.00005316,-0.00039109,-0.00000260,0.000067
 27,0.00008553,-0.00000225,0.00006175,-0.00004777,-0.00000967,-0.000006
 01,-0.00000837,-0.00010134,0.00013196,0.00009661,0.00008663,-0.0001462
 4,0.00013087,0.00002261,-0.00003594,-0.00007486,-0.00002005,0.00000555
 ,-0.00010213,0.00008428,0.00003097,-0.00018751,0.00001937,-0.00006854,
 0.00007761,0.00001266,0.00001945,-0.00005672,0.00000163,0.00000165,0.0
 0000914,0.00001801,-0.00001895,0.00000395,0.00002433,-0.00002669,-0.00
 003011,0.00010318,0.00006124,0.00004508,0.00085273,0.00043822,-0.00060
 975,0.00024198,-0.00002822,0.00000814,0.00001451,0.00001972,-0.0000510
 3,0.00000104,-0.00000002,0.00000367,-0.00002400,-0.00000018,0.00002587
 ,-0.00001595,-0.00002086,-0.00002347,-0.00020116,0.00005018,-0.0000311
 0,-0.00083252,-0.00026535,-0.00013929,-0.00021699,-0.00008896,0.000088
 21,-0.00069506,-0.00012326,-0.00039348,0.00011114,0.00283485,-0.002591
 88,-0.09540305,-0.02368700,0.08394291\\-0.00297789,-0.00318305,0.00386
 759,0.03014550,-0.00004191,0.01459590,0.00032797,-0.02937564,-0.017411
 28,-0.00568283,0.03060520,0.02223828,-0.00014064,-0.01610033,-0.022449
 81,-0.00661578,-0.02352670,-0.03561402,0.01134370,0.00038193,0.0095179
 6,0.00485258,0.00617093,0.01671506,-0.01094569,0.02080327,0.00006362,0
 .00381762,0.01162772,0.00526652,0.01062212,-0.03254999,0.00144590,-0.0
 1826295,0.00487980,0.01606111,0.02664051,0.02220519,0.01792947,-0.0706
 6591,0.01661195,0.00230659,0.01256690,-0.02343829,-0.02583432,0.017458
 09,0.02276095,-0.01198099,-0.01869240,0.01828567,0.02550295,-0.0017720
 3,-0.00933989,0.00740767,0.01146268,0.00984722,-0.02107038,0.00006592,
 0.00137922,-0.00583244,0.01098581,0.01395121,-0.01103084,-0.01354980,-
 0.01223955,0.02611894,0.00545865,-0.01868206,-0.00309223,-0.00726858,-
 0.02029751,0.00372273,-0.00552793,0.03271560,-0.00516041,0.00918219,-0
 .04681101,0.02925390,-0.02350936,0.02173664,0.01999249,0.03722780,-0.0
 0257130,-0.02814406,-0.00223011,0.00113814,0.01545677,-0.00292618,-0.0
 0272001,-0.00128343,0.00026913,-0.00814181,-0.01614702,0.01981554,0.00
 319692,0.00217303,-0.01974150,-0.00353988,-0.00356245,0.02055258,0.002
 00037,-0.00162419,-0.02388439,-0.00563662,-0.00206483,0.01833280,0.005
 68856,-0.00006281,-0.01779194,-0.00605450,-0.00298224,-0.00068622,0.00
 553951,0.00105641,0.00463442,0.00677508,-0.01831107,-0.02031626,-0.006
 18868,-0.00445558,0.01931802,0.00160264,-0.00091096,-0.01703158,-0.001
 72474,0.00124207,0.02128931,0.00678759,0.00236313,-0.02123293,0.000846
 16,0.00225470,0.01508308,0.00462599,-0.00752743\\\@


 TRUTH, IN SCIENCE, CAN BE DEFINED AS THE WORKING HYPOTHESIS 
 BEST FITTED TO OPEN THE WAY TO THE NEXT BETTER ONE.

                              -- KONRAD LORENZ
 Job cpu time:  1 days  8 hours 50 minutes 21.2 seconds.
 File lengths (MBytes):  RWF=   1769 Int=      0 D2E=      0 Chk=     28 Scr=      1
 Normal termination of Gaussian 09 at Thu Mar 24 17:04:14 2016.
Gaussian '09 finished on node015 at Thu Mar 24 17:04:14 EDT 2016.
