Gaussian '09 started on node017 at Sun Mar 20 15:04:12 EDT 2016.
 Entering Gaussian System, Link 0=/usr/local/gaussian/g09/g09
 Initial command:
 /usr/local/gaussian/g09/l1.exe /home/srmcgrat/thesis/gaussian/cellobiose/280K/7648ps/1/2dp/gaussian22575/Gau-22611.inp -scrdir=/home/srmcgrat/thesis/gaussian/cellobiose/280K/7648ps/1/2dp/gaussian22575/
 Entering Link 1 = /usr/local/gaussian/g09/l1.exe PID=     22613.
  
 Copyright (c) 1988,1990,1992,1993,1995,1998,2003,2009,2010,
            Gaussian, Inc.  All Rights Reserved.
  
 This is part of the Gaussian(R) 09 program.  It is based on
 the Gaussian(R) 03 system (copyright 2003, Gaussian, Inc.),
 the Gaussian(R) 98 system (copyright 1998, Gaussian, Inc.),
 the Gaussian(R) 94 system (copyright 1995, Gaussian, Inc.),
 the Gaussian 92(TM) system (copyright 1992, Gaussian, Inc.),
 the Gaussian 90(TM) system (copyright 1990, Gaussian, Inc.),
 the Gaussian 88(TM) system (copyright 1988, Gaussian, Inc.),
 the Gaussian 86(TM) system (copyright 1986, Carnegie Mellon
 University), and the Gaussian 82(TM) system (copyright 1983,
 Carnegie Mellon University). Gaussian is a federally registered
 trademark of Gaussian, Inc.
  
 This software contains proprietary and confidential information,
 including trade secrets, belonging to Gaussian, Inc.
  
 This software is provided under written license and may be
 used, copied, transmitted, or stored only in accord with that
 written license.
  
 The following legend is applicable only to US Government
 contracts under FAR:
  
                    RESTRICTED RIGHTS LEGEND
  
 Use, reproduction and disclosure by the US Government is
 subject to restrictions as set forth in subparagraphs (a)
 and (c) of the Commercial Computer Software - Restricted
 Rights clause in FAR 52.227-19.
  
 Gaussian, Inc.
 340 Quinnipiac St., Bldg. 40, Wallingford CT 06492
  
  
 ---------------------------------------------------------------
 Warning -- This program may not be used in any manner that
 competes with the business of Gaussian, Inc. or will provide
 assistance to any competitor of Gaussian, Inc.  The licensee
 of this program is prohibited from giving any competitor of
 Gaussian, Inc. access to this program.  By using this program,
 the user acknowledges that Gaussian, Inc. is engaged in the
 business of creating and licensing software in the field of
 computational chemistry and represents and warrants to the
 licensee that it is not a competitor of Gaussian, Inc. and that
 it will not use this program in any manner prohibited above.
 ---------------------------------------------------------------
  

 Cite this work as:
 Gaussian 09, Revision B.01,
 M. J. Frisch, G. W. Trucks, H. B. Schlegel, G. E. Scuseria, 
 M. A. Robb, J. R. Cheeseman, G. Scalmani, V. Barone, B. Mennucci, 
 G. A. Petersson, H. Nakatsuji, M. Caricato, X. Li, H. P. Hratchian, 
 A. F. Izmaylov, J. Bloino, G. Zheng, J. L. Sonnenberg, M. Hada, 
 M. Ehara, K. Toyota, R. Fukuda, J. Hasegawa, M. Ishida, T. Nakajima, 
 Y. Honda, O. Kitao, H. Nakai, T. Vreven, J. A. Montgomery, Jr., 
 J. E. Peralta, F. Ogliaro, M. Bearpark, J. J. Heyd, E. Brothers, 
 K. N. Kudin, V. N. Staroverov, T. Keith, R. Kobayashi, J. Normand, 
 K. Raghavachari, A. Rendell, J. C. Burant, S. S. Iyengar, J. Tomasi, 
 M. Cossi, N. Rega, J. M. Millam, M. Klene, J. E. Knox, J. B. Cross, 
 V. Bakken, C. Adamo, J. Jaramillo, R. Gomperts, R. E. Stratmann, 
 O. Yazyev, A. J. Austin, R. Cammi, C. Pomelli, J. W. Ochterski, 
 R. L. Martin, K. Morokuma, V. G. Zakrzewski, G. A. Voth, 
 P. Salvador, J. J. Dannenberg, S. Dapprich, A. D. Daniels, 
 O. Farkas, J. B. Foresman, J. V. Ortiz, J. Cioslowski, 
 and D. J. Fox, Gaussian, Inc., Wallingford CT, 2010.
 
 ******************************************
 Gaussian 09:  EM64L-G09RevB.01 12-Aug-2010
                20-Mar-2016 
 ******************************************
 -------------------------------------------------
 # freq=raman b3lyp/6-31+g(2d,p) geom=connectivity
 -------------------------------------------------
 1/10=4,30=1,38=1,57=2/1,3;
 2/12=2,17=6,18=5,40=1/2;
 3/5=1,6=6,7=112,11=2,16=1,25=1,30=1,71=2,74=-5/1,2,3;
 4//1;
 5/5=2,38=5,98=1/2;
 8/6=4,10=90,11=11/1;
 10/13=10,15=4/2;
 11/6=3,8=1,9=11,15=111,16=1/1,2,10;
 10/6=1/2;
 6/7=2,8=2,9=2,10=2,18=1,28=1/1;
 7/8=1,10=1,25=1/1,2,3,16;
 1/10=4,30=1/3;
 99//99;
 -----------------
 280 7648/7648.com
 -----------------
 Symbolic Z-matrix:
 Charge =  0 Multiplicity = 1
 O                     7.577     7.51      12.154 
 C                     8.171     7.825     13.422 
 C                     7.608     9.151     13.906 
 O                     7.634     10.182    12.908 
 H                     7.479     9.617     12.097 
 C                     8.097     9.577     15.281 
 O                     7.57      10.839    15.717 
 H                     8.015     11.15     16.556 
 C                     8.198     5.404     14.127 
 O                     7.583     4.847     12.957 
 H                     7.742     3.873     13.119 
 C                     7.73      6.811     14.464 
 O                     8.191     7.128     15.786 
 C                     7.763     8.428     16.217 
 O                     8.548     8.788     17.363 
 C                     8.19      8.37      18.688 
 C                     8.926     7.135     19.181 
 O                     8.972     6.11      18.178 
 H                     9.09      6.47      17.252 
 C                     8.254     6.734     20.484 
 O                     8.74      5.502     21.035 
 H                     8.499     5.423     22.003 
 C                     7.808     10.793    19.468 
 O                     8.21      11.55     18.317 
 H                     8.413     12.476    18.634 
 C                     8.431     9.435     19.746 
 O                     7.924     9.075     21.039 
 C                     8.439     7.827     21.524 
 O                     7.648     7.616     22.702 
 H                     8.22662   7.48094   23.45603 
 H                     7.20609   6.62456   20.29743 
 H                     9.47259   7.92642   21.78229 
 H                     9.93317   7.41872   19.40463 
 H                     7.14383   8.14549   18.68389 
 H                     9.48858   9.5716    19.83412 
 H                     7.98935   11.40486   20.32686 
 H                     6.75068   10.64585   19.39505 
 H                     8.2685    7.34945   11.50774 
 H                     7.98441   4.76641   14.95932 
 H                     9.25718   5.42512   13.97672 
 H                     6.66017   6.80561   14.48222 
 H                     9.23786   7.86366   13.34984 
 H                     6.56611   8.95487   14.05057 
 H                     9.16239   9.66622   15.23752 
 H                     6.72079   8.4259    16.45926 
 

 GradGradGradGradGradGradGradGradGradGradGradGradGradGradGradGradGradGrad
 Berny optimization.
 Initialization pass.
 Trust Radius=3.00D-01 FncErr=1.00D-07 GrdErr=1.00D-07
 Number of steps in this run=      2 maximum allowed number of steps=      2.
 GradGradGradGradGradGradGradGradGradGradGradGradGradGradGradGradGradGrad

                          Input orientation:                          
 ---------------------------------------------------------------------
 Center     Atomic      Atomic             Coordinates (Angstroms)
 Number     Number       Type             X           Y           Z
 ---------------------------------------------------------------------
      1          8           0        7.577000    7.510000   12.154000
      2          6           0        8.171000    7.825000   13.422000
      3          6           0        7.608000    9.151000   13.906000
      4          8           0        7.634000   10.182000   12.908000
      5          1           0        7.479000    9.617000   12.097000
      6          6           0        8.097000    9.577000   15.281000
      7          8           0        7.570000   10.839000   15.717000
      8          1           0        8.015000   11.150000   16.556000
      9          6           0        8.198000    5.404000   14.127000
     10          8           0        7.583000    4.847000   12.957000
     11          1           0        7.742000    3.873000   13.119000
     12          6           0        7.730000    6.811000   14.464000
     13          8           0        8.191000    7.128000   15.786000
     14          6           0        7.763000    8.428000   16.217000
     15          8           0        8.548000    8.788000   17.363000
     16          6           0        8.190000    8.370000   18.688000
     17          6           0        8.926000    7.135000   19.181000
     18          8           0        8.972000    6.110000   18.178000
     19          1           0        9.090000    6.470000   17.252000
     20          6           0        8.254000    6.734000   20.484000
     21          8           0        8.740000    5.502000   21.035000
     22          1           0        8.499000    5.423000   22.003000
     23          6           0        7.808000   10.793000   19.468000
     24          8           0        8.210000   11.550000   18.317000
     25          1           0        8.413000   12.476000   18.634000
     26          6           0        8.431000    9.435000   19.746000
     27          8           0        7.924000    9.075000   21.039000
     28          6           0        8.439000    7.827000   21.524000
     29          8           0        7.648000    7.616000   22.702000
     30          1           0        8.226622    7.480941   23.456026
     31          1           0        7.206090    6.624565   20.297430
     32          1           0        9.472587    7.926421   21.782291
     33          1           0        9.933171    7.418716   19.404634
     34          1           0        7.143827    8.145487   18.683887
     35          1           0        9.488579    9.571604   19.834124
     36          1           0        7.989348   11.404858   20.326861
     37          1           0        6.750680   10.645850   19.395050
     38          1           0        8.268503    7.349455   11.507742
     39          1           0        7.984413    4.766414   14.959324
     40          1           0        9.257183    5.425117   13.976716
     41          1           0        6.660169    6.805606   14.482223
     42          1           0        9.237863    7.863662   13.349836
     43          1           0        6.566112    8.954865   14.050572
     44          1           0        9.162387    9.666219   15.237521
     45          1           0        6.720788    8.425901   16.459259
 ---------------------------------------------------------------------
                    Distance matrix (angstroms):
                    1          2          3          4          5
     1  O    0.000000
     2  C    1.435230   0.000000
     3  C    2.400697   1.519704   0.000000
     4  O    2.776932   2.471440   1.435145   0.000000
     5  H    2.110048   2.333614   1.872506   1.000485   0.000000
     6  C    3.784312   2.555555   1.520270   2.492293   3.243668
     7  O    4.876193   3.835678   2.475986   2.885520   3.821775
     8  H    5.728791   4.571861   3.344271   3.793427   4.745531
     9  C    2.951882   2.521705   3.799599   4.963199   4.731515
    10  O    2.781441   3.070904   4.407453   5.335469   4.848022
    11  H    3.766460   3.986747   5.338034   6.313451   5.840136
    12  C    2.418287   1.519355   2.408703   3.714027   3.679582
    13  O    3.703288   2.464692   2.822555   4.233208   4.506749
    14  C    4.169567   2.888269   2.426412   3.747351   4.297532
    15  O    5.450670   4.074430   3.600864   4.756643   5.436981
    16  C    6.618801   5.294161   4.880185   6.082835   6.745503
    17  C    7.165135   5.849120   5.798880   7.092531   7.644422
    18  O    6.339921   5.118824   5.418317   6.792962   7.176814
    19  H    5.418521   4.165271   4.536497   5.896543   6.250836
    20  C    8.393414   7.146259   7.037705   8.346789   8.902476
    21  O    9.179150   7.979841   8.088218   9.443186   9.920241
    22  H   10.109820   8.916880   8.958419  10.301230  10.805502
    23  C    8.020352   6.744991   5.802759   6.590690   7.471470
    24  O    7.396273   6.151274   5.057126   5.608964   6.554331
    25  H    8.206732   6.989657   5.835892   6.217423   7.195735
    26  C    7.878668   6.530902   5.904539   6.924699   7.710164
    27  O    9.028447   7.722836   7.140401   8.211133   8.969457
    28  C    9.414905   8.106432   7.776726   8.968250   9.643341
    29  O   10.548772   9.297075   8.929022  10.124573  10.793451
    30  H   11.320718  10.040078   9.714669  10.904484  11.582278
    31  H    8.199819   7.045824   6.884387   8.212316   8.733625
    32  H    9.821947   8.461612   8.186100   9.339222  10.031814
    33  H    7.624406   6.249978   6.216285   7.424835   8.016042
    34  H    6.575021   5.370778   4.904561   6.143983   6.757572
    35  H    8.178548   6.775100   6.233470   7.196058   7.993970
    36  H    9.062870   7.779813   6.815626   7.527360   8.437269
    37  H    7.934051   6.756614   5.753194   6.563325   7.406114
    38  H    0.960000   1.974850   3.071395   3.222829   2.472307
    39  H    3.945009   3.428284   4.525017   5.801663   5.654780
    40  H    3.239143   2.692015   4.075170   5.138561   4.926170
    41  H    2.599495   2.108518   2.594473   3.850528   3.776733
    42  H    2.076913   1.070000   2.150119   2.853470   2.781617
    43  H    2.589694   2.060913   1.070000   1.987892   2.255711
    44  H    4.082993   2.769305   2.110573   2.833490   3.563578
    45  H    4.484108   3.418938   2.798579   4.065622   4.585074
                    6          7          8          9         10
     6  C    0.000000
     7  O    1.435433   0.000000
     8  H    2.026494   0.999333   0.000000
     9  C    4.330802   5.697518   6.240997   0.000000
    10  O    5.295099   6.597108   7.270986   1.434355   0.000000
    11  H    6.110310   7.436689   8.052467   1.888905   1.000100
    12  C    2.907393   4.221421   4.825413   1.520606   2.479910
    13  O    2.502291   3.763233   4.098824   2.392594   3.684544
    14  C    1.519162   2.469852   2.754580   3.701608   4.845984
    15  O    2.271706   2.805780   2.552329   4.695280   5.989620
    16  C    3.615681   3.912442   3.507770   5.440583   6.754579
    17  C    4.675533   5.249538   4.882701   5.391592   6.765853
    18  O    4.601991   5.512310   5.380366   4.184270   5.548273
    19  H    3.811081   4.873888   4.852055   3.420182   4.832412
    20  C    5.931147   6.327967   5.915011   6.494881   7.788886
    21  O    7.080084   7.624539   7.244789   6.929923   8.186682
    22  H    7.912181   8.349245   7.918497   7.881773   9.110486
    23  C    4.369570   3.758824   2.941095   7.597348   8.820355
    24  O    3.622540   2.770401   1.816355   7.438384   8.605402
    25  H    4.443722   3.449537   2.496951   8.388829   9.545620
    26  C    4.479726   4.352629   3.645597   6.919278   8.237680
    27  O    5.782430   5.617891   4.940769   7.831160   9.127485
    28  C    6.492651   6.599133   5.991922   7.787466   9.110797
    29  O    7.688847   7.693116   7.099096   8.872771  10.130973
    30  H    8.440457   8.461693   7.817745   9.557470  10.843498
    31  H    5.888563   6.234921   5.927243   6.367721   7.561992
    32  H    6.847148   6.992189   6.311112   8.160309   9.536201
    33  H    5.003406   5.557118   5.071151   5.909596   7.328643
    34  H    3.812795   4.029771   3.783377   5.421462   6.623453
    35  H    4.761036   4.715713   3.925413   7.183716   8.558502
    36  H    5.367809   4.663354   3.779551   8.630881   9.873473
    37  H    4.458747   3.773148   3.148473   7.571266   8.704476
    38  H    4.385071   5.512049   6.324027   3.263476   2.971959
    39  H    4.822644   6.133687   6.580310   1.070000   2.043754
    40  H    4.503922   5.931720   6.400782   1.070000   2.043754
    41  H    3.222290   4.315175   5.000988   2.110831   2.648407
    42  H    2.822497   4.151852   4.751305   2.781229   3.463112
    43  H    2.060248   2.708272   3.632501   3.908650   4.370872
    44  H    1.070000   2.034948   2.292704   4.508859   5.560585
    45  H    2.146458   2.663673   3.017459   4.093101   5.081118
                   11         12         13         14         15
    11  H    0.000000
    12  C    3.231256   0.000000
    13  O    4.231963   1.435512   0.000000
    14  C    5.508727   2.385118   1.434902   0.000000
    15  O    6.543577   3.603034   2.317321   1.434971   0.000000
    16  C    7.171992   4.525954   3.156607   2.508293   1.434752
    17  C    6.985009   4.877036   3.473658   3.436526   2.486044
    18  O    5.666617   3.978412   2.714397   3.268077   2.831199
    19  H    5.063912   3.120709   1.841282   2.581844   2.383109
    20  C    7.917745   6.043253   4.714913   4.617143   3.747798
    21  O    8.143261   6.775812   5.522434   5.720938   4.931353
    22  H    9.049917   7.704182   6.453912   6.561213   5.731948
    23  C    9.391515   6.395500   5.209226   4.020479   2.999775
    24  O    9.283025   6.126510   5.095136   3.789023   2.941599
    25  H   10.240951   7.067363   6.063126   4.759274   3.903205
    26  C    8.679153   5.939386   4.589275   3.730163   2.472041
    27  O    9.477359   6.956577   5.608574   4.867876   3.739615
    28  C    9.314717   7.167882   5.785737   5.383533   4.271923
    29  O   10.288478   8.277644   6.954427   6.536650   5.539721
    30  H   10.959298   9.030614   7.678225   7.315420   6.239925
    31  H    7.706372   5.859876   4.645051   4.495825   3.884850
    32  H    9.719967   7.605140   6.183481   5.843520   4.596445
    33  H    7.542051   5.443634   4.026684   3.986139   2.821685
    34  H    7.041301   4.464516   3.244934   2.559047   2.032060
    35  H    8.978726   6.289020   4.903287   4.167618   2.757749
    36  H   10.428007   7.452780   6.241122   5.079752   3.993058
    37  H    9.286712   6.323005   5.241663   4.005453   3.288038
    38  H    3.867699   3.052766   4.284686   4.857561   6.035857
    39  H    2.060035   2.119058   2.510610   3.877884   4.718945
    40  H    2.332493   2.119058   2.703713   4.033455   4.824815
    41  H    3.410119   1.070000   2.036472   2.618750   3.973999
    42  H    4.268053   2.150142   2.751730   3.273275   4.175619
    43  H    5.298669   2.474210   2.998234   2.530521   3.863664
    44  H    6.329851   3.286692   2.772540   2.109704   2.380420
    45  H    5.738389   2.758165   2.073487   1.070000   2.070403
                   16         17         18         19         20
    16  C    0.000000
    17  C    1.519859   0.000000
    18  O    2.445245   1.434834   0.000000
    19  H    2.545996   2.046989   1.000500   0.000000
    20  C    2.430269   1.519932   2.494501   3.348793   0.000000
    21  O    3.746509   2.477620   2.930177   3.920537   1.434441
    22  H    4.446292   3.328206   3.914885   4.900764   2.021412
    23  C    2.573957   3.835786   4.994946   5.024192   4.207927
    24  O    3.201631   4.555368   5.494867   5.264506   5.281258
    25  H    4.112406   5.393390   6.406744   6.200023   6.034761
    26  C    1.520418   2.419556   3.715768   3.930082   2.805597
    27  O    2.468802   2.867014   4.251453   4.742041   2.428416
    28  C    2.898232   2.491121   3.798407   4.529375   1.520024
    29  O    4.120009   3.776518   4.948494   5.752841   2.462658
    30  H    4.850345   4.345648   5.503874   6.344869   3.064574
    31  H    2.569998   2.113067   2.806279   3.584362   1.070000
    32  H    3.378820   2.773412   4.067048   4.773999   2.142984
    33  H    2.111196   1.070000   2.034999   2.498966   2.110327
    34  H    1.070000   2.108161   2.782327   2.940263   2.542673
    35  H    2.108023   2.584590   3.871989   4.055389   3.162043
    36  H    3.454923   4.519071   5.798166   5.917688   4.680988
    37  H    2.784071   4.135686   5.195133   5.244311   4.329936
    38  H    7.252846   7.704361   6.820813   5.868969   8.997344
    39  H    5.189520   4.931464   3.624973   3.062824   5.870785
    40  H    5.657509   5.487983   4.266284   3.441978   6.712994
    41  H    4.740915   5.226949   4.414431   3.699780   6.210213
    42  H    5.463551   5.884784   5.143654   4.146208   7.289747
    43  H    4.948214   5.933150   5.560325   4.774275   7.012147
    44  H    3.812024   4.691905   4.618372   3.778780   6.078537
    45  H    2.670018   3.733264   3.658610   3.172878   4.627290
                   21         22         23         24         25
    21  O    0.000000
    22  H    1.000673   0.000000
    23  C    5.596320   5.978345   0.000000
    24  O    6.651821   7.156133   1.435080   0.000000
    25  H    7.382981   7.816800   1.973340   0.999587   0.000000
    26  C    4.150360   4.603783   1.519729   2.562051   3.237985
    27  O    3.664997   3.820605   2.330884   3.690082   4.194037
    28  C    2.394858   2.451990   3.663667   4.919148   5.474119
    29  O    2.905228   2.453987   4.536263   5.917806   6.383843
    30  H    3.168775   2.533890   5.200897   6.554930   6.945307
    31  H    2.038882   2.454453   4.292564   5.402764   6.201849
    32  H    2.640633   2.695125   4.042780   5.170367   5.633217
    33  H    2.784879   3.576483   3.988252   4.606492   5.336751
    34  H    3.881175   4.501660   2.839944   3.586369   4.512940
    35  H    4.308613   4.784788   2.109550   2.801871   3.321549
    36  H    5.992385   6.233122   1.070000   2.027140   2.047585
    37  H    5.753783   6.093946   1.070000   2.027140   2.586881
    38  H    9.716174  10.673087   8.685377   8.000874   8.779857
    39  H    6.166509   7.092903   7.528547   7.572445   8.551295
    40  H    7.077624   8.062015   7.814634   7.579502   8.492225
    41  H    6.997426   7.864794   6.486509   6.294185   7.243137
    42  H    8.055250   9.021086   6.932349   6.270431   7.062326
    43  H    8.088900   8.913542   5.854020   5.257328   6.067718
    44  H    7.150517   8.013532   4.582680   3.733479   4.471300
    45  H    5.793429   6.550765   3.979662   3.927970   4.898610
                   26         27         28         29         30
    26  C    0.000000
    27  O    1.434747   0.000000
    28  C    2.397293   1.434557   0.000000
    29  O    3.558059   2.229445   1.434533   0.000000
    30  H    4.198144   2.911120   1.974231   0.960000   0.000000
    31  H    3.114968   2.658939   2.114330   2.638216   3.428060
    32  H    2.739926   2.066358   1.070000   2.066723   2.133605
    33  H    2.537410   3.074279   2.625063   4.016659   4.396585
    34  H    2.108967   2.649381   3.137698   4.084088   4.938358
    35  H    1.070000   2.036234   2.645929   3.928973   4.368247
    36  H    2.100666   2.437140   3.799526   4.484780   5.024450
    37  H    2.100666   2.558675   3.915196   4.573957   5.355985
    38  H    8.499694   9.692320  10.029084  11.214610  11.949081
    39  H    6.701299   7.451847   7.257328   8.257260   8.923075
    40  H    7.074346   8.060699   7.962409   9.138929   9.754270
    41  H    6.144665   7.052570   7.334447   8.318490   9.134495
    42  H    6.635589   7.894100   8.213190   9.489572  10.163866
    43  H    6.012174   7.120142   7.786650   8.821012   9.663970
    44  H    4.573267   5.961569   6.589828   7.887662   8.555403
    45  H    3.840023   4.779443   5.381686   6.362977   7.219089
                   31         32         33         34         35
    31  H    0.000000
    32  H    3.006102   0.000000
    33  H    2.977370   2.474500   0.000000
    34  H    2.218243   3.882166   2.971213   0.000000
    35  H    3.756255   2.549948   2.239877   2.975687   0.000000
    36  H    4.844127   4.051888   4.529710   3.746701   2.418947
    37  H    4.146374   4.528022   4.532408   2.629093   2.973698
    38  H    8.883288  10.360939   8.070738   7.307230   8.703744
    39  H    5.705601   7.665062   5.531107   5.098734   7.008284
    40  H    6.752561   8.199385   5.821829   5.833022   7.180259
    41  H    5.843581   7.902968   5.942943   4.436574   6.655336
    42  H    7.343877   8.435954   6.110811   5.737291   6.710135
    43  H    6.697993   8.323747   6.508673   4.738824   6.509275
    44  H    6.219441   6.779169   4.796896   4.273716   4.609134
    45  H    4.267540   6.013031   4.473149   2.281790   4.512540
                   36         37         38         39         40
    36  H    0.000000
    37  H    1.725881   0.000000
    38  H    9.710874   8.682144   0.000000
    39  H    8.536944   7.467632   4.320443   0.000000
    40  H    8.814139   7.930760   3.282742   1.737629   0.000000
    41  H    7.555106   6.236308   3.424915   2.477812   2.984254
    42  H    7.923240   7.104313   2.144150   3.708711   2.517906
    43  H    6.886209   5.608649   3.455642   4.514481   4.439194
    44  H    5.504568   4.905207   4.480812   5.047089   4.425558
    45  H    5.043985   3.680752   5.298271   4.151915   4.647690
                   41         42         43         44         45
    41  H    0.000000
    42  H    3.007705   0.000000
    43  H    2.194193   2.969850   0.000000
    44  H    3.874878   2.611180   2.942026   0.000000
    45  H    2.556893   4.039838   2.470931   2.998739   0.000000
 Stoichiometry    C12H22O11
 Framework group  C1[X(C12H22O11)]
 Deg. of freedom   129
 Full point group                 C1      NOp   1
 Largest Abelian subgroup         C1      NOp   1
 Largest concise Abelian subgroup C1      NOp   1
                         Standard orientation:                         
 ---------------------------------------------------------------------
 Center     Atomic      Atomic             Coordinates (Angstroms)
 Number     Number       Type             X           Y           Z
 ---------------------------------------------------------------------
      1          8           0        5.042395   -0.316128   -0.234491
      2          6           0        3.725222   -0.109997    0.296968
      3          6           0        3.208011    1.232011   -0.193958
      4          8           0        4.146906    2.303992   -0.023740
      5          1           0        4.994527    1.792316   -0.167600
      6          6           0        1.784863    1.551918    0.234449
      7          8           0        1.316626    2.829624   -0.222377
      8          1           0        0.436477    3.064019    0.188797
      9          6           0        3.148138   -2.556277    0.092809
     10          8           0        4.381657   -3.006362   -0.484449
     11          1           0        4.261537   -3.996516   -0.411188
     12          6           0        2.767296   -1.134172   -0.287740
     13          8           0        1.404437   -0.918051    0.107990
     14          6           0        0.933052    0.389864   -0.247113
     15          8           0       -0.276727    0.631431    0.485842
     16          6           0       -1.553188    0.180637    0.010506
     17          6           0       -2.025250   -1.130985    0.616126
     18          8           0       -0.974539   -2.107520    0.649822
     19          1           0       -0.077837   -1.714391    0.855672
     20          6           0       -3.261220   -1.538857   -0.168865
     21          8           0       -3.775756   -2.830389    0.184435
     22          1           0       -4.721468   -2.935951   -0.125132
     23          6           0       -2.434300    2.586470   -0.236205
     24          8           0       -1.351808    3.363033    0.297289
     25          1           0       -1.729014    4.253845    0.548970
     26          6           0       -2.678605    1.171582    0.261776
     27          8           0       -3.916988    0.791900   -0.355271
     28          6           0       -4.366698   -0.514727    0.030010
     29          8           0       -5.480694   -0.718015   -0.850656
     30          1           0       -6.260984   -0.934336   -0.334950
     31          1           0       -3.004578   -1.555690   -1.207495
     32          1           0       -4.693410   -0.510140    1.048901
     33          1           0       -2.325471   -0.939147    1.625069
     34          1           0       -1.472458    0.040404   -1.047188
     35          1           0       -2.839154    1.219381    1.318582
     36          1           0       -3.333720    3.140432   -0.065712
     37          1           0       -2.288336    2.527426   -1.294557
     38          1           0        5.652103   -0.500180    0.483827
     39          1           0        2.365316   -3.213750   -0.223133
     40          1           0        3.231179   -2.612254    1.158113
     41          1           0        2.815712   -1.055411   -1.353739
     42          1           0        3.729003   -0.152831    1.366104
     43          1           0        3.138791    1.112620   -1.255021
     44          1           0        1.757488    1.558176    1.304080
     45          1           0        0.756289    0.459054   -1.300141
 ---------------------------------------------------------------------
 Rotational constants (GHZ):      0.4103842      0.1440247      0.1095524
 Standard basis: 6-31+G(2d,p) (6D, 7F)
 There are   685 symmetry adapted basis functions of A   symmetry.
 Integral buffers will be    131072 words long.
 Raffenetti 2 integral format.
 Two-electron integral symmetry is turned on.
   685 basis functions,  1028 primitive gaussians,   685 cartesian basis functions
    91 alpha electrons       91 beta electrons
       nuclear repulsion energy      2284.0218076799 Hartrees.
 NAtoms=   45 NActive=   45 NUniq=   45 SFac= 1.00D+00 NAtFMM=   50 NAOKFM=F Big=F
 One-electron integrals computed using PRISM.
 NBasis=   685 RedAO= T  NBF=   685
 NBsUse=   685 1.00D-06 NBFU=   685
 Harris functional with IExCor=  402 diagonalized for initial guess.
 ExpMin= 4.38D-02 ExpMax= 5.48D+03 ExpMxC= 8.25D+02 IAcc=2 IRadAn=         0 AccDes= 0.00D+00
 HarFok:  IExCor=  402 AccDes= 0.00D+00 IRadAn=         0 IDoV= 1
 ScaDFX=  1.000000  1.000000  1.000000  1.000000
 FoFCou: FMM=F IPFlag=           0 FMFlag=      100000 FMFlg1=           0
         NFxFlg=           0 DoJE=T BraDBF=F KetDBF=T FulRan=T
         Omega=  0.000000  0.000000  1.000000  0.000000  0.000000 ICntrl=     500 IOpCl=  0
         NMat0=    1 NMatS0=    1 NMatT0=    0 NMatD0=    1 NMtDS0=    0 NMtDT0=    0
         I1Cent=           4 NGrid=           0.
 Petite list used in FoFCou.
 Initial guess orbital symmetries:
       Occupied  (A) (A) (A) (A) (A) (A) (A) (A) (A) (A) (A) (A)
                 (A) (A) (A) (A) (A) (A) (A) (A) (A) (A) (A) (A)
                 (A) (A) (A) (A) (A) (A) (A) (A) (A) (A) (A) (A)
                 (A) (A) (A) (A) (A) (A) (A) (A) (A) (A) (A) (A)
                 (A) (A) (A) (A) (A) (A) (A) (A) (A) (A) (A) (A)
                 (A) (A) (A) (A) (A) (A) (A) (A) (A) (A) (A) (A)
                 (A) (A) (A) (A) (A) (A) (A) (A) (A) (A) (A) (A)
                 (A) (A) (A) (A) (A) (A) (A)
       Virtual   (A) (A) (A) (A) (A) (A) (A) (A) (A) (A) (A) (A)
                 (A) (A) (A) (A) (A) (A) (A) (A) (A) (A) (A) (A)
                 (A) (A) (A) (A) (A) (A) (A) (A) (A) (A) (A) (A)
                 (A) (A) (A) (A) (A) (A) (A) (A) (A) (A) (A) (A)
                 (A) (A) (A) (A) (A) (A) (A) (A) (A) (A) (A) (A)
                 (A) (A) (A) (A) (A) (A) (A) (A) (A) (A) (A) (A)
                 (A) (A) (A) (A) (A) (A) (A) (A) (A) (A) (A) (A)
                 (A) (A) (A) (A) (A) (A) (A) (A) (A) (A) (A) (A)
                 (A) (A) (A) (A) (A) (A) (A) (A) (A) (A) (A) (A)
                 (A) (A) (A) (A) (A) (A) (A) (A) (A) (A) (A) (A)
                 (A) (A) (A) (A) (A) (A) (A) (A) (A) (A) (A) (A)
                 (A) (A) (A) (A) (A) (A) (A) (A) (A) (A) (A) (A)
                 (A) (A) (A) (A) (A) (A) (A) (A) (A) (A) (A) (A)
                 (A) (A) (A) (A) (A) (A) (A) (A) (A) (A) (A) (A)
                 (A) (A) (A) (A) (A) (A) (A) (A) (A) (A) (A) (A)
                 (A) (A) (A) (A) (A) (A) (A) (A) (A) (A) (A) (A)
                 (A) (A) (A) (A) (A) (A) (A) (A) (A) (A) (A) (A)
                 (A) (A) (A) (A) (A) (A) (A) (A) (A) (A) (A) (A)
                 (A) (A) (A) (A) (A) (A) (A) (A) (A) (A) (A) (A)
                 (A) (A) (A) (A) (A) (A) (A) (A) (A) (A) (A) (A)
                 (A) (A) (A) (A) (A) (A) (A) (A) (A) (A) (A) (A)
                 (A) (A) (A) (A) (A) (A) (A) (A) (A) (A) (A) (A)
                 (A) (A) (A) (A) (A) (A) (A) (A) (A) (A) (A) (A)
                 (A) (A) (A) (A) (A) (A) (A) (A) (A) (A) (A) (A)
                 (A) (A) (A) (A) (A) (A) (A) (A) (A) (A) (A) (A)
                 (A) (A) (A) (A) (A) (A) (A) (A) (A) (A) (A) (A)
                 (A) (A) (A) (A) (A) (A) (A) (A) (A) (A) (A) (A)
                 (A) (A) (A) (A) (A) (A) (A) (A) (A) (A) (A) (A)
                 (A) (A) (A) (A) (A) (A) (A) (A) (A) (A) (A) (A)
                 (A) (A) (A) (A) (A) (A) (A) (A) (A) (A) (A) (A)
                 (A) (A) (A) (A) (A) (A) (A) (A) (A) (A) (A) (A)
                 (A) (A) (A) (A) (A) (A) (A) (A) (A) (A) (A) (A)
                 (A) (A) (A) (A) (A) (A) (A) (A) (A) (A) (A) (A)
                 (A) (A) (A) (A) (A) (A) (A) (A) (A) (A) (A) (A)
                 (A) (A) (A) (A) (A) (A) (A) (A) (A) (A) (A) (A)
                 (A) (A) (A) (A) (A) (A) (A) (A) (A) (A) (A) (A)
                 (A) (A) (A) (A) (A) (A) (A) (A) (A) (A) (A) (A)
                 (A) (A) (A) (A) (A) (A) (A) (A) (A) (A) (A) (A)
                 (A) (A) (A) (A) (A) (A) (A) (A) (A) (A) (A) (A)
                 (A) (A) (A) (A) (A) (A) (A) (A) (A) (A) (A) (A)
                 (A) (A) (A) (A) (A) (A) (A) (A) (A) (A) (A) (A)
                 (A) (A) (A) (A) (A) (A) (A) (A) (A) (A) (A) (A)
                 (A) (A) (A) (A) (A) (A) (A) (A) (A) (A) (A) (A)
                 (A) (A) (A) (A) (A) (A) (A) (A) (A) (A) (A) (A)
                 (A) (A) (A) (A) (A) (A) (A) (A) (A) (A) (A) (A)
                 (A) (A) (A) (A) (A) (A) (A) (A) (A) (A) (A) (A)
                 (A) (A) (A) (A) (A) (A) (A) (A) (A) (A) (A) (A)
                 (A) (A) (A) (A) (A) (A) (A) (A) (A) (A) (A) (A)
                 (A) (A) (A) (A) (A) (A) (A) (A) (A) (A) (A) (A)
                 (A) (A) (A) (A) (A) (A)
 The electronic state of the initial guess is 1-A.
 Requested convergence on RMS density matrix=1.00D-08 within 128 cycles.
 Requested convergence on MAX density matrix=1.00D-06.
 Requested convergence on             energy=1.00D-06.
 No special actions if energy rises.
 SCF Done:  E(RB3LYP) =  -1297.98805480     A.U. after   14 cycles
             Convg  =    0.1771D-08             -V/T =  2.0064
 Range of M.O.s used for correlation:     1   685
 NBasis=   685 NAE=    91 NBE=    91 NFC=     0 NFV=     0
 NROrb=    685 NOA=    91 NOB=    91 NVA=   594 NVB=   594

 **** Warning!!: The largest alpha MO coefficient is  0.87481547D+02

          Differentiating once with respect to electric field.
                with respect to dipole field.
          Electric field/nuclear overlap derivatives assumed to be zero.
          There are     3 degrees of freedom in the 1st order CPHF.  IDoFFX=0.
      3 vectors produced by pass  0 Test12= 1.80D-12 3.33D-08 XBig12= 1.24D+02 1.25D+00.
 AX will form     3 AO Fock derivatives at one time.
      3 vectors produced by pass  1 Test12= 1.80D-12 3.33D-08 XBig12= 2.41D+01 4.07D-01.
      3 vectors produced by pass  2 Test12= 1.80D-12 3.33D-08 XBig12= 8.70D+00 1.85D-01.
      3 vectors produced by pass  3 Test12= 1.80D-12 3.33D-08 XBig12= 1.11D+00 9.34D-02.
      3 vectors produced by pass  4 Test12= 1.80D-12 3.33D-08 XBig12= 2.80D-01 4.02D-02.
      3 vectors produced by pass  5 Test12= 1.80D-12 3.33D-08 XBig12= 6.66D-02 1.91D-02.
      3 vectors produced by pass  6 Test12= 1.80D-12 3.33D-08 XBig12= 2.10D-02 1.87D-02.
      3 vectors produced by pass  7 Test12= 1.80D-12 3.33D-08 XBig12= 3.07D-03 6.52D-03.
      3 vectors produced by pass  8 Test12= 1.80D-12 3.33D-08 XBig12= 6.17D-04 1.59D-03.
      3 vectors produced by pass  9 Test12= 1.80D-12 3.33D-08 XBig12= 1.77D-04 1.22D-03.
      3 vectors produced by pass 10 Test12= 1.80D-12 3.33D-08 XBig12= 4.88D-05 4.62D-04.
      3 vectors produced by pass 11 Test12= 1.80D-12 3.33D-08 XBig12= 1.18D-05 3.21D-04.
      3 vectors produced by pass 12 Test12= 1.80D-12 3.33D-08 XBig12= 1.45D-06 1.25D-04.
      3 vectors produced by pass 13 Test12= 1.80D-12 3.33D-08 XBig12= 4.16D-07 7.67D-05.
      3 vectors produced by pass 14 Test12= 1.80D-12 3.33D-08 XBig12= 4.00D-08 2.75D-05.
      3 vectors produced by pass 15 Test12= 1.80D-12 3.33D-08 XBig12= 8.38D-09 1.01D-05.
      3 vectors produced by pass 16 Test12= 1.80D-12 3.33D-08 XBig12= 2.46D-09 4.71D-06.
      3 vectors produced by pass 17 Test12= 1.80D-12 3.33D-08 XBig12= 2.63D-10 1.69D-06.
      3 vectors produced by pass 18 Test12= 1.80D-12 3.33D-08 XBig12= 7.41D-11 6.14D-07.
      3 vectors produced by pass 19 Test12= 1.80D-12 3.33D-08 XBig12= 1.22D-11 2.61D-07.
      2 vectors produced by pass 20 Test12= 1.80D-12 3.33D-08 XBig12= 4.54D-12 1.66D-07.
      2 vectors produced by pass 21 Test12= 1.80D-12 3.33D-08 XBig12= 1.39D-12 9.97D-08.
 Inverted reduced A of dimension    64 with in-core refinement.
 End of Minotr Frequency-dependent properties file   721 does not exist.
 End of Minotr Frequency-dependent properties file   722 does not exist.
 Symmetrizing basis deriv contribution to polar:
 IMax=3 JMax=2 DiffMx= 0.00D+00
 G2DrvN: will do    16 centers at a time, making    3 passes doing MaxLOS=2.
 Calling FoFCou, ICntrl=  3107 FMM=F I1Cent=   0 AccDes= 0.00D+00.
 Calling FoFCou, ICntrl=  3107 FMM=F I1Cent=   0 AccDes= 0.00D+00.
 Calling FoFCou, ICntrl=  3107 FMM=F I1Cent=   0 AccDes= 0.00D+00.
 FoFDir/FoFCou used for L=0 through L=2.
 End of G2Drv Frequency-dependent properties file   721 does not exist.
 End of G2Drv Frequency-dependent properties file   722 does not exist.
          IDoAtm=111111111111111111111111111111111111111111111
          Differentiating once with respect to electric field.
                with respect to dipole field.
          Differentiating once with respect to nuclear coordinates.
          There are   138 degrees of freedom in the 1st order CPHF.  IDoFFX=5.
 Will reuse    3 saved solutions.
    135 vectors produced by pass  0 Test12= 5.41D-14 1.00D-09 XBig12= 1.78D-01 7.73D-02.
 AX will form    45 AO Fock derivatives at one time.
    135 vectors produced by pass  1 Test12= 5.41D-14 1.00D-09 XBig12= 1.81D-02 1.03D-02.
    132 vectors produced by pass  2 Test12= 5.41D-14 1.00D-09 XBig12= 1.31D-04 1.33D-03.
    132 vectors produced by pass  3 Test12= 5.41D-14 1.00D-09 XBig12= 6.02D-07 5.88D-05.
    132 vectors produced by pass  4 Test12= 5.41D-14 1.00D-09 XBig12= 1.42D-09 2.41D-06.
    132 vectors produced by pass  5 Test12= 5.41D-14 1.00D-09 XBig12= 3.26D-12 9.68D-08.
     79 vectors produced by pass  6 Test12= 5.41D-14 1.00D-09 XBig12= 1.34D-13 2.20D-08.
 Inverted reduced A of dimension   877 with in-core refinement.
 Isotropic polarizability for W=    0.000000      191.79 Bohr**3.
 End of Minotr Frequency-dependent properties file   721 does not exist.
 End of Minotr Frequency-dependent properties file   722 does not exist.

 **********************************************************************

            Population analysis using the SCF density.

 **********************************************************************

 Orbital symmetries:
       Occupied  (A) (A) (A) (A) (A) (A) (A) (A) (A) (A) (A) (A)
                 (A) (A) (A) (A) (A) (A) (A) (A) (A) (A) (A) (A)
                 (A) (A) (A) (A) (A) (A) (A) (A) (A) (A) (A) (A)
                 (A) (A) (A) (A) (A) (A) (A) (A) (A) (A) (A) (A)
                 (A) (A) (A) (A) (A) (A) (A) (A) (A) (A) (A) (A)
                 (A) (A) (A) (A) (A) (A) (A) (A) (A) (A) (A) (A)
                 (A) (A) (A) (A) (A) (A) (A) (A) (A) (A) (A) (A)
                 (A) (A) (A) (A) (A) (A) (A)
       Virtual   (A) (A) (A) (A) (A) (A) (A) (A) (A) (A) (A) (A)
                 (A) (A) (A) (A) (A) (A) (A) (A) (A) (A) (A) (A)
                 (A) (A) (A) (A) (A) (A) (A) (A) (A) (A) (A) (A)
                 (A) (A) (A) (A) (A) (A) (A) (A) (A) (A) (A) (A)
                 (A) (A) (A) (A) (A) (A) (A) (A) (A) (A) (A) (A)
                 (A) (A) (A) (A) (A) (A) (A) (A) (A) (A) (A) (A)
                 (A) (A) (A) (A) (A) (A) (A) (A) (A) (A) (A) (A)
                 (A) (A) (A) (A) (A) (A) (A) (A) (A) (A) (A) (A)
                 (A) (A) (A) (A) (A) (A) (A) (A) (A) (A) (A) (A)
                 (A) (A) (A) (A) (A) (A) (A) (A) (A) (A) (A) (A)
                 (A) (A) (A) (A) (A) (A) (A) (A) (A) (A) (A) (A)
                 (A) (A) (A) (A) (A) (A) (A) (A) (A) (A) (A) (A)
                 (A) (A) (A) (A) (A) (A) (A) (A) (A) (A) (A) (A)
                 (A) (A) (A) (A) (A) (A) (A) (A) (A) (A) (A) (A)
                 (A) (A) (A) (A) (A) (A) (A) (A) (A) (A) (A) (A)
                 (A) (A) (A) (A) (A) (A) (A) (A) (A) (A) (A) (A)
                 (A) (A) (A) (A) (A) (A) (A) (A) (A) (A) (A) (A)
                 (A) (A) (A) (A) (A) (A) (A) (A) (A) (A) (A) (A)
                 (A) (A) (A) (A) (A) (A) (A) (A) (A) (A) (A) (A)
                 (A) (A) (A) (A) (A) (A) (A) (A) (A) (A) (A) (A)
                 (A) (A) (A) (A) (A) (A) (A) (A) (A) (A) (A) (A)
                 (A) (A) (A) (A) (A) (A) (A) (A) (A) (A) (A) (A)
                 (A) (A) (A) (A) (A) (A) (A) (A) (A) (A) (A) (A)
                 (A) (A) (A) (A) (A) (A) (A) (A) (A) (A) (A) (A)
                 (A) (A) (A) (A) (A) (A) (A) (A) (A) (A) (A) (A)
                 (A) (A) (A) (A) (A) (A) (A) (A) (A) (A) (A) (A)
                 (A) (A) (A) (A) (A) (A) (A) (A) (A) (A) (A) (A)
                 (A) (A) (A) (A) (A) (A) (A) (A) (A) (A) (A) (A)
                 (A) (A) (A) (A) (A) (A) (A) (A) (A) (A) (A) (A)
                 (A) (A) (A) (A) (A) (A) (A) (A) (A) (A) (A) (A)
                 (A) (A) (A) (A) (A) (A) (A) (A) (A) (A) (A) (A)
                 (A) (A) (A) (A) (A) (A) (A) (A) (A) (A) (A) (A)
                 (A) (A) (A) (A) (A) (A) (A) (A) (A) (A) (A) (A)
                 (A) (A) (A) (A) (A) (A) (A) (A) (A) (A) (A) (A)
                 (A) (A) (A) (A) (A) (A) (A) (A) (A) (A) (A) (A)
                 (A) (A) (A) (A) (A) (A) (A) (A) (A) (A) (A) (A)
                 (A) (A) (A) (A) (A) (A) (A) (A) (A) (A) (A) (A)
                 (A) (A) (A) (A) (A) (A) (A) (A) (A) (A) (A) (A)
                 (A) (A) (A) (A) (A) (A) (A) (A) (A) (A) (A) (A)
                 (A) (A) (A) (A) (A) (A) (A) (A) (A) (A) (A) (A)
                 (A) (A) (A) (A) (A) (A) (A) (A) (A) (A) (A) (A)
                 (A) (A) (A) (A) (A) (A) (A) (A) (A) (A) (A) (A)
                 (A) (A) (A) (A) (A) (A) (A) (A) (A) (A) (A) (A)
                 (A) (A) (A) (A) (A) (A) (A) (A) (A) (A) (A) (A)
                 (A) (A) (A) (A) (A) (A) (A) (A) (A) (A) (A) (A)
                 (A) (A) (A) (A) (A) (A) (A) (A) (A) (A) (A) (A)
                 (A) (A) (A) (A) (A) (A) (A) (A) (A) (A) (A) (A)
                 (A) (A) (A) (A) (A) (A) (A) (A) (A) (A) (A) (A)
                 (A) (A) (A) (A) (A) (A) (A) (A) (A) (A) (A) (A)
                 (A) (A) (A) (A) (A) (A)
 The electronic state is 1-A.
 Alpha  occ. eigenvalues --  -19.18991 -19.18564 -19.18421 -19.18022 -19.17773
 Alpha  occ. eigenvalues --  -19.17703 -19.16594 -19.16056 -19.14318 -19.13655
 Alpha  occ. eigenvalues --  -19.13577 -10.30994 -10.30485 -10.25830 -10.25597
 Alpha  occ. eigenvalues --  -10.25548 -10.25369 -10.25033 -10.24927 -10.24519
 Alpha  occ. eigenvalues --  -10.24209 -10.24123 -10.23414  -1.09909  -1.09448
 Alpha  occ. eigenvalues --   -1.05924  -1.05102  -1.04165  -1.03548  -1.03259
 Alpha  occ. eigenvalues --   -1.02633  -1.01497  -1.00253  -0.99612  -0.82612
 Alpha  occ. eigenvalues --   -0.80935  -0.79646  -0.78394  -0.71761  -0.69946
 Alpha  occ. eigenvalues --   -0.67367  -0.64414  -0.62865  -0.62456  -0.61765
 Alpha  occ. eigenvalues --   -0.60350  -0.56573  -0.55967  -0.55314  -0.54925
 Alpha  occ. eigenvalues --   -0.54391  -0.53192  -0.52574  -0.51660  -0.50808
 Alpha  occ. eigenvalues --   -0.50750  -0.49904  -0.49106  -0.48438  -0.46459
 Alpha  occ. eigenvalues --   -0.45937  -0.45074  -0.44527  -0.43860  -0.43324
 Alpha  occ. eigenvalues --   -0.42511  -0.41775  -0.41116  -0.40529  -0.39274
 Alpha  occ. eigenvalues --   -0.39100  -0.38183  -0.37692  -0.37071  -0.36560
 Alpha  occ. eigenvalues --   -0.35016  -0.34755  -0.34500  -0.33778  -0.33200
 Alpha  occ. eigenvalues --   -0.32838  -0.31293  -0.30801  -0.30227  -0.30015
 Alpha  occ. eigenvalues --   -0.29435  -0.29016  -0.28011  -0.27114  -0.26638
 Alpha  occ. eigenvalues --   -0.26387
 Alpha virt. eigenvalues --   -0.02303  -0.01980  -0.01888  -0.00209   0.00294
 Alpha virt. eigenvalues --    0.00802   0.01702   0.02156   0.03359   0.03523
 Alpha virt. eigenvalues --    0.04045   0.04199   0.04839   0.05288   0.05438
 Alpha virt. eigenvalues --    0.06161   0.06568   0.07250   0.07711   0.07997
 Alpha virt. eigenvalues --    0.08540   0.08668   0.08868   0.09472   0.10128
 Alpha virt. eigenvalues --    0.10733   0.11046   0.11209   0.11814   0.12156
 Alpha virt. eigenvalues --    0.12372   0.12684   0.13121   0.13729   0.14010
 Alpha virt. eigenvalues --    0.14166   0.14406   0.14653   0.14892   0.15240
 Alpha virt. eigenvalues --    0.15589   0.16165   0.16700   0.16833   0.17079
 Alpha virt. eigenvalues --    0.17498   0.17547   0.17609   0.18055   0.18362
 Alpha virt. eigenvalues --    0.18880   0.19057   0.19121   0.19616   0.20089
 Alpha virt. eigenvalues --    0.20316   0.20708   0.21028   0.21359   0.21527
 Alpha virt. eigenvalues --    0.22186   0.22325   0.22581   0.22989   0.23211
 Alpha virt. eigenvalues --    0.23600   0.23658   0.24280   0.24589   0.24669
 Alpha virt. eigenvalues --    0.24819   0.25178   0.25580   0.25709   0.26059
 Alpha virt. eigenvalues --    0.26209   0.26352   0.26556   0.26980   0.27116
 Alpha virt. eigenvalues --    0.27467   0.27857   0.28214   0.28539   0.28653
 Alpha virt. eigenvalues --    0.29212   0.29437   0.29731   0.30176   0.30669
 Alpha virt. eigenvalues --    0.30997   0.31495   0.31771   0.32161   0.32345
 Alpha virt. eigenvalues --    0.32509   0.32889   0.33223   0.33520   0.33698
 Alpha virt. eigenvalues --    0.34316   0.34496   0.35274   0.35582   0.35813
 Alpha virt. eigenvalues --    0.36057   0.36636   0.36698   0.37088   0.37289
 Alpha virt. eigenvalues --    0.38111   0.38466   0.38626   0.38704   0.39401
 Alpha virt. eigenvalues --    0.39827   0.40350   0.40803   0.41358   0.41888
 Alpha virt. eigenvalues --    0.42196   0.42448   0.42818   0.43471   0.43857
 Alpha virt. eigenvalues --    0.44306   0.44603   0.45613   0.46885   0.47210
 Alpha virt. eigenvalues --    0.47571   0.48016   0.48881   0.49545   0.49985
 Alpha virt. eigenvalues --    0.50763   0.51763   0.53883   0.58136   0.58979
 Alpha virt. eigenvalues --    0.59835   0.60278   0.60501   0.61293   0.61795
 Alpha virt. eigenvalues --    0.62650   0.63424   0.64578   0.66012   0.66295
 Alpha virt. eigenvalues --    0.66979   0.67440   0.69010   0.69589   0.70171
 Alpha virt. eigenvalues --    0.70960   0.71222   0.72809   0.73528   0.74216
 Alpha virt. eigenvalues --    0.74962   0.75779   0.76575   0.76760   0.77460
 Alpha virt. eigenvalues --    0.78260   0.78706   0.80280   0.80738   0.81355
 Alpha virt. eigenvalues --    0.82644   0.83188   0.83875   0.84297   0.84770
 Alpha virt. eigenvalues --    0.86066   0.87893   0.88441   0.89051   0.89636
 Alpha virt. eigenvalues --    0.90252   0.90524   0.90904   0.91124   0.91682
 Alpha virt. eigenvalues --    0.92380   0.92580   0.93338   0.93804   0.94072
 Alpha virt. eigenvalues --    0.94791   0.95236   0.95698   0.96360   0.96652
 Alpha virt. eigenvalues --    0.97478   0.98127   0.98472   0.98576   0.99790
 Alpha virt. eigenvalues --    1.00139   1.00618   1.00854   1.01431   1.02288
 Alpha virt. eigenvalues --    1.02714   1.03572   1.04379   1.05071   1.06184
 Alpha virt. eigenvalues --    1.06546   1.07523   1.07796   1.07982   1.08217
 Alpha virt. eigenvalues --    1.09406   1.10110   1.10555   1.11171   1.11291
 Alpha virt. eigenvalues --    1.11774   1.12631   1.13428   1.13722   1.15903
 Alpha virt. eigenvalues --    1.16146   1.16258   1.16765   1.17193   1.17576
 Alpha virt. eigenvalues --    1.18458   1.19015   1.19253   1.19865   1.20548
 Alpha virt. eigenvalues --    1.20758   1.21182   1.22163   1.22350   1.22846
 Alpha virt. eigenvalues --    1.23536   1.24217   1.24732   1.24824   1.25436
 Alpha virt. eigenvalues --    1.26297   1.26673   1.26906   1.27655   1.27989
 Alpha virt. eigenvalues --    1.28615   1.29078   1.29563   1.30404   1.31390
 Alpha virt. eigenvalues --    1.31912   1.32557   1.33586   1.33995   1.34367
 Alpha virt. eigenvalues --    1.35548   1.36030   1.36448   1.37075   1.37954
 Alpha virt. eigenvalues --    1.38405   1.38540   1.39793   1.40119   1.40569
 Alpha virt. eigenvalues --    1.40906   1.41700   1.42076   1.42905   1.43650
 Alpha virt. eigenvalues --    1.44437   1.45004   1.46163   1.46568   1.46700
 Alpha virt. eigenvalues --    1.48565   1.48804   1.49922   1.50189   1.51516
 Alpha virt. eigenvalues --    1.52128   1.53074   1.53736   1.55346   1.56324
 Alpha virt. eigenvalues --    1.56740   1.56835   1.58086   1.58991   1.60547
 Alpha virt. eigenvalues --    1.61359   1.61717   1.63373   1.64152   1.64730
 Alpha virt. eigenvalues --    1.66152   1.67617   1.68102   1.68795   1.69664
 Alpha virt. eigenvalues --    1.70188   1.71067   1.72070   1.72722   1.73425
 Alpha virt. eigenvalues --    1.74294   1.75624   1.76360   1.77639   1.78769
 Alpha virt. eigenvalues --    1.80139   1.81200   1.82397   1.83924   1.84116
 Alpha virt. eigenvalues --    1.85163   1.86185   1.86992   1.88505   1.89668
 Alpha virt. eigenvalues --    1.90282   1.91125   1.91223   1.92848   1.93437
 Alpha virt. eigenvalues --    1.94248   1.95015   1.96118   1.96912   1.97709
 Alpha virt. eigenvalues --    1.99705   2.00365   2.00664   2.03660   2.05113
 Alpha virt. eigenvalues --    2.06752   2.07979   2.08629   2.09229   2.10639
 Alpha virt. eigenvalues --    2.11658   2.14281   2.15142   2.17125   2.18118
 Alpha virt. eigenvalues --    2.19797   2.20955   2.23071   2.25066   2.25446
 Alpha virt. eigenvalues --    2.26102   2.27205   2.29656   2.31599   2.32574
 Alpha virt. eigenvalues --    2.33074   2.34491   2.35076   2.36461   2.37849
 Alpha virt. eigenvalues --    2.39240   2.40897   2.43361   2.44400   2.49877
 Alpha virt. eigenvalues --    2.50986   2.51606   2.54173   2.57105   2.57907
 Alpha virt. eigenvalues --    2.59545   2.63413   2.63578   2.66079   2.67410
 Alpha virt. eigenvalues --    2.68176   2.68923   2.69914   2.72534   2.73394
 Alpha virt. eigenvalues --    2.74619   2.76363   2.77387   2.78591   2.80197
 Alpha virt. eigenvalues --    2.81501   2.81762   2.82642   2.84053   2.86088
 Alpha virt. eigenvalues --    2.88018   2.88753   2.90591   2.91270   2.91690
 Alpha virt. eigenvalues --    2.93688   2.94229   2.95003   2.95612   2.95954
 Alpha virt. eigenvalues --    2.96400   2.98159   2.98516   2.98794   3.00328
 Alpha virt. eigenvalues --    3.01042   3.02467   3.03557   3.03578   3.04851
 Alpha virt. eigenvalues --    3.05456   3.06574   3.07039   3.07887   3.08558
 Alpha virt. eigenvalues --    3.09151   3.09668   3.11236   3.12167   3.12257
 Alpha virt. eigenvalues --    3.14759   3.16559   3.19127   3.21418   3.24446
 Alpha virt. eigenvalues --    3.24796   3.27373   3.28950   3.76562   3.80527
 Alpha virt. eigenvalues --    3.95973   4.04999   4.07252   4.09279   4.12252
 Alpha virt. eigenvalues --    4.12610   4.13842   4.15711   4.16819   4.17429
 Alpha virt. eigenvalues --    4.18966   4.19342   4.20224   4.21890   4.22685
 Alpha virt. eigenvalues --    4.24119   4.25317   4.25876   4.26250   4.26944
 Alpha virt. eigenvalues --    4.27598   4.28321   4.29030   4.29813   4.30177
 Alpha virt. eigenvalues --    4.30406   4.31674   4.31871   4.32632   4.32755
 Alpha virt. eigenvalues --    4.33271   4.34112   4.35285   4.35523   4.36141
 Alpha virt. eigenvalues --    4.36497   4.37319   4.37411   4.39019   4.39710
 Alpha virt. eigenvalues --    4.40378   4.41363   4.41943   4.43136   4.44388
 Alpha virt. eigenvalues --    4.44875   4.45938   4.48037   4.49192   4.50194
 Alpha virt. eigenvalues --    4.51152   4.51711   4.53257   4.54384   4.56012
 Alpha virt. eigenvalues --    4.56537   4.57151   4.58470   4.58637   4.60076
 Alpha virt. eigenvalues --    4.61512   4.62482   4.62788   4.63664   4.64100
 Alpha virt. eigenvalues --    4.64777   4.65186   4.65311   4.66213   4.67346
 Alpha virt. eigenvalues --    4.68350   4.69014   4.69720   4.70213   4.71542
 Alpha virt. eigenvalues --    4.71833   4.72437   4.73000   4.73764   4.74346
 Alpha virt. eigenvalues --    4.74756   4.75246   4.75425   4.76517   4.77060
 Alpha virt. eigenvalues --    4.78510   4.78987   4.79717   4.80738   4.81417
 Alpha virt. eigenvalues --    4.82071   4.82837   4.83768   4.84957   4.85697
 Alpha virt. eigenvalues --    4.86132   4.87951   4.89299   4.90613   4.91118
 Alpha virt. eigenvalues --    4.93018   4.93582   4.95616   4.95927   4.97534
 Alpha virt. eigenvalues --    4.98375   4.98741   5.00274   5.03052   5.05353
 Alpha virt. eigenvalues --    5.09080   5.10441   5.12026   5.12385   5.18984
 Alpha virt. eigenvalues --    5.25577   5.28128   5.30857   5.34241   5.38855
 Alpha virt. eigenvalues --    5.44493   5.88787   6.01869   6.42744   6.50325
 Alpha virt. eigenvalues --    6.73717   6.76118   6.78883   6.80147   6.84790
 Alpha virt. eigenvalues --    6.86255   6.90936   6.94030   6.95455   7.02774
 Alpha virt. eigenvalues --    7.04080  11.86057  11.99252  12.11008  12.14342
 Alpha virt. eigenvalues --   12.28987  12.40644  12.66867  12.80632  12.90344
 Alpha virt. eigenvalues --   12.99224  13.12491  13.25369  13.27377  13.28513
 Alpha virt. eigenvalues --   13.30467  13.35419  13.36382  13.40297  13.46868
 Alpha virt. eigenvalues --   13.49853  13.65172  13.75464  13.80196
          Condensed to atoms (all electrons):
              1          2          3          4          5          6
     1  O    8.233377   0.162676  -0.018712  -0.026041   0.023808   0.030627
     2  C    0.162676   6.695230  -0.211829   0.050901  -0.060504  -1.105735
     3  C   -0.018712  -0.211829   6.649071   0.207296  -0.013996   0.133378
     4  O   -0.026041   0.050901   0.207296   8.244579   0.237354  -0.157206
     5  H    0.023808  -0.060504  -0.013996   0.237354   0.421279   0.031708
     6  C    0.030627  -1.105735   0.133378  -0.157206   0.031708   7.559166
     7  O   -0.000415   0.008462  -0.082653   0.005597  -0.000060   0.238428
     8  H    0.000006  -0.005446   0.006688  -0.000146   0.000012   0.052388
     9  C   -0.013068   0.077898  -0.400046   0.010582  -0.003388   0.140606
    10  O   -0.032425   0.047979   0.010925  -0.000285   0.000031  -0.003748
    11  H    0.002130  -0.017387  -0.001020   0.000003   0.000000   0.000314
    12  C   -0.083267  -0.419433  -0.273675   0.011536   0.006644   0.204028
    13  O    0.000974  -0.068845  -0.047570  -0.000535  -0.000052   0.022681
    14  C    0.006551   0.402207   0.130617   0.013642   0.010114  -1.513412
    15  O   -0.000243  -0.009786   0.015204   0.000258  -0.000047   0.045289
    16  C    0.000565   0.057647  -0.179727  -0.002517   0.000794   0.017951
    17  C    0.000132  -0.024495   0.028563   0.000210   0.000018  -0.027434
    18  O    0.000022   0.007066  -0.001567  -0.000005   0.000000   0.011501
    19  H   -0.000009  -0.008109   0.006353  -0.000001   0.000000  -0.000377
    20  C    0.000059  -0.000099  -0.002784  -0.000119   0.000002   0.100157
    21  O    0.000000  -0.000059   0.000003   0.000000   0.000000  -0.000577
    22  H    0.000000   0.000001   0.000000   0.000000   0.000000  -0.000023
    23  C    0.000090   0.010088  -0.020066  -0.000058   0.000007  -0.017867
    24  O   -0.000002  -0.000025  -0.003728  -0.000145   0.000000   0.004881
    25  H    0.000000   0.000120   0.000611   0.000002   0.000000  -0.000459
    26  C   -0.000126   0.009721  -0.041063   0.000119   0.000023  -0.063229
    27  O    0.000000  -0.000220   0.000272   0.000001   0.000000   0.001381
    28  C   -0.000002  -0.000800   0.000114   0.000013   0.000000  -0.016943
    29  O    0.000000   0.000011  -0.000001   0.000000   0.000000  -0.000280
    30  H    0.000000   0.000000   0.000000   0.000000   0.000000   0.000000
    31  H    0.000000   0.000090  -0.000047   0.000000   0.000000   0.000673
    32  H    0.000000  -0.000001   0.000005   0.000000   0.000000  -0.000213
    33  H    0.000000   0.000390   0.000000   0.000000   0.000000   0.008135
    34  H   -0.000001  -0.001449   0.003348   0.000002   0.000000   0.016717
    35  H    0.000000  -0.000142   0.001261   0.000000   0.000000  -0.001070
    36  H    0.000000  -0.000014   0.000016   0.000000   0.000000   0.001669
    37  H    0.000000   0.000083   0.000232   0.000000   0.000000  -0.007588
    38  H    0.268805   0.054281  -0.049326   0.002582  -0.003136   0.002660
    39  H   -0.000875  -0.013006  -0.000545   0.000001   0.000001   0.002670
    40  H    0.003604   0.019699  -0.007626   0.000043  -0.000002   0.004634
    41  H    0.004890   0.037905  -0.050119   0.000988   0.000014  -0.010924
    42  H   -0.012188   0.286736   0.003566   0.001691   0.000458  -0.018020
    43  H   -0.000293  -0.018111   0.261209  -0.028866  -0.001779  -0.168959
    44  H   -0.000026   0.038608  -0.131717   0.004652  -0.000185   0.346118
    45  H   -0.000057  -0.004343  -0.041441   0.000122   0.000002   0.045592
              7          8          9         10         11         12
     1  O   -0.000415   0.000006  -0.013068  -0.032425   0.002130  -0.083267
     2  C    0.008462  -0.005446   0.077898   0.047979  -0.017387  -0.419433
     3  C   -0.082653   0.006688  -0.400046   0.010925  -0.001020  -0.273675
     4  O    0.005597  -0.000146   0.010582  -0.000285   0.000003   0.011536
     5  H   -0.000060   0.000012  -0.003388   0.000031   0.000000   0.006644
     6  C    0.238428   0.052388   0.140606  -0.003748   0.000314   0.204028
     7  O    8.210325   0.246513   0.000609  -0.000001   0.000000   0.012468
     8  H    0.246513   0.353209  -0.000075   0.000000   0.000000  -0.001262
     9  C    0.000609  -0.000075   7.198997  -0.016638   0.000042  -1.084221
    10  O   -0.000001   0.000000  -0.016638   8.261191   0.220111   0.064165
    11  H    0.000000   0.000000   0.000042   0.220111   0.452570   0.027040
    12  C    0.012468  -0.001262  -1.084221   0.064165   0.027040   8.436338
    13  O    0.002589  -0.000528  -0.013270  -0.000805  -0.000339   0.040949
    14  C   -0.024300  -0.067931  -0.644447   0.012286  -0.003221  -0.856786
    15  O    0.001670   0.004444  -0.012675  -0.000005   0.000003  -0.006228
    16  C   -0.012894   0.019273  -0.045603  -0.000625  -0.000028  -0.064455
    17  C   -0.007309   0.001860  -0.030261  -0.000037   0.000009  -0.073954
    18  O    0.000019  -0.000002   0.006264  -0.000034   0.000002  -0.021173
    19  H   -0.000055   0.000002   0.004087  -0.000014   0.000000  -0.003220
    20  C    0.000340   0.000506  -0.002957   0.000069  -0.000001  -0.025349
    21  O    0.000001   0.000000   0.000320   0.000000   0.000000  -0.000081
    22  H    0.000000   0.000000  -0.000005   0.000000   0.000000   0.000024
    23  C    0.034258   0.004169  -0.000963  -0.000008   0.000000  -0.027854
    24  O   -0.041187   0.015010   0.000179   0.000000   0.000000   0.004824
    25  H    0.003969  -0.002021  -0.000013   0.000000   0.000000  -0.000366
    26  C   -0.015337  -0.018355   0.009014  -0.000037   0.000002   0.054792
    27  O   -0.000067  -0.000022   0.000007   0.000000   0.000000   0.000175
    28  C    0.000422  -0.000157  -0.000512   0.000000   0.000000   0.009174
    29  O   -0.000003   0.000000  -0.000004   0.000000   0.000000   0.000017
    30  H    0.000000   0.000000   0.000000   0.000000   0.000000  -0.000001
    31  H    0.000004   0.000000  -0.000049   0.000000   0.000000   0.000077
    32  H    0.000001   0.000000   0.000005   0.000000   0.000000   0.000041
    33  H   -0.000008   0.000000  -0.000194   0.000000   0.000000  -0.001618
    34  H   -0.000809   0.000016  -0.000069   0.000000   0.000000  -0.003289
    35  H   -0.000100  -0.000004   0.000023   0.000000   0.000000   0.000406
    36  H   -0.000309   0.000212   0.000001   0.000000   0.000000   0.000057
    37  H    0.000675  -0.000182  -0.000008   0.000000   0.000000  -0.000328
    38  H    0.000005   0.000000   0.009423   0.000427  -0.000049  -0.024116
    39  H   -0.000009   0.000000   0.423218  -0.020893  -0.013240  -0.031479
    40  H    0.000004   0.000000   0.559253  -0.050927  -0.001187  -0.232464
    41  H   -0.000033   0.000001   0.054751   0.000876  -0.000330   0.112733
    42  H    0.000252   0.000002  -0.051444  -0.001123  -0.000005  -0.036635
    43  H    0.004481  -0.000123   0.017708  -0.000449   0.000001   0.074885
    44  H   -0.027060  -0.006465   0.018223   0.000016   0.000000   0.061937
    45  H    0.000062   0.000027   0.022607   0.000084   0.000000   0.058123
             13         14         15         16         17         18
     1  O    0.000974   0.006551  -0.000243   0.000565   0.000132   0.000022
     2  C   -0.068845   0.402207  -0.009786   0.057647  -0.024495   0.007066
     3  C   -0.047570   0.130617   0.015204  -0.179727   0.028563  -0.001567
     4  O   -0.000535   0.013642   0.000258  -0.002517   0.000210  -0.000005
     5  H   -0.000052   0.010114  -0.000047   0.000794   0.000018   0.000000
     6  C    0.022681  -1.513412   0.045289   0.017951  -0.027434   0.011501
     7  O    0.002589  -0.024300   0.001670  -0.012894  -0.007309   0.000019
     8  H   -0.000528  -0.067931   0.004444   0.019273   0.001860  -0.000002
     9  C   -0.013270  -0.644447  -0.012675  -0.045603  -0.030261   0.006264
    10  O   -0.000805   0.012286  -0.000005  -0.000625  -0.000037  -0.000034
    11  H   -0.000339  -0.003221   0.000003  -0.000028   0.000009   0.000002
    12  C    0.040949  -0.856786  -0.006228  -0.064455  -0.073954  -0.021173
    13  O    8.216547   0.190970  -0.012035   0.030243  -0.023177  -0.021453
    14  C    0.190970   8.799780   0.093306  -0.215337  -0.209711  -0.025495
    15  O   -0.012035   0.093306   8.194013   0.005325   0.041118  -0.003930
    16  C    0.030243  -0.215337   0.005325  12.832634  -2.493009   0.034744
    17  C   -0.023177  -0.209711   0.041118  -2.493009   7.775495   0.207537
    18  O   -0.021453  -0.025495  -0.003930   0.034744   0.207537   8.204714
    19  H    0.014626   0.017614   0.018239  -0.112367   0.066428   0.232582
    20  C   -0.014952  -0.210858   0.019628  -1.649412   0.774120  -0.059530
    21  O   -0.000334   0.008369  -0.000504   0.061242  -0.155989   0.010816
    22  H    0.000003  -0.001083   0.000000  -0.013607   0.006262  -0.000381
    23  C   -0.002092  -0.030325  -0.030311   0.807724  -0.514325   0.016131
    24  O   -0.000155   0.073479  -0.023412   0.138273  -0.017581   0.000171
    25  H   -0.000006  -0.010594   0.002442  -0.025192   0.000655  -0.000002
    26  C    0.000976  -0.705068  -0.014987  -4.901222   1.273862  -0.022460
    27  O    0.000275   0.012442   0.001212   0.120675  -0.036648  -0.000008
    28  C    0.003346   0.057747   0.008611   1.212813  -0.683397  -0.007664
    29  O    0.000024  -0.001514  -0.000214  -0.038572   0.004267  -0.000106
    30  H    0.000000  -0.000014  -0.000003   0.000847   0.006440   0.000000
    31  H    0.000143  -0.007905   0.001460   0.115520  -0.229257   0.008084
    32  H    0.000004   0.002274   0.000289   0.061072  -0.025932   0.000559
    33  H    0.000437  -0.024659  -0.001581  -0.109026   0.264166  -0.025249
    34  H   -0.004205  -0.056276  -0.015093   0.104720   0.020388  -0.000082
    35  H   -0.000167   0.025837   0.000435   0.038141  -0.065202   0.001102
    36  H    0.000013   0.004950   0.000723   0.045900   0.002357   0.000015
    37  H   -0.000042   0.002483  -0.000683   0.077623  -0.019687   0.000058
    38  H   -0.000564  -0.000434  -0.000005   0.000079  -0.000023  -0.000001
    39  H   -0.004289  -0.007949  -0.000291   0.001259  -0.000602   0.000178
    40  H   -0.000873   0.011752  -0.000312  -0.001173   0.000803  -0.000059
    41  H   -0.023438   0.130219  -0.002066  -0.003763   0.003875  -0.000245
    42  H    0.006704   0.086515   0.000042  -0.002348   0.001014   0.000057
    43  H    0.004945   0.060784   0.001295   0.000479   0.000430   0.000050
    44  H    0.006379  -0.047369  -0.012196  -0.014504  -0.002114   0.000142
    45  H   -0.046011   0.240610  -0.031713  -0.020101   0.018675  -0.002282
             19         20         21         22         23         24
     1  O   -0.000009   0.000059   0.000000   0.000000   0.000090  -0.000002
     2  C   -0.008109  -0.000099  -0.000059   0.000001   0.010088  -0.000025
     3  C    0.006353  -0.002784   0.000003   0.000000  -0.020066  -0.003728
     4  O   -0.000001  -0.000119   0.000000   0.000000  -0.000058  -0.000145
     5  H    0.000000   0.000002   0.000000   0.000000   0.000007   0.000000
     6  C   -0.000377   0.100157  -0.000577  -0.000023  -0.017867   0.004881
     7  O   -0.000055   0.000340   0.000001   0.000000   0.034258  -0.041187
     8  H    0.000002   0.000506   0.000000   0.000000   0.004169   0.015010
     9  C    0.004087  -0.002957   0.000320  -0.000005  -0.000963   0.000179
    10  O   -0.000014   0.000069   0.000000   0.000000  -0.000008   0.000000
    11  H    0.000000  -0.000001   0.000000   0.000000   0.000000   0.000000
    12  C   -0.003220  -0.025349  -0.000081   0.000024  -0.027854   0.004824
    13  O    0.014626  -0.014952  -0.000334   0.000003  -0.002092  -0.000155
    14  C    0.017614  -0.210858   0.008369  -0.001083  -0.030325   0.073479
    15  O    0.018239   0.019628  -0.000504   0.000000  -0.030311  -0.023412
    16  C   -0.112367  -1.649412   0.061242  -0.013607   0.807724   0.138273
    17  C    0.066428   0.774120  -0.155989   0.006262  -0.514325  -0.017581
    18  O    0.232582  -0.059530   0.010816  -0.000381   0.016131   0.000171
    19  H    0.382756   0.003784  -0.000310   0.000011  -0.004447   0.000028
    20  C    0.003784   6.793757   0.180489  -0.013793  -0.038544  -0.006089
    21  O   -0.000310   0.180489   8.226556   0.228679   0.001981   0.000011
    22  H    0.000011  -0.013793   0.228679   0.438291  -0.000151   0.000000
    23  C   -0.004447  -0.038544   0.001981  -0.000151   7.089332   0.049704
    24  O    0.000028  -0.006089   0.000011   0.000000   0.049704   8.321844
    25  H    0.000000   0.001072   0.000000   0.000000   0.019296   0.232468
    26  C    0.009615   0.718333  -0.030195   0.011118  -2.067957  -0.144339
    27  O   -0.000031  -0.099287   0.001195   0.000235  -0.075650   0.002776
    28  C    0.000328  -0.773163   0.047599  -0.001090  -0.002146   0.007198
    29  O   -0.000008   0.024162  -0.013940   0.016684   0.006246  -0.000051
    30  H    0.000000  -0.028541   0.000368  -0.002163  -0.000242  -0.000001
    31  H   -0.000175   0.290662  -0.025148  -0.001367   0.013417   0.000016
    32  H    0.000001  -0.159514   0.003249   0.000123   0.000900   0.000031
    33  H   -0.002233   0.031754   0.000951  -0.000212   0.021244  -0.000152
    34  H    0.000339   0.069939  -0.000252  -0.000003  -0.021037   0.000023
    35  H    0.000027  -0.030913   0.000168   0.000005   0.081694   0.003699
    36  H    0.000000   0.001149  -0.000011   0.000000   0.375425  -0.008876
    37  H    0.000000  -0.002881   0.000011   0.000000   0.671851  -0.059915
    38  H    0.000000   0.000000   0.000000   0.000000   0.000000   0.000000
    39  H    0.000138  -0.000521   0.000000   0.000000  -0.000006   0.000000
    40  H    0.000111   0.000145   0.000000   0.000000   0.000009   0.000000
    41  H    0.000170   0.000313  -0.000001   0.000000   0.000144  -0.000001
    42  H    0.000005  -0.000035   0.000000   0.000000   0.000033   0.000004
    43  H   -0.000002  -0.000197   0.000000   0.000000   0.000238   0.000056
    44  H   -0.000017   0.000082   0.000000   0.000000   0.001201   0.000774
    45  H    0.000511   0.007873  -0.000005   0.000000  -0.001833   0.000069
             25         26         27         28         29         30
     1  O    0.000000  -0.000126   0.000000  -0.000002   0.000000   0.000000
     2  C    0.000120   0.009721  -0.000220  -0.000800   0.000011   0.000000
     3  C    0.000611  -0.041063   0.000272   0.000114  -0.000001   0.000000
     4  O    0.000002   0.000119   0.000001   0.000013   0.000000   0.000000
     5  H    0.000000   0.000023   0.000000   0.000000   0.000000   0.000000
     6  C   -0.000459  -0.063229   0.001381  -0.016943  -0.000280   0.000000
     7  O    0.003969  -0.015337  -0.000067   0.000422  -0.000003   0.000000
     8  H   -0.002021  -0.018355  -0.000022  -0.000157   0.000000   0.000000
     9  C   -0.000013   0.009014   0.000007  -0.000512  -0.000004   0.000000
    10  O    0.000000  -0.000037   0.000000   0.000000   0.000000   0.000000
    11  H    0.000000   0.000002   0.000000   0.000000   0.000000   0.000000
    12  C   -0.000366   0.054792   0.000175   0.009174   0.000017  -0.000001
    13  O   -0.000006   0.000976   0.000275   0.003346   0.000024   0.000000
    14  C   -0.010594  -0.705068   0.012442   0.057747  -0.001514  -0.000014
    15  O    0.002442  -0.014987   0.001212   0.008611  -0.000214  -0.000003
    16  C   -0.025192  -4.901222   0.120675   1.212813  -0.038572   0.000847
    17  C    0.000655   1.273862  -0.036648  -0.683397   0.004267   0.006440
    18  O   -0.000002  -0.022460  -0.000008  -0.007664  -0.000106   0.000000
    19  H    0.000000   0.009615  -0.000031   0.000328  -0.000008   0.000000
    20  C    0.001072   0.718333  -0.099287  -0.773163   0.024162  -0.028541
    21  O    0.000000  -0.030195   0.001195   0.047599  -0.013940   0.000368
    22  H    0.000000   0.011118   0.000235  -0.001090   0.016684  -0.002163
    23  C    0.019296  -2.067957  -0.075650  -0.002146   0.006246  -0.000242
    24  O    0.232468  -0.144339   0.002776   0.007198  -0.000051  -0.000001
    25  H    0.425513   0.013756  -0.000734  -0.001135  -0.000002   0.000000
    26  C    0.013756  12.921001   0.031923  -1.029054  -0.000001  -0.001383
    27  O   -0.000734   0.031923   8.188605   0.204027  -0.056369   0.003062
    28  C   -0.001135  -1.029054   0.204027   6.049764   0.226660   0.009842
    29  O   -0.000002  -0.000001  -0.056369   0.226660   8.121381   0.264496
    30  H    0.000000  -0.001383   0.003062   0.009842   0.264496   0.420869
    31  H    0.000000  -0.014927   0.001178   0.089837  -0.000607   0.000013
    32  H    0.000000  -0.016957  -0.045436   0.473803  -0.025186  -0.008865
    33  H    0.000001   0.089803   0.002076  -0.030975   0.000535   0.000011
    34  H   -0.000005   0.128847   0.004636  -0.006022  -0.000736   0.000004
    35  H   -0.000214   0.154192  -0.031378   0.061848  -0.001529   0.000024
    36  H   -0.017140  -0.076429  -0.003866  -0.001144  -0.000169  -0.000001
    37  H    0.003211  -0.362760   0.002153   0.007035  -0.000210   0.000000
    38  H    0.000000  -0.000001   0.000000   0.000000   0.000000   0.000000
    39  H    0.000000   0.000031   0.000000   0.000039   0.000000   0.000000
    40  H    0.000000  -0.000061   0.000000  -0.000014   0.000000   0.000000
    41  H    0.000000  -0.000564   0.000000  -0.000052   0.000000   0.000000
    42  H    0.000000  -0.000249   0.000000  -0.000005   0.000000   0.000000
    43  H    0.000000   0.000976   0.000000  -0.000012   0.000000   0.000000
    44  H    0.000006   0.004759  -0.000006   0.000026   0.000000   0.000000
    45  H    0.000004   0.019642   0.000087  -0.001144  -0.000004   0.000000
             31         32         33         34         35         36
     1  O    0.000000   0.000000   0.000000  -0.000001   0.000000   0.000000
     2  C    0.000090  -0.000001   0.000390  -0.001449  -0.000142  -0.000014
     3  C   -0.000047   0.000005   0.000000   0.003348   0.001261   0.000016
     4  O    0.000000   0.000000   0.000000   0.000002   0.000000   0.000000
     5  H    0.000000   0.000000   0.000000   0.000000   0.000000   0.000000
     6  C    0.000673  -0.000213   0.008135   0.016717  -0.001070   0.001669
     7  O    0.000004   0.000001  -0.000008  -0.000809  -0.000100  -0.000309
     8  H    0.000000   0.000000   0.000000   0.000016  -0.000004   0.000212
     9  C   -0.000049   0.000005  -0.000194  -0.000069   0.000023   0.000001
    10  O    0.000000   0.000000   0.000000   0.000000   0.000000   0.000000
    11  H    0.000000   0.000000   0.000000   0.000000   0.000000   0.000000
    12  C    0.000077   0.000041  -0.001618  -0.003289   0.000406   0.000057
    13  O    0.000143   0.000004   0.000437  -0.004205  -0.000167   0.000013
    14  C   -0.007905   0.002274  -0.024659  -0.056276   0.025837   0.004950
    15  O    0.001460   0.000289  -0.001581  -0.015093   0.000435   0.000723
    16  C    0.115520   0.061072  -0.109026   0.104720   0.038141   0.045900
    17  C   -0.229257  -0.025932   0.264166   0.020388  -0.065202   0.002357
    18  O    0.008084   0.000559  -0.025249  -0.000082   0.001102   0.000015
    19  H   -0.000175   0.000001  -0.002233   0.000339   0.000027   0.000000
    20  C    0.290662  -0.159514   0.031754   0.069939  -0.030913   0.001149
    21  O   -0.025148   0.003249   0.000951  -0.000252   0.000168  -0.000011
    22  H   -0.001367   0.000123  -0.000212  -0.000003   0.000005   0.000000
    23  C    0.013417   0.000900   0.021244  -0.021037   0.081694   0.375425
    24  O    0.000016   0.000031  -0.000152   0.000023   0.003699  -0.008876
    25  H    0.000000   0.000000   0.000001  -0.000005  -0.000214  -0.017140
    26  C   -0.014927  -0.016957   0.089803   0.128847   0.154192  -0.076429
    27  O    0.001178  -0.045436   0.002076   0.004636  -0.031378  -0.003866
    28  C    0.089837   0.473803  -0.030975  -0.006022   0.061848  -0.001144
    29  O   -0.000607  -0.025186   0.000535  -0.000736  -0.001529  -0.000169
    30  H    0.000013  -0.008865   0.000011   0.000004   0.000024  -0.000001
    31  H    0.617098   0.005331   0.006984   0.003870  -0.000065   0.000000
    32  H    0.005331   0.597058   0.003232  -0.000033   0.003079  -0.000025
    33  H    0.006984   0.003232   0.649624   0.006754   0.003037  -0.000002
    34  H    0.003870  -0.000033   0.006754   0.628677   0.006562  -0.000019
    35  H   -0.000065   0.003079   0.003037   0.006562   0.632200  -0.004936
    36  H    0.000000  -0.000025  -0.000002  -0.000019  -0.004936   0.576828
    37  H   -0.000041  -0.000011  -0.000014   0.002370   0.006331  -0.038021
    38  H    0.000000   0.000000   0.000000   0.000000   0.000000   0.000000
    39  H    0.000000   0.000000   0.000000  -0.000001   0.000000   0.000000
    40  H    0.000000   0.000000   0.000000   0.000000   0.000000   0.000000
    41  H    0.000000   0.000000   0.000000  -0.000003   0.000000   0.000000
    42  H    0.000000   0.000000   0.000000   0.000000   0.000000   0.000000
    43  H    0.000000   0.000000   0.000000  -0.000005   0.000000   0.000000
    44  H    0.000000   0.000000  -0.000005  -0.000007  -0.000004   0.000000
    45  H   -0.000007   0.000000   0.000001   0.006771  -0.000002   0.000000
             37         38         39         40         41         42
     1  O    0.000000   0.268805  -0.000875   0.003604   0.004890  -0.012188
     2  C    0.000083   0.054281  -0.013006   0.019699   0.037905   0.286736
     3  C    0.000232  -0.049326  -0.000545  -0.007626  -0.050119   0.003566
     4  O    0.000000   0.002582   0.000001   0.000043   0.000988   0.001691
     5  H    0.000000  -0.003136   0.000001  -0.000002   0.000014   0.000458
     6  C   -0.007588   0.002660   0.002670   0.004634  -0.010924  -0.018020
     7  O    0.000675   0.000005  -0.000009   0.000004  -0.000033   0.000252
     8  H   -0.000182   0.000000   0.000000   0.000000   0.000001   0.000002
     9  C   -0.000008   0.009423   0.423218   0.559253   0.054751  -0.051444
    10  O    0.000000   0.000427  -0.020893  -0.050927   0.000876  -0.001123
    11  H    0.000000  -0.000049  -0.013240  -0.001187  -0.000330  -0.000005
    12  C   -0.000328  -0.024116  -0.031479  -0.232464   0.112733  -0.036635
    13  O   -0.000042  -0.000564  -0.004289  -0.000873  -0.023438   0.006704
    14  C    0.002483  -0.000434  -0.007949   0.011752   0.130219   0.086515
    15  O   -0.000683  -0.000005  -0.000291  -0.000312  -0.002066   0.000042
    16  C    0.077623   0.000079   0.001259  -0.001173  -0.003763  -0.002348
    17  C   -0.019687  -0.000023  -0.000602   0.000803   0.003875   0.001014
    18  O    0.000058  -0.000001   0.000178  -0.000059  -0.000245   0.000057
    19  H    0.000000   0.000000   0.000138   0.000111   0.000170   0.000005
    20  C   -0.002881   0.000000  -0.000521   0.000145   0.000313  -0.000035
    21  O    0.000011   0.000000   0.000000   0.000000  -0.000001   0.000000
    22  H    0.000000   0.000000   0.000000   0.000000   0.000000   0.000000
    23  C    0.671851   0.000000  -0.000006   0.000009   0.000144   0.000033
    24  O   -0.059915   0.000000   0.000000   0.000000  -0.000001   0.000004
    25  H    0.003211   0.000000   0.000000   0.000000   0.000000   0.000000
    26  C   -0.362760  -0.000001   0.000031  -0.000061  -0.000564  -0.000249
    27  O    0.002153   0.000000   0.000000   0.000000   0.000000   0.000000
    28  C    0.007035   0.000000   0.000039  -0.000014  -0.000052  -0.000005
    29  O   -0.000210   0.000000   0.000000   0.000000   0.000000   0.000000
    30  H    0.000000   0.000000   0.000000   0.000000   0.000000   0.000000
    31  H   -0.000041   0.000000   0.000000   0.000000   0.000000   0.000000
    32  H   -0.000011   0.000000   0.000000   0.000000   0.000000   0.000000
    33  H   -0.000014   0.000000   0.000000   0.000000   0.000000   0.000000
    34  H    0.002370   0.000000  -0.000001   0.000000  -0.000003   0.000000
    35  H    0.006331   0.000000   0.000000   0.000000   0.000000   0.000000
    36  H   -0.038021   0.000000   0.000000   0.000000   0.000000   0.000000
    37  H    0.558258   0.000000   0.000000   0.000000   0.000000   0.000000
    38  H    0.000000   0.405632   0.000020  -0.000276  -0.000207  -0.011981
    39  H    0.000000   0.000020   0.569225  -0.049243  -0.004120   0.000041
    40  H    0.000000  -0.000276  -0.049243   0.597780   0.006051   0.002949
    41  H    0.000000  -0.000207  -0.004120   0.006051   0.611767   0.006031
    42  H    0.000000  -0.011981   0.000041   0.002949   0.006031   0.609300
    43  H    0.000000  -0.000109   0.000007  -0.000011   0.002671   0.006775
    44  H    0.000000   0.000016   0.000000  -0.000018  -0.000089   0.002668
    45  H    0.000042   0.000001  -0.000027  -0.000010   0.002162  -0.000042
             43         44         45
     1  O   -0.000293  -0.000026  -0.000057
     2  C   -0.018111   0.038608  -0.004343
     3  C    0.261209  -0.131717  -0.041441
     4  O   -0.028866   0.004652   0.000122
     5  H   -0.001779  -0.000185   0.000002
     6  C   -0.168959   0.346118   0.045592
     7  O    0.004481  -0.027060   0.000062
     8  H   -0.000123  -0.006465   0.000027
     9  C    0.017708   0.018223   0.022607
    10  O   -0.000449   0.000016   0.000084
    11  H    0.000001   0.000000   0.000000
    12  C    0.074885   0.061937   0.058123
    13  O    0.004945   0.006379  -0.046011
    14  C    0.060784  -0.047369   0.240610
    15  O    0.001295  -0.012196  -0.031713
    16  C    0.000479  -0.014504  -0.020101
    17  C    0.000430  -0.002114   0.018675
    18  O    0.000050   0.000142  -0.002282
    19  H   -0.000002  -0.000017   0.000511
    20  C   -0.000197   0.000082   0.007873
    21  O    0.000000   0.000000  -0.000005
    22  H    0.000000   0.000000   0.000000
    23  C    0.000238   0.001201  -0.001833
    24  O    0.000056   0.000774   0.000069
    25  H    0.000000   0.000006   0.000004
    26  C    0.000976   0.004759   0.019642
[...]
 0.00049287,0.00091283,-0.00013663,-0.00013350,-0.00009377,0.00014565,-
 0.00001301,0.00020176,-0.00000096,0.00001685,-0.00002285,-0.00002467,0
 .00002247,0.00002778,0.00006894,-0.00004006,-0.00000080,-0.00010500,0.
 00002812,0.00001445,-0.00000783,-0.00000153,-0.00000517,0.00001027,-0.
 00000646,0.00000529,-0.00000315,-0.00000025,-0.00000132,-0.00001043,0.
 00000218,-0.00000041,0.00002285,0.00000254,0.00002223,-0.00001106,0.00
 000142,0.00000598,-0.00001619,-0.00001127,-0.00000052,0.00001346,-0.00
 000539,0.00001033,-0.00001215,0.00001346,-0.00000505,0.00000513,-0.000
 00279,-0.00000120,-0.00000145,0.00000008,0.00000005,0.00000621,0.00000
 071,-0.00000156,0.00000352,0.,0.00000193,0.00000509,0.00000045,0.00000
 753,0.00000820,0.00000199,-0.00000704,0.00000806,0.00000157,0.00000561
 ,0.00000038,-0.00000052,0.00000233,0.00000484,0.00000005,-0.00000296,0
 .00105207,0.00002466,-0.00056193,0.00038583,0.00004344,0.00000313,0.00
 066800,-0.00064434,-0.00014726,0.00022244,-0.00072737,0.00089802,0.380
 88994,-0.00873403,-0.00006785,-0.00370756,-0.00743261,-0.04471538,0.00
 250708,0.03241782,0.00137610,-0.00570440,-0.00263301,0.00200077,0.0002
 4447,0.00030629,0.00006385,0.00022574,0.00112272,0.00154109,0.00176655
 ,-0.00051977,-0.00018327,0.00000993,-0.00005885,-0.00001350,0.00003397
 ,-0.00182648,0.00189704,-0.00044016,0.00040702,-0.00008111,0.00009512,
 -0.00003814,-0.00007317,-0.00001949,-0.02604806,-0.00153194,0.00326533
 ,0.00164210,0.00113659,-0.00091888,0.00038987,-0.00057756,-0.00008995,
 -0.00005962,0.00011995,-0.00004617,-0.00002109,0.00001553,-0.00001255,
 0.00000410,0.00000692,0.00000132,0.00001875,-0.00002551,-0.00000522,-0
 .00003469,0.00004817,-0.00000533,-0.00000810,0.00000030,0.00000020,0.0
 0000216,0.00000104,-0.00000255,-0.00000025,0.00000011,-0.00000006,0.00
 000373,-0.00000371,-0.00000119,-0.00001115,-0.00000268,-0.00001996,0.0
 0000636,0.00000126,-0.00000628,0.00000296,-0.00000135,0.00000713,-0.00
 000258,0.00000057,-0.00000226,0.00000176,0.00000003,0.00000433,0.00000
 138,-0.00000060,-0.00000429,0.00000010,0.00000045,0.00000082,0.0000011
 6,-0.00000069,-0.00000019,-0.00000008,0.00000062,-0.00000014,-0.000000
 34,0.00000004,-0.00000071,0.00000340,-0.00000548,0.00000778,-0.0000019
 1,0.00000090,-0.00000144,-0.00000031,0.00000051,-0.00000278,-0.0000019
 6,-0.00000032,0.00000301,-0.00058297,0.00134580,0.00024422,0.00041114,
 0.00026409,-0.00007299,0.00091116,-0.00041378,-0.00012015,-0.00137193,
 -0.00280456,0.00313485,0.01004022,0.04564124,-0.03935999,-0.00456419,-
 0.01353533,0.03329781,0.00210360,-0.04632305,0.01133573,0.00152618,-0.
 00110447,-0.00083934,-0.00035143,0.00122136,-0.00022336,-0.00078339,-0
 .00025187,0.00111833,0.00039178,0.00081528,-0.00035831,-0.00004890,-0.
 00005909,0.00002570,0.00001352,0.00000897,0.00017825,-0.00155490,0.000
 30696,-0.00013001,0.00003722,0.00015061,0.00003737,-0.00005809,0.00009
 203,0.02343700,0.00087322,-0.00108162,-0.00138732,-0.00046779,0.002218
 47,0.00046609,-0.00007561,-0.00016800,-0.00015281,-0.00000241,-0.00021
 606,0.00000576,-0.00004299,0.00002996,0.00002264,-0.00001515,-0.000012
 56,-0.00005682,0.00002174,-0.00000383,0.00008689,-0.00000652,-0.000011
 75,0.00000802,-0.00000309,0.00000900,-0.00000940,0.00000982,-0.0000107
 2,0.00000233,-0.00000049,0.00000183,0.00000813,0.00000334,0.,-0.000013
 40,-0.00000628,-0.00001257,0.00000579,0.00000071,-0.00000317,0.0000113
 3,0.00001599,0.00000744,-0.00001020,0.00000437,-0.00001897,0.00000738,
 -0.00001107,0.00001697,0.00000064,0.00000189,-0.00000946,0.00000058,0.
 00000035,0.00000225,-0.00000630,-0.00000017,0.00000199,-0.00000271,-0.
 00000003,-0.00000260,-0.00000741,-0.00000146,-0.00000914,-0.00000680,-
 0.00000112,0.00000995,-0.00000665,-0.00000317,-0.00000611,-0.00000140,
 -0.00000194,-0.00000215,-0.00000369,0.00000121,0.00000327,-0.00249947,
 0.00054748,0.00350482,-0.00014838,-0.00016000,-0.00001564,-0.00058457,
 0.00021827,0.00025954,0.00126481,0.00263189,-0.00304878,-0.02585169,0.
 00211072,0.05781809,0.00199221,0.00005892,-0.00019568,-0.02138818,0.00
 126135,0.00150190,-0.33294339,-0.04485019,0.03153725,0.00524621,-0.007
 10916,0.00816564,-0.00011256,-0.00087992,-0.00003100,-0.01844028,-0.00
 202345,-0.00247610,0.00181706,-0.00039947,-0.00004394,0.00016573,0.000
 06928,0.00015792,0.00094099,0.00032578,-0.00000801,0.00001393,-0.00001
 403,-0.00005390,-0.00000183,0.00002469,0.00000085,-0.00121873,-0.00281
 371,0.00105997,0.00046934,0.00084998,-0.00030135,-0.00160363,-0.001434
 28,0.00057744,0.00099670,0.00005531,0.00021347,0.00001319,0.00011148,-
 0.00023189,-0.00001162,-0.00001987,-0.00003502,0.00005858,0.00000602,0
 .00005817,-0.00006318,0.00000996,-0.00004594,-0.00002426,0.00001096,-0
 .00000730,0.00001880,-0.00000129,0.00001071,-0.00000661,-0.00000106,-0
 .00000445,-0.00006520,-0.00006825,0.00006587,0.00004810,0.00004709,-0.
 00009403,-0.00002087,-0.00000503,0.00001114,-0.00001591,-0.00002507,-0
 .00000552,0.00001538,0.00002724,-0.00000578,-0.00000772,-0.00001810,-0
 .00000863,0.00000469,0.00000725,0.00000509,-0.00000136,-0.00000169,-0.
 00000209,0.00000972,0.00000106,-0.00000282,0.00000407,0.00000241,0.000
 00346,0.00001401,0.00000458,0.00001291,-0.00000375,0.00000727,-0.00006
 103,0.00001541,0.00000054,0.00001069,0.00000924,0.00001127,-0.00000905
 ,0.00002008,0.00000546,-0.00001446,0.00037582,-0.00041437,-0.00029734,
 0.00000973,0.00012510,0.00001186,0.00021745,-0.00049201,-0.00006171,0.
 00210384,0.00035557,-0.00054191,-0.00020511,0.00265389,0.00096457,0.36
 043119,-0.00168343,0.00191748,0.00160532,0.03285803,-0.00309587,-0.004
 37938,-0.04889624,-0.04335459,-0.00299571,-0.02748834,-0.01968229,0.02
 413068,-0.00028465,-0.00071116,-0.00068120,-0.01482350,-0.00009776,-0.
 00113731,0.00059311,0.00099569,0.00118200,0.00015154,0.00003862,0.0000
 0017,0.00051589,0.00004411,-0.00012725,-0.00009934,0.00000646,-0.00004
 524,0.00000586,0.00002062,0.00000157,0.00343245,-0.00033685,-0.0006857
 4,-0.00044633,-0.00007194,-0.00005965,0.00057539,0.00013895,0.00131519
 ,0.00024481,-0.00013431,0.00003183,0.00007972,0.00005336,-0.00007020,0
 .00000248,-0.00000534,-0.00000487,-0.00000307,0.00000462,0.00000517,0.
 00001198,-0.00001517,0.00000783,-0.00000622,0.00000105,0.00000056,0.00
 000287,-0.00000036,-0.00000266,-0.00000164,0.00000113,-0.00000066,-0.0
 0002091,0.00001206,0.00000193,0.00003738,0.00000151,0.00005623,-0.0000
 1529,0.00000019,0.00001237,-0.00001038,0.00001630,0.00000863,0.0000084
 7,-0.00001009,-0.00000586,-0.00000395,0.00000525,-0.00000129,0.0000017
 3,-0.00000060,0.00000051,-0.00000029,-0.00000039,-0.00000051,0.0000003
 8,0.00000064,0.00000095,0.00000145,-0.00000033,0.00000061,0.00000114,0
 .00000070,0.00000088,-0.00000184,0.00000816,-0.00002765,0.00000555,-0.
 00000470,0.00000251,0.00000216,-0.00000362,0.00000467,0.00000663,0.000
 00282,-0.00000772,0.00007253,0.00021462,0.00043315,-0.00010601,0.00003
 867,0.00001290,-0.00027922,-0.00014719,0.00006418,-0.00028601,-0.00093
 184,0.00022595,0.00202261,-0.00476704,-0.00216698,0.05432650,0.0696348
 8,-0.00043006,0.00072158,0.00151864,0.01564779,-0.00212935,-0.00036908
 ,0.03202283,-0.00312384,-0.04236577,0.02596170,0.02450165,-0.01744322,
 0.00133424,0.00092676,0.00025514,-0.03596988,-0.00665120,-0.00231738,0
 .00186562,0.00125691,0.00195281,0.00001925,0.00029189,0.00003466,-0.00
 020598,-0.00008518,-0.00012634,-0.00000334,-0.00000796,0.00000528,-0.0
 0000030,-0.00000057,-0.00000065,-0.00063271,0.00231678,0.00017125,0.00
 033297,-0.00002160,-0.00006249,-0.00240643,-0.00052179,-0.00010197,0.0
 0039738,0.00007671,0.00024763,0.00020982,0.00004715,0.00008788,-0.0000
 0942,-0.00002054,0.00000085,0.00001676,0.00001842,0.00001905,-0.000029
 42,-0.00002141,-0.00002832,0.00000010,-0.00000284,0.00000876,-0.000001
 07,0.00001023,-0.00001015,-0.00000037,-0.00000057,0.00000057,-0.000016
 49,0.00001070,0.00002393,0.00003670,-0.00001160,0.00005738,-0.00000539
 ,0.00001118,0.00000500,-0.00002048,0.00000412,0.00003038,0.00000403,0.
 00000674,-0.00002268,0.00000044,-0.00001290,0.00001730,0.00000589,0.00
 000260,-0.00001244,-0.00000045,0.00000060,0.00000245,-0.00000170,0.000
 00136,-0.00000205,-0.00000011,0.00000093,-0.00000034,0.00000391,0.0000
 0202,0.00000629,0.00003202,0.00002287,-0.00008036,0.00000750,-0.000002
 16,0.00000694,0.00000073,-0.00000469,0.00000225,0.00000691,0.00000213,
 -0.00000464,-0.00007866,0.00038771,0.00014760,-0.00005800,-0.00002973,
 0.00000035,-0.00010138,0.00014320,0.00000224,-0.00056840,0.00018858,0.
 00046044,0.00087807,-0.00215956,-0.00066036,-0.03646173,-0.01433090,0.
 06468438,0.00053652,0.00011115,-0.00000282,-0.00033154,0.00088859,0.00
 045591,-0.01363225,-0.00485559,-0.00106907,0.00133203,0.00102220,-0.00
 051686,-0.00003596,0.00008303,0.00007878,-0.34733872,-0.03703089,0.010
 65224,-0.01299445,0.01302626,0.00607773,0.00046130,0.00010477,-0.00144
 168,-0.00006812,-0.00001595,0.00000700,0.00005723,0.00001515,0.0000165
 0,-0.00001304,-0.00000328,0.00000128,0.00000456,-0.00008007,0.00017378
 ,0.00167051,-0.00102181,-0.00041185,-0.01104593,-0.00117621,-0.0003495
 9,0.00142707,0.00081401,-0.00225193,0.00065442,0.00020480,0.00008059,-
 0.00000260,0.00002374,0.00001269,0.00007999,0.00000484,-0.00003610,-0.
 00012112,-0.00009062,0.00000942,-0.00003201,0.00001343,0.00002608,0.00
 001447,0.00000257,-0.00003604,-0.00000658,0.00000674,-0.00000014,-0.00
 000341,0.00021709,-0.00012404,0.00014052,-0.00012870,0.00052415,-0.000
 04074,0.00000774,0.00002815,-0.00004558,0.00011510,0.00007344,0.000035
 30,-0.00010407,-0.00003590,-0.00002421,0.00004775,0.00002059,0.0000143
 7,-0.00001402,-0.00001900,-0.00000173,0.00000159,0.00000394,0.00000335
 ,0.00000294,-0.00000099,0.00000674,-0.00000269,0.00000229,0.00000402,-
 0.00000235,0.00001574,0.00001857,0.00008562,-0.00039864,0.00002149,-0.
 00001256,0.00001319,0.00000287,-0.00004384,0.00004818,0.00000987,-0.00
 000888,-0.00002933,-0.00003482,-0.00012005,-0.00010228,0.00000796,-0.0
 0000297,-0.00001221,0.00005064,-0.00004387,-0.00001664,0.00006421,0.00
 020311,-0.00003457,0.00072005,-0.00079436,-0.00043328,0.00019916,-0.00
 078120,-0.00206923,0.37799746,0.00022105,-0.00007493,0.00001398,-0.001
 16219,0.00047292,0.00011365,-0.00891703,-0.00090493,-0.00099107,0.0007
 0171,0.00066968,-0.00064310,-0.00010838,0.00000743,0.00010022,-0.03689
 047,-0.04258936,0.00423375,0.04134929,-0.01583927,-0.00856025,0.000791
 85,0.00163882,0.00155763,-0.00008954,0.00003216,0.00002123,0.00002794,
 -0.00003306,-0.00000008,-0.00000490,0.00000052,-0.00000326,-0.00013799
 ,-0.00028646,-0.00006016,0.00151624,0.00193060,-0.00046719,-0.02757099
 ,-0.00347555,0.00294784,0.00036714,0.00067191,-0.00210957,-0.00013587,
 0.00022892,-0.00004716,0.00007216,0.00000323,-0.00009968,0.00009871,0.
 00001172,0.00004766,-0.00014146,-0.00003894,-0.00002838,-0.00004637,0.
 00002332,0.00000496,0.00001257,0.00001955,-0.00001378,-0.00000257,-0.0
 0000051,-0.00000263,-0.00006433,-0.00013905,0.00012986,-0.00023461,-0.
 00001568,-0.00038472,0.00006305,-0.00000892,-0.00007895,0.00008435,-0.
 00006336,0.00000474,-0.00001803,0.00007481,-0.00004620,0.00001453,-0.0
 0005453,0.00002044,0.00000582,0.00001564,-0.00001580,0.00000079,-0.000
 00045,0.00000172,0.00000895,0.00000351,-0.00000638,-0.00000210,0.00000
 589,0.00000008,0.00002089,-0.00001380,0.00002369,0.00019181,0.00004942
 ,-0.00010228,-0.00000009,0.00002509,0.00001593,0.00000636,0.00002347,-
 0.00003460,0.00000692,-0.00001005,0.00003213,0.00000794,0.00000852,-0.
 00001773,0.00000682,-0.00001862,-0.00000091,0.00003764,-0.00004047,-0.
 00002266,0.00013232,0.00012766,0.00000345,0.00030278,-0.00007929,-0.00
 020176,-0.00039928,-0.00006996,-0.00195255,0.03014094,0.06063828,0.000
 44599,0.00024843,-0.00006223,-0.00112317,0.00141111,0.00138965,-0.0355
 8645,-0.00728186,-0.00134661,0.00221938,0.00071992,0.00207288,0.000136
 85,-0.00018967,0.00033172,0.00579113,0.00351555,-0.04307957,0.01330796
 ,-0.00772781,0.00057062,0.00115528,0.00017629,0.00083278,0.00001682,-0
 .00001739,0.00007849,0.00000642,0.00002468,0.00001052,0.00000560,0.000
 00034,0.00000665,-0.00045329,-0.00024822,-0.00047710,-0.00143922,-0.00
 046558,0.00081396,0.02564857,0.00618503,-0.00355834,0.00077381,0.00022
 029,0.00117223,0.00036015,-0.00004798,-0.00007822,-0.00004778,0.000024
 61,0.00013507,-0.00009494,-0.00003939,-0.00006290,0.00012912,0.0000635
 2,0.00009447,0.00003836,-0.00002389,-0.00002861,-0.00001337,-0.0000264
 9,0.00003045,0.00000256,-0.00000304,0.00000257,0.00008830,0.00001524,-
 0.00006289,-0.00019108,0.00000836,-0.00003473,0.00002254,-0.00002728,-
 0.00000460,-0.00000008,-0.00004607,-0.00003391,-0.00003401,-0.00001567
 ,0.00010025,0.00000325,0.00004407,-0.00003775,-0.00001486,-0.00001019,
 0.00002576,0.00000079,-0.00000079,-0.00000434,-0.00001082,-0.00000654,
 0.00001194,-0.00000093,-0.00000381,-0.00000193,-0.00004037,0.00002065,
 -0.00003432,-0.00032485,-0.00009197,0.00003166,-0.00004120,-0.00001357
 ,-0.00005635,-0.00001374,-0.00000033,0.00000428,-0.00003528,-0.0000071
 7,0.00003296,0.00009621,-0.00007692,-0.00005841,0.00000625,-0.00002573
 ,0.00000598,0.00000593,-0.00003306,-0.00000013,0.00023290,0.00002999,-
 0.00013296,0.00067174,-0.00030478,0.00000408,-0.00261999,-0.00224371,-
 0.00557214,-0.00955631,0.00365478,0.04981710,0.00004258,-0.00009346,0.
 00019602,0.00021438,0.00047873,-0.00009152,-0.00056536,-0.00043235,-0.
 00029745,0.00035019,0.00024970,-0.00026735,-0.00002365,0.00003671,0.00
 008340,-0.00706014,0.00061746,0.00207385,0.00178928,-0.00031634,-0.000
 97963,-0.00023164,-0.00002250,-0.00002995,0.00038388,-0.00011747,0.000
 24238,0.00001224,0.00021576,0.00011820,-0.00000416,-0.00000254,0.00003
 079,-0.00068523,-0.00013196,-0.00051344,-0.00462086,0.00912970,0.00492
 670,-0.33780792,-0.00979849,0.07308009,-0.02141586,-0.00579406,-0.0069
 1193,0.00049132,-0.00079821,0.00350954,0.00022235,0.00030858,-0.000097
 58,0.00028251,0.00000108,-0.00041129,-0.00009222,-0.00033772,0.0005343
 7,-0.00016233,0.00005055,0.00004163,0.00004833,0.00003545,-0.00007409,
 -0.00000856,0.00001093,-0.00000726,-0.00030891,0.00006115,0.00005533,0
 .00013091,-0.00008430,-0.00000609,0.00000323,-0.00001157,-0.00000346,0
 .00044242,0.00023101,-0.00002695,0.00003096,-0.00009436,-0.00025845,-0
 .00000119,-0.00002020,0.00006849,0.00002974,0.00000388,-0.00006419,0.0
 0000141,0.00000225,0.00000776,0.00003594,0.00002087,-0.00003472,0.0000
 0655,0.00000710,0.00000276,0.00007391,-0.00015577,0.00011826,0.0009421
 9,0.00048612,-0.00149005,0.00008587,0.00010550,0.00022193,0.00006520,-
 0.00000605,0.00000048,0.00011769,-0.00001550,-0.00003727,0.00000689,0.
 00000098,0.00000410,-0.00000399,-0.00004198,-0.00000645,0.00003550,-0.
 00014564,-0.00010093,0.00018837,0.00037580,0.00103493,0.00003627,-0.00
 016580,-0.00019184,0.00092355,0.00027722,0.00028637,0.00023814,-0.0002
 6437,0.00047582,0.36576021,-0.00002315,0.00037801,-0.00034762,-0.00033
 223,-0.00079499,-0.00018266,-0.00121709,-0.00037554,-0.00158644,0.0005
 0223,0.00011150,0.00035005,0.00010542,-0.00014782,0.00001685,-0.023172
 52,0.00030144,0.00764907,0.00140003,0.00297126,-0.00118454,-0.00025315
 ,-0.00008459,-0.00009914,-0.00026517,0.00024282,-0.00018888,-0.0001254
 6,-0.00037843,-0.00020890,-0.00000603,0.00002133,-0.00004501,0.0037203
 9,0.00116930,0.00431122,0.03595301,-0.01697385,-0.01626397,-0.01067646
 ,-0.03919815,0.00606223,-0.01090468,0.00217459,-0.00296183,0.00075746,
 -0.00067477,0.00109738,0.00019632,-0.00031796,-0.00019755,-0.00018868,
 0.00022333,0.00072828,-0.00017383,0.00003154,-0.00131754,0.00006068,0.
 00003537,0.00012108,-0.00003173,0.00008257,-0.00008673,0.00000035,0.00
 000575,0.00000646,-0.00013201,0.00007808,-0.00006352,0.00006016,-0.000
 07441,0.00004592,-0.00000246,0.00000399,0.00000642,-0.00007853,0.00021
 426,0.00008668,-0.00000892,-0.00002856,-0.00018045,0.00000964,-0.00008
 008,0.00011969,0.00001519,0.00001778,-0.00005188,-0.00000048,0.0000015
 4,0.00001134,-0.00003158,-0.00000362,0.00000374,-0.00000834,-0.0000009
 4,-0.00001177,0.00000516,0.00002114,0.00006552,0.00025836,0.00006215,-
 0.00003827,0.00000335,-0.00003983,0.00000102,0.00003887,-0.00002095,0.
 00000647,0.00004417,-0.00002037,-0.00007548,-0.00002874,0.00001219,0.0
 0000524,0.00002644,0.00003132,0.00001165,-0.00015139,0.00012244,0.0000
 5385,-0.00130050,0.00024760,-0.00018272,0.00000965,-0.00011417,0.00001
 563,0.00061127,0.00028349,0.00013814,-0.00080918,-0.00292589,0.0026160
 3,0.00614413,0.05341013,-0.00008823,-0.00005315,-0.00029174,-0.0000199
 0,0.00023003,-0.00005919,0.00210188,0.00027176,0.00170811,-0.00072115,
 -0.00004344,-0.00015161,-0.00000080,0.00001341,-0.00001058,0.02411577,
 0.00109902,-0.00318514,-0.00219171,-0.00085756,0.00136073,-0.00016110,
 0.00009761,-0.00021671,-0.00009823,-0.00001579,0.00003807,-0.00008482,
 -0.00012484,-0.00008294,0.00001028,0.00001030,-0.00000851,0.00172928,0
 .00049195,0.00274998,0.01091840,-0.00757719,-0.00069340,0.07943531,0.0
 0883545,-0.06373722,-0.03624887,-0.00577474,-0.00873094,-0.00450165,-0
 .00193476,0.00595456,0.00035824,0.00014505,-0.00050835,0.00009724,0.00
 011985,0.00027635,-0.00016660,-0.00011396,-0.00066438,-0.00005888,0.00
 013122,0.00010802,0.00001578,0.00006509,-0.00008851,0.00000122,0.00001
 429,-0.00000310,-0.00012173,0.00010527,0.00006964,0.00005520,-0.000125
 32,0.00007048,0.00003017,-0.00000099,-0.00002440,-0.00016508,-0.000105
 97,-0.00001816,0.00010911,0.00005581,-0.00012781,-0.00000191,-0.000080
 56,0.00008031,0.00001883,0.00001843,-0.00004741,-0.00000010,0.00000283
 ,0.00000895,0.00002071,0.00001224,-0.00004599,-0.00000636,0.00000143,0
 .00000069,0.00019107,-0.00008087,0.00009077,0.00156889,0.00042111,0.00
 023630,0.00014997,0.00008097,0.00005606,0.00002454,-0.00001482,0.00000
 367,0.00003406,-0.00004229,-0.00003513,-0.00002781,0.00000177,0.000015
 49,0.00000926,0.00001509,-0.00000141,-0.00011104,0.00008431,0.00000391
 ,-0.00069036,0.00005884,-0.00012065,-0.00019610,-0.00001357,0.00008442
 ,-0.00074823,-0.00013132,-0.00056907,0.00062683,0.00296309,-0.00284803
 ,-0.07521137,0.00174493,0.06935389\\-0.00070336,-0.01026962,-0.0061860
 9,0.01083883,-0.00862847,-0.00882976,0.02027668,-0.03074079,0.01023901
 ,-0.01163138,0.02828012,0.01556481,-0.00201165,-0.02311428,-0.01499138
 ,-0.00423491,-0.01315156,0.01561923,-0.00112098,0.01449944,-0.00146921
 ,0.00957597,0.01541381,0.01671652,0.00402648,-0.00325556,0.00174795,-0
 .00587654,0.03101448,-0.01434102,0.01027769,-0.02820526,0.01535239,-0.
 00510527,0.01951713,0.00859843,-0.00184793,-0.01603572,0.01436463,-0.0
 3428076,-0.01159351,-0.03401149,-0.00370005,0.00817869,-0.01017083,0.0
 0943582,0.00598467,0.00446031,-0.00601535,0.01521215,0.03208633,0.0036
 0713,0.00007970,-0.00229789,0.00586813,0.00192349,-0.03008770,-0.00146
 759,0.02324708,-0.01820892,-0.00456709,0.00117661,-0.01649635,-0.00130
 992,-0.00765913,0.03264595,0.00928339,-0.00754343,0.00139656,-0.018873
 02,-0.02430750,-0.01247055,0.00587027,0.03136693,0.01366641,-0.0047293
 6,-0.02138121,0.00971002,-0.00439096,0.00857986,0.01249698,0.03517116,
 -0.02208728,-0.00671415,-0.01012685,0.01092927,0.01727605,-0.00238124,
 -0.00261454,-0.00239841,0.02007268,0.00189374,0.00186868,-0.01929085,-
 0.00195902,-0.00518491,-0.02177164,-0.00433139,-0.00353541,0.02045541,
 0.00345082,0.00102793,-0.02225553,-0.00296977,-0.00041825,-0.00152833,
 -0.00577279,-0.01624568,0.01953211,0.00205011,0.00031486,-0.00119663,0
 .00384634,0.00035579,0.00234575,0.00770059,-0.01695375,-0.02116553,-0.
 00028256,0.00011576,0.02028632,0.00059385,0.00173608,-0.01846526,0.000
 92983,0.00248607,0.02471533,0.00511277,-0.00178081,-0.02073393,0.00115
 370,-0.00209185,0.01914275,0.00376819,-0.00496234\\\@


 WE ARE REACHING THE STAGE WHERE THE PROBLEMS WE MUST SOLVE ARE 
 GOING TO BECOME INSOLUBLE WITHOUT COMPUTERS.
 I DO NOT FEAR COMPUTERS.  I FEAR THE LACK OF THEM.

                                   -- ISSAC ASIMOV
 Job cpu time:  1 days  7 hours 26 minutes 47.6 seconds.
 File lengths (MBytes):  RWF=   1769 Int=      0 D2E=      0 Chk=     28 Scr=      1
 Normal termination of Gaussian 09 at Mon Mar 21 22:32:48 2016.
Gaussian '09 finished on node017 at Mon Mar 21 22:32:48 EDT 2016.
