Gaussian '09 started on node014 at Fri Feb 12 10:09:58 EST 2016.
 Entering Gaussian System, Link 0=/usr/local/gaussian/g09/g09
 Initial command:
 /usr/local/gaussian/g09/l1.exe /home/srmcgrat/thesis/gaussian/cellobiose/400/6000/1/2dfp/gaussian23317/Gau-23353.inp -scrdir=/home/srmcgrat/thesis/gaussian/cellobiose/400/6000/1/2dfp/gaussian23317/
 Entering Link 1 = /usr/local/gaussian/g09/l1.exe PID=     23355.
  
 Copyright (c) 1988,1990,1992,1993,1995,1998,2003,2009,2010,
            Gaussian, Inc.  All Rights Reserved.
  
 This is part of the Gaussian(R) 09 program.  It is based on
 the Gaussian(R) 03 system (copyright 2003, Gaussian, Inc.),
 the Gaussian(R) 98 system (copyright 1998, Gaussian, Inc.),
 the Gaussian(R) 94 system (copyright 1995, Gaussian, Inc.),
 the Gaussian 92(TM) system (copyright 1992, Gaussian, Inc.),
 the Gaussian 90(TM) system (copyright 1990, Gaussian, Inc.),
 the Gaussian 88(TM) system (copyright 1988, Gaussian, Inc.),
 the Gaussian 86(TM) system (copyright 1986, Carnegie Mellon
 University), and the Gaussian 82(TM) system (copyright 1983,
 Carnegie Mellon University). Gaussian is a federally registered
 trademark of Gaussian, Inc.
  
 This software contains proprietary and confidential information,
 including trade secrets, belonging to Gaussian, Inc.
  
 This software is provided under written license and may be
 used, copied, transmitted, or stored only in accord with that
 written license.
  
 The following legend is applicable only to US Government
 contracts under FAR:
  
                    RESTRICTED RIGHTS LEGEND
  
 Use, reproduction and disclosure by the US Government is
 subject to restrictions as set forth in subparagraphs (a)
 and (c) of the Commercial Computer Software - Restricted
 Rights clause in FAR 52.227-19.
  
 Gaussian, Inc.
 340 Quinnipiac St., Bldg. 40, Wallingford CT 06492
  
  
 ---------------------------------------------------------------
 Warning -- This program may not be used in any manner that
 competes with the business of Gaussian, Inc. or will provide
 assistance to any competitor of Gaussian, Inc.  The licensee
 of this program is prohibited from giving any competitor of
 Gaussian, Inc. access to this program.  By using this program,
 the user acknowledges that Gaussian, Inc. is engaged in the
 business of creating and licensing software in the field of
 computational chemistry and represents and warrants to the
 licensee that it is not a competitor of Gaussian, Inc. and that
 it will not use this program in any manner prohibited above.
 ---------------------------------------------------------------
  

 Cite this work as:
 Gaussian 09, Revision B.01,
 M. J. Frisch, G. W. Trucks, H. B. Schlegel, G. E. Scuseria, 
 M. A. Robb, J. R. Cheeseman, G. Scalmani, V. Barone, B. Mennucci, 
 G. A. Petersson, H. Nakatsuji, M. Caricato, X. Li, H. P. Hratchian, 
 A. F. Izmaylov, J. Bloino, G. Zheng, J. L. Sonnenberg, M. Hada, 
 M. Ehara, K. Toyota, R. Fukuda, J. Hasegawa, M. Ishida, T. Nakajima, 
 Y. Honda, O. Kitao, H. Nakai, T. Vreven, J. A. Montgomery, Jr., 
 J. E. Peralta, F. Ogliaro, M. Bearpark, J. J. Heyd, E. Brothers, 
 K. N. Kudin, V. N. Staroverov, T. Keith, R. Kobayashi, J. Normand, 
 K. Raghavachari, A. Rendell, J. C. Burant, S. S. Iyengar, J. Tomasi, 
 M. Cossi, N. Rega, J. M. Millam, M. Klene, J. E. Knox, J. B. Cross, 
 V. Bakken, C. Adamo, J. Jaramillo, R. Gomperts, R. E. Stratmann, 
 O. Yazyev, A. J. Austin, R. Cammi, C. Pomelli, J. W. Ochterski, 
 R. L. Martin, K. Morokuma, V. G. Zakrzewski, G. A. Voth, 
 P. Salvador, J. J. Dannenberg, S. Dapprich, A. D. Daniels, 
 O. Farkas, J. B. Foresman, J. V. Ortiz, J. Cioslowski, 
 and D. J. Fox, Gaussian, Inc., Wallingford CT, 2010.
 
 ******************************************
 Gaussian 09:  EM64L-G09RevB.01 12-Aug-2010
                12-Feb-2016 
 ******************************************
 --------------------------------------------------
 # freq=raman b3lyp/6-31+g(2df,p) geom=connectivity
 --------------------------------------------------
 1/10=4,30=1,38=1,57=2/1,3;
 2/12=2,17=6,18=5,40=1/2;
 3/5=1,6=6,7=114,11=2,16=1,25=1,30=1,71=2,74=-5/1,2,3;
 4//1;
 5/5=2,38=5,98=1/2;
 8/6=4,10=90,11=11/1;
 10/13=10,15=4/2;
 11/6=3,8=1,9=11,15=111,16=1/1,2,10;
 10/6=1/2;
 6/7=2,8=2,9=2,10=2,18=1,28=1/1;
 7/8=1,10=1,25=1/1,2,3,16;
 1/10=4,30=1/3;
 99//99;
 ------------
 400 6000.com
 ------------
 Symbolic Z-matrix:
 Charge =  0 Multiplicity = 1
 O                     8.651     7.249     12.176 
 C                     9.285     7.571     13.422 
 C                     8.955     8.949     13.973 
 O                     9.343     9.837     12.915 
 H                     9.058     9.433     12.045 
 C                     9.672     9.247     15.279 
 O                     9.523     10.494    15.974 
 H                     9.932     10.527    16.886 
 C                     9.327     5.124     14.139 
 O                     8.914     4.583     12.876 
 H                     9.011     3.588     12.897 
 C                     8.913     6.546     14.481 
 O                     9.517     6.852     15.747 
 C                     9.266     8.166     16.267 
 O                     9.93      8.317     17.53 
 C                     9.114     8.059     18.682 
 C                     9.49      6.652     19.117 
 O                     9.431     5.661     18.081 
 H                     9.631     6.05      17.182 
 C                     8.999     6.324     20.518 
 O                     9.464     5.009     20.858 
 H                     9.297     4.876     21.835 
 C                     9.522     10.368    19.503 
 O                     10.303    10.995    18.476 
 H                     10.284    11.983    18.628 
 C                     9.815     8.896     19.739 
 O                     9.191     8.592     20.995 
 C                     9.61      7.314     21.496 
 O                     8.856     7.281     22.717 
 H                     9.45808   7.2608    23.46445 
 H                     10.66807   7.22108   21.6254 
 H                     7.93067   6.3662    20.5602 
 H                     10.54535   6.73798   19.27107 
 H                     8.06727   8.24709   18.5642 
 H                     10.86689   8.70166   19.76473 
 H                     9.69066   10.89379   20.41952 
 H                     8.48843   10.46604   19.24412 
 H                     9.3215    7.0771    11.51081 
 H                     8.94583   4.48264   14.90598 
 H                     10.39547   5.08026   14.17597 
 H                     7.85021   6.56448   14.6036 
 H                     10.34344   7.52204   13.27301 
 H                     7.89867   9.02365   14.12631 
 H                     10.71788   9.12496   15.08887 
 H                     8.21342   8.25625   16.43681 
 

 GradGradGradGradGradGradGradGradGradGradGradGradGradGradGradGradGradGrad
 Berny optimization.
 Initialization pass.
 Trust Radius=3.00D-01 FncErr=1.00D-07 GrdErr=1.00D-07
 Number of steps in this run=      2 maximum allowed number of steps=      2.
 GradGradGradGradGradGradGradGradGradGradGradGradGradGradGradGradGradGrad

                          Input orientation:                          
 ---------------------------------------------------------------------
 Center     Atomic      Atomic             Coordinates (Angstroms)
 Number     Number       Type             X           Y           Z
 ---------------------------------------------------------------------
      1          8           0        8.651000    7.249000   12.176000
      2          6           0        9.285000    7.571000   13.422000
      3          6           0        8.955000    8.949000   13.973000
      4          8           0        9.343000    9.837000   12.915000
      5          1           0        9.058000    9.433000   12.045000
      6          6           0        9.672000    9.247000   15.279000
      7          8           0        9.523000   10.494000   15.974000
      8          1           0        9.932000   10.527000   16.886000
      9          6           0        9.327000    5.124000   14.139000
     10          8           0        8.914000    4.583000   12.876000
     11          1           0        9.011000    3.588000   12.897000
     12          6           0        8.913000    6.546000   14.481000
     13          8           0        9.517000    6.852000   15.747000
     14          6           0        9.266000    8.166000   16.267000
     15          8           0        9.930000    8.317000   17.530000
     16          6           0        9.114000    8.059000   18.682000
     17          6           0        9.490000    6.652000   19.117000
     18          8           0        9.431000    5.661000   18.081000
     19          1           0        9.631000    6.050000   17.182000
     20          6           0        8.999000    6.324000   20.518000
     21          8           0        9.464000    5.009000   20.858000
     22          1           0        9.297000    4.876000   21.835000
     23          6           0        9.522000   10.368000   19.503000
     24          8           0       10.303000   10.995000   18.476000
     25          1           0       10.284000   11.983000   18.628000
     26          6           0        9.815000    8.896000   19.739000
     27          8           0        9.191000    8.592000   20.995000
     28          6           0        9.610000    7.314000   21.496000
     29          8           0        8.856000    7.281000   22.717000
     30          1           0        9.458084    7.260799   23.464454
     31          1           0       10.668074    7.221079   21.625400
     32          1           0        7.930666    6.366196   20.560203
     33          1           0       10.545353    6.737975   19.271071
     34          1           0        8.067270    8.247094   18.564202
     35          1           0       10.866889    8.701661   19.764726
     36          1           0        9.690655   10.893787   20.419517
     37          1           0        8.488430   10.466038   19.244116
     38          1           0        9.321502    7.077097   11.510811
     39          1           0        8.945832    4.482637   14.905985
     40          1           0       10.395466    5.080256   14.175968
     41          1           0        7.850208    6.564483   14.603600
     42          1           0       10.343444    7.522045   13.273006
     43          1           0        7.898675    9.023650   14.126310
     44          1           0       10.717876    9.124964   15.088867
     45          1           0        8.213423    8.256250   16.436814
 ---------------------------------------------------------------------
                    Distance matrix (angstroms):
                    1          2          3          4          5
     1  O    0.000000
     2  C    1.434627   0.000000
     3  C    2.492313   1.520324   0.000000
     4  O    2.778980   2.322750   1.434731   0.000000
     5  H    2.225459   2.326951   1.990490   1.000670   0.000000
     6  C    3.829237   2.531244   1.519384   2.458625   3.297021
     7  O    5.071017   3.887580   2.591071   3.133932   4.096216
     8  H    5.879655   4.599548   3.454010   4.073311   5.039444
     9  C    2.970853   2.550228   3.846630   4.869374   4.798404
    10  O    2.768885   3.060049   4.501894   5.271630   4.922783
    11  H    3.748648   4.026784   5.468202   6.257839   5.906957
    12  C    2.424021   1.520030   2.456468   3.669869   3.780197
    13  O    3.695890   2.444670   2.803628   4.118340   4.536193
    14  C    4.237381   2.906615   2.443818   3.746208   4.412917
    15  O    5.607297   4.224714   3.741964   4.894200   5.664898
    16  C    6.572557   5.285356   4.795004   6.039206   6.777963
    17  C    7.016966   5.772314   5.658902   6.973567   7.611424
    18  O    6.164347   5.037430   5.283293   6.643363   7.127441
    19  H    5.240042   4.070719   4.377083   5.712408   6.177523
    20  C    8.400339   7.210411   7.051921   8.382429   9.025580
    21  O    9.003094   7.867019   7.948956   9.295992   9.869427
    22  H    9.967182   8.834123   8.861001  10.206862  10.801272
    23  C    8.010726   6.697607   5.737242   6.611788   7.530690
    24  O    7.513429   6.188943   5.126425   5.760841   6.734065
    25  H    8.167359   6.896824   5.713180   6.174882   7.165296
    26  C    7.827290   6.476188   5.830023   6.904726   7.749778
    27  O    8.937002   7.642094   7.035029   8.176768   8.990410
    28  C    9.369435   8.084624   7.726434   8.948205   9.701354
    29  O   10.543042   9.309413   8.902222  10.141475  10.888686
    30  H   11.317275  10.048734   9.653539  10.860066  11.631098
    31  H    9.662325   8.326531   8.029917   9.190753   9.963383
    32  H    8.461269   7.364762   7.149222   8.514123   9.120573
    33  H    7.361369   6.041031   5.957131   7.172813   7.854393
    34  H    6.492000   5.327496   4.728623   6.005729   6.699845
    35  H    8.037982   6.634074   6.104145   7.108444   7.962481
    36  H    9.073088   7.756978   6.773549   7.586530   8.524476
    37  H    7.767498   6.550786   5.504885   6.417452   7.295125
    38  H    0.960000   1.974314   3.114598   3.096655   2.430035
    39  H    3.897756   3.443142   4.562777   5.726339   5.718733
    40  H    3.427314   2.829383   4.133197   5.032329   5.027546
    41  H    2.646332   2.113737   2.702618   3.973559   4.029093
    42  H    2.035275   1.070000   2.110443   2.547170   2.610003
    43  H    2.742095   2.127943   1.070000   2.053019   2.417324
    44  H    4.034354   2.691911   2.093766   2.668891   3.480690
    45  H    4.400063   3.272147   2.664623   4.022174   4.624508
                    6          7          8          9         10
     6  C    0.000000
     7  O    1.435352   0.000000
     8  H    2.070857   1.000057   0.000000
     9  C    4.291591   5.678252   6.091342   0.000000
    10  O    5.301120   6.701373   7.242069   1.434719   0.000000
    11  H    6.175364   7.577791   8.056679   2.000429   0.999937
    12  C    2.916897   4.264722   4.761381   1.520014   2.535625
    13  O    2.445215   3.649072   3.869777   2.368068   3.708721
    14  C    1.519717   2.360399   2.530027   3.712933   4.945773
    15  O    2.449176   2.706680   2.301921   4.696567   6.052663
    16  C    3.647344   3.664665   3.160026   5.412804   6.769949
    17  C    4.636528   4.963920   4.493145   5.209783   6.600198
    18  O    4.557267   5.273121   5.035572   3.979767   5.340543
    19  H    3.720739   4.606524   4.496860   3.195269   4.605194
    20  C    6.036885   6.189621   5.632683   6.499171   7.838270
    21  O    7.009219   7.344533   6.814993   6.721380   8.012259
    22  H    7.888435   8.121842   7.538543   7.700053   8.971969
    23  C    4.372793   3.531249   2.653690   7.504003   8.817767
    24  O    3.697901   2.668221   1.698460   7.364155   8.625721
    25  H    4.367613   3.136871   2.297478   8.253051   9.472191
    26  C    4.476075   4.100499   3.288382   6.769500   8.155645
    27  O    5.773477   5.379430   4.601868   7.684416   9.059082
    28  C    6.510870   6.372790   5.628424   7.681252   9.069023
    29  O    7.736592   7.499087   6.759797   8.857572  10.204305
    30  H    8.425699   8.158719   7.359940   9.568029  10.935355
    31  H    6.735972   6.630349   5.825189   7.889386   9.305280
    32  H    6.262777   6.372405   5.900626   6.687649   7.949447
    33  H    4.795267   5.101334   4.519013   5.516109   6.942778
    34  H    3.790452   3.725169   3.389919   5.560850   6.818958
    35  H    4.674066   4.403195   3.534536   6.842493   8.260248
    36  H    5.397886   4.466605   3.560691   8.536251   9.865793
    37  H    4.313819   3.429982   2.765560   7.436584   8.680101
    38  H    4.362405   5.624579   6.416167   3.274446   2.872337
    39  H    4.833799   6.132720   6.436405   1.070000   2.032713
    40  H    4.370565   5.770852   6.101319   1.070000   2.032713
    41  H    3.312249   4.485235   5.024416   2.114653   2.835935
    42  H    2.729527   4.098904   4.717284   2.744763   3.292250
    43  H    2.126796   2.866064   3.743042   4.153016   4.723720
    44  H    1.070000   2.021249   2.411015   4.341025   5.364717
    45  H    2.109399   2.633764   2.882981   4.041162   5.163620
                   11         12         13         14         15
    11  H    0.000000
    12  C    3.356847   0.000000
    13  O    4.362595   1.435691   0.000000
    14  C    5.690343   2.436966   1.435269   0.000000
    15  O    6.683763   3.669759   2.344330   1.434875   0.000000
    16  C    7.312091   4.469672   3.198982   2.422143   1.435104
    17  C    6.950247   4.672971   3.376037   3.234945   2.341878
    18  O    5.598891   3.743200   2.621723   3.097232   2.758068
    19  H    4.980670   2.838475   1.647855   2.334075   2.312962
    20  C    8.097251   6.041693   4.827996   4.640609   3.710385
    21  O    8.099504   6.582712   5.433395   5.575225   4.715464
    22  H    9.034854   7.551005   6.404430   6.467433   5.547449
    23  C    9.479913   6.340272   5.144883   3.922504   2.875029
    24  O    9.362593   6.138870   5.022916   3.736080   2.864564
    25  H   10.244067   6.974111   5.934274   4.602188   3.843238
    26  C    8.696795   5.829465   4.494753   3.590137   2.286514
    27  O    9.521030   6.833418   5.538536   4.747745   3.553586
    28  C    9.390670   7.091252   5.768283   5.309113   4.103360
    29  O   10.492601   8.268928   7.014404   6.523329   5.397383
    30  H   11.196446   9.028316   7.728498   7.256695   6.046156
    31  H    9.598444   7.387724   6.001398   5.618820   4.303266
    32  H    8.222541   6.160683   5.091108   4.842933   4.121299
    33  H    7.273608   5.064209   3.672818   3.563768   2.429673
    34  H    7.396957   4.503501   3.461883   2.592425   2.131719
    35  H    8.761251   6.031776   4.624454   3.883795   2.453513
    36  H   10.508317   7.400945   6.180503   4.986437   3.878972
    37  H    9.373706   6.183383   5.133132   3.841616   3.103979
    38  H    3.767191   3.044826   4.246668   4.879562   6.175619
    39  H    2.200146   2.106930   2.578259   3.939801   4.749356
    40  H    2.404025   2.106930   2.525652   3.894858   4.684303
    41  H    3.622067   1.070000   2.041624   2.708547   3.995081
    42  H    4.170551   2.111417   2.693068   3.246470   4.350274
    43  H    5.682848   2.700631   3.156212   2.680988   4.026257
    44  H    6.194811   3.205953   2.653603   2.101322   2.689365
    45  H    5.912611   2.690645   2.036437   1.070000   2.036022
                   16         17         18         19         20
    16  C    0.000000
    17  C    1.519951   0.000000
    18  O    2.492407   1.434872   0.000000
    19  H    2.559955   2.031381   0.999761   0.000000
    20  C    2.528704   1.520351   2.562257   3.406376   0.000000
    21  O    3.762974   2.393994   2.852704   3.824205   1.435636
    22  H    4.484015   3.252530   3.837538   4.810430   1.979898
    23  C    2.484348   3.736131   4.917948   4.903473   4.202105
    24  O    3.174311   4.464695   5.419222   5.155487   5.261979
    25  H    4.095069   5.411942   6.402695   6.141483   6.103082
    26  C    1.519611   2.351179   3.655358   3.830381   2.808537
    27  O    2.374866   2.716594   4.140019   4.603730   2.325557
    28  C    2.952903   2.472304   3.798246   4.495412   1.519837
    29  O    4.117411   3.709123   4.944443   5.722955   2.402478
    30  H    4.860800   4.389989   5.616196   6.400403   3.125690
    31  H    3.432326   2.829095   4.065338   4.710706   2.194743
    32  H    2.791686   2.143838   2.982407   3.795177   1.070000
    33  H    2.034916   1.070000   1.953952   2.381926   2.029141
    34  H    1.070000   2.207730   2.963297   3.030340   2.895468
    35  H    2.158224   2.552740   3.760629   3.902461   3.116040
    36  H    3.374539   4.441798   5.737434   5.826435   4.622882
    37  H    2.549734   3.945401   5.032859   5.005915   4.363478
    38  H    7.241074   7.619922   6.721957   5.771751   9.044370
    39  H    5.203551   4.768113   3.421206   2.847161   5.906620
    40  H    5.551521   5.263463   4.064078   3.249775   6.611988
    41  H    4.523727   4.802849   3.925239   3.175541   6.029733
    42  H    5.572887   5.969725   5.235728   4.237302   7.465439
    43  H    4.812679   5.750133   5.412486   4.602259   7.025135
    44  H    4.076678   4.883553   4.754783   3.875295   6.346292
    45  H    2.427099   3.374414   3.304719   2.726237   4.583318
                   21         22         23         24         25
    21  O    0.000000
    22  H    1.000053   0.000000
    23  C    5.527954   5.970839   0.000000
    24  O    6.496926   7.052452   1.434510   0.000000
    25  H    7.367630   7.859292   1.988591   0.999804   0.000000
    26  C    4.060065   4.563106   1.519319   2.497822   3.314189
    27  O    3.595996   3.811232   2.343032   3.654629   4.277408
    28  C    2.396119   2.481277   3.647836   4.811487   5.520803
    29  O    2.997921   2.599313   4.505876   5.820110   6.392801
    30  H    3.444449   2.892807   5.035067   6.288308   6.809744
    31  H    2.632868   2.724550   3.964994   4.928943   5.639841
    32  H    2.069246   2.390118   4.434462   5.603365   6.389059
    33  H    2.583993   3.405740   3.778640   4.337411   5.290759
    34  H    4.206854   4.855371   2.737850   3.543622   4.344532
    35  H    4.098669   4.624529   2.157293   2.690388   3.521234
    36  H    5.905452   6.194540   1.070000   2.040213   2.178985
    37  H    5.773701   6.214096   1.070000   2.040213   2.429989
    38  H    9.574303  10.556245   8.645538   8.051532   8.697625
    39  H    5.997670   6.949051   7.490128   7.549687   8.479359
    40  H    6.747018   7.740098   7.556484   7.313208   8.214675
    41  H    6.643898   7.565536   6.423843   6.375042   7.174920
    42  H    8.038716   9.022435   6.898337   6.255733   6.969908
    43  H    7.992703   8.864661   5.775055   5.346663   5.891752
    44  H    7.196962   8.098327   4.739180   3.891250   4.569691
    45  H    5.626319   6.460700   3.946310   4.003169   4.793459
                   26         27         28         29         30
    26  C    0.000000
    27  O    1.435036   0.000000
    28  C    2.373141   1.435216   0.000000
    29  O    3.520851   2.190030   1.435425   0.000000
    30  H    4.084149   2.818090   1.975024   0.960000   0.000000
    31  H    2.663006   2.111534   1.070000   2.116316   2.201766
    32  H    3.259601   2.594551   2.143411   2.518905   3.401175
    33  H    2.325821   2.871169   2.481330   3.875979   4.363479
    34  H    2.203586   2.700094   3.441819   4.336031   5.188411
    35  H    1.070000   2.081875   2.550036   3.844200   4.212932
    36  H    2.114171   2.424677   3.739010   4.362030   4.745981
    37  H    2.114171   2.659176   4.032896   4.726574   5.387489
    38  H    8.441271   9.605301   9.992165  11.217707  11.955835
    39  H    6.602368   7.350039   7.203196   8.297642   9.012656
    40  H    6.770832   7.764166   7.693467   8.953349   9.586939
    41  H    5.972329   6.838022   7.152889   8.206843   9.032433
    42  H    6.631447   7.880490   8.258260   9.563452  10.233167
    43  H    5.932191   7.002523   7.756537   8.817781   9.630178
    44  H    4.742504   6.123545   6.749691   8.065680   8.672522
    45  H    3.725421   4.673911   5.332319   6.387860   7.206097
                   31         32         33         34         35
    31  H    0.000000
    32  H    3.059228   0.000000
    33  H    2.406515   2.938821   0.000000
    34  H    4.145820   2.745989   2.986302   0.000000
    35  H    2.386159   3.835177   2.050157   3.079896   0.000000
    36  H    3.987265   4.859674   4.395476   3.616982   2.572488
    37  H    4.577240   4.341876   4.257947   2.358680   3.006847
    38  H   10.204847   9.183208   7.863489   7.258948   8.553044
    39  H    7.457595   6.045539   5.167107   5.322177   6.715504
    40  H    7.755738   6.963285   5.360091   5.891176   6.676154
    41  H    7.594549   5.960445   5.392513   4.308674   6.348632
    42  H    8.364117   7.762778   6.052464   5.805465   6.618755
    43  H    8.194827   6.961182   6.220755   4.508476   6.380103
    44  H    6.808342   6.731631   4.818539   4.458063   4.697345
    45  H    5.832523   4.544733   3.971911   2.132423   4.279518
                   36         37         38         39         40
    36  H    0.000000
    37  H    1.734901   0.000000
    38  H    9.698889   8.484276   0.000000
    39  H    8.488618   7.404707   4.289470   0.000000
    40  H    8.560128   7.637379   3.499120   1.729598   0.000000
    41  H    7.480309   6.096216   3.463066   2.371900   2.977270
    42  H    7.928896   6.911030   2.085109   3.722625   2.603916
    43  H    6.805370   5.349788   3.557294   4.724958   4.667632
    44  H    5.709619   4.902551   4.352713   4.972402   4.158966
    45  H    5.000074   3.583258   5.184954   4.137634   4.467625
                   41         42         43         44         45
    41  H    0.000000
    42  H    2.983896   0.000000
    43  H    2.505525   2.993300   0.000000
    44  H    3.874929   2.450898   2.980718   0.000000
    45  H    2.520848   3.884035   2.454872   2.973871   0.000000
 Stoichiometry    C12H22O11
 Framework group  C1[X(C12H22O11)]
 Deg. of freedom   129
 Full point group                 C1      NOp   1
 Largest Abelian subgroup         C1      NOp   1
 Largest concise Abelian subgroup C1      NOp   1
                         Standard orientation:                         
 ---------------------------------------------------------------------
 Center     Atomic      Atomic             Coordinates (Angstroms)
 Number     Number       Type             X           Y           Z
 ---------------------------------------------------------------------
      1          8           0       -5.019640   -0.346674    0.502573
      2          6           0       -3.740964   -0.018164   -0.058877
      3          6           0       -3.150619    1.299820    0.416302
      4          8           0       -4.160321    2.262168    0.080387
      5          1           0       -5.054319    1.869152    0.298671
      6          6           0       -1.810010    1.609708   -0.228108
      7          8           0       -1.074413    2.808290    0.059180
      8          1           0       -0.148026    2.841994   -0.316034
      9          6           0       -3.115160   -2.477827   -0.308053
     10          8           0       -4.411266   -3.003046    0.012373
     11          1           0       -4.424187   -3.984806   -0.176982
     12          6           0       -2.734837   -1.115367    0.248276
     13          8           0       -1.437841   -0.806367   -0.284196
     14          6           0       -0.878081    0.456524    0.105384
     15          8           0        0.412215    0.617002   -0.501452
     16          6           0        1.524388    0.237947    0.322509
     17          6           0        1.919269   -1.144655   -0.170169
     18          8           0        0.845419   -2.093979   -0.237147
     19          1           0       -0.030796   -1.651946   -0.427877
     20          6           0        3.288895   -1.573344    0.331643
     21          8           0        3.595474   -2.852315   -0.243940
     22          1           0        4.560339   -3.039770   -0.059542
     23          6           0        2.445174    2.539576    0.159287
     24          8           0        1.470439    3.277420   -0.591244
     25          1           0        1.658606    4.252420   -0.474724
     26          6           0        2.635968    1.092696   -0.263163
     27          8           0        3.857018    0.681446    0.368690
     28          6           0        4.324157   -0.571512   -0.152580
     29          8           0        5.515849   -0.723777    0.632997
     30          1           0        6.282688   -0.718431    0.055477
     31          1           0        4.487034   -0.571169   -1.210111
     32          1           0        3.295133   -1.632069    1.400012
     33          1           0        2.113396   -0.967587   -1.207407
     34          1           0        1.377063    0.332869    1.378059
     35          1           0        2.691290    0.995777   -1.327328
     36          1           0        3.386109    3.041086    0.069681
     37          1           0        2.154035    2.551851    1.188844
     38          1           0       -5.666865   -0.428562   -0.201695
     39          1           0       -2.386604   -3.182355    0.035089
     40          1           0       -3.042384   -2.423843   -1.374209
     41          1           0       -2.649003   -1.200434    1.311430
     42          1           0       -3.854453    0.037256   -1.121397
     43          1           0       -3.031783    1.269984    1.479264
     44          1           0       -1.967763    1.592928   -1.286282
     45          1           0       -0.742047    0.441886    1.166600
 ---------------------------------------------------------------------
 Rotational constants (GHZ):      0.4212634      0.1462754      0.1112268
 Standard basis: 6-31+G(2df,p) (6D, 7F)
 There are   846 symmetry adapted basis functions of A   symmetry.
 Integral buffers will be    131072 words long.
 Raffenetti 2 integral format.
 Two-electron integral symmetry is turned on.
   846 basis functions,  1258 primitive gaussians,   915 cartesian basis functions
    91 alpha electrons       91 beta electrons
       nuclear repulsion energy      2301.7051791862 Hartrees.
 NAtoms=   45 NActive=   45 NUniq=   45 SFac= 1.00D+00 NAtFMM=   50 NAOKFM=F Big=F
 One-electron integrals computed using PRISM.
 NBasis=   846 RedAO= T  NBF=   846
 NBsUse=   846 1.00D-06 NBFU=   846
 Harris functional with IExCor=  402 diagonalized for initial guess.
 ExpMin= 4.38D-02 ExpMax= 5.48D+03 ExpMxC= 8.25D+02 IAcc=2 IRadAn=         0 AccDes= 0.00D+00
 HarFok:  IExCor=  402 AccDes= 0.00D+00 IRadAn=         0 IDoV= 1
 ScaDFX=  1.000000  1.000000  1.000000  1.000000
 FoFCou: FMM=F IPFlag=           0 FMFlag=      100000 FMFlg1=           0
         NFxFlg=           0 DoJE=T BraDBF=F KetDBF=T FulRan=T
         Omega=  0.000000  0.000000  1.000000  0.000000  0.000000 ICntrl=     500 IOpCl=  0
         NMat0=    1 NMatS0=    1 NMatT0=    0 NMatD0=    1 NMtDS0=    0 NMtDT0=    0
         I1Cent=           4 NGrid=           0.
 Petite list used in FoFCou.
 Initial guess orbital symmetries:
       Occupied  (A) (A) (A) (A) (A) (A) (A) (A) (A) (A) (A) (A)
                 (A) (A) (A) (A) (A) (A) (A) (A) (A) (A) (A) (A)
                 (A) (A) (A) (A) (A) (A) (A) (A) (A) (A) (A) (A)
                 (A) (A) (A) (A) (A) (A) (A) (A) (A) (A) (A) (A)
                 (A) (A) (A) (A) (A) (A) (A) (A) (A) (A) (A) (A)
                 (A) (A) (A) (A) (A) (A) (A) (A) (A) (A) (A) (A)
                 (A) (A) (A) (A) (A) (A) (A) (A) (A) (A) (A) (A)
                 (A) (A) (A) (A) (A) (A) (A)
       Virtual   (A) (A) (A) (A) (A) (A) (A) (A) (A) (A) (A) (A)
                 (A) (A) (A) (A) (A) (A) (A) (A) (A) (A) (A) (A)
                 (A) (A) (A) (A) (A) (A) (A) (A) (A) (A) (A) (A)
                 (A) (A) (A) (A) (A) (A) (A) (A) (A) (A) (A) (A)
                 (A) (A) (A) (A) (A) (A) (A) (A) (A) (A) (A) (A)
                 (A) (A) (A) (A) (A) (A) (A) (A) (A) (A) (A) (A)
                 (A) (A) (A) (A) (A) (A) (A) (A) (A) (A) (A) (A)
                 (A) (A) (A) (A) (A) (A) (A) (A) (A) (A) (A) (A)
                 (A) (A) (A) (A) (A) (A) (A) (A) (A) (A) (A) (A)
                 (A) (A) (A) (A) (A) (A) (A) (A) (A) (A) (A) (A)
                 (A) (A) (A) (A) (A) (A) (A) (A) (A) (A) (A) (A)
                 (A) (A) (A) (A) (A) (A) (A) (A) (A) (A) (A) (A)
                 (A) (A) (A) (A) (A) (A) (A) (A) (A) (A) (A) (A)
                 (A) (A) (A) (A) (A) (A) (A) (A) (A) (A) (A) (A)
                 (A) (A) (A) (A) (A) (A) (A) (A) (A) (A) (A) (A)
                 (A) (A) (A) (A) (A) (A) (A) (A) (A) (A) (A) (A)
                 (A) (A) (A) (A) (A) (A) (A) (A) (A) (A) (A) (A)
                 (A) (A) (A) (A) (A) (A) (A) (A) (A) (A) (A) (A)
                 (A) (A) (A) (A) (A) (A) (A) (A) (A) (A) (A) (A)
                 (A) (A) (A) (A) (A) (A) (A) (A) (A) (A) (A) (A)
                 (A) (A) (A) (A) (A) (A) (A) (A) (A) (A) (A) (A)
                 (A) (A) (A) (A) (A) (A) (A) (A) (A) (A) (A) (A)
                 (A) (A) (A) (A) (A) (A) (A) (A) (A) (A) (A) (A)
                 (A) (A) (A) (A) (A) (A) (A) (A) (A) (A) (A) (A)
                 (A) (A) (A) (A) (A) (A) (A) (A) (A) (A) (A) (A)
                 (A) (A) (A) (A) (A) (A) (A) (A) (A) (A) (A) (A)
                 (A) (A) (A) (A) (A) (A) (A) (A) (A) (A) (A) (A)
                 (A) (A) (A) (A) (A) (A) (A) (A) (A) (A) (A) (A)
                 (A) (A) (A) (A) (A) (A) (A) (A) (A) (A) (A) (A)
                 (A) (A) (A) (A) (A) (A) (A) (A) (A) (A) (A) (A)
                 (A) (A) (A) (A) (A) (A) (A) (A) (A) (A) (A) (A)
                 (A) (A) (A) (A) (A) (A) (A) (A) (A) (A) (A) (A)
                 (A) (A) (A) (A) (A) (A) (A) (A) (A) (A) (A) (A)
                 (A) (A) (A) (A) (A) (A) (A) (A) (A) (A) (A) (A)
                 (A) (A) (A) (A) (A) (A) (A) (A) (A) (A) (A) (A)
                 (A) (A) (A) (A) (A) (A) (A) (A) (A) (A) (A) (A)
                 (A) (A) (A) (A) (A) (A) (A) (A) (A) (A) (A) (A)
                 (A) (A) (A) (A) (A) (A) (A) (A) (A) (A) (A) (A)
                 (A) (A) (A) (A) (A) (A) (A) (A) (A) (A) (A) (A)
                 (A) (A) (A) (A) (A) (A) (A) (A) (A) (A) (A) (A)
                 (A) (A) (A) (A) (A) (A) (A) (A) (A) (A) (A) (A)
                 (A) (A) (A) (A) (A) (A) (A) (A) (A) (A) (A) (A)
                 (A) (A) (A) (A) (A) (A) (A) (A) (A) (A) (A) (A)
                 (A) (A) (A) (A) (A) (A) (A) (A) (A) (A) (A) (A)
                 (A) (A) (A) (A) (A) (A) (A) (A) (A) (A) (A) (A)
                 (A) (A) (A) (A) (A) (A) (A) (A) (A) (A) (A) (A)
                 (A) (A) (A) (A) (A) (A) (A) (A) (A) (A) (A) (A)
                 (A) (A) (A) (A) (A) (A) (A) (A) (A) (A) (A) (A)
                 (A) (A) (A) (A) (A) (A) (A) (A) (A) (A) (A) (A)
                 (A) (A) (A) (A) (A) (A) (A) (A) (A) (A) (A) (A)
                 (A) (A) (A) (A) (A) (A) (A) (A) (A) (A) (A) (A)
                 (A) (A) (A) (A) (A) (A) (A) (A) (A) (A) (A) (A)
                 (A) (A) (A) (A) (A) (A) (A) (A) (A) (A) (A) (A)
                 (A) (A) (A) (A) (A) (A) (A) (A) (A) (A) (A) (A)
                 (A) (A) (A) (A) (A) (A) (A) (A) (A) (A) (A) (A)
                 (A) (A) (A) (A) (A) (A) (A) (A) (A) (A) (A) (A)
                 (A) (A) (A) (A) (A) (A) (A) (A) (A) (A) (A) (A)
                 (A) (A) (A) (A) (A) (A) (A) (A) (A) (A) (A) (A)
                 (A) (A) (A) (A) (A) (A) (A) (A) (A) (A) (A) (A)
                 (A) (A) (A) (A) (A) (A) (A) (A) (A) (A) (A) (A)
                 (A) (A) (A) (A) (A) (A) (A) (A) (A) (A) (A) (A)
                 (A) (A) (A) (A) (A) (A) (A) (A) (A) (A) (A) (A)
                 (A) (A) (A) (A) (A) (A) (A) (A) (A) (A) (A)
 The electronic state of the initial guess is 1-A.
 Requested convergence on RMS density matrix=1.00D-08 within 128 cycles.
 Requested convergence on MAX density matrix=1.00D-06.
 Requested convergence on             energy=1.00D-06.
 No special actions if energy rises.
 SCF Done:  E(RB3LYP) =  -1297.99552551     A.U. after   13 cycles
             Convg  =    0.4209D-08             -V/T =  2.0064
 Range of M.O.s used for correlation:     1   846
 NBasis=   846 NAE=    91 NBE=    91 NFC=     0 NFV=     0
 NROrb=    846 NOA=    91 NOB=    91 NVA=   755 NVB=   755

 **** Warning!!: The largest alpha MO coefficient is  0.67322620D+02

          Differentiating once with respect to electric field.
                with respect to dipole field.
          Electric field/nuclear overlap derivatives assumed to be zero.
          There are     3 degrees of freedom in the 1st order CPHF.  IDoFFX=0.
      3 vectors produced by pass  0 Test12= 2.29D-12 3.33D-08 XBig12= 1.25D+02 1.20D+00.
 AX will form     3 AO Fock derivatives at one time.
      3 vectors produced by pass  1 Test12= 2.29D-12 3.33D-08 XBig12= 2.46D+01 3.82D-01.
      3 vectors produced by pass  2 Test12= 2.29D-12 3.33D-08 XBig12= 1.02D+01 1.97D-01.
      3 vectors produced by pass  3 Test12= 2.29D-12 3.33D-08 XBig12= 1.27D+00 8.51D-02.
      3 vectors produced by pass  4 Test12= 2.29D-12 3.33D-08 XBig12= 4.00D-01 4.82D-02.
      3 vectors produced by pass  5 Test12= 2.29D-12 3.33D-08 XBig12= 6.32D-02 2.18D-02.
      3 vectors produced by pass  6 Test12= 2.29D-12 3.33D-08 XBig12= 2.47D-02 1.81D-02.
      3 vectors produced by pass  7 Test12= 2.29D-12 3.33D-08 XBig12= 3.43D-03 8.76D-03.
      3 vectors produced by pass  8 Test12= 2.29D-12 3.33D-08 XBig12= 8.04D-04 3.53D-03.
      3 vectors produced by pass  9 Test12= 2.29D-12 3.33D-08 XBig12= 1.64D-04 1.93D-03.
      3 vectors produced by pass 10 Test12= 2.29D-12 3.33D-08 XBig12= 3.76D-05 7.28D-04.
      3 vectors produced by pass 11 Test12= 2.29D-12 3.33D-08 XBig12= 1.04D-05 4.69D-04.
      3 vectors produced by pass 12 Test12= 2.29D-12 3.33D-08 XBig12= 1.49D-06 1.49D-04.
      3 vectors produced by pass 13 Test12= 2.29D-12 3.33D-08 XBig12= 3.90D-07 6.51D-05.
      3 vectors produced by pass 14 Test12= 2.29D-12 3.33D-08 XBig12= 4.49D-08 2.34D-05.
      3 vectors produced by pass 15 Test12= 2.29D-12 3.33D-08 XBig12= 6.18D-09 8.29D-06.
      3 vectors produced by pass 16 Test12= 2.29D-12 3.33D-08 XBig12= 1.77D-09 3.43D-06.
      3 vectors produced by pass 17 Test12= 2.29D-12 3.33D-08 XBig12= 2.16D-10 1.13D-06.
      3 vectors produced by pass 18 Test12= 2.29D-12 3.33D-08 XBig12= 5.87D-11 3.89D-07.
      3 vectors produced by pass 19 Test12= 2.29D-12 3.33D-08 XBig12= 1.20D-11 2.24D-07.
      3 vectors produced by pass 20 Test12= 2.29D-12 3.33D-08 XBig12= 4.96D-12 1.74D-07.
      2 vectors produced by pass 21 Test12= 2.29D-12 3.33D-08 XBig12= 1.31D-12 8.04D-08.
 Inverted reduced A of dimension    65 with in-core refinement.
 End of Minotr Frequency-dependent properties file   721 does not exist.
 End of Minotr Frequency-dependent properties file   722 does not exist.
 Symmetrizing basis deriv contribution to polar:
 IMax=3 JMax=2 DiffMx= 0.00D+00
 G2DrvN: will do     8 centers at a time, making    6 passes doing MaxLOS=3.
 Calling FoFCou, ICntrl=  3107 FMM=F I1Cent=   0 AccDes= 0.00D+00.
 Calling FoFCou, ICntrl=  3107 FMM=F I1Cent=   0 AccDes= 0.00D+00.
 Calling FoFCou, ICntrl=  3107 FMM=F I1Cent=   0 AccDes= 0.00D+00.
 Calling FoFCou, ICntrl=  3107 FMM=F I1Cent=   0 AccDes= 0.00D+00.
 Calling FoFCou, ICntrl=  3107 FMM=F I1Cent=   0 AccDes= 0.00D+00.
 Calling FoFCou, ICntrl=  3107 FMM=F I1Cent=   0 AccDes= 0.00D+00.
 FoFDir/FoFCou used for L=0 through L=3.
 End of G2Drv Frequency-dependent properties file   721 does not exist.
 End of G2Drv Frequency-dependent properties file   722 does not exist.
          IDoAtm=111111111111111111111111111111111111111111111
          Differentiating once with respect to electric field.
                with respect to dipole field.
          Differentiating once with respect to nuclear coordinates.
          There are   138 degrees of freedom in the 1st order CPHF.  IDoFFX=5.
 Will reuse    3 saved solutions.
    135 vectors produced by pass  0 Test12= 6.87D-14 1.00D-09 XBig12= 1.59D-01 8.04D-02.
 AX will form    27 AO Fock derivatives at one time.
    135 vectors produced by pass  1 Test12= 6.87D-14 1.00D-09 XBig12= 2.39D-02 1.19D-02.
    132 vectors produced by pass  2 Test12= 6.87D-14 1.00D-09 XBig12= 1.84D-04 1.44D-03.
    132 vectors produced by pass  3 Test12= 6.87D-14 1.00D-09 XBig12= 9.70D-07 7.08D-05.
    132 vectors produced by pass  4 Test12= 6.87D-14 1.00D-09 XBig12= 2.19D-09 2.36D-06.
    132 vectors produced by pass  5 Test12= 6.87D-14 1.00D-09 XBig12= 4.86D-12 1.27D-07.
     93 vectors produced by pass  6 Test12= 6.87D-14 1.00D-09 XBig12= 2.05D-13 2.70D-08.
      1 vectors produced by pass  7 Test12= 6.87D-14 1.00D-09 XBig12= 4.48D-16 1.12D-09.
 Inverted reduced A of dimension   892 with in-core refinement.
 Isotropic polarizability for W=    0.000000      191.38 Bohr**3.
 End of Minotr Frequency-dependent properties file   721 does not exist.
 End of Minotr Frequency-dependent properties file   722 does not exist.

 **********************************************************************

            Population analysis using the SCF density.

 **********************************************************************

 Orbital symmetries:
       Occupied  (A) (A) (A) (A) (A) (A) (A) (A) (A) (A) (A) (A)
                 (A) (A) (A) (A) (A) (A) (A) (A) (A) (A) (A) (A)
                 (A) (A) (A) (A) (A) (A) (A) (A) (A) (A) (A) (A)
                 (A) (A) (A) (A) (A) (A) (A) (A) (A) (A) (A) (A)
                 (A) (A) (A) (A) (A) (A) (A) (A) (A) (A) (A) (A)
                 (A) (A) (A) (A) (A) (A) (A) (A) (A) (A) (A) (A)
                 (A) (A) (A) (A) (A) (A) (A) (A) (A) (A) (A) (A)
                 (A) (A) (A) (A) (A) (A) (A)
       Virtual   (A) (A) (A) (A) (A) (A) (A) (A) (A) (A) (A) (A)
                 (A) (A) (A) (A) (A) (A) (A) (A) (A) (A) (A) (A)
                 (A) (A) (A) (A) (A) (A) (A) (A) (A) (A) (A) (A)
                 (A) (A) (A) (A) (A) (A) (A) (A) (A) (A) (A) (A)
                 (A) (A) (A) (A) (A) (A) (A) (A) (A) (A) (A) (A)
                 (A) (A) (A) (A) (A) (A) (A) (A) (A) (A) (A) (A)
                 (A) (A) (A) (A) (A) (A) (A) (A) (A) (A) (A) (A)
                 (A) (A) (A) (A) (A) (A) (A) (A) (A) (A) (A) (A)
                 (A) (A) (A) (A) (A) (A) (A) (A) (A) (A) (A) (A)
                 (A) (A) (A) (A) (A) (A) (A) (A) (A) (A) (A) (A)
                 (A) (A) (A) (A) (A) (A) (A) (A) (A) (A) (A) (A)
                 (A) (A) (A) (A) (A) (A) (A) (A) (A) (A) (A) (A)
                 (A) (A) (A) (A) (A) (A) (A) (A) (A) (A) (A) (A)
                 (A) (A) (A) (A) (A) (A) (A) (A) (A) (A) (A) (A)
                 (A) (A) (A) (A) (A) (A) (A) (A) (A) (A) (A) (A)
                 (A) (A) (A) (A) (A) (A) (A) (A) (A) (A) (A) (A)
                 (A) (A) (A) (A) (A) (A) (A) (A) (A) (A) (A) (A)
                 (A) (A) (A) (A) (A) (A) (A) (A) (A) (A) (A) (A)
                 (A) (A) (A) (A) (A) (A) (A) (A) (A) (A) (A) (A)
                 (A) (A) (A) (A) (A) (A) (A) (A) (A) (A) (A) (A)
                 (A) (A) (A) (A) (A) (A) (A) (A) (A) (A) (A) (A)
                 (A) (A) (A) (A) (A) (A) (A) (A) (A) (A) (A) (A)
                 (A) (A) (A) (A) (A) (A) (A) (A) (A) (A) (A) (A)
                 (A) (A) (A) (A) (A) (A) (A) (A) (A) (A) (A) (A)
                 (A) (A) (A) (A) (A) (A) (A) (A) (A) (A) (A) (A)
                 (A) (A) (A) (A) (A) (A) (A) (A) (A) (A) (A) (A)
                 (A) (A) (A) (A) (A) (A) (A) (A) (A) (A) (A) (A)
                 (A) (A) (A) (A) (A) (A) (A) (A) (A) (A) (A) (A)
                 (A) (A) (A) (A) (A) (A) (A) (A) (A) (A) (A) (A)
                 (A) (A) (A) (A) (A) (A) (A) (A) (A) (A) (A) (A)
                 (A) (A) (A) (A) (A) (A) (A) (A) (A) (A) (A) (A)
                 (A) (A) (A) (A) (A) (A) (A) (A) (A) (A) (A) (A)
                 (A) (A) (A) (A) (A) (A) (A) (A) (A) (A) (A) (A)
                 (A) (A) (A) (A) (A) (A) (A) (A) (A) (A) (A) (A)
                 (A) (A) (A) (A) (A) (A) (A) (A) (A) (A) (A) (A)
                 (A) (A) (A) (A) (A) (A) (A) (A) (A) (A) (A) (A)
                 (A) (A) (A) (A) (A) (A) (A) (A) (A) (A) (A) (A)
                 (A) (A) (A) (A) (A) (A) (A) (A) (A) (A) (A) (A)
                 (A) (A) (A) (A) (A) (A) (A) (A) (A) (A) (A) (A)
                 (A) (A) (A) (A) (A) (A) (A) (A) (A) (A) (A) (A)
                 (A) (A) (A) (A) (A) (A) (A) (A) (A) (A) (A) (A)
                 (A) (A) (A) (A) (A) (A) (A) (A) (A) (A) (A) (A)
                 (A) (A) (A) (A) (A) (A) (A) (A) (A) (A) (A) (A)
                 (A) (A) (A) (A) (A) (A) (A) (A) (A) (A) (A) (A)
                 (A) (A) (A) (A) (A) (A) (A) (A) (A) (A) (A) (A)
                 (A) (A) (A) (A) (A) (A) (A) (A) (A) (A) (A) (A)
                 (A) (A) (A) (A) (A) (A) (A) (A) (A) (A) (A) (A)
                 (A) (A) (A) (A) (A) (A) (A) (A) (A) (A) (A) (A)
                 (A) (A) (A) (A) (A) (A) (A) (A) (A) (A) (A) (A)
                 (A) (A) (A) (A) (A) (A) (A) (A) (A) (A) (A) (A)
                 (A) (A) (A) (A) (A) (A) (A) (A) (A) (A) (A) (A)
                 (A) (A) (A) (A) (A) (A) (A) (A) (A) (A) (A) (A)
                 (A) (A) (A) (A) (A) (A) (A) (A) (A) (A) (A) (A)
                 (A) (A) (A) (A) (A) (A) (A) (A) (A) (A) (A) (A)
                 (A) (A) (A) (A) (A) (A) (A) (A) (A) (A) (A) (A)
                 (A) (A) (A) (A) (A) (A) (A) (A) (A) (A) (A) (A)
                 (A) (A) (A) (A) (A) (A) (A) (A) (A) (A) (A) (A)
                 (A) (A) (A) (A) (A) (A) (A) (A) (A) (A) (A) (A)
                 (A) (A) (A) (A) (A) (A) (A) (A) (A) (A) (A) (A)
                 (A) (A) (A) (A) (A) (A) (A) (A) (A) (A) (A) (A)
                 (A) (A) (A) (A) (A) (A) (A) (A) (A) (A) (A) (A)
                 (A) (A) (A) (A) (A) (A) (A) (A) (A) (A) (A) (A)
                 (A) (A) (A) (A) (A) (A) (A) (A) (A) (A) (A)
 The electronic state is 1-A.
 Alpha  occ. eigenvalues --  -19.18836 -19.18705 -19.18369 -19.18158 -19.17448
 Alpha  occ. eigenvalues --  -19.17303 -19.16231 -19.15566 -19.14832 -19.12956
 Alpha  occ. eigenvalues --  -19.12355 -10.30635 -10.30320 -10.25761 -10.25516
 Alpha  occ. eigenvalues --  -10.25419 -10.25242 -10.24854 -10.24779 -10.24535
 Alpha  occ. eigenvalues --  -10.24427 -10.24028 -10.23320  -1.10188  -1.09328
 Alpha  occ. eigenvalues --   -1.05882  -1.05366  -1.04491  -1.02935  -1.02564
 Alpha  occ. eigenvalues --   -1.02314  -1.01620  -0.99786  -0.98959  -0.82344
 Alpha  occ. eigenvalues --   -0.80652  -0.79104  -0.78496  -0.71514  -0.69943
 Alpha  occ. eigenvalues --   -0.67272  -0.64324  -0.63157  -0.62721  -0.61277
 Alpha  occ. eigenvalues --   -0.60672  -0.56954  -0.56266  -0.54877  -0.54372
 Alpha  occ. eigenvalues --   -0.54182  -0.53568  -0.52872  -0.51482  -0.50861
 Alpha  occ. eigenvalues --   -0.50154  -0.49786  -0.49450  -0.48570  -0.46870
 Alpha  occ. eigenvalues --   -0.45705  -0.45425  -0.44654  -0.44016  -0.43083
 Alpha  occ. eigenvalues --   -0.42574  -0.41550  -0.40981  -0.40542  -0.39238
 Alpha  occ. eigenvalues --   -0.38872  -0.38017  -0.37729  -0.36469  -0.35967
 Alpha  occ. eigenvalues --   -0.35412  -0.35213  -0.34259  -0.33160  -0.32854
 Alpha  occ. eigenvalues --   -0.32687  -0.31413  -0.30729  -0.30086  -0.29889
 Alpha  occ. eigenvalues --   -0.29435  -0.28814  -0.27183  -0.27089  -0.26428
 Alpha  occ. eigenvalues --   -0.25537
 Alpha virt. eigenvalues --   -0.02007  -0.01922  -0.01686  -0.00142   0.00238
 Alpha virt. eigenvalues --    0.00875   0.01886   0.02156   0.03245   0.03454
 Alpha virt. eigenvalues --    0.04054   0.04401   0.04903   0.05463   0.05722
 Alpha virt. eigenvalues --    0.06274   0.06466   0.07351   0.07816   0.08166
 Alpha virt. eigenvalues --    0.08534   0.08752   0.09090   0.09591   0.10341
 Alpha virt. eigenvalues --    0.10587   0.10742   0.11649   0.12059   0.12267
 Alpha virt. eigenvalues --    0.12589   0.12784   0.13290   0.13592   0.13807
 Alpha virt. eigenvalues --    0.14011   0.14293   0.14491   0.14979   0.15242
 Alpha virt. eigenvalues --    0.15559   0.16200   0.16924   0.17062   0.17163
 Alpha virt. eigenvalues --    0.17358   0.17609   0.17837   0.18153   0.18946
 Alpha virt. eigenvalues --    0.19045   0.19110   0.19448   0.19918   0.20189
 Alpha virt. eigenvalues --    0.20495   0.20610   0.20909   0.21492   0.21797
 Alpha virt. eigenvalues --    0.21943   0.22127   0.22876   0.22936   0.23133
 Alpha virt. eigenvalues --    0.23652   0.23906   0.24077   0.24676   0.24760
 Alpha virt. eigenvalues --    0.25130   0.25253   0.25336   0.25608   0.25797
 Alpha virt. eigenvalues --    0.26234   0.26544   0.26741   0.27084   0.27410
 Alpha virt. eigenvalues --    0.27451   0.28000   0.28445   0.28854   0.28927
 Alpha virt. eigenvalues --    0.29329   0.29531   0.30164   0.30317   0.30764
 Alpha virt. eigenvalues --    0.31168   0.31380   0.31893   0.32336   0.32421
 Alpha virt. eigenvalues --    0.32928   0.33129   0.33347   0.33715   0.34079
 Alpha virt. eigenvalues --    0.34125   0.34865   0.35163   0.35366   0.35951
 Alpha virt. eigenvalues --    0.36269   0.36712   0.37009   0.37198   0.37245
 Alpha virt. eigenvalues --    0.37971   0.38273   0.38653   0.39141   0.39649
 Alpha virt. eigenvalues --    0.40244   0.40743   0.41161   0.41409   0.42144
 Alpha virt. eigenvalues --    0.42763   0.42974   0.43032   0.43987   0.44451
 Alpha virt. eigenvalues --    0.44815   0.44937   0.45461   0.46852   0.47035
 Alpha virt. eigenvalues --    0.47643   0.48605   0.48916   0.49575   0.50535
 Alpha virt. eigenvalues --    0.51162   0.52039   0.54963   0.56976   0.57898
 Alpha virt. eigenvalues --    0.58983   0.59583   0.60932   0.61304   0.61574
 Alpha virt. eigenvalues --    0.62728   0.63287   0.64032   0.64383   0.65795
 Alpha virt. eigenvalues --    0.66247   0.67027   0.68219   0.69178   0.69453
 Alpha virt. eigenvalues --    0.69642   0.70323   0.71101   0.72052   0.72268
 Alpha virt. eigenvalues --    0.73383   0.74123   0.75002   0.76279   0.76367
 Alpha virt. eigenvalues --    0.77167   0.78137   0.79014   0.80345   0.81460
 Alpha virt. eigenvalues --    0.81945   0.83129   0.83509   0.83926   0.84446
 Alpha virt. eigenvalues --    0.85462   0.87311   0.87566   0.87870   0.88354
 Alpha virt. eigenvalues --    0.89259   0.89959   0.90786   0.91007   0.91284
 Alpha virt. eigenvalues --    0.91734   0.92250   0.92609   0.93081   0.93995
 Alpha virt. eigenvalues --    0.94512   0.94711   0.94754   0.95762   0.96312
 Alpha virt. eigenvalues --    0.96655   0.97580   0.98063   0.98574   0.99429
 Alpha virt. eigenvalues --    0.99749   0.99848   1.00856   1.01832   1.01968
 Alpha virt. eigenvalues --    1.02711   1.03962   1.04745   1.05443   1.05636
 Alpha virt. eigenvalues --    1.06510   1.06743   1.07095   1.07305   1.07478
 Alpha virt. eigenvalues --    1.08428   1.09427   1.10070   1.10359   1.10522
 Alpha virt. eigenvalues --    1.11167   1.12113   1.12553   1.13144   1.13450
 Alpha virt. eigenvalues --    1.13973   1.15417   1.15906   1.16593   1.17231
 Alpha virt. eigenvalues --    1.17967   1.18108   1.18781   1.19798   1.20156
 Alpha virt. eigenvalues --    1.20324   1.20810   1.21245   1.22053   1.23310
 Alpha virt. eigenvalues --    1.23512   1.23741   1.24161   1.24437   1.24726
 Alpha virt. eigenvalues --    1.25568   1.26059   1.26864   1.27298   1.27805
 Alpha virt. eigenvalues --    1.28232   1.28995   1.29672   1.29790   1.30410
 Alpha virt. eigenvalues --    1.31533   1.32641   1.32829   1.33253   1.34588
 Alpha virt. eigenvalues --    1.34969   1.35650   1.36552   1.36724   1.37124
 Alpha virt. eigenvalues --    1.37378   1.38077   1.38632   1.39028   1.40806
 Alpha virt. eigenvalues --    1.41254   1.41816   1.42739   1.43232   1.43757
 Alpha virt. eigenvalues --    1.44236   1.44868   1.45784   1.46153   1.46672
 Alpha virt. eigenvalues --    1.48251   1.48727   1.49296   1.49885   1.50800
 Alpha virt. eigenvalues --    1.51260   1.52261   1.53823   1.54148   1.55388
 Alpha virt. eigenvalues --    1.56731   1.56863   1.57563   1.58591   1.59629
 Alpha virt. eigenvalues --    1.60545   1.61591   1.61732   1.63024   1.64029
 Alpha virt. eigenvalues --    1.65262   1.65640   1.66650   1.67230   1.67756
 Alpha virt. eigenvalues --    1.68922   1.69900   1.70188   1.70977   1.71215
 Alpha virt. eigenvalues --    1.72214   1.72691   1.73724   1.73945   1.75858
 Alpha virt. eigenvalues --    1.76642   1.77595   1.78359   1.79190   1.80057
 Alpha virt. eigenvalues --    1.81961   1.82938   1.84454   1.85480   1.85807
 Alpha virt. eigenvalues --    1.86876   1.88262   1.89374   1.90421   1.91170
 Alpha virt. eigenvalues --    1.92310   1.92809   1.93898   1.94542   1.95265
 Alpha virt. eigenvalues --    1.95617   1.96925   1.97817   1.99326   2.00251
 Alpha virt. eigenvalues --    2.01190   2.02100   2.03792   2.04589   2.05325
 Alpha virt. eigenvalues --    2.06691   2.09041   2.11360   2.12894   2.14462
 Alpha virt. eigenvalues --    2.16437   2.16920   2.18152   2.19396   2.20513
 Alpha virt. eigenvalues --    2.21969   2.23161   2.24781   2.25973   2.27301
 Alpha virt. eigenvalues --    2.27961   2.29052   2.30840   2.31936   2.32073
 Alpha virt. eigenvalues --    2.34648   2.34999   2.39238   2.40426   2.42562
 Alpha virt. eigenvalues --    2.44179   2.45476   2.46434   2.48032   2.50072
 Alpha virt. eigenvalues --    2.51464   2.51814   2.53125   2.54033   2.54602
 Alpha virt. eigenvalues --    2.56449   2.57320   2.57940   2.58863   2.61063
 Alpha virt. eigenvalues --    2.62051   2.62886   2.63479   2.64419   2.66233
 Alpha virt. eigenvalues --    2.67205   2.69177   2.69768   2.70560   2.71766
 Alpha virt. eigenvalues --    2.75071   2.76304   2.77145   2.77621   2.78977
 Alpha virt. eigenvalues --    2.79808   2.81093   2.82920   2.83672   2.83920
 Alpha virt. eigenvalues --    2.84709   2.85600   2.86135   2.87396   2.88101
 Alpha virt. eigenvalues --    2.90211   2.91015   2.91536   2.92200   2.93016
 Alpha virt. eigenvalues --    2.93857   2.95352   2.95825   2.96887   2.98477
 Alpha virt. eigenvalues --    2.99134   3.00387   3.01029   3.02954   3.04140
 Alpha virt. eigenvalues --    3.04627   3.04802   3.06126   3.06771   3.07635
 Alpha virt. eigenvalues --    3.08783   3.09281   3.10106   3.11338   3.12088
 Alpha virt. eigenvalues --    3.13425   3.14170   3.15897   3.15980   3.16799
 Alpha virt. eigenvalues --    3.18983   3.20733   3.21089   3.22951   3.23304
 Alpha virt. eigenvalues --    3.23706   3.24597   3.26009   3.26462   3.27174
 Alpha virt. eigenvalues --    3.29472   3.30315   3.30897   3.32140   3.33502
 Alpha virt. eigenvalues --    3.35737   3.36332   3.36903   3.37823   3.39719
 Alpha virt. eigenvalues --    3.39913   3.41841   3.43143   3.44120   3.44194
 Alpha virt. eigenvalues --    3.46088   3.48417   3.49262   3.52187   3.52649
 Alpha virt. eigenvalues --    3.53435   3.56067   3.58144   3.59688   3.60915
 Alpha virt. eigenvalues --    3.62418   3.63073   3.63665   3.65732   3.66736
 Alpha virt. eigenvalues --    3.68885   3.70248   3.71000   3.71983   3.72594
 Alpha virt. eigenvalues --    3.75596   3.76642   3.77858   3.79665   3.80450
 Alpha virt. eigenvalues --    3.82418   3.83616   3.84704   3.86849   3.87805
 Alpha virt. eigenvalues --    3.89052   3.89875   3.91423   3.92482   3.97007
 Alpha virt. eigenvalues --    3.97409   3.98259   4.01337   4.03630   4.04545
 Alpha virt. eigenvalues --    4.05179   4.07629   4.09910   4.12379   4.14624
 Alpha virt. eigenvalues --    4.16072   4.17032   4.18724   4.19272   4.20372
 Alpha virt. eigenvalues --    4.22026   4.23541   4.24419   4.25293   4.25593
 Alpha virt. eigenvalues --    4.26940   4.28255   4.28780   4.29611   4.30509
 Alpha virt. eigenvalues --    4.31611   4.32157   4.33398   4.34198   4.35098
 Alpha virt. eigenvalues --    4.36054   4.36460   4.37499   4.37737   4.39459
 Alpha virt. eigenvalues --    4.40669   4.40997   4.41367   4.42547   4.42933
 Alpha virt. eigenvalues --    4.43896   4.44191   4.46129   4.47411   4.48260
 Alpha virt. eigenvalues --    4.49251   4.49926   4.50812   4.51603   4.52311
 Alpha virt. eigenvalues --    4.52456   4.53654   4.54730   4.54824   4.54965
 Alpha virt. eigenvalues --    4.55867   4.56498   4.57713   4.58213   4.58608
 Alpha virt. eigenvalues --    4.60135   4.60583   4.61251   4.62138   4.62202
 Alpha virt. eigenvalues --    4.62862   4.63145   4.64138   4.64982   4.65365
 Alpha virt. eigenvalues --    4.65829   4.67177   4.67194   4.68039   4.68438
 Alpha virt. eigenvalues --    4.69798   4.70839   4.71336   4.71586   4.72715
 Alpha virt. eigenvalues --    4.74210   4.74363   4.75316   4.75416   4.76301
 Alpha virt. eigenvalues --    4.76804   4.77285   4.77632   4.78629   4.79848
 Alpha virt. eigenvalues --    4.80508   4.80693   4.81666   4.81907   4.82721
 Alpha virt. eigenvalues --    4.83472   4.83962   4.84540   4.85957   4.87824
 Alpha virt. eigenvalues --    4.88228   4.88672   4.90205   4.90460   4.90894
 Alpha virt. eigenvalues --    4.91489   4.93278   4.93505   4.95344   4.96392
 Alpha virt. eigenvalues --    4.98327   4.99956   5.00952   5.02877   5.03318
 Alpha virt. eigenvalues --    5.05290   5.06423   5.09627   5.10702   5.12527
 Alpha virt. eigenvalues --    5.13399   5.15183   5.16941   5.17301   5.18337
 Alpha virt. eigenvalues --    5.19687   5.20396   5.21891   5.22229   5.22981
 Alpha virt. eigenvalues --    5.23689   5.25831   5.26961   5.28171   5.28786
 Alpha virt. eigenvalues --    5.29381   5.31396   5.32624   5.33620   5.33946
 Alpha virt. eigenvalues --    5.36017   5.36953   5.38004   5.40035   5.40398
 Alpha virt. eigenvalues --    5.40538   5.41908   5.42335   5.42764   5.43655
 Alpha virt. eigenvalues --    5.43869   5.44619   5.45508   5.46331   5.46892
 Alpha virt. eigenvalues --    5.49043   5.49504   5.50925   5.52118   5.52634
 Alpha virt. eigenvalues --    5.53759   5.54612   5.56749   5.57938   5.59501
 Alpha virt. eigenvalues --    5.60231   5.61498   5.63753   5.64378   5.67223
 Alpha virt. eigenvalues --    5.69578   5.70775   5.72886   5.74186   5.75677
 Alpha virt. eigenvalues --    5.78463   5.80052   5.81915   5.84009   5.86128
 Alpha virt. eigenvalues --    5.86389   5.88788   5.89634   5.90070   5.90571
 Alpha virt. eigenvalues --    5.91506   5.92611   5.93320   5.95482   5.95657
 Alpha virt. eigenvalues --    5.96986   5.97327   5.99012   5.99728   6.01081
 Alpha virt. eigenvalues --    6.01163   6.03319   6.04010   6.05961   6.07513
 Alpha virt. eigenvalues --    6.08942   6.09967   6.12041   6.12456   6.14937
 Alpha virt. eigenvalues --    6.15765   6.17603   6.18880   6.21471   6.23110
 Alpha virt. eigenvalues --    6.25774   6.26813   6.29515   6.34369   6.37827
 Alpha virt. eigenvalues --    6.64292   6.78891   6.98278   7.09754   7.10893
 Alpha virt. eigenvalues --    7.18930   7.23385   7.27373   7.29441   7.30625
 Alpha virt. eigenvalues --    7.36122   7.43640   7.55059   7.56177   7.95846
 Alpha virt. eigenvalues --    8.07249   8.33187  12.04320  12.19061  12.28854
 Alpha virt. eigenvalues --   12.31373  12.48179  12.57490  12.84346  12.93147
 Alpha virt. eigenvalues --   12.95351  13.19601  13.32412  13.37942  13.47378
 Alpha virt. eigenvalues --   13.48621  13.58216  13.59999  13.64134  13.68016
 Alpha virt. eigenvalues --   13.75987  13.80637  14.04991  14.19538  14.31604
          Condensed to atoms (all electrons):
              1          2          3          4          5          6
     1  O    8.049931   0.328010  -0.077692  -0.026849   0.026101   0.019396
     2  C    0.328010   7.756830  -0.980009   0.108393  -0.066812  -1.756732
     3  C   -0.077692  -0.980009   7.194753   0.208702  -0.005679   0.873440
     4  O   -0.026849   0.108393   0.208702   8.085552   0.242597  -0.191149
     5  H    0.026101  -0.066812  -0.005679   0.242597   0.414754   0.026914
     6  C    0.019396  -1.756732   0.873440  -0.191149   0.026914   8.688903
     7  O   -0.000224   0.036827  -0.153063   0.011919  -0.000648   0.296975
     8  H    0.000003  -0.002263   0.024046  -0.000309   0.000007   0.007295
     9  C   -0.011945  -0.082324  -0.269692   0.011061  -0.002878   0.163335
    10  O   -0.024708   0.008829   0.027295  -0.000307  -0.000003  -0.008257
    11  H    0.002668  -0.005995  -0.001635   0.000004   0.000000   0.000202
    12  C   -0.094879  -0.939656  -0.034539  -0.020734   0.025788   0.491012
    13  O    0.001053  -0.066950  -0.007729  -0.001617   0.000033  -0.000708
    14  C   -0.016630   1.194679  -0.727596   0.043572  -0.004930  -2.031448
    15  O   -0.000014  -0.003201  -0.017851   0.000379   0.000011  -0.057491
    16  C   -0.000718   0.175695  -0.032589   0.001924  -0.000069  -0.499366
    17  C   -0.000070  -0.049025  -0.001867   0.000077   0.000049   0.123294
    18  O    0.000011   0.008926  -0.000366   0.000006   0.000000  -0.009627
    19  H   -0.000007  -0.003994   0.002616   0.000002   0.000000   0.007601
    20  C    0.000019   0.007876  -0.004827   0.000006   0.000001  -0.018953
    21  O    0.000000  -0.000013  -0.000049   0.000000   0.000000   0.000199
    22  H    0.000000   0.000000  -0.000001   0.000000   0.000000  -0.000045
    23  C   -0.000040   0.012287   0.006557   0.000210  -0.000023  -0.146778
    24  O    0.000002   0.002852  -0.014953   0.000010  -0.000001  -0.003106
    25  H    0.000000  -0.000054   0.001222   0.000000   0.000000   0.001128
    26  C    0.000084  -0.017647  -0.021497  -0.000492   0.000022   0.055418
    27  O    0.000000  -0.000004  -0.000055   0.000001   0.000000   0.001729
    28  C    0.000003   0.000697  -0.001623   0.000007   0.000000   0.003395
    29  O    0.000000  -0.000002   0.000012   0.000000   0.000000  -0.000164
    30  H    0.000000   0.000000   0.000000   0.000000   0.000000   0.000007
    31  H    0.000000   0.000004  -0.000008   0.000000   0.000000  -0.000189
    32  H    0.000000   0.000076  -0.000034   0.000000   0.000000   0.000079
    33  H    0.000000   0.000186   0.000636  -0.000001   0.000000  -0.000069
    34  H   -0.000001  -0.003194   0.003954   0.000002   0.000000   0.013192
    35  H    0.000000  -0.000008   0.000116   0.000000   0.000000  -0.003955
    36  H    0.000000   0.000016  -0.000021   0.000000   0.000000   0.000626
    37  H    0.000000  -0.000024   0.000392   0.000001   0.000000  -0.004158
    38  H    0.284568   0.012807  -0.014408   0.000006  -0.002898  -0.000218
    39  H   -0.000386  -0.008219   0.006145  -0.000007   0.000001  -0.002018
    40  H    0.001088   0.002956  -0.007161  -0.000037  -0.000001   0.013492
    41  H    0.003153   0.124210  -0.070485   0.000635  -0.000011  -0.034758
    42  H   -0.011982   0.385098  -0.103721   0.002495  -0.000608   0.002600
    43  H    0.000251   0.091150   0.162205  -0.013294  -0.001913  -0.137609
    44  H    0.000055   0.024244  -0.147698   0.003260  -0.000216   0.376104
    45  H    0.000035  -0.028737  -0.020084   0.000474  -0.000001  -0.001731
              7          8          9         10         11         12
     1  O   -0.000224   0.000003  -0.011945  -0.024708   0.002668  -0.094879
     2  C    0.036827  -0.002263  -0.082324   0.008829  -0.005995  -0.939656
     3  C   -0.153063   0.024046  -0.269692   0.027295  -0.001635  -0.034539
     4  O    0.011919  -0.000309   0.011061  -0.000307   0.000004  -0.020734
     5  H   -0.000648   0.000007  -0.002878  -0.000003   0.000000   0.025788
     6  C    0.296975   0.007295   0.163335  -0.008257   0.000202   0.491012
     7  O    8.137673   0.255114   0.000152   0.000004   0.000000   0.001704
     8  H    0.255114   0.313968  -0.000243   0.000000   0.000000  -0.002295
     9  C    0.000152  -0.000243   6.551721   0.120797  -0.028992  -0.785394
    10  O    0.000004   0.000000   0.120797   8.165766   0.235887  -0.005068
    11  H    0.000000   0.000000  -0.028992   0.235887   0.425507   0.032493
    12  C    0.001704  -0.002295  -0.785394  -0.005068   0.032493   8.549657
    13  O    0.002505  -0.000040  -0.044125   0.001343  -0.000492   0.056622
    14  C   -0.030769  -0.060370  -0.342833   0.012616  -0.002347  -1.067680
    15  O   -0.000777   0.012552  -0.000350   0.000069  -0.000001   0.004526
    16  C    0.023704   0.016912  -0.110555   0.000179  -0.000050  -0.067913
    17  C   -0.000126   0.001053   0.051131   0.000022   0.000002  -0.039075
    18  O   -0.000050  -0.000016  -0.000886  -0.000094   0.000002  -0.016519
    19  H   -0.000102  -0.000003   0.005669   0.000006  -0.000002  -0.002644
    20  C    0.001625   0.000922   0.001611   0.000000   0.000002  -0.000139
    21  O   -0.000003   0.000000   0.000075   0.000000   0.000000  -0.000379
    22  H    0.000000   0.000000   0.000003   0.000000   0.000000   0.000036
    23  C    0.008701   0.008080  -0.001620  -0.000001   0.000000   0.005081
    24  O   -0.034344  -0.005885   0.000110   0.000000   0.000000  -0.000090
    25  H    0.000776  -0.001594  -0.000006   0.000000   0.000000  -0.000098
    26  C   -0.018614  -0.026426   0.009764   0.000027   0.000001  -0.007424
    27  O   -0.000135  -0.000064   0.000081   0.000000   0.000000   0.000448
    28  C    0.000018  -0.000068  -0.001728  -0.000001   0.000000   0.003422
    29  O   -0.000002   0.000000  -0.000005   0.000000   0.000000   0.000064
    30  H    0.000000   0.000000   0.000000   0.000000   0.000000  -0.000001
    31  H    0.000000   0.000000  -0.000004   0.000000   0.000000   0.000028
    32  H    0.000002   0.000000  -0.000085   0.000000   0.000000   0.000510
    33  H    0.000006  -0.000007  -0.000134   0.000000   0.000000   0.000367
    34  H   -0.001892   0.000006   0.000719   0.000001   0.000000   0.007979
    35  H   -0.000434   0.000013   0.000094   0.000000   0.000000   0.000950
    36  H   -0.000449   0.000280  -0.000001   0.000000   0.000000   0.000017
    37  H    0.000931   0.000269   0.000004   0.000000   0.000000   0.000209
    38  H   -0.000004   0.000000   0.003671  -0.000489  -0.000075  -0.018184
    39  H   -0.000009   0.000000   0.393375  -0.019848  -0.009769  -0.031466
    40  H    0.000006   0.000000   0.581108  -0.050623  -0.001068  -0.221666
    41  H    0.000384   0.000001   0.061681   0.001599  -0.000219   0.043352
    42  H    0.000908  -0.000001  -0.014069  -0.001402  -0.000020  -0.075527
    43  H    0.005565  -0.000134   0.018014  -0.000117   0.000000   0.043101
    44  H   -0.032172  -0.003049   0.020690   0.000028   0.000000   0.063430
    45  H   -0.001302   0.000262   0.022304   0.000067   0.000000   0.079127
             13         14         15         16         17         18
     1  O    0.001053  -0.016630  -0.000014  -0.000718  -0.000070   0.000011
     2  C   -0.066950   1.194679  -0.003201   0.175695  -0.049025   0.008926
     3  C   -0.007729  -0.727596  -0.017851  -0.032589  -0.001867  -0.000366
     4  O   -0.001617   0.043572   0.000379   0.001924   0.000077   0.000006
     5  H    0.000033  -0.004930   0.000011  -0.000069   0.000049   0.000000
     6  C   -0.000708  -2.031448  -0.057491  -0.499366   0.123294  -0.009627
     7  O    0.002505  -0.030769  -0.000777   0.023704  -0.000126  -0.000050
     8  H   -0.000040  -0.060370   0.012552   0.016912   0.001053  -0.000016
     9  C   -0.044125  -0.342833  -0.000350  -0.110555   0.051131  -0.000886
    10  O    0.001343   0.012616   0.000069   0.000179   0.000022  -0.000094
    11  H   -0.000492  -0.002347  -0.000001  -0.000050   0.000002   0.000002
    12  C    0.056622  -1.067680   0.004526  -0.067913  -0.039075  -0.016519
    13  O    7.942030   0.246580   0.009629   0.023082   0.016408  -0.010174
    14  C    0.246580   8.613633   0.284335  -0.966905   0.326183  -0.006647
    15  O    0.009629   0.284335   7.838782   0.146891  -0.040417  -0.003145
    16  C    0.023082  -0.966905   0.146891  11.742159  -2.791359   0.006460
    17  C    0.016408   0.326183  -0.040417  -2.791359   8.847609   0.223549
    18  O   -0.010174  -0.006647  -0.003145   0.006460   0.223549   8.182571
    19  H    0.010841  -0.013262   0.013699  -0.048874   0.001792   0.238826
    20  C   -0.008624  -0.231196   0.031206  -0.390291  -0.574606  -0.061488
    21  O   -0.000090   0.002451  -0.000164   0.090956  -0.074557   0.011571
    22  H    0.000005  -0.000539  -0.000011  -0.006640  -0.021926   0.000040
    23  C   -0.002195   0.214454   0.016196   0.168729  -0.490679   0.014327
    24  O   -0.001120   0.026753  -0.018207   0.018561   0.001685  -0.000018
    25  H   -0.000014  -0.004616   0.002453  -0.011264  -0.000450   0.000000
    26  C   -0.019739  -0.136714  -0.128273  -2.307841   0.643614   0.012947
    27  O    0.000063   0.011183   0.003087   0.121282  -0.090691  -0.000525
    28  C    0.001883  -0.053291  -0.003600   0.904632  -0.410027  -0.012109
    29  O    0.000012   0.001602  -0.000024  -0.046371  -0.023309  -0.000004
    30  H    0.000000   0.000042   0.000004  -0.000153   0.015114  -0.000001
    31  H    0.000011  -0.000534   0.000111   0.032453  -0.009536   0.000144
    32  H    0.000087  -0.004047   0.000388   0.089685  -0.164188   0.005585
    33  H   -0.000916   0.018671   0.003180  -0.256504   0.354848  -0.031989
    34  H   -0.001039   0.053116  -0.009040  -0.007597   0.112861   0.001589
    35  H   -0.000514   0.054910   0.001525  -0.043861  -0.022949   0.001224
    36  H    0.000019   0.001683   0.000206  -0.004904   0.007828   0.000016
    37  H    0.000029   0.010452   0.002912   0.073892  -0.015332   0.000123
    38  H   -0.000485   0.001648   0.000000   0.000170  -0.000038  -0.000001
    39  H   -0.002072   0.000753  -0.000106   0.003265  -0.000871  -0.000115
    40  H   -0.006590  -0.004670  -0.000471  -0.005859   0.003233  -0.000119
    41  H   -0.029707   0.139039  -0.000702   0.002542   0.006037  -0.000479
    42  H    0.005009   0.069065  -0.000094  -0.002872   0.001211   0.000049
    43  H    0.006271   0.061574   0.000475  -0.008215   0.002000   0.000084
    44  H    0.009445  -0.049052  -0.008015  -0.027100   0.005697   0.000154
    45  H   -0.041847   0.257892  -0.019743  -0.043801   0.023846  -0.002039
             19         20         21         22         23         24
     1  O   -0.000007   0.000019   0.000000   0.000000  -0.000040   0.000002
     2  C   -0.003994   0.007876  -0.000013   0.000000   0.012287   0.002852
     3  C    0.002616  -0.004827  -0.000049  -0.000001   0.006557  -0.014953
     4  O    0.000002   0.000006   0.000000   0.000000   0.000210   0.000010
     5  H    0.000000   0.000001   0.000000   0.000000  -0.000023  -0.000001
     6  C    0.007601  -0.018953   0.000199  -0.000045  -0.146778  -0.003106
     7  O   -0.000102   0.001625  -0.000003   0.000000   0.008701  -0.034344
     8  H   -0.000003   0.000922   0.000000   0.000000   0.008080  -0.005885
     9  C    0.005669   0.001611   0.000075   0.000003  -0.001620   0.000110
    10  O    0.000006   0.000000   0.000000   0.000000  -0.000001   0.000000
    11  H   -0.000002   0.000002   0.000000   0.000000   0.000000   0.000000
    12  C   -0.002644  -0.000139  -0.000379   0.000036   0.005081  -0.000090
    13  O    0.010841  -0.008624  -0.000090   0.000005  -0.002195  -0.001120
    14  C   -0.013262  -0.231196   0.002451  -0.000539   0.214454   0.026753
    15  O    0.013699   0.031206  -0.000164  -0.000011   0.016196  -0.018207
    16  C   -0.048874  -0.390291   0.090956  -0.006640   0.168729   0.018561
    17  C    0.001792  -0.574606  -0.074557  -0.021926  -0.490679   0.001685
    18  O    0.238826  -0.061488   0.011571   0.000040   0.014327  -0.000018
    19  H    0.331832   0.011408  -0.000346   0.000009  -0.003566   0.000036
    20  C    0.011408   7.110092   0.105427   0.026774   0.060307  -0.002004
    21  O   -0.000346   0.105427   8.108103   0.225416   0.002577  -0.000001
    22  H    0.000009   0.026774   0.225416   0.438670  -0.000041   0.000000
    23  C   -0.003566   0.060307   0.002577  -0.000041   6.457931   0.040034
    24  O    0.000036  -0.002004  -0.000001   0.000000   0.040034   8.219234
    25  H    0.000000   0.000726   0.000000   0.000000  -0.020943   0.253304
    26  C    0.002721   0.429173  -0.047044   0.004379  -0.842994   0.050622
    27  O   -0.000035  -0.138101   0.003681  -0.000310  -0.059919   0.005406
    28  C    0.003031  -0.517846   0.043072  -0.008128  -0.114444   0.006783
    29  O    0.000000   0.030692  -0.013326   0.010943   0.015946   0.000016
    30  H    0.000000  -0.030607   0.000696  -0.001515  -0.000481  -0.000003
    31  H    0.000002  -0.102628   0.003225  -0.000345   0.001582  -0.000003
    32  H   -0.000097   0.285393  -0.016606  -0.004277   0.009591  -0.000001
    33  H   -0.001980  -0.075822   0.000786  -0.000370   0.023586  -0.000274
    34  H    0.000447  -0.007507  -0.000330   0.000005  -0.029228   0.001497
    35  H    0.000046  -0.033099   0.000182   0.000007   0.103556   0.003219
    36  H    0.000000  -0.001337  -0.000014   0.000000   0.377971  -0.019908
    37  H   -0.000001  -0.002208   0.000009   0.000000   0.567433  -0.050969
    38  H    0.000000   0.000001   0.000000   0.000000   0.000002   0.000000
    39  H    0.000479  -0.000094  -0.000001   0.000000  -0.000009   0.000000
    40  H    0.000050  -0.000053   0.000000   0.000000  -0.000049   0.000000
    41  H    0.000110   0.000534  -0.000001   0.000000  -0.000105   0.000002
    42  H   -0.000021  -0.000023   0.000000   0.000000   0.000014   0.000006
    43  H    0.000004  -0.000093   0.000000   0.000000   0.000399   0.000034
    44  H    0.000018   0.000227   0.000000   0.000000   0.000961  -0.000099
    45  H    0.000439   0.011105  -0.000002   0.000000  -0.000560   0.000050
             25         26         27         28         29         30
     1  O    0.000000   0.000084   0.000000   0.000003   0.000000   0.000000
     2  C   -0.000054  -0.017647  -0.000004   0.000697  -0.000002   0.000000
     3  C    0.001222  -0.021497  -0.000055  -0.001623   0.000012   0.000000
     4  O    0.000000  -0.000492   0.000001   0.000007   0.000000   0.000000
     5  H    0.000000   0.000022   0.000000   0.000000   0.000000   0.000000
     6  C    0.001128   0.055418   0.001729   0.003395  -0.000164   0.000007
     7  O    0.000776  -0.018614  -0.000135   0.000018  -0.000002   0.000000
     8  H   -0.001594  -0.026426  -0.000064  -0.000068   0.000000   0.000000
     9  C   -0.000006   0.009764   0.000081  -0.001728  -0.000005   0.000000
    10  O    0.000000   0.000027   0.000000  -0.000001   0.000000   0.000000
    11  H    0.000000   0.000001   0.000000   0.000000   0.000000   0.000000
    12  C   -0.000098  -0.007424   0.000448   0.003422   0.000064  -0.000001
    13  O   -0.000014  -0.019739   0.000063   0.001883   0.000012   0.000000
    14  C   -0.004616  -0.136714   0.011183  -0.053291   0.001602   0.000042
    15  O    0.002453  -0.128273   0.003087  -0.003600  -0.000024   0.000004
    16  C   -0.011264  -2.307841   0.121282   0.904632  -0.046371  -0.000153
    17  C   -0.000450   0.643614  -0.090691  -0.410027  -0.023309   0.015114
    18  O    0.000000   0.012947  -0.000525  -0.012109  -0.000004  -0.000001
    19  H    0.000000   0.002721  -0.000035   0.003031   0.000000   0.000000
    20  C    0.000726   0.429173  -0.138101  -0.517846   0.030692  -0.030607
    21  O    0.000000  -0.047044   0.003681   0.043072  -0.013326   0.000696
    22  H    0.000000   0.004379  -0.000310  -0.008128   0.010943  -0.001515
    23  C   -0.020943  -0.842994  -0.059919  -0.114444   0.015946  -0.000481
    24  O    0.253304   0.050622   0.005406   0.006783   0.000016  -0.000003
    25  H    0.404645   0.025507  -0.000951  -0.000980  -0.000004   0.000000
    26  C    0.025507   9.139657   0.012426  -0.873239  -0.002446  -0.003424
    27  O   -0.000951   0.012426   7.978610   0.292609  -0.056062   0.000286
    28  C   -0.000980  -0.873239   0.292609   6.070188   0.267215   0.004806
    29  O   -0.000004  -0.002446  -0.056062   0.267215   8.017075   0.269692
    30  H    0.000000  -0.003424   0.000286   0.004806   0.269692   0.412558
    31  H    0.000000  -0.001983  -0.037498   0.411286  -0.015984  -0.008177
    32  H    0.000000  -0.003959  -0.002875   0.054041  -0.001449   0.000059
    33  H    0.000001   0.190584   0.001752  -0.038740   0.001816   0.000008
    34  H   -0.000011   0.116162   0.003020  -0.001568  -0.000022   0.000001
    35  H   -0.000211   0.160367  -0.007914   0.040142   0.000498   0.000002
    36  H   -0.010121  -0.019861  -0.007457   0.002625  -0.000283  -0.000002
    37  H   -0.000606  -0.290405   0.003396   0.004976  -0.000033   0.000000
    38  H    0.000000  -0.000008   0.000000   0.000000   0.000000   0.000000
    39  H    0.000000  -0.000019   0.000000   0.000033   0.000000   0.000000
    40  H    0.000000   0.000061   0.000000  -0.000009   0.000000   0.000000
    41  H    0.000000   0.000136   0.000000  -0.000011   0.000000   0.000000
    42  H    0.000000   0.000044   0.000000  -0.000002   0.000000   0.000000
    43  H    0.000000  -0.000883   0.000000  -0.000012   0.000000   0.000000
    44  H   -0.000005  -0.002249   0.000006  -0.000078   0.000000   0.000000
    45  H    0.000007   0.010213   0.000391  -0.001038  -0.000003   0.000000
             31         32         33         34         35         36
     1  O    0.000000   0.000000   0.000000  -0.000001   0.000000   0.000000
     2  C    0.000004   0.000076   0.000186  -0.003194  -0.000008   0.000016
     3  C   -0.000008  -0.000034   0.000636   0.003954   0.000116  -0.000021
     4  O    0.000000   0.000000  -0.000001   0.000002   0.000000   0.000000
     5  H    0.000000   0.000000   0.000000   0.000000   0.000000   0.000000
     6  C   -0.000189   0.000079  -0.000069   0.013192  -0.003955   0.000626
     7  O    0.000000   0.000002   0.000006  -0.001892  -0.000434  -0.000449
     8  H    0.000000   0.000000  -0.000007   0.000006   0.000013   0.000280
     9  C   -0.000004  -0.000085  -0.000134   0.000719   0.000094  -0.000001
    10  O    0.000000   0.000000   0.000000   0.000001   0.000000   0.000000
    11  H    0.000000   0.000000   0.000000   0.000000   0.000000   0.000000
    12  C    0.000028   0.000510   0.000367   0.007979   0.000950   0.000017
    13  O    0.000011   0.000087  -0.000916  -0.001039  -0.000514   0.000019
    14  C   -0.000534  -0.004047   0.018671   0.053116   0.054910   0.001683
    15  O    0.000111   0.000388   0.003180  -0.009040   0.001525   0.000206
    16  C    0.032453   0.089685  -0.256504  -0.007597  -0.043861  -0.004904
    17  C   -0.009536  -0.164188   0.354848   0.112861  -0.022949   0.007828
    18  O    0.000144   0.005585  -0.031989   0.001589   0.001224   0.000016
    19  H    0.000002  -0.000097  -0.001980   0.000447   0.000046   0.000000
    20  C   -0.102628   0.285393  -0.075822  -0.007507  -0.033099  -0.001337
    21  O    0.003225  -0.016606   0.000786  -0.000330   0.000182  -0.000014
    22  H   -0.000345  -0.004277  -0.000370   0.000005   0.000007   0.000000
    23  C    0.001582   0.009591   0.023586  -0.029228   0.103556   0.377971
    24  O   -0.000003  -0.000001  -0.000274   0.001497   0.003219  -0.019908
    25  H    0.000000   0.000000   0.000001  -0.000011  -0.000211  -0.010121
    26  C   -0.001983  -0.003959   0.190584   0.116162   0.160367  -0.019861
    27  O   -0.037498  -0.002875   0.001752   0.003020  -0.007914  -0.007457
    28  C    0.411286   0.054041  -0.038740  -0.001568   0.040142   0.002625
    29  O   -0.015984  -0.001449   0.001816  -0.000022   0.000498  -0.000283
    30  H   -0.008177   0.000059   0.000008   0.000001   0.000002  -0.000002
    31  H    0.567832   0.004429   0.004086  -0.000065   0.002704  -0.000038
    32  H    0.004429   0.602727   0.008008   0.001389  -0.000132   0.000000
    33  H    0.004086   0.008008   0.692864   0.006565   0.002305   0.000002
    34  H   -0.000065   0.001389   0.006565   0.589125   0.004515   0.000151
    35  H    0.002704  -0.000132   0.002305   0.004515   0.593469  -0.001447
    36  H   -0.000038   0.000000   0.000002   0.000151  -0.001447   0.566953
    37  H   -0.000017  -0.000022  -0.000009   0.003219   0.005379  -0.042554
    38  H    0.000000   0.000000   0.000000   0.000000   0.000000   0.000000
    39  H    0.000000   0.000000   0.000000   0.000000   0.000000   0.000000
    40  H    0.000000   0.000000   0.000000   0.000000   0.000000   0.000000
    41  H    0.000000   0.000000  -0.000001   0.000001   0.000000   0.000000
    42  H    0.000000   0.000000   0.000000   0.000000   0.000000   0.000000
    43  H    0.000000   0.000000   0.000000  -0.000001   0.000000   0.000000
    44  H    0.000000   0.000000  -0.000005  -0.000009   0.000002   0.000000
    45  H    0.000000  -0.000007  -0.000019   0.007363  -0.000015   0.000000
             37         38         39         40         41         42
     1  O    0.000000   0.284568  -0.000386   0.001088   0.003153  -0.011982
[...]
 0.00001743,-0.00005220,-0.00000549,-0.01083385,-0.00032703,0.00268155,
 0.00186044,0.00062518,0.00054054,-0.00006282,-0.00020943,0.00003304,0.
 00007057,0.00000971,0.00007536,-0.00001636,0.00001407,-0.00000050,-0.0
 0001497,0.00000963,0.00000409,0.00003431,-0.00002262,-0.00000344,-0.00
 002789,0.00003223,0.00000071,-0.00000985,0.00000261,0.00000154,0.00001
 044,-0.00000183,0.00000125,-0.00000344,-0.00000046,-0.00000106,-0.0000
 2127,-0.00000999,0.00001481,0.00001939,0.00000885,-0.00000945,-0.00000
 791,0.00000109,0.00000207,-0.00001264,-0.00000669,0.00000138,0.0000105
 2,0.00000346,-0.00000029,-0.00000763,0.00000078,0.00000172,0.00000531,
 -0.00000039,-0.00000394,-0.00000134,0.00000023,0.00000087,0.00000216,0
 .00000036,0.00000101,0.00000434,-0.00000006,-0.00000301,0.00000573,0.0
 0000007,0.00000713,0.00000690,-0.00000377,-0.00000583,0.00000375,-0.00
 000123,0.00000494,0.00000108,0.00000078,-0.00000154,0.00000589,0.00000
 037,-0.00000047,0.00117860,0.00001968,-0.00051200,0.00031368,0.0000720
 1,0.00001809,0.00046370,-0.00085793,0.00004402,0.00058238,-0.00086431,
 0.00087207,0.37354594,-0.00858462,0.00119993,-0.00414432,0.01707837,-0
 .04418598,-0.00058860,0.03335784,-0.00622303,-0.00804978,-0.00137715,0
 .00369049,-0.00101171,0.00056938,-0.00023584,0.00035719,0.00183806,0.0
 0113397,0.00115382,-0.00060278,-0.00003716,0.00012862,-0.00006829,0.00
 002690,0.00003721,-0.00151949,0.00178330,-0.00071147,0.00023894,-0.000
 06237,-0.00003112,-0.00000227,-0.00005866,-0.00004854,-0.02724398,-0.0
 0090258,0.00678338,0.00136847,0.00103945,-0.00164411,0.00012067,-0.000
 46249,-0.00004803,0.00002986,0.00009677,-0.00007056,-0.00003493,0.0000
 0764,0.00000124,0.00000283,0.00000390,-0.00001103,0.00002718,0.0000004
 9,-0.00004218,-0.00002055,-0.00000236,0.00003866,-0.00000763,0.0000017
 0,0.00000058,0.00000402,0.00000034,-0.00000190,-0.00000091,0.00000005,
 -0.00000047,0.00000921,0.00000134,-0.00000191,-0.00001097,-0.00000704,
 -0.00001160,0.00000859,0.00000158,-0.00000137,0.00000548,0.00000192,0.
 00000098,-0.00000166,0.00000036,-0.00000557,0.00000149,-0.00000246,0.0
 0000350,0.00000099,-0.00000030,-0.00000333,0.00000015,0.00000029,0.000
 00044,0.00000018,0.00000072,0.00000003,0.00000166,-0.00000107,-0.00000
 140,0.00000129,0.00000253,0.00000126,0.00000200,-0.00000656,0.00000566
 ,0.00000002,0.00000176,-0.00000051,-0.00000103,0.00000014,-0.00000131,
 -0.00000320,-0.00000097,0.00000266,-0.00091718,0.00128073,0.00010294,0
 .00037294,0.00031901,-0.00000764,0.00079582,-0.00030907,0.00007365,-0.
 00137376,-0.00276019,0.00349807,-0.01375219,0.05014703,-0.04193186,-0.
 00425716,-0.01445185,0.05581572,-0.00271537,-0.04975445,0.01286769,-0.
 00038186,-0.00190182,-0.00149946,0.00130154,0.00088205,-0.00042720,-0.
 00035648,-0.00001238,0.00147595,-0.00022223,0.00022791,-0.00043130,0.0
 0014988,0.00005292,0.00003470,0.00001534,-0.00001502,0.00000003,-0.001
 42186,0.00062549,-0.00001967,0.00017544,0.00008529,0.00002553,-0.00003
 647,0.00008101,0.02509612,0.00110323,-0.00439075,-0.00113748,-0.000651
 11,0.00207976,0.00035201,-0.00011041,-0.00032362,-0.00006362,0.0000217
 1,-0.00013040,-0.00000280,-0.00003302,0.00000712,0.00001496,0.00000292
 ,0.00002539,-0.00005911,-0.00001043,0.00000292,0.00006250,0.00001665,-
 0.00002586,0.00000638,-0.00000820,0.00000646,-0.00000993,0.00000893,-0
 .00000919,0.00000273,-0.00000094,0.00000162,0.00001633,0.00001167,-0.0
 0000934,-0.00001852,-0.00001369,0.00000070,0.00000578,0.00000124,-0.00
 000014,0.00001558,0.00001055,0.00000963,-0.00000911,-0.00000025,-0.000
 01624,0.00000614,-0.00000263,0.00001526,0.00000044,-0.00000024,-0.0000
 1131,0.00000089,-0.00000019,0.00000176,-0.00000184,-0.00000038,-0.0000
 0219,-0.00000393,0.00000084,0.00000375,-0.00000930,-0.00000530,-0.0000
 1292,-0.00000764,0.00000689,0.00000953,-0.00000291,0.00000008,-0.00000
 537,-0.00000219,-0.00000313,-0.00000043,-0.00000498,0.00000096,0.00000
 219,-0.00324567,0.00073921,0.00328066,-0.00018001,-0.00020260,-0.00002
 727,-0.00062172,0.00036645,0.00017973,0.00068766,0.00295670,-0.0032909
 9,-0.04620120,0.00622344,0.06752954,0.00130226,0.00046671,0.00045546,-
 0.00927172,0.00116126,0.00036004,-0.34291546,0.03035163,0.03304637,-0.
 00482012,-0.00696001,0.01147147,-0.00028831,-0.00078570,-0.00017756,-0
 .01978966,0.00389746,0.00036308,0.00192481,-0.00089013,-0.00021748,0.0
 0012220,-0.00004055,0.00022013,0.00051149,0.00026661,-0.00011229,0.000
 02921,-0.00004537,-0.00005850,-0.00001314,0.00000559,-0.00000033,-0.00
 087844,-0.00060350,0.00030379,0.00053590,0.00027910,-0.00011679,-0.001
 76741,-0.00105008,0.00155685,0.00088341,-0.00000125,-0.00007490,-0.000
 11403,0.00008781,-0.00012140,0.00000276,-0.00000439,-0.00005433,0.0000
 5388,-0.00000593,0.00002941,-0.00004264,0.00001029,0.00000748,-0.00001
 855,0.00001779,-0.00000581,0.00001804,-0.00000686,0.00000851,-0.000006
 26,0.00000116,-0.00000293,-0.00009508,-0.00005541,0.00006001,0.0000441
 6,0.00003506,-0.00010956,-0.00002056,-0.00000158,0.00000971,0.00001070
 ,-0.00001757,-0.00001864,0.00001490,0.00001189,-0.00000321,-0.00000872
 ,-0.00000863,-0.00001203,0.00000426,0.00000332,0.00000798,-0.00000178,
 -0.00000008,-0.00000175,0.00000337,0.00000055,0.00000243,0.00000724,-0
 .00000012,-0.00000428,0.00001522,-0.00000331,0.00001266,0.00002047,-0.
 00000594,-0.00004684,0.00000662,-0.00000454,0.00001508,0.00001368,0.00
 000826,-0.00000771,0.00002344,0.00000147,-0.00000950,0.00021627,-0.000
 25759,-0.00016055,-0.00002032,0.00011691,0.00000596,0.00008318,-0.0002
 7617,-0.00000658,0.00101395,0.00040292,-0.00041548,0.00049791,0.000722
 21,0.00008449,0.37230138,-0.00217621,0.00216654,0.00106526,0.03435816,
 -0.00608620,-0.00334552,0.02975428,-0.04410267,-0.00836662,-0.02745889
 ,-0.00373909,0.01531115,-0.00053366,-0.00009057,-0.00075083,-0.0089462
 1,0.00301304,-0.00090242,0.00064674,0.00062587,0.00141183,0.00007158,0
 .00000187,-0.00009852,-0.00010489,-0.00005566,-0.00004574,-0.00004491,
 0.00001245,0.00000401,0.00000518,0.00001910,0.00000930,0.00157582,0.00
 207560,-0.00116284,-0.00032168,-0.00009972,0.00032097,0.00055612,-0.00
 042658,0.00054555,0.00005126,-0.00004817,-0.00022530,-0.00001667,-0.00
 000013,0.00001257,0.00001334,-0.00001567,-0.00001470,-0.00002259,0.000
 00337,0.00003362,0.00001308,0.00000055,-0.00004244,-0.00000172,0.00000
 348,0.00000682,-0.00000218,0.00000277,-0.00000624,0.,0.00000169,0.0000
 0026,0.00000274,0.00002791,-0.00001937,0.00002502,-0.00000156,0.000093
 14,-0.00001640,-0.00000202,-0.00000233,0.00000209,0.00003283,0.0000114
 8,-0.00000017,-0.00001585,-0.00001440,-0.00000147,0.00000436,0.0000040
 9,0.00000036,-0.00000170,-0.00000284,0.00000004,0.00000032,0.00000007,
 -0.00000005,-0.00000092,-0.00000044,-0.00000065,0.00000060,0.00000085,
 -0.00000213,-0.00000040,0.00000019,-0.00000027,0.00000870,-0.00000769,
 0.00000021,-0.00000478,-0.00000094,-0.00000153,-0.00000624,0.00000501,
 0.00000308,0.00000244,-0.00000403,-0.00004719,0.00022531,0.00039065,-0
 .00010274,-0.00008284,-0.00002112,-0.00023643,0.00012833,0.00001678,-0
 .00060546,-0.00050892,0.00037635,0.00147248,-0.00528782,-0.00231706,-0
 .02709232,0.05172972,-0.00057590,0.00086530,0.00139744,0.01226630,-0.0
 0408974,-0.00021896,0.03368403,-0.00852702,-0.04418635,0.02909120,0.01
 063000,-0.01533717,0.00168690,0.00024719,0.00033710,-0.03185140,0.0035
 0798,0.00147484,0.00224918,0.00005162,0.00152606,0.00009458,0.00012018
 ,0.00002473,-0.00019869,-0.00014697,0.00005832,-0.00001689,0.00001955,
 0.00002523,0.00000426,0.00000839,0.00000005,-0.00024860,0.00079696,-0.
 00035897,0.00026873,0.00016213,-0.00011106,-0.00200704,-0.00101693,0.0
 0171025,0.00047998,-0.00003696,-0.00009149,0.00001281,0.00000685,0.000
 04940,0.00000746,-0.00001282,-0.00001612,0.00001678,0.00001721,-0.0000
 0851,-0.00002378,-0.00001695,0.00001496,-0.00000667,-0.00000207,0.0000
 1042,0.00000073,0.00001296,-0.00001203,-0.00000063,-0.00000068,0.00000
 006,-0.00001797,0.00000657,0.00001763,0.00001717,0.00000537,0.00004076
 ,0.00000082,0.00000539,-0.00000032,0.00000553,0.00001633,0.00002676,0.
 00000213,0.00000484,-0.00003466,0.00000005,-0.00001302,0.00002068,0.00
 000585,0.00000177,-0.00001681,0.00000006,0.00000005,0.00000274,0.00000
 007,0.00000067,-0.00000025,0.00000103,0.00000133,-0.00000181,0.0000021
 2,-0.00000450,0.00000849,0.00002040,0.00000642,-0.00005287,0.00000283,
 -0.00000357,0.00000896,0.00000128,-0.00000451,-0.00000207,0.00000638,0
 .00000075,-0.00000285,-0.00003011,0.00042225,0.00009025,-0.00002005,-0
 .00009126,-0.00001274,-0.00004428,0.00011038,-0.00002087,-0.00029625,0
 .00010459,0.00038740,0.00061802,-0.00160381,-0.00058914,-0.04273856,-0
 .00125493,0.05914995,0.00080982,0.00007992,-0.00005315,-0.00117384,0.0
 0145393,0.00096363,-0.02240737,-0.00159051,0.00159949,0.00236567,0.000
 41846,0.00054587,0.00019442,0.00004545,0.00009548,-0.33959356,0.023721
 43,0.04758333,0.00157832,0.00911535,0.00703388,0.00002559,0.00046306,-
 0.00111136,-0.00013689,-0.00003518,0.00000203,0.00007131,0.00003480,0.
 00003667,-0.00001689,-0.00001128,-0.00000242,-0.00016336,-0.00034855,-
 0.00007075,0.00199136,-0.00057174,-0.00101705,-0.01278910,0.00063876,0
 .00267128,0.00118385,-0.00018936,-0.00003253,0.00019637,0.00001565,0.0
 0009859,0.00000418,0.00011275,0.00005477,0.00007698,-0.00004999,-0.000
 17230,-0.00007776,-0.00005039,0.00015841,-0.00001807,0.00002291,-0.000
 00548,0.00001472,-0.00003957,0.00000106,-0.00000277,0.00000592,-0.0000
 0081,0.00006439,0.00015967,-0.00013045,0.00007914,-0.00006634,0.000548
 17,-0.00005383,-0.00003324,-0.00005106,-0.00001017,0.00007305,-0.00000
 852,0.00001487,-0.00010465,0.00004338,-0.00002449,0.00008310,-0.000037
 93,-0.00000192,-0.00002246,0.00001783,-0.00000204,0.00000330,-0.000002
 90,0.00000558,-0.00000449,0.00000396,0.00000891,0.00000028,-0.00000402
 ,0.00000047,-0.00002163,0.00002170,0.00006784,0.00003453,-0.00021181,0
 .00000831,-0.00000582,0.00002730,-0.00000994,-0.00002781,0.00004449,0.
 00000833,-0.00001161,-0.00002420,-0.00005731,-0.00013630,-0.00014424,0
 .00002679,-0.00000861,-0.00000748,0.00006978,-0.00006387,-0.00000793,0
 .00014259,0.00021374,-0.00002476,0.00105026,-0.00088529,-0.00048158,-0
 .00077408,-0.00096078,-0.00306097,0.36682387,0.00000928,-0.00009971,0.
 00014482,-0.00099859,-0.00011195,-0.00038845,-0.00205619,0.00232770,0.
 00024903,0.00027897,0.00005114,-0.00052098,-0.00005030,-0.00003024,-0.
 00003606,0.02494295,-0.03764574,0.00134953,0.03403260,-0.02358851,-0.0
 2081735,0.00182553,0.00068479,0.00126714,-0.00004927,0.00000778,-0.000
 00624,0.00001911,-0.00000786,0.00002008,-0.00000239,-0.00000236,-0.000
 00364,-0.00028495,-0.00027848,-0.00016999,0.00110620,0.00260628,-0.000
 51476,-0.02817513,0.00003128,0.00571229,0.00150897,0.00107524,-0.00141
 093,-0.00026324,0.00011691,-0.00005524,0.00002316,0.00000461,-0.000143
 94,0.00012565,-0.00004115,0.00002153,-0.00011042,0.00005497,0.00009011
 ,-0.00001206,0.00001617,-0.00000882,0.00000819,0.00001708,0.00000583,-
 0.00000356,-0.00000408,-0.00000075,-0.00012181,-0.00021956,0.00026546,
 -0.00036112,-0.00000923,-0.00078030,0.00013065,0.00005541,0.00004537,0
 .00009837,-0.00016155,-0.00003127,-0.00002181,0.00011067,-0.00003621,0
 .00001730,-0.00007805,0.00001957,0.00000522,0.00002198,-0.00001081,0.0
 0000103,-0.00000249,0.00000180,-0.00000231,0.00000686,0.00000026,0.000
 00372,0.00000029,-0.00000445,0.00002513,-0.00001014,0.00001984,0.00016
 447,-0.00005577,-0.00000565,0.00000674,0.00003565,0.00002220,0.0000072
 9,0.00003651,-0.00004760,-0.00001449,-0.00001148,0.00006197,0.00001937
 ,0.00005495,0.00000807,0.00000603,-0.00000514,0.00000458,0.00002652,-0
 .00003818,-0.00001763,0.00014408,0.00004686,0.00002104,-0.00014685,-0.
 00006777,-0.00039900,-0.00020363,0.00036819,-0.00055881,-0.03055082,0.
 05809605,0.00045952,0.00010895,-0.00018155,-0.00125651,0.00108127,0.00
 120802,-0.03375153,0.00012334,0.00105665,0.00169803,-0.00027048,0.0026
 3199,0.00012871,-0.00019958,0.00032672,0.04865103,0.00178810,-0.049883
 75,0.01528732,-0.01603533,-0.00661136,0.00115296,-0.00031126,0.0007627
 5,-0.00000838,-0.00000830,0.00009297,-0.00000230,0.00000128,-0.0000125
 3,0.00000595,0.00000302,0.00000532,-0.00032055,-0.00009349,-0.00032673
 ,-0.00190921,-0.00131522,0.00098788,0.02817858,0.00150773,-0.00549495,
 -0.00129826,-0.00067966,0.00229550,0.00033855,-0.00022887,-0.00017201,
 -0.00004041,-0.00004412,0.00013997,-0.00012672,0.00005927,0.00003822,0
 .00011497,-0.00001779,-0.00005225,0.00001800,-0.00005039,-0.00000186,-
 0.00001568,0.00001397,0.00001043,0.00000458,-0.00000553,0.00000239,0.0
 0003876,-0.00005200,0.00005984,-0.00025756,-0.00001047,-0.00034637,0.0
 0005884,0.00001937,0.00005537,-0.00003677,-0.00004012,0.00000063,-0.00
 002542,0.00005541,0.00003673,0.00001775,-0.00002086,0.00001058,-0.0000
 0376,0.00000628,-0.00000575,0.00000215,-0.00000164,0.00000028,-0.00000
 343,0.00000213,-0.00000466,-0.00000939,-0.00000281,0.00000655,-0.00003
 341,0.00003489,-0.00003210,-0.00028469,0.00000695,0.00003638,-0.000026
 68,0.00000569,-0.00006631,-0.00001417,0.00000568,-0.00001642,-0.000038
 16,0.00000549,0.00004216,0.00004382,-0.00008583,-0.00004926,0.00000584
 ,-0.00002647,0.00000389,0.00000255,-0.00001627,0.00000757,0.00011305,-
 0.00002228,-0.00015731,0.00043573,-0.00042266,-0.00029279,-0.00284564,
 -0.00126171,-0.00499513,-0.05568244,0.01357634,0.06156199,0.00006974,-
 0.00004216,0.00018957,0.00006665,0.00034310,-0.00006282,-0.00072768,0.
 00001925,-0.00106109,0.00052858,-0.00007501,-0.00024361,0.00003779,0.0
 0003720,0.00008399,-0.01188877,0.00095263,0.00520355,0.00217716,-0.000
 05844,-0.00145116,-0.00036421,0.00003731,-0.00008983,0.00046716,-0.000
 20205,0.00019912,0.00000119,0.00022068,0.00010072,-0.00000241,-0.00000
 761,0.00003213,0.00025996,-0.00007395,-0.00035973,-0.00217623,0.009292
 88,0.00444938,-0.33994909,0.01583299,0.05010409,-0.02144257,-0.0007922
 0,-0.01068973,0.00006376,-0.00049191,0.00460100,0.00022003,0.00015879,
 -0.00022201,0.00056703,-0.00009079,-0.00046901,-0.00046471,-0.00028237
 ,0.00080417,-0.00005551,0.00010474,0.00003040,0.00003661,0.00002593,-0
 .00005810,-0.00001636,0.00000858,-0.00000943,-0.00030933,0.00008926,0.
 00007854,0.00011888,-0.00009293,0.00001046,-0.00001646,-0.00003489,-0.
 00004849,0.00073751,-0.00009476,0.00009380,-0.00000811,-0.00008085,-0.
 00033249,-0.00000190,-0.00005282,0.00006161,0.00002388,0.00000518,-0.0
 0006230,-0.00000025,0.00000345,0.00000554,0.00000421,0.00000914,0.0000
 0247,0.00003180,0.00001595,-0.00004075,0.00008045,-0.00026422,0.000212
 82,0.00140487,0.00001239,-0.00103646,0.00020408,0.00012488,0.00034741,
 0.00006155,-0.00001467,0.00000508,0.00009808,-0.00005829,-0.00003563,-
 0.00000013,0.00000909,-0.00000395,-0.00001006,-0.00001075,-0.00000444,
 0.00002968,-0.00022509,-0.00011994,0.00029206,0.00059698,0.00123100,0.
 00001550,-0.00014974,-0.00019860,0.00118556,0.00014560,0.00059114,0.00
 042961,-0.00110759,0.00123438,0.36822040,0.00001011,0.00034504,-0.0002
 7198,-0.00037948,-0.00072298,-0.00007376,-0.00113550,0.00047286,-0.001
 34263,0.00038304,-0.00005279,0.00019857,0.00009171,-0.00008143,-0.0000
 0511,-0.02439793,0.00157602,0.00829921,0.00176576,0.00305162,-0.000429
 67,-0.00032386,-0.00011425,-0.00001744,-0.00004375,0.00008370,-0.00008
 937,-0.00019943,-0.00034365,-0.00025358,-0.00001602,0.00002924,-0.0000
 3944,0.00402755,0.00146909,0.00416245,0.03692145,-0.02345566,-0.017840
 74,0.01301545,-0.04116897,0.00143632,-0.00394887,0.00537401,-0.0020213
 6,-0.00012253,-0.00030272,0.00046151,0.00015076,-0.00024594,-0.0000258
 0,-0.00047584,0.00013657,0.00068493,0.00044690,0.00027860,-0.00170797,
 0.00004487,0.00001648,0.00008788,-0.00001948,0.00006191,-0.00005661,0.
 00000069,0.00000234,0.00000205,-0.00006524,0.00003294,-0.00004565,0.00
 001650,-0.00003835,0.00000091,-0.00001772,-0.00000380,-0.00001355,-0.0
 0008356,0.00012867,0.00005190,-0.00000640,0.00000380,-0.00011820,0.000
 00126,-0.00005362,0.00008325,0.00001426,0.00001043,-0.00004555,-0.0000
 0033,0.00000004,0.00000861,-0.00000425,-0.00000132,-0.00000564,-0.0000
 1408,0.00000561,0.00000199,0.00003100,0.00000961,0.00000430,0.00014064
 ,0.00022577,0.00008935,0.00000206,-0.00002587,-0.00000910,0.00002232,-
 0.00002174,0.00000225,0.00001503,-0.00002629,-0.00004607,-0.00001404,0
 .00000535,-0.00000330,0.00001225,0.00000078,0.00001685,-0.00027936,0.0
 0014912,-0.00000959,-0.00140778,0.00021775,-0.00014638,0.00001782,-0.0
 0012862,0.00003636,0.00047271,0.00012246,0.00025151,-0.00090579,-0.003
 35789,0.00281798,-0.02374293,0.05633605,-0.00009120,-0.00001397,-0.000
 23773,-0.00002661,-0.00002861,-0.00024878,0.00229426,0.00004572,0.0008
 8759,-0.00069898,-0.00003353,0.00013639,-0.00002008,-0.00005199,-0.000
 00681,0.02516411,0.00090464,-0.00448451,-0.00203994,-0.00059173,0.0014
 1050,-0.00020639,0.00018540,-0.00025990,-0.00005002,-0.00006225,0.0000
 5243,-0.00010567,-0.00011138,-0.00011343,0.00001107,0.00001601,-0.0000
 0518,0.00229506,0.00031682,0.00250640,0.01214921,-0.01116855,-0.002387
 71,0.05920348,0.00197288,-0.05115584,-0.03757781,-0.00043969,-0.016396
 24,-0.00722012,-0.00033045,0.00252736,0.00010715,0.00010938,-0.0006374
 3,0.00001846,0.00007892,0.00050146,0.00003581,-0.00001914,-0.00064877,
 0.00003580,0.00010235,0.00004701,0.00001450,0.00004925,-0.00004337,-0.
 00000696,0.00000542,-0.00000481,-0.00010220,0.00016351,0.00011133,0.00
 005207,-0.00011990,0.00009670,0.00002260,-0.00002796,-0.00004984,-0.00
 067874,-0.00002050,0.00010644,0.00021818,0.00007706,-0.00018221,0.0000
 1175,-0.00012775,0.00008574,0.00002521,0.00002746,-0.00005409,-0.00000
 161,0.00000210,0.00000786,-0.00000082,0.00000127,0.00001505,0.00002679
 ,0.00001976,-0.00005421,0.00030585,-0.00008291,0.00005568,0.00072061,-
 0.00008775,-0.00112377,0.00026233,-0.00003773,-0.00011742,0.00001960,-
 0.00001091,0.00000403,0.00003409,-0.00006881,-0.00001548,-0.00001842,0
 .00000029,0.00000805,0.00000313,0.00001447,-0.00000626,-0.00016938,0.0
 0009002,-0.00001675,-0.00086289,-0.00002923,0.00004210,-0.00017706,0.0
 0005159,0.00016277,-0.00069824,0.00024808,-0.00031228,0.00079485,0.003
 06204,-0.00267769,-0.05307281,0.00592031,0.07247560\\0.00737923,-0.020
 00683,-0.01141271,-0.00225232,0.02040336,-0.01732416,-0.00194435,-0.02
 507956,0.03872928,0.00478686,-0.00482363,0.01466615,-0.00441483,-0.010
 26747,-0.03017813,-0.02360695,-0.00308058,-0.03594428,0.01743987,-0.00
 264974,0.02291902,0.00425149,0.01008104,0.01863310,-0.00429401,0.01769
 260,0.00282321,0.00430764,0.01669579,0.00299582,0.00209165,-0.03452367
 ,-0.00398233,0.00414825,0.00808675,0.01236987,-0.01305326,-0.00237767,
 0.00695109,-0.00792991,0.00547607,-0.00940379,0.02367928,0.00140851,0.
 04438969,-0.05651073,0.02323640,-0.00713687,-0.02092486,0.01803799,0.0
 2369161,0.02330575,0.00091198,-0.00940597,0.00505072,0.00596775,-0.024
 40820,-0.01596749,0.03863907,0.00365777,0.00644817,0.00307925,-0.02728
 897,-0.00202205,-0.00397913,0.03067386,-0.00756890,-0.01136152,-0.0006
 7647,-0.00810601,-0.02500626,-0.00741254,0.00000741,0.03288199,0.00604
 394,0.04181957,-0.02659834,-0.00361673,-0.02887094,-0.01056497,0.00235
 316,0.07369486,-0.02998381,-0.00318159,-0.01925962,0.01892593,0.007399
 01,-0.00141788,-0.00205534,-0.00279347,-0.01692394,0.00106481,-0.00277
 892,0.01876117,-0.00229984,-0.00719122,-0.02326765,-0.00317598,-0.0029
 6608,0.01354504,-0.00716049,0.00452179,-0.01589086,0.00282351,0.002343
 61,-0.00218479,-0.00688820,-0.01642077,0.01874537,-0.00221564,0.002086
 45,-0.00076676,0.00363020,-0.00168160,0.00470212,0.00836869,-0.0168942
 0,-0.02106667,-0.00089264,-0.00372529,0.02155472,-0.00135416,-0.001673
 18,-0.01925409,-0.00142457,0.00071889,0.02228817,-0.00260021,-0.002110
 84,-0.02131812,0.00383506,0.00571840,0.02080965,-0.00087650,-0.0040774
 4\\\@


 CHRISTMAS IS ON TOP OF A STEEP HILL.
 THE CLOSER YOU GET, THE STEEPER THE HILL IS.
          -- LINUS, OF PEANUTS
 Job cpu time:  3 days 23 hours 12 minutes 29.0 seconds.
 File lengths (MBytes):  RWF=   2351 Int=      0 D2E=      0 Chk=     43 Scr=      1
 Normal termination of Gaussian 09 at Tue Feb 16 09:23:19 2016.
Gaussian '09 finished on node014 at Tue Feb 16 09:23:19 EST 2016.
