Gaussian '09 started on node010 at Sun Mar 20 15:04:14 EDT 2016.
 Entering Gaussian System, Link 0=/usr/local/gaussian/g09/g09
 Initial command:
 /usr/local/gaussian/g09/l1.exe /home/srmcgrat/thesis/gaussian/cellobiose/280K/9887ps/1/2dp/gaussian31294/Gau-31330.inp -scrdir=/home/srmcgrat/thesis/gaussian/cellobiose/280K/9887ps/1/2dp/gaussian31294/
 Entering Link 1 = /usr/local/gaussian/g09/l1.exe PID=     31332.
  
 Copyright (c) 1988,1990,1992,1993,1995,1998,2003,2009,2010,
            Gaussian, Inc.  All Rights Reserved.
  
 This is part of the Gaussian(R) 09 program.  It is based on
 the Gaussian(R) 03 system (copyright 2003, Gaussian, Inc.),
 the Gaussian(R) 98 system (copyright 1998, Gaussian, Inc.),
 the Gaussian(R) 94 system (copyright 1995, Gaussian, Inc.),
 the Gaussian 92(TM) system (copyright 1992, Gaussian, Inc.),
 the Gaussian 90(TM) system (copyright 1990, Gaussian, Inc.),
 the Gaussian 88(TM) system (copyright 1988, Gaussian, Inc.),
 the Gaussian 86(TM) system (copyright 1986, Carnegie Mellon
 University), and the Gaussian 82(TM) system (copyright 1983,
 Carnegie Mellon University). Gaussian is a federally registered
 trademark of Gaussian, Inc.
  
 This software contains proprietary and confidential information,
 including trade secrets, belonging to Gaussian, Inc.
  
 This software is provided under written license and may be
 used, copied, transmitted, or stored only in accord with that
 written license.
  
 The following legend is applicable only to US Government
 contracts under FAR:
  
                    RESTRICTED RIGHTS LEGEND
  
 Use, reproduction and disclosure by the US Government is
 subject to restrictions as set forth in subparagraphs (a)
 and (c) of the Commercial Computer Software - Restricted
 Rights clause in FAR 52.227-19.
  
 Gaussian, Inc.
 340 Quinnipiac St., Bldg. 40, Wallingford CT 06492
  
  
 ---------------------------------------------------------------
 Warning -- This program may not be used in any manner that
 competes with the business of Gaussian, Inc. or will provide
 assistance to any competitor of Gaussian, Inc.  The licensee
 of this program is prohibited from giving any competitor of
 Gaussian, Inc. access to this program.  By using this program,
 the user acknowledges that Gaussian, Inc. is engaged in the
 business of creating and licensing software in the field of
 computational chemistry and represents and warrants to the
 licensee that it is not a competitor of Gaussian, Inc. and that
 it will not use this program in any manner prohibited above.
 ---------------------------------------------------------------
  

 Cite this work as:
 Gaussian 09, Revision B.01,
 M. J. Frisch, G. W. Trucks, H. B. Schlegel, G. E. Scuseria, 
 M. A. Robb, J. R. Cheeseman, G. Scalmani, V. Barone, B. Mennucci, 
 G. A. Petersson, H. Nakatsuji, M. Caricato, X. Li, H. P. Hratchian, 
 A. F. Izmaylov, J. Bloino, G. Zheng, J. L. Sonnenberg, M. Hada, 
 M. Ehara, K. Toyota, R. Fukuda, J. Hasegawa, M. Ishida, T. Nakajima, 
 Y. Honda, O. Kitao, H. Nakai, T. Vreven, J. A. Montgomery, Jr., 
 J. E. Peralta, F. Ogliaro, M. Bearpark, J. J. Heyd, E. Brothers, 
 K. N. Kudin, V. N. Staroverov, T. Keith, R. Kobayashi, J. Normand, 
 K. Raghavachari, A. Rendell, J. C. Burant, S. S. Iyengar, J. Tomasi, 
 M. Cossi, N. Rega, J. M. Millam, M. Klene, J. E. Knox, J. B. Cross, 
 V. Bakken, C. Adamo, J. Jaramillo, R. Gomperts, R. E. Stratmann, 
 O. Yazyev, A. J. Austin, R. Cammi, C. Pomelli, J. W. Ochterski, 
 R. L. Martin, K. Morokuma, V. G. Zakrzewski, G. A. Voth, 
 P. Salvador, J. J. Dannenberg, S. Dapprich, A. D. Daniels, 
 O. Farkas, J. B. Foresman, J. V. Ortiz, J. Cioslowski, 
 and D. J. Fox, Gaussian, Inc., Wallingford CT, 2010.
 
 ******************************************
 Gaussian 09:  EM64L-G09RevB.01 12-Aug-2010
                20-Mar-2016 
 ******************************************
 -------------------------------------------------
 # freq=raman b3lyp/6-31+g(2d,p) geom=connectivity
 -------------------------------------------------
 1/10=4,30=1,38=1,57=2/1,3;
 2/12=2,17=6,18=5,40=1/2;
 3/5=1,6=6,7=112,11=2,16=1,25=1,30=1,71=2,74=-5/1,2,3;
 4//1;
 5/5=2,38=5,98=1/2;
 8/6=4,10=90,11=11/1;
 10/13=10,15=4/2;
 11/6=3,8=1,9=11,15=111,16=1/1,2,10;
 10/6=1/2;
 6/7=2,8=2,9=2,10=2,18=1,28=1/1;
 7/8=1,10=1,25=1/1,2,3,16;
 1/10=4,30=1/3;
 99//99;
 -----------------
 280 9887/9887.com
 -----------------
 Symbolic Z-matrix:
 Charge =  0 Multiplicity = 1
 O                     7.753     7.838     12.007 
 C                     8.226     8.048     13.346 
 C                     7.763     9.416     13.818 
 O                     8.183     10.515    12.996 
 H                     8.159     10.109    12.082 
 C                     7.967     9.761     15.284 
 O                     7.255     10.894    15.802 
 H                     7.583     11.142    16.713 
 C                     8.218     5.606     14.029 
 O                     7.5       4.906     13.003 
 H                     7.539     3.946     13.283 
 C                     7.758     7.016     14.36 
 O                     8.314     7.364     15.636 
 C                     7.725     8.555     16.177 
 O                     8.576     8.589     17.331 
 C                     7.943     8.423     18.608 
 C                     8.429     7.073     19.11 
 O                     8.219     6.061     18.114 
 H                     8.275     6.465     17.201 
 C                     7.905     6.761     20.502 
 O                     8.746     5.656     20.864 
 H                     8.678     5.573     21.858 
 C                     7.569     10.756    19.426 
 O                     7.788     11.602    18.288 
 H                     7.58      12.538    18.574 
 C                     8.346     9.467     19.637 
 O                     7.831     9.156     20.94 
 C                     8.217     7.884     21.478 
 O                     7.424     7.815     22.673 
 H                     8.0018    7.77081   23.43837 
 H                     8.50212   7.74498   11.41389 
 H                     7.73423   11.35974   20.29381 
 H                     6.5322    10.49166   19.41715 
 H                     9.40249   9.63565   19.65396 
 H                     6.87929   8.41062   18.49277 
 H                     9.49018   7.16282   19.21362 
 H                     6.86842   6.49569   20.49775 
 H                     9.25849   7.88586   21.72336 
 H                     8.1602    5.02373   14.92484 
 H                     9.24506   5.65737   13.73334 
 H                     6.6899    7.03624   14.42035 
 H                     9.29584   8.04111   13.32909 
 H                     6.70004   9.38485   13.69946 
 H                     9.00533   9.99932   15.38383 
 H                     6.69462   8.42211   16.43302 
 

 GradGradGradGradGradGradGradGradGradGradGradGradGradGradGradGradGradGrad
 Berny optimization.
 Initialization pass.
 Trust Radius=3.00D-01 FncErr=1.00D-07 GrdErr=1.00D-07
 Number of steps in this run=      2 maximum allowed number of steps=      2.
 GradGradGradGradGradGradGradGradGradGradGradGradGradGradGradGradGradGrad

                          Input orientation:                          
 ---------------------------------------------------------------------
 Center     Atomic      Atomic             Coordinates (Angstroms)
 Number     Number       Type             X           Y           Z
 ---------------------------------------------------------------------
      1          8           0        7.753000    7.838000   12.007000
      2          6           0        8.226000    8.048000   13.346000
      3          6           0        7.763000    9.416000   13.818000
      4          8           0        8.183000   10.515000   12.996000
      5          1           0        8.159000   10.109000   12.082000
      6          6           0        7.967000    9.761000   15.284000
      7          8           0        7.255000   10.894000   15.802000
      8          1           0        7.583000   11.142000   16.713000
      9          6           0        8.218000    5.606000   14.029000
     10          8           0        7.500000    4.906000   13.003000
     11          1           0        7.539000    3.946000   13.283000
     12          6           0        7.758000    7.016000   14.360000
     13          8           0        8.314000    7.364000   15.636000
     14          6           0        7.725000    8.555000   16.177000
     15          8           0        8.576000    8.589000   17.331000
     16          6           0        7.943000    8.423000   18.608000
     17          6           0        8.429000    7.073000   19.110000
     18          8           0        8.219000    6.061000   18.114000
     19          1           0        8.275000    6.465000   17.201000
     20          6           0        7.905000    6.761000   20.502000
     21          8           0        8.746000    5.656000   20.864000
     22          1           0        8.678000    5.573000   21.858000
     23          6           0        7.569000   10.756000   19.426000
     24          8           0        7.788000   11.602000   18.288000
     25          1           0        7.580000   12.538000   18.574000
     26          6           0        8.346000    9.467000   19.637000
     27          8           0        7.831000    9.156000   20.940000
     28          6           0        8.217000    7.884000   21.478000
     29          8           0        7.424000    7.815000   22.673000
     30          1           0        8.001803    7.770807   23.438370
     31          1           0        8.502115    7.744981   11.413895
     32          1           0        7.734235   11.359736   20.293814
     33          1           0        6.532205   10.491657   19.417154
     34          1           0        9.402489    9.635653   19.653959
     35          1           0        6.879295    8.410620   18.492769
     36          1           0        9.490177    7.162819   19.213617
     37          1           0        6.868423    6.495688   20.497745
     38          1           0        9.258488    7.885860   21.723357
     39          1           0        8.160197    5.023734   14.924838
     40          1           0        9.245058    5.657365   13.733344
     41          1           0        6.689895    7.036241   14.420354
     42          1           0        9.295844    8.041110   13.329086
     43          1           0        6.700043    9.384848   13.699460
     44          1           0        9.005335    9.999316   15.383831
     45          1           0        6.694615    8.422113   16.433024
 ---------------------------------------------------------------------
                    Distance matrix (angstroms):
                    1          2          3          4          5
     1  O    0.000000
     2  C    1.435531   0.000000
     3  C    2.402063   1.519400   0.000000
     4  O    2.886061   2.492075   1.435230   0.000000
     5  H    2.308225   2.418658   1.910696   1.000404   0.000000
     6  C    3.805582   2.599480   1.519802   2.418701   3.226573
     7  O    4.897874   3.882588   2.525629   2.979675   3.907920
     8  H    5.752543   4.617681   3.375278   3.816965   4.779647
     9  C    3.047381   2.535728   3.842870   5.016632   4.906251
    10  O    3.106871   3.242975   4.590588   5.650435   5.324822
    11  H    4.101419   4.159608   5.500664   6.606729   6.309467
    12  C    2.492452   1.520606   2.460445   3.779434   3.862219
    13  O    3.702572   2.391589   2.796324   4.112853   4.493325
    14  C    4.231285   2.919351   2.511503   3.764323   4.401397
    15  O    5.439330   4.036757   3.699468   4.759848   5.480537
    16  C    6.629595   5.282931   4.895156   5.994048   6.743732
    17  C    7.175988   5.849404   5.825673   7.020604   7.660482
    18  O    6.377330   5.165466   5.469879   6.784787   7.264635
    19  H    5.397708   4.167651   4.518322   5.838920   6.284612
    20  C    8.564348   7.277894   7.193403   8.397014   9.064768
    21  O    9.175708   7.906478   8.046739   9.264571   9.863939
    22  H   10.150273   8.876039   8.958095  10.158909  10.789571
    23  C    7.974343   6.688147   5.769133   6.463743   7.396015
    24  O    7.322560   6.102960   4.975954   5.416905   6.393835
    25  H    8.077464   6.921662   5.692092   5.964078   6.955670
    26  C    7.824461   6.450166   5.848355   6.725158   7.584534
    27  O    9.030044   7.684564   7.127069   8.067089   8.915153
    28  C    9.482471   8.133659   7.824880   8.880746   9.656024
    29  O   10.671098   9.364316   9.004951  10.075237  10.861489
    30  H   11.434275  10.098665   9.762950  10.798450  11.595645
    31  H    0.960000   1.975118   3.019655   3.205916   2.480459
    32  H    9.004124   7.712428   6.761294   7.360235   8.317370
    33  H    7.965088   6.760127   5.832874   6.629999   7.523123
    34  H    8.026727   6.610228   6.065855   6.825601   7.687970
    35  H    6.569357   5.332386   4.862632   6.028477   6.754265
    36  H    7.443721   6.067175   6.096937   7.183633   7.830196
    37  H    8.641587   7.443127   7.344895   8.611571   9.249129
    38  H    9.832415   8.442300   8.189779   9.178007   9.955249
    39  H    4.074270   3.412220   4.546961   5.820218   5.825947
    40  H    3.156211   2.627480   4.041163   5.026754   4.870679
    41  H    2.756317   2.130143   2.679111   4.044738   4.131345
    42  H    2.041943   1.070000   2.116358   2.733039   2.669046
    43  H    2.523069   2.059282   1.070000   1.992803   2.295459
    44  H    4.200311   2.927072   2.082181   2.577576   3.410337
    45  H    4.588143   3.466240   2.994597   4.290524   4.890953
                    6          7          8          9         10
     6  C    0.000000
     7  O    1.434907   0.000000
     8  H    2.024020   0.999504   0.000000
     9  C    4.347649   5.659845   6.185012   0.000000
    10  O    5.384429   6.614421   7.256630   1.434643   0.000000
    11  H    6.164528   7.395994   7.971778   1.942462   1.000760
    12  C    2.903874   4.167884   4.753011   1.519625   2.521926
    13  O    2.447432   3.689165   3.995945   2.383743   3.692838
    14  C    1.520016   2.415046   2.645757   3.681515   4.841498
    15  O    2.436119   3.065274   2.808163   4.464264   5.783930
    16  C    3.583266   3.801687   3.333705   5.383155   6.631860
    17  C    4.698624   5.188563   4.797717   5.292747   6.546326
    18  O    4.665019   5.443577   5.308847   4.110262   5.288980
    19  H    3.825359   4.755380   4.753035   3.286748   4.544701
    20  C    6.019250   6.292391   5.801152   6.582684   7.735635
    21  O    6.970959   7.435292   6.977074   6.855546   7.994394
    22  H    7.827026   8.186153   7.660536   7.842572   8.957879
    23  C    4.278387   3.640195   2.740358   7.488078   8.688049
    24  O    3.527795   2.639233   1.653557   7.367225   8.535255
    25  H    4.322684   3.239189   2.326402   8.313645   9.449331
    26  C    4.379348   4.234836   3.455079   6.809799   8.094961
    27  O    5.689891   5.454490   4.676882   7.779087   9.009330
    28  C    6.476980   6.496347   5.807043   7.789537   9.011559
    29  O    7.660228   7.531231   6.827577   8.957056  10.098364
    30  H    8.393797   8.284093   7.534649   9.657607  10.833091
    31  H    4.396407   5.543201   6.361212   3.390389   3.404307
    32  H    5.263874   4.541252   3.590614   8.519824   9.739689
    33  H    4.435703   3.708592   2.973141   7.466174   8.560232
    34  H    4.601400   4.586146   3.772117   7.020063   8.379996
    35  H    3.647304   3.680838   3.335149   5.439050   6.542568
    36  H    4.951010   5.527825   5.071911   5.560789   6.901145
    37  H    6.249182   6.445511   6.035158   6.667650   7.687470
    38  H    6.830037   6.937243   6.205915   8.092188   9.381709
    39  H    4.754789   6.004067   6.400302   1.070000   2.035481
    40  H    4.569221   5.971768   6.459257   1.070000   2.035481
    41  H    3.130686   4.136495   4.786556   2.129284   2.683857
    42  H    2.923275   4.291775   4.899003   2.753432   3.627713
    43  H    2.063356   2.646921   3.598419   4.085643   4.602724
    44  H    1.070000   2.009726   2.257311   4.664407   5.820331
    45  H    2.175279   2.611981   2.874960   4.003814   4.977626
                   11         12         13         14         15
    11  H    0.000000
    12  C    3.260796   0.000000
    13  O    4.221369   1.434718   0.000000
    14  C    5.445430   2.381407   1.434602   0.000000
    15  O    6.246529   3.459811   2.107675   1.434250   0.000000
    16  C    6.968671   4.478770   3.176776   2.444322   1.434913
    17  C    6.672643   4.797498   3.488063   3.360719   2.341945
    18  O    5.317348   3.900905   2.801306   3.196254   2.670454
    19  H    4.715695   2.939757   1.805255   2.391480   2.149157
    20  C    7.757070   6.149049   4.920249   4.685772   3.721165
    21  O    7.864637   6.717720   5.516872   5.604874   4.594940
    22  H    8.801993   7.690816   6.484864   6.486470   5.440624
    23  C    9.171338   6.299816   5.140505   3.927434   3.177887
    24  O    9.150211   6.038334   5.026970   3.707357   3.258061
    25  H   10.090532   6.948522   5.995071   4.650906   4.258129
    26  C    8.456122   5.848066   4.520137   3.631664   2.478189
    27  O    9.266014   6.919634   5.619339   4.801938   3.728457
    28  C    9.117322   7.185404   5.865899   5.365902   4.221790
    29  O   10.156500   8.357986   7.107381   6.544938   5.519343
    30  H   10.861624   9.112956   7.819203   7.308835   6.188627
    31  H    4.342051   3.124845   4.243431   4.893589   5.977454
    32  H   10.205543   7.353826   6.164192   4.981444   4.142923
    33  H    9.027021   6.257602   5.220552   3.958788   3.485577
    34  H    8.742646   6.131307   4.742279   4.008868   2.678564
    35  H    6.892731   4.449367   3.363766   2.469585   2.064058
    36  H    7.023335   5.155540   3.771367   3.778235   2.532579
    37  H    7.681349   6.223663   5.145894   4.862441   4.162457
    38  H    9.471999   7.564863   6.182258   5.793221   4.500333
    39  H    2.059861   2.109485   2.450766   3.771889   4.321300
    40  H    2.458092   2.109485   2.720215   4.083910   4.688843
    41  H    3.400609   1.070000   2.054979   2.542416   3.800041
    42  H    4.456293   2.116270   2.596988   3.292757   4.102886
    43  H    5.518909   2.677130   3.230924   2.806668   4.164213
    44  H    6.573147   3.391791   2.736133   2.086726   2.442292
    45  H    5.538161   2.721281   2.092190   1.070000   2.091368
                   16         17         18         19         20
    16  C    0.000000
    17  C    1.520099   0.000000
    18  O    2.428838   1.435361   0.000000
    19  H    2.433852   2.009393   0.999960   0.000000
    20  C    2.520104   1.519732   2.508215   3.334834   0.000000
    21  O    3.659322   2.277036   2.829179   3.780726   1.435044
    22  H    4.384658   3.140622   3.803467   4.758752   1.961532
    23  C    2.500378   3.795253   4.918015   4.884848   4.150987
    24  O    3.198823   4.647409   5.560460   5.273282   5.324544
    25  H    4.131120   5.556467   6.524680   6.264941   6.098896
    26  C    1.520259   2.452724   3.733161   3.866671   2.874916
    27  O    2.447051   2.836440   4.209019   4.628038   2.435846
    28  C    2.933001   2.511989   3.826203   4.506623   1.520213
    29  O    4.142855   3.775653   4.949043   5.699955   2.460796
    30  H    4.874555   4.405022   5.596385   6.378444   3.106662
    31  H    7.247584   7.725732   6.914286   5.931317   9.160700
    32  H    3.392634   4.501135   5.750059   5.815184   4.606612
    33  H    2.631429   3.921657   4.916728   4.915551   4.120590
    34  H    2.166717   2.794774   4.068201   4.164286   3.350414
    35  H    1.070000   2.138174   2.731115   2.720680   2.794696
    36  H    2.085326   1.070000   2.009740   2.452393   2.081868
    37  H    2.905234   2.166685   2.774032   3.584401   1.070000
    38  H    3.424102   2.859795   4.175896   4.841261   2.142184
    39  H    5.016759   4.667690   3.354122   2.696543   5.847047
    40  H    5.753813   5.619467   4.517285   3.690247   6.987737
    41  H    4.585821   5.001862   4.114885   3.251287   6.207951
    42  H    5.462871   5.925169   5.289219   4.303251   7.417805
    43  H    5.154014   6.132526   5.730912   4.823565   7.389929
    44  H    3.742806   4.772822   4.856180   4.040654   6.155736
    45  H    2.507785   3.463293   3.274795   2.630151   4.558606
                   21         22         23         24         25
    21  O    0.000000
    22  H    0.999774   0.000000
    23  C    5.427999   5.831637   0.000000
    24  O    6.550455   7.062991   1.434824   0.000000
    25  H    7.346127   7.778270   1.975234   1.000578   0.000000
    26  C    4.023587   4.495142   1.519793   2.586386   3.338827
    27  O    3.618425   3.794473   2.218297   3.608028   4.135079
    28  C    2.370827   2.386973   3.588731   4.917689   5.522563
    29  O    3.111502   2.695052   4.383322   5.805350   6.255627
    30  H    3.413740   2.790191   5.019742   6.422621   6.823939
    31  H    9.681312  10.669010   8.609922   7.914536   8.665473
    32  H    5.820771   6.068252   1.070000   2.021107   2.090420
    33  H    5.511609   5.895367   1.070000   2.021107   2.448735
    34  H    4.211034   4.678443   2.160746   2.887722   3.593243
    35  H    4.085983   4.755229   2.616758   3.324542   4.187225
    36  H    2.355434   3.190599   4.080070   4.843604   5.740248
    37  H    2.089141   2.444630   4.448562   5.639417   6.380962
    38  H    2.444057   2.388392   4.045976   5.270076   5.863290
    39  H    6.001381   6.974135   7.312240   7.397498   8.373602
    40  H    7.148099   8.144858   7.823783   7.629324   8.575984
    41  H    6.903131   7.836595   6.298089   6.083640   6.950857
    42  H    7.922500   8.900319   6.893836   6.288431   7.118656
    43  H    8.331919   9.219776   5.952176   5.210961   5.871783
    44  H    6.997421   7.849477   4.356003   3.533369   4.318990
    45  H    5.611872   6.440623   3.894802   3.840326   4.723156
                   26         27         28         29         30
    26  C    0.000000
    27  O    1.435185   0.000000
    28  C    2.431422   1.434024   0.000000
    29  O    3.577217   2.228726   1.435839   0.000000
    30  H    4.176835   2.861780   1.975392   0.960000   0.000000
    31  H    8.402927   9.653396  10.069103  11.310821  12.034907
    32  H    2.094781   2.298558   3.703525   4.280411   4.779146
    33  H    2.094781   2.406223   3.726325   4.308170   5.072763
    34  H    1.070000   2.086515   2.792990   4.042747   4.445372
    35  H    2.139258   2.729519   3.313365   4.257440   5.111590
    36  H    2.607229   3.115451   2.696018   4.081882   4.520337
    37  H    3.428238   2.863460   2.169555   2.604032   3.399670
    38  H    2.772277   2.065096   1.070000   2.066927   2.129264
    39  H    6.479322   7.305216   7.150405   8.268445   8.947163
    40  H    7.083416   8.134857   8.123700   9.374918  10.009988
    41  H    5.988712   6.949913   7.270565   8.321751   9.142500
    42  H    6.536448   7.830374   8.221520   9.532243  10.195353
    43  H    6.162005   7.331906   8.065940   9.138542   9.957212
    44  H    4.336765   5.741190   6.498841   7.771991   8.417181
    45  H    3.752908   4.705613   5.297075   6.311726   7.155963
                   31         32         33         34         35
    31  H    0.000000
    32  H    9.618162   0.000000
    33  H    8.687746   1.722489   0.000000
    34  H    8.501998   2.482931   3.004555   0.000000
    35  H    7.292947   3.559771   2.303405   3.035717   0.000000
    36  H    7.883580   4.675924   4.457823   2.513264   2.982169
    37  H    9.313754   4.944712   4.153131   4.122238   2.772546
    38  H   10.338131   4.053979   4.420562   2.713838   4.046310
    39  H    4.455201   8.315784   7.261505   6.721434   5.083488
    40  H    3.207795   8.822663   7.939500   7.134791   5.985765
    41  H    3.581236   7.367549   6.077235   6.442494   4.302250
    42  H    2.094195   7.871425   7.120917   6.523646   5.713132
    43  H    3.340724   6.960979   5.826253   6.543865   4.894595
    44  H    4.593000   5.251130   4.756729   4.303949   4.087725
    45  H    5.377474   4.961464   3.635165   4.379461   2.068040
                   36         37         38         39         40
    36  H    0.000000
    37  H    2.994602   0.000000
    38  H    2.622072   3.024419   0.000000
    39  H    4.973747   5.906998   7.457739   0.000000
    40  H    5.688573   7.218608   8.294979   1.731494   0.000000
    41  H    5.552744   6.103995   7.788028   2.542927   2.983645
    42  H    5.952887   7.724660   8.395790   3.597315   2.418314
    43  H    6.567205   7.388658   8.554269   4.759508   4.513577
    44  H    4.790412   6.556975   6.687329   5.067677   4.651248
    45  H    4.139164   4.501475   5.903273   3.996441   4.629996
                   41         42         43         44         45
    41  H    0.000000
    42  H    2.998599   0.000000
    43  H    2.456775   2.946352   0.000000
    44  H    3.881928   2.853234   2.920453   0.000000
    45  H    2.443667   4.067676   2.898148   2.987943   0.000000
 Stoichiometry    C12H22O11
 Framework group  C1[X(C12H22O11)]
 Deg. of freedom   129
 Full point group                 C1      NOp   1
 Largest Abelian subgroup         C1      NOp   1
 Largest concise Abelian subgroup C1      NOp   1
                         Standard orientation:                         
 ---------------------------------------------------------------------
 Center     Atomic      Atomic             Coordinates (Angstroms)
 Number     Number       Type             X           Y           Z
 ---------------------------------------------------------------------
      1          8           0       -5.101640   -0.226817    0.174559
      2          6           0       -3.750450   -0.088081   -0.289973
      3          6           0       -3.247078    1.296870    0.080304
      4          8           0       -4.031610    2.384002   -0.432081
      5          1           0       -4.956908    2.005613   -0.393958
      6          6           0       -1.769121    1.586423   -0.123654
      7          8           0       -1.230038    2.754036    0.512764
      8          1           0       -0.307701    2.952780    0.182910
      9          6           0       -3.136507   -2.540486   -0.093252
     10          8           0       -4.192225   -3.158272    0.656415
     11          1           0       -3.938757   -4.125751    0.691915
     12          6           0       -2.772839   -1.110083    0.268625
     13          8           0       -1.479520   -0.838131   -0.289751
     14          6           0       -0.914009    0.377701    0.220183
     15          8           0        0.252895    0.318345   -0.611614
     16          6           0        1.515270    0.164680    0.053044
     17          6           0        1.986251   -1.230247   -0.325181
     18          8           0        0.959234   -2.197001   -0.058945
     19          1           0        0.058866   -1.773719   -0.159399
     20          6           0        3.361072   -1.540528    0.243305
     21          8           0        3.704233   -2.713358   -0.509065
     22          1           0        4.694401   -2.817920   -0.418598
     23          6           0        2.392885    2.495879    0.270287
     24          8           0        1.282446    3.353975   -0.028572
     25          1           0        1.591532    4.294621    0.115670
     26          6           0        2.579011    1.148351   -0.407427
     27          8           0        3.865038    0.840806    0.150523
     28          6           0        4.372720   -0.470023   -0.133041
     29          8           0        5.553505   -0.513086    0.682757
     30          1           0        6.325756   -0.619971    0.122574
     31          1           0       -5.686030   -0.358293   -0.575642
     32          1           0        3.279654    3.062331    0.076192
     33          1           0        2.361354    2.308309    1.323247
     34          1           0        2.616254    1.238863   -1.472941
     35          1           0        1.384088    0.233141    1.112763
     36          1           0        2.107963   -1.221005   -1.388196
     37          1           0        3.334106   -1.729204    1.296194
     38          1           0        4.633339   -0.550854   -1.167664
     39          1           0       -2.258327   -3.140899    0.021657
     40          1           0       -3.415450   -2.556332   -1.126131
     41          1           0       -2.727673   -1.013510    1.333300
     42          1           0       -3.751798   -0.172641   -1.356626
     43          1           0       -3.382083    1.346649    1.140585
     44          1           0       -1.647359    1.745482   -1.174736
     45          1           0       -0.677017    0.313584    1.261635
 ---------------------------------------------------------------------
 Rotational constants (GHZ):      0.4118848      0.1456957      0.1105698
 Standard basis: 6-31+G(2d,p) (6D, 7F)
 There are   685 symmetry adapted basis functions of A   symmetry.
 Integral buffers will be    131072 words long.
 Raffenetti 2 integral format.
 Two-electron integral symmetry is turned on.
   685 basis functions,  1028 primitive gaussians,   685 cartesian basis functions
    91 alpha electrons       91 beta electrons
       nuclear repulsion energy      2289.1274226422 Hartrees.
 NAtoms=   45 NActive=   45 NUniq=   45 SFac= 1.00D+00 NAtFMM=   50 NAOKFM=F Big=F
 One-electron integrals computed using PRISM.
 NBasis=   685 RedAO= T  NBF=   685
 NBsUse=   685 1.00D-06 NBFU=   685
 Harris functional with IExCor=  402 diagonalized for initial guess.
 ExpMin= 4.38D-02 ExpMax= 5.48D+03 ExpMxC= 8.25D+02 IAcc=2 IRadAn=         0 AccDes= 0.00D+00
 HarFok:  IExCor=  402 AccDes= 0.00D+00 IRadAn=         0 IDoV= 1
 ScaDFX=  1.000000  1.000000  1.000000  1.000000
 FoFCou: FMM=F IPFlag=           0 FMFlag=      100000 FMFlg1=           0
         NFxFlg=           0 DoJE=T BraDBF=F KetDBF=T FulRan=T
         Omega=  0.000000  0.000000  1.000000  0.000000  0.000000 ICntrl=     500 IOpCl=  0
         NMat0=    1 NMatS0=    1 NMatT0=    0 NMatD0=    1 NMtDS0=    0 NMtDT0=    0
         I1Cent=           4 NGrid=           0.
 Petite list used in FoFCou.
 Initial guess orbital symmetries:
       Occupied  (A) (A) (A) (A) (A) (A) (A) (A) (A) (A) (A) (A)
                 (A) (A) (A) (A) (A) (A) (A) (A) (A) (A) (A) (A)
                 (A) (A) (A) (A) (A) (A) (A) (A) (A) (A) (A) (A)
                 (A) (A) (A) (A) (A) (A) (A) (A) (A) (A) (A) (A)
                 (A) (A) (A) (A) (A) (A) (A) (A) (A) (A) (A) (A)
                 (A) (A) (A) (A) (A) (A) (A) (A) (A) (A) (A) (A)
                 (A) (A) (A) (A) (A) (A) (A) (A) (A) (A) (A) (A)
                 (A) (A) (A) (A) (A) (A) (A)
       Virtual   (A) (A) (A) (A) (A) (A) (A) (A) (A) (A) (A) (A)
                 (A) (A) (A) (A) (A) (A) (A) (A) (A) (A) (A) (A)
                 (A) (A) (A) (A) (A) (A) (A) (A) (A) (A) (A) (A)
                 (A) (A) (A) (A) (A) (A) (A) (A) (A) (A) (A) (A)
                 (A) (A) (A) (A) (A) (A) (A) (A) (A) (A) (A) (A)
                 (A) (A) (A) (A) (A) (A) (A) (A) (A) (A) (A) (A)
                 (A) (A) (A) (A) (A) (A) (A) (A) (A) (A) (A) (A)
                 (A) (A) (A) (A) (A) (A) (A) (A) (A) (A) (A) (A)
                 (A) (A) (A) (A) (A) (A) (A) (A) (A) (A) (A) (A)
                 (A) (A) (A) (A) (A) (A) (A) (A) (A) (A) (A) (A)
                 (A) (A) (A) (A) (A) (A) (A) (A) (A) (A) (A) (A)
                 (A) (A) (A) (A) (A) (A) (A) (A) (A) (A) (A) (A)
                 (A) (A) (A) (A) (A) (A) (A) (A) (A) (A) (A) (A)
                 (A) (A) (A) (A) (A) (A) (A) (A) (A) (A) (A) (A)
                 (A) (A) (A) (A) (A) (A) (A) (A) (A) (A) (A) (A)
                 (A) (A) (A) (A) (A) (A) (A) (A) (A) (A) (A) (A)
                 (A) (A) (A) (A) (A) (A) (A) (A) (A) (A) (A) (A)
                 (A) (A) (A) (A) (A) (A) (A) (A) (A) (A) (A) (A)
                 (A) (A) (A) (A) (A) (A) (A) (A) (A) (A) (A) (A)
                 (A) (A) (A) (A) (A) (A) (A) (A) (A) (A) (A) (A)
                 (A) (A) (A) (A) (A) (A) (A) (A) (A) (A) (A) (A)
                 (A) (A) (A) (A) (A) (A) (A) (A) (A) (A) (A) (A)
                 (A) (A) (A) (A) (A) (A) (A) (A) (A) (A) (A) (A)
                 (A) (A) (A) (A) (A) (A) (A) (A) (A) (A) (A) (A)
                 (A) (A) (A) (A) (A) (A) (A) (A) (A) (A) (A) (A)
                 (A) (A) (A) (A) (A) (A) (A) (A) (A) (A) (A) (A)
                 (A) (A) (A) (A) (A) (A) (A) (A) (A) (A) (A) (A)
                 (A) (A) (A) (A) (A) (A) (A) (A) (A) (A) (A) (A)
                 (A) (A) (A) (A) (A) (A) (A) (A) (A) (A) (A) (A)
                 (A) (A) (A) (A) (A) (A) (A) (A) (A) (A) (A) (A)
                 (A) (A) (A) (A) (A) (A) (A) (A) (A) (A) (A) (A)
                 (A) (A) (A) (A) (A) (A) (A) (A) (A) (A) (A) (A)
                 (A) (A) (A) (A) (A) (A) (A) (A) (A) (A) (A) (A)
                 (A) (A) (A) (A) (A) (A) (A) (A) (A) (A) (A) (A)
                 (A) (A) (A) (A) (A) (A) (A) (A) (A) (A) (A) (A)
                 (A) (A) (A) (A) (A) (A) (A) (A) (A) (A) (A) (A)
                 (A) (A) (A) (A) (A) (A) (A) (A) (A) (A) (A) (A)
                 (A) (A) (A) (A) (A) (A) (A) (A) (A) (A) (A) (A)
                 (A) (A) (A) (A) (A) (A) (A) (A) (A) (A) (A) (A)
                 (A) (A) (A) (A) (A) (A) (A) (A) (A) (A) (A) (A)
                 (A) (A) (A) (A) (A) (A) (A) (A) (A) (A) (A) (A)
                 (A) (A) (A) (A) (A) (A) (A) (A) (A) (A) (A) (A)
                 (A) (A) (A) (A) (A) (A) (A) (A) (A) (A) (A) (A)
                 (A) (A) (A) (A) (A) (A) (A) (A) (A) (A) (A) (A)
                 (A) (A) (A) (A) (A) (A) (A) (A) (A) (A) (A) (A)
                 (A) (A) (A) (A) (A) (A) (A) (A) (A) (A) (A) (A)
                 (A) (A) (A) (A) (A) (A) (A) (A) (A) (A) (A) (A)
                 (A) (A) (A) (A) (A) (A) (A) (A) (A) (A) (A) (A)
                 (A) (A) (A) (A) (A) (A) (A) (A) (A) (A) (A) (A)
                 (A) (A) (A) (A) (A) (A)
 The electronic state of the initial guess is 1-A.
 Requested convergence on RMS density matrix=1.00D-08 within 128 cycles.
 Requested convergence on MAX density matrix=1.00D-06.
 Requested convergence on             energy=1.00D-06.
 No special actions if energy rises.
 SCF Done:  E(RB3LYP) =  -1297.97959677     A.U. after   13 cycles
             Convg  =    0.5001D-08             -V/T =  2.0063
 Range of M.O.s used for correlation:     1   685
 NBasis=   685 NAE=    91 NBE=    91 NFC=     0 NFV=     0
 NROrb=    685 NOA=    91 NOB=    91 NVA=   594 NVB=   594

 **** Warning!!: The largest alpha MO coefficient is  0.70446668D+02

          Differentiating once with respect to electric field.
                with respect to dipole field.
          Electric field/nuclear overlap derivatives assumed to be zero.
          There are     3 degrees of freedom in the 1st order CPHF.  IDoFFX=0.
      3 vectors produced by pass  0 Test12= 1.80D-12 3.33D-08 XBig12= 1.24D+02 1.34D+00.
 AX will form     3 AO Fock derivatives at one time.
      3 vectors produced by pass  1 Test12= 1.80D-12 3.33D-08 XBig12= 2.49D+01 3.74D-01.
      3 vectors produced by pass  2 Test12= 1.80D-12 3.33D-08 XBig12= 1.04D+01 2.32D-01.
      3 vectors produced by pass  3 Test12= 1.80D-12 3.33D-08 XBig12= 1.21D+00 1.00D-01.
      3 vectors produced by pass  4 Test12= 1.80D-12 3.33D-08 XBig12= 3.88D-01 4.70D-02.
      3 vectors produced by pass  5 Test12= 1.80D-12 3.33D-08 XBig12= 7.06D-02 2.51D-02.
      3 vectors produced by pass  6 Test12= 1.80D-12 3.33D-08 XBig12= 2.58D-02 2.04D-02.
      3 vectors produced by pass  7 Test12= 1.80D-12 3.33D-08 XBig12= 3.07D-03 8.86D-03.
      3 vectors produced by pass  8 Test12= 1.80D-12 3.33D-08 XBig12= 5.62D-04 2.79D-03.
      3 vectors produced by pass  9 Test12= 1.80D-12 3.33D-08 XBig12= 1.32D-04 1.14D-03.
      3 vectors produced by pass 10 Test12= 1.80D-12 3.33D-08 XBig12= 3.66D-05 4.24D-04.
      3 vectors produced by pass 11 Test12= 1.80D-12 3.33D-08 XBig12= 6.79D-06 2.79D-04.
      3 vectors produced by pass 12 Test12= 1.80D-12 3.33D-08 XBig12= 1.22D-06 9.55D-05.
      3 vectors produced by pass 13 Test12= 1.80D-12 3.33D-08 XBig12= 3.39D-07 4.24D-05.
      3 vectors produced by pass 14 Test12= 1.80D-12 3.33D-08 XBig12= 6.31D-08 1.61D-05.
      3 vectors produced by pass 15 Test12= 1.80D-12 3.33D-08 XBig12= 1.05D-08 7.53D-06.
      3 vectors produced by pass 16 Test12= 1.80D-12 3.33D-08 XBig12= 2.41D-09 2.77D-06.
      3 vectors produced by pass 17 Test12= 1.80D-12 3.33D-08 XBig12= 1.64D-10 8.38D-07.
      3 vectors produced by pass 18 Test12= 1.80D-12 3.33D-08 XBig12= 2.07D-11 3.01D-07.
      3 vectors produced by pass 19 Test12= 1.80D-12 3.33D-08 XBig12= 7.26D-12 1.91D-07.
      3 vectors produced by pass 20 Test12= 1.80D-12 3.33D-08 XBig12= 7.61D-12 3.09D-07.
      2 vectors produced by pass 21 Test12= 1.80D-12 3.33D-08 XBig12= 3.68D-12 1.68D-07.
      1 vectors produced by pass 22 Test12= 1.80D-12 3.33D-08 XBig12= 1.20D-12 7.93D-08.
 Inverted reduced A of dimension    66 with in-core refinement.
 End of Minotr Frequency-dependent properties file   721 does not exist.
 End of Minotr Frequency-dependent properties file   722 does not exist.
 Symmetrizing basis deriv contribution to polar:
 IMax=3 JMax=2 DiffMx= 0.00D+00
 G2DrvN: will do    16 centers at a time, making    3 passes doing MaxLOS=2.
 Calling FoFCou, ICntrl=  3107 FMM=F I1Cent=   0 AccDes= 0.00D+00.
 Calling FoFCou, ICntrl=  3107 FMM=F I1Cent=   0 AccDes= 0.00D+00.
 Calling FoFCou, ICntrl=  3107 FMM=F I1Cent=   0 AccDes= 0.00D+00.
 FoFDir/FoFCou used for L=0 through L=2.
 End of G2Drv Frequency-dependent properties file   721 does not exist.
 End of G2Drv Frequency-dependent properties file   722 does not exist.
          IDoAtm=111111111111111111111111111111111111111111111
          Differentiating once with respect to electric field.
                with respect to dipole field.
          Differentiating once with respect to nuclear coordinates.
          There are   138 degrees of freedom in the 1st order CPHF.  IDoFFX=5.
 Will reuse    3 saved solutions.
    135 vectors produced by pass  0 Test12= 5.41D-14 1.00D-09 XBig12= 1.57D-01 8.72D-02.
 AX will form    45 AO Fock derivatives at one time.
    135 vectors produced by pass  1 Test12= 5.41D-14 1.00D-09 XBig12= 1.86D-02 1.14D-02.
    132 vectors produced by pass  2 Test12= 5.41D-14 1.00D-09 XBig12= 1.34D-04 1.45D-03.
    132 vectors produced by pass  3 Test12= 5.41D-14 1.00D-09 XBig12= 4.51D-07 5.73D-05.
    132 vectors produced by pass  4 Test12= 5.41D-14 1.00D-09 XBig12= 8.43D-10 2.27D-06.
    132 vectors produced by pass  5 Test12= 5.41D-14 1.00D-09 XBig12= 2.45D-12 1.29D-07.
     80 vectors produced by pass  6 Test12= 5.41D-14 1.00D-09 XBig12= 9.27D-14 1.87D-08.
 Inverted reduced A of dimension   878 with in-core refinement.
 Isotropic polarizability for W=    0.000000      191.58 Bohr**3.
 End of Minotr Frequency-dependent properties file   721 does not exist.
 End of Minotr Frequency-dependent properties file   722 does not exist.

 **********************************************************************

            Population analysis using the SCF density.

 **********************************************************************

 Orbital symmetries:
       Occupied  (A) (A) (A) (A) (A) (A) (A) (A) (A) (A) (A) (A)
                 (A) (A) (A) (A) (A) (A) (A) (A) (A) (A) (A) (A)
                 (A) (A) (A) (A) (A) (A) (A) (A) (A) (A) (A) (A)
                 (A) (A) (A) (A) (A) (A) (A) (A) (A) (A) (A) (A)
                 (A) (A) (A) (A) (A) (A) (A) (A) (A) (A) (A) (A)
                 (A) (A) (A) (A) (A) (A) (A) (A) (A) (A) (A) (A)
                 (A) (A) (A) (A) (A) (A) (A) (A) (A) (A) (A) (A)
                 (A) (A) (A) (A) (A) (A) (A)
       Virtual   (A) (A) (A) (A) (A) (A) (A) (A) (A) (A) (A) (A)
                 (A) (A) (A) (A) (A) (A) (A) (A) (A) (A) (A) (A)
                 (A) (A) (A) (A) (A) (A) (A) (A) (A) (A) (A) (A)
                 (A) (A) (A) (A) (A) (A) (A) (A) (A) (A) (A) (A)
                 (A) (A) (A) (A) (A) (A) (A) (A) (A) (A) (A) (A)
                 (A) (A) (A) (A) (A) (A) (A) (A) (A) (A) (A) (A)
                 (A) (A) (A) (A) (A) (A) (A) (A) (A) (A) (A) (A)
                 (A) (A) (A) (A) (A) (A) (A) (A) (A) (A) (A) (A)
                 (A) (A) (A) (A) (A) (A) (A) (A) (A) (A) (A) (A)
                 (A) (A) (A) (A) (A) (A) (A) (A) (A) (A) (A) (A)
                 (A) (A) (A) (A) (A) (A) (A) (A) (A) (A) (A) (A)
                 (A) (A) (A) (A) (A) (A) (A) (A) (A) (A) (A) (A)
                 (A) (A) (A) (A) (A) (A) (A) (A) (A) (A) (A) (A)
                 (A) (A) (A) (A) (A) (A) (A) (A) (A) (A) (A) (A)
                 (A) (A) (A) (A) (A) (A) (A) (A) (A) (A) (A) (A)
                 (A) (A) (A) (A) (A) (A) (A) (A) (A) (A) (A) (A)
                 (A) (A) (A) (A) (A) (A) (A) (A) (A) (A) (A) (A)
                 (A) (A) (A) (A) (A) (A) (A) (A) (A) (A) (A) (A)
                 (A) (A) (A) (A) (A) (A) (A) (A) (A) (A) (A) (A)
                 (A) (A) (A) (A) (A) (A) (A) (A) (A) (A) (A) (A)
                 (A) (A) (A) (A) (A) (A) (A) (A) (A) (A) (A) (A)
                 (A) (A) (A) (A) (A) (A) (A) (A) (A) (A) (A) (A)
                 (A) (A) (A) (A) (A) (A) (A) (A) (A) (A) (A) (A)
                 (A) (A) (A) (A) (A) (A) (A) (A) (A) (A) (A) (A)
                 (A) (A) (A) (A) (A) (A) (A) (A) (A) (A) (A) (A)
                 (A) (A) (A) (A) (A) (A) (A) (A) (A) (A) (A) (A)
                 (A) (A) (A) (A) (A) (A) (A) (A) (A) (A) (A) (A)
                 (A) (A) (A) (A) (A) (A) (A) (A) (A) (A) (A) (A)
                 (A) (A) (A) (A) (A) (A) (A) (A) (A) (A) (A) (A)
                 (A) (A) (A) (A) (A) (A) (A) (A) (A) (A) (A) (A)
                 (A) (A) (A) (A) (A) (A) (A) (A) (A) (A) (A) (A)
                 (A) (A) (A) (A) (A) (A) (A) (A) (A) (A) (A) (A)
                 (A) (A) (A) (A) (A) (A) (A) (A) (A) (A) (A) (A)
                 (A) (A) (A) (A) (A) (A) (A) (A) (A) (A) (A) (A)
                 (A) (A) (A) (A) (A) (A) (A) (A) (A) (A) (A) (A)
                 (A) (A) (A) (A) (A) (A) (A) (A) (A) (A) (A) (A)
                 (A) (A) (A) (A) (A) (A) (A) (A) (A) (A) (A) (A)
                 (A) (A) (A) (A) (A) (A) (A) (A) (A) (A) (A) (A)
                 (A) (A) (A) (A) (A) (A) (A) (A) (A) (A) (A) (A)
                 (A) (A) (A) (A) (A) (A) (A) (A) (A) (A) (A) (A)
                 (A) (A) (A) (A) (A) (A) (A) (A) (A) (A) (A) (A)
                 (A) (A) (A) (A) (A) (A) (A) (A) (A) (A) (A) (A)
                 (A) (A) (A) (A) (A) (A) (A) (A) (A) (A) (A) (A)
                 (A) (A) (A) (A) (A) (A) (A) (A) (A) (A) (A) (A)
                 (A) (A) (A) (A) (A) (A) (A) (A) (A) (A) (A) (A)
                 (A) (A) (A) (A) (A) (A) (A) (A) (A) (A) (A) (A)
                 (A) (A) (A) (A) (A) (A) (A) (A) (A) (A) (A) (A)
                 (A) (A) (A) (A) (A) (A) (A) (A) (A) (A) (A) (A)
                 (A) (A) (A) (A) (A) (A) (A) (A) (A) (A) (A) (A)
                 (A) (A) (A) (A) (A) (A)
 The electronic state is 1-A.
 Alpha  occ. eigenvalues --  -19.19017 -19.18537 -19.18502 -19.18019 -19.17510
 Alpha  occ. eigenvalues --  -19.17507 -19.16246 -19.16234 -19.15097 -19.13261
 Alpha  occ. eigenvalues --  -19.13037 -10.31096 -10.30307 -10.26199 -10.25433
 Alpha  occ. eigenvalues --  -10.25388 -10.25184 -10.25021 -10.24905 -10.24006
 Alpha  occ. eigenvalues --  -10.23928 -10.23781 -10.23556  -1.10648  -1.09571
 Alpha  occ. eigenvalues --   -1.05797  -1.05568  -1.03936  -1.03775  -1.03096
 Alpha  occ. eigenvalues --   -1.02637  -1.01938  -1.00045  -0.99564  -0.82280
 Alpha  occ. eigenvalues --   -0.80199  -0.79511  -0.77950  -0.71566  -0.69842
 Alpha  occ. eigenvalues --   -0.67570  -0.65208  -0.63476  -0.62527  -0.61266
 Alpha  occ. eigenvalues --   -0.60021  -0.56826  -0.56217  -0.55621  -0.54871
 Alpha  occ. eigenvalues --   -0.53912  -0.53237  -0.52858  -0.51422  -0.51363
 Alpha  occ. eigenvalues --   -0.50893  -0.49764  -0.49526  -0.48816  -0.46665
 Alpha  occ. eigenvalues --   -0.45646  -0.44977  -0.44229  -0.43799  -0.43055
 Alpha  occ. eigenvalues --   -0.42406  -0.41278  -0.40896  -0.40435  -0.39455
 Alpha  occ. eigenvalues --   -0.38776  -0.38500  -0.37597  -0.36576  -0.35982
 Alpha  occ. eigenvalues --   -0.35579  -0.35380  -0.35046  -0.33562  -0.33458
 Alpha  occ. eigenvalues --   -0.33167  -0.31584  -0.31104  -0.30371  -0.29915
 Alpha  occ. eigenvalues --   -0.29315  -0.28812  -0.28130  -0.27117  -0.26651
 Alpha  occ. eigenvalues --   -0.25980
 Alpha virt. eigenvalues --   -0.02512  -0.02177  -0.01848  -0.00354   0.00371
 Alpha virt. eigenvalues --    0.01015   0.01900   0.02319   0.03201   0.03669
 Alpha virt. eigenvalues --    0.03877   0.04304   0.04844   0.05337   0.05522
 Alpha virt. eigenvalues --    0.06026   0.06536   0.07549   0.07822   0.07899
 Alpha virt. eigenvalues --    0.08160   0.08426   0.09070   0.09855   0.10014
 Alpha virt. eigenvalues --    0.10403   0.11032   0.11109   0.11521   0.11859
 Alpha virt. eigenvalues --    0.12183   0.12856   0.13224   0.13833   0.13909
 Alpha virt. eigenvalues --    0.13985   0.14333   0.14726   0.15083   0.15333
 Alpha virt. eigenvalues --    0.16011   0.16370   0.16475   0.16754   0.16959
 Alpha virt. eigenvalues --    0.17190   0.17428   0.17783   0.18094   0.18387
 Alpha virt. eigenvalues --    0.18522   0.19055   0.19207   0.19831   0.20206
 Alpha virt. eigenvalues --    0.20368   0.20614   0.20938   0.21176   0.21898
 Alpha virt. eigenvalues --    0.21975   0.22442   0.22917   0.23156   0.23435
 Alpha virt. eigenvalues --    0.23688   0.23745   0.24099   0.24396   0.24466
 Alpha virt. eigenvalues --    0.24778   0.25083   0.25429   0.25745   0.26069
 Alpha virt. eigenvalues --    0.26210   0.26498   0.26765   0.26852   0.27448
 Alpha virt. eigenvalues --    0.27587   0.28006   0.28394   0.28663   0.28919
 Alpha virt. eigenvalues --    0.29288   0.29442   0.29877   0.30073   0.30299
 Alpha virt. eigenvalues --    0.31064   0.31167   0.31585   0.32018   0.32377
 Alpha virt. eigenvalues --    0.32648   0.32850   0.33197   0.33374   0.33775
 Alpha virt. eigenvalues --    0.34416   0.35028   0.35373   0.35550   0.35880
 Alpha virt. eigenvalues --    0.36267   0.36844   0.37106   0.37460   0.37523
 Alpha virt. eigenvalues --    0.38007   0.38446   0.38949   0.39649   0.39839
 Alpha virt. eigenvalues --    0.39941   0.40328   0.40994   0.41118   0.41549
 Alpha virt. eigenvalues --    0.41819   0.42192   0.42557   0.43531   0.43739
 Alpha virt. eigenvalues --    0.44494   0.44675   0.45587   0.46022   0.46985
 Alpha virt. eigenvalues --    0.47417   0.47726   0.48711   0.49275   0.49851
 Alpha virt. eigenvalues --    0.50506   0.51319   0.54279   0.57238   0.58241
 Alpha virt. eigenvalues --    0.58958   0.59634   0.60419   0.60946   0.61777
 Alpha virt. eigenvalues --    0.62673   0.63612   0.64010   0.65688   0.67117
 Alpha virt. eigenvalues --    0.67357   0.68036   0.69085   0.69653   0.70649
 Alpha virt. eigenvalues --    0.71142   0.72053   0.73029   0.74120   0.74622
 Alpha virt. eigenvalues --    0.74873   0.75527   0.76282   0.77281   0.77898
 Alpha virt. eigenvalues --    0.78673   0.79253   0.80021   0.81409   0.82135
 Alpha virt. eigenvalues --    0.82899   0.83613   0.84022   0.84345   0.85765
 Alpha virt. eigenvalues --    0.86723   0.87410   0.87631   0.88617   0.88924
 Alpha virt. eigenvalues --    0.89988   0.90058   0.90723   0.91050   0.91678
 Alpha virt. eigenvalues --    0.91940   0.92187   0.93042   0.93855   0.94238
 Alpha virt. eigenvalues --    0.94242   0.95132   0.95672   0.95973   0.96276
 Alpha virt. eigenvalues --    0.97443   0.97776   0.98422   0.98876   0.98973
 Alpha virt. eigenvalues --    0.99515   1.00915   1.01144   1.01667   1.02794
 Alpha virt. eigenvalues --    1.04002   1.04253   1.04972   1.05621   1.06070
 Alpha virt. eigenvalues --    1.06425   1.07322   1.07784   1.07941   1.08557
 Alpha virt. eigenvalues --    1.09441   1.09917   1.10198   1.10391   1.10993
 Alpha virt. eigenvalues --    1.12074   1.13153   1.14193   1.14296   1.14551
 Alpha virt. eigenvalues --    1.14871   1.15624   1.16017   1.16329   1.16883
 Alpha virt. eigenvalues --    1.17047   1.18241   1.18879   1.19021   1.19517
 Alpha virt. eigenvalues --    1.20926   1.21191   1.21680   1.22027   1.23244
 Alpha virt. eigenvalues --    1.23564   1.24224   1.25183   1.25697   1.25791
 Alpha virt. eigenvalues --    1.26383   1.26954   1.27347   1.27609   1.27795
 Alpha virt. eigenvalues --    1.29034   1.29288   1.29832   1.31025   1.31507
 Alpha virt. eigenvalues --    1.31684   1.33042   1.33522   1.34204   1.34996
 Alpha virt. eigenvalues --    1.35338   1.35937   1.36623   1.36956   1.37446
 Alpha virt. eigenvalues --    1.38438   1.39380   1.39515   1.40644   1.40814
 Alpha virt. eigenvalues --    1.41878   1.42429   1.43014   1.43711   1.43801
 Alpha virt. eigenvalues --    1.45406   1.46497   1.46929   1.47926   1.49077
 Alpha virt. eigenvalues --    1.49789   1.50590   1.51663   1.51829   1.52326
 Alpha virt. eigenvalues --    1.53660   1.54547   1.55616   1.55675   1.56811
 Alpha virt. eigenvalues --    1.57475   1.58077   1.58659   1.59633   1.60693
 Alpha virt. eigenvalues --    1.62650   1.63372   1.63775   1.64204   1.66266
 Alpha virt. eigenvalues --    1.67107   1.67578   1.67969   1.68705   1.69161
 Alpha virt. eigenvalues --    1.70590   1.71549   1.73166   1.74713   1.75273
 Alpha virt. eigenvalues --    1.76392   1.76735   1.77262   1.77881   1.78861
 Alpha virt. eigenvalues --    1.79441   1.81024   1.81183   1.82619   1.83727
 Alpha virt. eigenvalues --    1.84673   1.86064   1.86583   1.87246   1.88055
 Alpha virt. eigenvalues --    1.88365   1.91013   1.91325   1.92172   1.94270
 Alpha virt. eigenvalues --    1.94952   1.96233   1.96959   1.97336   1.98995
 Alpha virt. eigenvalues --    1.99957   2.03129   2.03395   2.04413   2.04710
 Alpha virt. eigenvalues --    2.05930   2.07599   2.08765   2.10461   2.11422
 Alpha virt. eigenvalues --    2.12798   2.14813   2.15655   2.17080   2.19345
 Alpha virt. eigenvalues --    2.20271   2.21356   2.22161   2.23296   2.24489
 Alpha virt. eigenvalues --    2.29051   2.29389   2.30855   2.31609   2.33171
 Alpha virt. eigenvalues --    2.34140   2.34814   2.35147   2.37015   2.38910
 Alpha virt. eigenvalues --    2.39414   2.45740   2.48371   2.49555   2.50268
 Alpha virt. eigenvalues --    2.51507   2.54156   2.55228   2.55754   2.56244
 Alpha virt. eigenvalues --    2.60886   2.64989   2.66158   2.66664   2.67329
 Alpha virt. eigenvalues --    2.68182   2.68983   2.70874   2.72041   2.74095
 Alpha virt. eigenvalues --    2.75121   2.76647   2.77014   2.78644   2.79186
 Alpha virt. eigenvalues --    2.80835   2.81355   2.81724   2.82537   2.83811
 Alpha virt. eigenvalues --    2.88096   2.88615   2.89649   2.91070   2.92228
 Alpha virt. eigenvalues --    2.93612   2.94400   2.95299   2.96399   2.96689
 Alpha virt. eigenvalues --    2.97360   2.98945   2.99110   3.00078   3.00457
 Alpha virt. eigenvalues --    3.01725   3.02549   3.03221   3.04197   3.04403
 Alpha virt. eigenvalues --    3.05269   3.05931   3.07107   3.07560   3.09862
 Alpha virt. eigenvalues --    3.10393   3.11129   3.11949   3.13344   3.14447
 Alpha virt. eigenvalues --    3.15772   3.17947   3.19816   3.21749   3.24056
 Alpha virt. eigenvalues --    3.26523   3.32938   3.33924   3.74214   3.84744
 Alpha virt. eigenvalues --    4.00069   4.03109   4.06693   4.10688   4.11061
 Alpha virt. eigenvalues --    4.12746   4.13571   4.14519   4.15431   4.16328
 Alpha virt. eigenvalues --    4.16998   4.19016   4.20107   4.20650   4.22200
 Alpha virt. eigenvalues --    4.23110   4.24012   4.25121   4.26602   4.27142
 Alpha virt. eigenvalues --    4.27718   4.28064   4.29541   4.30083   4.31151
 Alpha virt. eigenvalues --    4.31675   4.32024   4.32370   4.32700   4.32875
 Alpha virt. eigenvalues --    4.33522   4.34187   4.35038   4.35611   4.36121
 Alpha virt. eigenvalues --    4.36491   4.37745   4.37968   4.38856   4.39955
 Alpha virt. eigenvalues --    4.40833   4.41345   4.42585   4.43079   4.44363
 Alpha virt. eigenvalues --    4.45140   4.46462   4.47735   4.49017   4.49641
 Alpha virt. eigenvalues --    4.51358   4.52062   4.52725   4.53817   4.56704
 Alpha virt. eigenvalues --    4.57288   4.57699   4.58556   4.59438   4.60150
 Alpha virt. eigenvalues --    4.61158   4.62244   4.63044   4.63657   4.64118
 Alpha virt. eigenvalues --    4.64532   4.65342   4.65694   4.66341   4.66928
 Alpha virt. eigenvalues --    4.67188   4.69395   4.69679   4.70311   4.71080
 Alpha virt. eigenvalues --    4.72039   4.72338   4.73551   4.74508   4.74636
 Alpha virt. eigenvalues --    4.75148   4.75383   4.76718   4.77047   4.77420
 Alpha virt. eigenvalues --    4.77842   4.78256   4.79225   4.79941   4.80969
 Alpha virt. eigenvalues --    4.82422   4.83059   4.84958   4.86032   4.87181
 Alpha virt. eigenvalues --    4.87990   4.88907   4.90270   4.90401   4.90982
 Alpha virt. eigenvalues --    4.94153   4.95213   4.95861   4.97870   4.99460
 Alpha virt. eigenvalues --    4.99532   4.99991   5.01760   5.02573   5.04249
 Alpha virt. eigenvalues --    5.06882   5.08378   5.10817   5.15233   5.15511
 Alpha virt. eigenvalues --    5.23749   5.25069   5.26396   5.29599   5.41585
 Alpha virt. eigenvalues --    5.45946   5.94543   6.01450   6.07353   6.56764
 Alpha virt. eigenvalues --    6.73197   6.75052   6.79775   6.82206   6.87424
 Alpha virt. eigenvalues --    6.91564   6.94045   6.98997   7.01260   7.08576
 Alpha virt. eigenvalues --    7.14939  11.85411  11.96455  12.11627  12.17412
 Alpha virt. eigenvalues --   12.24792  12.37293  12.61199  12.73597  12.91003
 Alpha virt. eigenvalues --   12.97754  13.06523  13.14535  13.24579  13.26792
 Alpha virt. eigenvalues --   13.34792  13.41360  13.41398  13.43546  13.49538
 Alpha virt. eigenvalues --   13.55450  13.73594  13.77973  14.00852
          Condensed to atoms (all electrons):
              1          2          3          4          5          6
     1  O    8.195944   0.307454  -0.111198  -0.015998   0.022415   0.029964
     2  C    0.307454   6.989000  -0.446108   0.040401  -0.034356  -1.058540
     3  C   -0.111198  -0.446108   7.220868   0.102303  -0.005001  -0.634875
     4  O   -0.015998   0.040401   0.102303   8.230950   0.229920  -0.016755
     5  H    0.022415  -0.034356  -0.005001   0.229920   0.439563  -0.000230
     6  C    0.029964  -1.058540  -0.634875  -0.016755  -0.000230   8.746853
     7  O    0.000042   0.006292  -0.090372   0.003752  -0.000083   0.296955
     8  H    0.000006  -0.002660   0.015716  -0.000256   0.000011   0.017610
     9  C   -0.026300   0.071577  -0.456111   0.005924  -0.001537   0.442921
    10  O   -0.007528   0.007997   0.010942  -0.000125  -0.000005   0.000110
    11  H    0.000514  -0.015529  -0.002273   0.000002   0.000000   0.001012
    12  C   -0.102652  -0.550210  -0.376710   0.013067   0.009672   0.398793
    13  O    0.001961  -0.056151  -0.078114  -0.002882   0.000071   0.049141
    14  C   -0.003687   0.314881   0.521377   0.002556   0.007460  -2.134731
    15  O   -0.000174   0.010903  -0.003649   0.000726  -0.000015  -0.040829
    16  C    0.001146   0.106455  -0.030650  -0.004792   0.000861  -0.057288
    17  C    0.000091  -0.042556   0.030186   0.000427   0.000014  -0.014066
    18  O    0.000035   0.008275  -0.003311  -0.000012   0.000000  -0.003317
    19  H   -0.000044  -0.006662   0.008829   0.000001   0.000000   0.007145
    20  C    0.000019   0.013500  -0.013608  -0.000007   0.000000   0.038931
    21  O    0.000000   0.000035  -0.000053   0.000000   0.000000   0.000262
    22  H    0.000000   0.000002   0.000001   0.000000   0.000000  -0.000017
    23  C    0.000018   0.000165  -0.019070   0.000023  -0.000003  -0.035105
    24  O   -0.000003   0.000409  -0.005011  -0.000054  -0.000003  -0.004142
    25  H    0.000000   0.000095   0.000798   0.000003   0.000000   0.001001
    26  C    0.000009   0.006295  -0.016958  -0.000003  -0.000006  -0.072931
    27  O    0.000000  -0.000048  -0.000110   0.000000   0.000000   0.003183
    28  C   -0.000001   0.001616  -0.001627   0.000004   0.000000  -0.005930
    29  O    0.000000  -0.000005   0.000014   0.000000   0.000000  -0.000268
    30  H    0.000000   0.000000   0.000000   0.000000   0.000000   0.000003
    31  H    0.262928   0.043732  -0.043898   0.002059  -0.002599   0.002315
    32  H    0.000000  -0.000017   0.000256   0.000000   0.000000   0.001878
    33  H    0.000000   0.000008  -0.000184   0.000000   0.000000  -0.003494
    34  H    0.000000  -0.000160   0.000835   0.000000   0.000000  -0.003243
    35  H   -0.000001  -0.002267   0.004848   0.000006   0.000000   0.018748
    36  H    0.000000  -0.000563   0.000999   0.000000   0.000000   0.006351
    37  H    0.000000   0.000083   0.000021   0.000000   0.000000   0.000747
    38  H    0.000000   0.000002   0.000004   0.000000   0.000000  -0.000102
    39  H   -0.000400  -0.026481   0.005064  -0.000001   0.000000  -0.000844
    40  H    0.002333   0.028951  -0.010479   0.000055  -0.000001   0.008153
    41  H    0.005658   0.032285  -0.028164   0.000375   0.000001  -0.042112
    42  H   -0.019407   0.308212  -0.003605   0.000229  -0.000032  -0.038096
    43  H   -0.004413  -0.008454   0.372434  -0.035141  -0.001539  -0.224870
    44  H   -0.000165   0.011859  -0.126314   0.000355  -0.000103   0.421480
    45  H    0.000100   0.001891  -0.071353  -0.000179   0.000005   0.084413
              7          8          9         10         11         12
     1  O    0.000042   0.000006  -0.026300  -0.007528   0.000514  -0.102652
     2  C    0.006292  -0.002660   0.071577   0.007997  -0.015529  -0.550210
     3  C   -0.090372   0.015716  -0.456111   0.010942  -0.002273  -0.376710
     4  O    0.003752  -0.000256   0.005924  -0.000125   0.000002   0.013067
     5  H   -0.000083   0.000011  -0.001537  -0.000005   0.000000   0.009672
     6  C    0.296955   0.017610   0.442921   0.000110   0.001012   0.398793
     7  O    8.243650   0.250307   0.000038  -0.000001   0.000000  -0.003950
     8  H    0.250307   0.342881   0.000115   0.000000   0.000000  -0.000360
     9  C    0.000038   0.000115   7.831156   0.057433   0.014792  -1.724730
    10  O   -0.000001   0.000000   0.057433   8.228584   0.227345   0.050947
    11  H    0.000000   0.000000   0.014792   0.227345   0.449596   0.011042
    12  C   -0.003950  -0.000360  -1.724730   0.050947   0.011042   9.236072
    13  O    0.000314  -0.000381  -0.019022  -0.001782  -0.000744   0.005807
    14  C   -0.069055  -0.055809  -0.900412   0.001858  -0.003765  -0.815260
    15  O    0.010194   0.007368  -0.006918   0.000119   0.000003  -0.020754
    16  C    0.030384   0.021083  -0.111344  -0.001007  -0.000087  -0.033015
    17  C    0.000708   0.002626  -0.026775  -0.000354  -0.000019  -0.133545
    18  O   -0.000020  -0.000028  -0.000916  -0.000229  -0.000014  -0.007192
    19  H   -0.000132  -0.000001   0.000946   0.000017  -0.000001  -0.007179
    20  C    0.000869   0.000614  -0.003206   0.000011   0.000017  -0.010839
    21  O   -0.000001   0.000000   0.000137  -0.000001   0.000000  -0.000081
    22  H    0.000000   0.000000  -0.000014   0.000000   0.000000   0.000019
    23  C    0.014551   0.010164   0.000689  -0.000005   0.000000   0.004384
    24  O   -0.045400  -0.006169  -0.000022   0.000000   0.000000   0.002843
    25  H    0.003733  -0.001478  -0.000010   0.000000   0.000000  -0.000366
    26  C   -0.032446  -0.021558  -0.000495  -0.000049  -0.000002  -0.004877
    27  O    0.000000  -0.000120  -0.000030   0.000000   0.000000   0.000401
    28  C    0.000794  -0.000222  -0.001351   0.000001   0.000000   0.003839
    29  O   -0.000006   0.000000  -0.000008   0.000000   0.000000   0.000023
    30  H    0.000000   0.000000   0.000000   0.000000   0.000000  -0.000001
    31  H   -0.000017   0.000000   0.002627  -0.000479  -0.000009  -0.010391
    32  H   -0.000531   0.000287   0.000000   0.000000   0.000000   0.000066
    33  H    0.000749  -0.000063   0.000018   0.000000   0.000000   0.000241
    34  H   -0.000109   0.000006   0.000077   0.000000   0.000000   0.000918
    35  H   -0.001984  -0.000086   0.000183   0.000001   0.000000   0.001242
    36  H   -0.000011   0.000000   0.000120   0.000000   0.000000  -0.000869
    37  H    0.000001   0.000000  -0.000069   0.000000   0.000000   0.000169
    38  H    0.000001   0.000000  -0.000003   0.000000   0.000000   0.000050
    39  H   -0.000010   0.000000   0.410352  -0.018252  -0.015181  -0.014727
    40  H    0.000008   0.000000   0.616989  -0.054013   0.001251  -0.291610
    41  H    0.000136   0.000000   0.031620   0.000414  -0.000311   0.096664
    42  H    0.000252   0.000002  -0.061776  -0.000880  -0.000012  -0.028270
    43  H    0.002835  -0.000080   0.008500  -0.000203   0.000000   0.041422
    44  H   -0.038734  -0.006632   0.014099   0.000005   0.000000   0.052133
    45  H   -0.001118  -0.000160   0.021966   0.000049   0.000000   0.059350
             13         14         15         16         17         18
     1  O    0.001961  -0.003687  -0.000174   0.001146   0.000091   0.000035
     2  C   -0.056151   0.314881   0.010903   0.106455  -0.042556   0.008275
     3  C   -0.078114   0.521377  -0.003649  -0.030650   0.030186  -0.003311
     4  O   -0.002882   0.002556   0.000726  -0.004792   0.000427  -0.000012
     5  H    0.000071   0.007460  -0.000015   0.000861   0.000014   0.000000
     6  C    0.049141  -2.134731  -0.040829  -0.057288  -0.014066  -0.003317
     7  O    0.000314  -0.069055   0.010194   0.030384   0.000708  -0.000020
     8  H   -0.000381  -0.055809   0.007368   0.021083   0.002626  -0.000028
     9  C   -0.019022  -0.900412  -0.006918  -0.111344  -0.026775  -0.000916
    10  O   -0.001782   0.001858   0.000119  -0.001007  -0.000354  -0.000229
    11  H   -0.000744  -0.003765   0.000003  -0.000087  -0.000019  -0.000014
    12  C    0.005807  -0.815260  -0.020754  -0.033015  -0.133545  -0.007192
    13  O    8.192075   0.193673  -0.062442   0.037325  -0.001793  -0.016606
    14  C    0.193673   9.194915   0.210974  -0.883952   0.141491   0.009509
    15  O   -0.062442   0.210974   8.087159   0.198952  -0.008682  -0.007487
    16  C    0.037325  -0.883952   0.198952  10.424137  -2.714384   0.015075
    17  C   -0.001793   0.141491  -0.008682  -2.714384   8.858102   0.157412
    18  O   -0.016606   0.009509  -0.007487   0.015075   0.157412   8.276467
    19  H    0.024391   0.011368   0.013380  -0.063671   0.028650   0.229619
    20  C   -0.004737  -0.286580   0.028551  -0.707436   0.009771  -0.029852
    21  O    0.000148   0.003686  -0.001336   0.138461  -0.067516   0.014835
    22  H    0.000004  -0.001344   0.000003  -0.020227  -0.030217  -0.000278
    23  C    0.005727   0.107886  -0.000278   0.157678  -0.154216   0.009616
    24  O    0.000782   0.063107  -0.002128   0.005852   0.004850  -0.000022
    25  H   -0.000028  -0.011327   0.000617  -0.004844  -0.002274   0.000000
    26  C   -0.023996  -0.228754  -0.092931  -1.898396   0.346752   0.009337
    27  O    0.000615   0.009134   0.001585   0.127775  -0.126286  -0.000426
    28  C    0.003861  -0.048299  -0.001989   0.777667  -0.568549  -0.010002
    29  O    0.000013   0.001985  -0.000148  -0.017892  -0.005383  -0.000026
    30  H    0.000000   0.000023  -0.000001   0.000509   0.008410  -0.000012
    31  H   -0.000588  -0.000100  -0.000005   0.000133  -0.000024  -0.000001
    32  H    0.000033   0.005051   0.000529  -0.013577   0.006383   0.000003
    33  H    0.000060   0.005363   0.000674   0.060366  -0.002185   0.000092
    34  H   -0.000123   0.039028   0.000147   0.053095  -0.053551   0.000131
    35  H   -0.002925  -0.019455  -0.025225   0.172622   0.029578  -0.001670
    36  H   -0.001762   0.017129  -0.006043  -0.103351   0.348797  -0.035523
    37  H    0.000114  -0.005971  -0.000342   0.107972  -0.195143   0.007285
    38  H    0.000026   0.001074  -0.000047   0.075510  -0.012659   0.000461
    39  H   -0.004292  -0.005999  -0.000477  -0.001619   0.002035  -0.000046
    40  H   -0.003445   0.005787  -0.000466  -0.002135   0.001062  -0.000026
    41  H   -0.017753   0.170832  -0.002032  -0.000751   0.007078  -0.000045
    42  H    0.003458   0.100636  -0.000419  -0.002378   0.001600   0.000054
    43  H    0.001403   0.075574   0.000531  -0.003832   0.000941   0.000034
    44  H    0.008431  -0.053948  -0.013718  -0.022609   0.000449   0.000183
    45  H   -0.021890   0.208191  -0.042051   0.005193   0.001498  -0.000504
             19         20         21         22         23         24
     1  O   -0.000044   0.000019   0.000000   0.000000   0.000018  -0.000003
     2  C   -0.006662   0.013500   0.000035   0.000002   0.000165   0.000409
     3  C    0.008829  -0.013608  -0.000053   0.000001  -0.019070  -0.005011
     4  O    0.000001  -0.000007   0.000000   0.000000   0.000023  -0.000054
     5  H    0.000000   0.000000   0.000000   0.000000  -0.000003  -0.000003
     6  C    0.007145   0.038931   0.000262  -0.000017  -0.035105  -0.004142
     7  O   -0.000132   0.000869  -0.000001   0.000000   0.014551  -0.045400
     8  H   -0.000001   0.000614   0.000000   0.000000   0.010164  -0.006169
     9  C    0.000946  -0.003206   0.000137  -0.000014   0.000689  -0.000022
    10  O    0.000017   0.000011  -0.000001   0.000000  -0.000005   0.000000
    11  H   -0.000001   0.000017   0.000000   0.000000   0.000000   0.000000
    12  C   -0.007179  -0.010839  -0.000081   0.000019   0.004384   0.002843
    13  O    0.024391  -0.004737   0.000148   0.000004   0.005727   0.000782
    14  C    0.011368  -0.286580   0.003686  -0.001344   0.107886   0.063107
    15  O    0.013380   0.028551  -0.001336   0.000003  -0.000278  -0.002128
    16  C   -0.063671  -0.707436   0.138461  -0.020227   0.157678   0.005852
    17  C    0.028650   0.009771  -0.067516  -0.030217  -0.154216   0.004850
    18  O    0.229619  -0.029852   0.014835  -0.000278   0.009616  -0.000022
    19  H    0.354139  -0.001440  -0.000588   0.000014  -0.003267  -0.000032
    20  C   -0.001440   6.662736  -0.031855   0.041412   0.023019  -0.004530
    21  O   -0.000588  -0.031855   8.282126   0.203709   0.000644   0.000020
    22  H    0.000014   0.041412   0.203709   0.467067  -0.000216   0.000000
    23  C   -0.003267   0.023019   0.000644  -0.000216   5.897150   0.055847
    24  O   -0.000032  -0.004530   0.000020   0.000000   0.055847   8.358083
    25  H    0.000000   0.000717   0.000000   0.000000  -0.021427   0.244644
    26  C   -0.003878   0.266192  -0.049924   0.006286  -0.737333  -0.018258
    27  O   -0.000155  -0.079824   0.003428   0.000309  -0.088502   0.001443
    28  C    0.001539  -0.304249   0.056728   0.011273  -0.076144   0.004242
    29  O    0.000001   0.018540  -0.011290   0.008160   0.012931  -0.000114
    30  H    0.000000  -0.022982   0.000231  -0.001332  -0.000160  -0.000001
    31  H    0.000000   0.000000   0.000000   0.000000   0.000001   0.000000
    32  H    0.000000   0.001068  -0.000014   0.000000   0.398550  -0.018045
    33  H    0.000000   0.001024  -0.000009   0.000000   0.592904  -0.060551
    34  H    0.000012  -0.008166  -0.000055   0.000007   0.061270   0.005421
    35  H    0.000606   0.052169  -0.000500   0.000007   0.009346   0.000229
    36  H    0.000551  -0.042854  -0.003515  -0.000120   0.013392  -0.000054
    37  H   -0.000155   0.324188  -0.018379  -0.002558   0.005573   0.000021
    38  H    0.000000  -0.170316   0.001808  -0.001240  -0.003495   0.000062
    39  H    0.000816  -0.000571   0.000001   0.000000  -0.000009   0.000000
    40  H    0.000027   0.000064   0.000000   0.000000  -0.000002   0.000000
    41  H   -0.000217   0.000172  -0.000001   0.000000   0.000006   0.000002
    42  H   -0.000032   0.000024   0.000000   0.000000   0.000068   0.000006
    43  H   -0.000003   0.000031   0.000000   0.000000   0.000337   0.000055
    44  H   -0.000037   0.000641   0.000000   0.000000   0.001552   0.001112
    45  H   -0.001257   0.012227   0.000010   0.000000   0.001571  -0.000033
             25         26         27         28         29         30
     1  O    0.000000   0.000009   0.000000  -0.000001   0.000000   0.000000
     2  C    0.000095   0.006295  -0.000048   0.001616  -0.000005   0.000000
     3  C    0.000798  -0.016958  -0.000110  -0.001627   0.000014   0.000000
     4  O    0.000003  -0.000003   0.000000   0.000004   0.000000   0.000000
     5  H    0.000000  -0.000006   0.000000   0.000000   0.000000   0.000000
     6  C    0.001001  -0.072931   0.003183  -0.005930  -0.000268   0.000003
     7  O    0.003733  -0.032446   0.000000   0.000794  -0.000006   0.000000
     8  H   -0.001478  -0.021558  -0.000120  -0.000222   0.000000   0.000000
     9  C   -0.000010  -0.000495  -0.000030  -0.001351  -0.000008   0.000000
    10  O    0.000000  -0.000049   0.000000   0.000001   0.000000   0.000000
    11  H    0.000000  -0.000002   0.000000   0.000000   0.000000   0.000000
    12  C   -0.000366  -0.004877   0.000401   0.003839   0.000023  -0.000001
    13  O   -0.000028  -0.023996   0.000615   0.003861   0.000013   0.000000
    14  C   -0.011327  -0.228754   0.009134  -0.048299   0.001985   0.000023
    15  O    0.000617  -0.092931   0.001585  -0.001989  -0.000148  -0.000001
    16  C   -0.004844  -1.898396   0.127775   0.777667  -0.017892   0.000509
    17  C   -0.002274   0.346752  -0.126286  -0.568549  -0.005383   0.008410
    18  O    0.000000   0.009337  -0.000426  -0.010002  -0.000026  -0.000012
    19  H    0.000000  -0.003878  -0.000155   0.001539   0.000001   0.000000
    20  C    0.000717   0.266192  -0.079824  -0.304249   0.018540  -0.022982
    21  O    0.000000  -0.049924   0.003428   0.056728  -0.011290   0.000231
    22  H    0.000000   0.006286   0.000309   0.011273   0.008160  -0.001332
    23  C   -0.021427  -0.737333  -0.088502  -0.076144   0.012931  -0.000160
    24  O    0.244644  -0.018258   0.001443   0.004242  -0.000114  -0.000001
    25  H    0.414899   0.030406  -0.000667  -0.000602  -0.000003   0.000000
    26  C    0.030406   9.321698   0.013037  -0.572029  -0.028178  -0.000981
    27  O   -0.000667   0.013037   8.248047   0.209290  -0.068114   0.001495
    28  C   -0.000602  -0.572029   0.209290   5.716900   0.265996   0.003206
    29  O   -0.000003  -0.028178  -0.068114   0.265996   8.088493   0.265469
    30  H    0.000000  -0.000981   0.001495   0.003206   0.265469   0.424755
    31  H    0.000000   0.000001   0.000000   0.000000   0.000000   0.000000
    32  H   -0.013192  -0.021721  -0.012177  -0.007241  -0.000175   0.000000
    33  H    0.000871  -0.296333   0.000754   0.003172  -0.000234   0.000000
    34  H   -0.000226   0.135568  -0.019011   0.041053  -0.001033   0.000017
    35  H   -0.000034   0.012747   0.006529  -0.005546  -0.000336   0.000002
    36  H    0.000000   0.076465   0.000512  -0.030068   0.000463   0.000007
    37  H    0.000000   0.004560   0.003622   0.036543  -0.001033  -0.000019
    38  H    0.000000  -0.043123  -0.040929   0.493550  -0.026617  -0.009224
    39  H    0.000000   0.000155   0.000000   0.000018   0.000000   0.000000
    40  H    0.000000  -0.000164   0.000000   0.000000   0.000000   0.000000
    41  H    0.000000  -0.000273   0.000000  -0.000007   0.000000   0.000000
    42  H    0.000000  -0.000250   0.000000  -0.000005   0.000000   0.000000
    43  H    0.000000  -0.000491   0.000000  -0.000006   0.000000   0.000000
    44  H   -0.000006  -0.006003   0.000001   0.000028   0.000000   0.000000
    45  H    0.000007   0.007421   0.000301  -0.000147  -0.000004   0.000000
             31         32         33         34         35         36
     1  O    0.262928   0.000000   0.000000   0.000000  -0.000001   0.000000
     2  C    0.043732  -0.000017   0.000008  -0.000160  -0.002267  -0.000563
     3  C   -0.043898   0.000256  -0.000184   0.000835   0.004848   0.000999
     4  O    0.002059   0.000000   0.000000   0.000000   0.000006   0.000000
     5  H   -0.002599   0.000000   0.000000   0.000000   0.000000   0.000000
     6  C    0.002315   0.001878  -0.003494  -0.003243   0.018748   0.006351
     7  O   -0.000017  -0.000531   0.000749  -0.000109  -0.001984  -0.000011
     8  H    0.000000   0.000287  -0.000063   0.000006  -0.000086   0.000000
     9  C    0.002627   0.000000   0.000018   0.000077   0.000183   0.000120
    10  O   -0.000479   0.000000   0.000000   0.000000   0.000001   0.000000
    11  H   -0.000009   0.000000   0.000000   0.000000   0.000000   0.000000
    12  C   -0.010391   0.000066   0.000241   0.000918   0.001242  -0.000869
    13  O   -0.000588   0.000033   0.000060  -0.000123  -0.002925  -0.001762
    14  C   -0.000100   0.005051   0.005363   0.039028  -0.019455   0.017129
    15  O   -0.000005   0.000529   0.000674   0.000147  -0.025225  -0.006043
    16  C    0.000133  -0.013577   0.060366   0.053095   0.172622  -0.103351
    17  C   -0.000024   0.006383  -0.002185  -0.053551   0.029578   0.348797
    18  O   -0.000001   0.000003   0.000092   0.000131  -0.001670  -0.035523
    19  H    0.000000   0.000000   0.000000   0.000012   0.000606   0.000551
    20  C    0.000000   0.001068   0.001024  -0.008166   0.052169  -0.042854
    21  O    0.000000  -0.000014  -0.000009  -0.000055  -0.000500  -0.003515
    22  H    0.000000   0.000000   0.000000   0.000007   0.000007  -0.000120
    23  C    0.000001   0.398550   0.592904   0.061270   0.009346   0.013392
    24  O    0.000000  -0.018045  -0.060551   0.005421   0.000229  -0.000054
    25  H    0.000000  -0.013192   0.000871  -0.000226  -0.000034   0.000000
    26  C    0.000001  -0.021721  -0.296333   0.135568   0.012747   0.076465
    27  O    0.000000  -0.012177   0.000754  -0.019011   0.006529   0.000512
    28  C    0.000000  -0.007241   0.003172   0.041053  -0.005546  -0.030068
    29  O    0.000000  -0.000175  -0.000234  -0.001033  -0.000336   0.000463
    30  H    0.000000   0.000000   0.000000   0.000017   0.000002   0.000007
    31  H    0.417285   0.000000   0.000000   0.000000   0.000000   0.000000
    32  H    0.000000   0.575644  -0.040284  -0.003335   0.000196   0.000004
    33  H    0.000000  -0.040284   0.570384   0.005603   0.004750  -0.000013
    34  H    0.000000  -0.003335   0.005603   0.608074   0.005818   0.001509
    35  H    0.000000   0.000196   0.004750   0.005818   0.618574   0.006383
    36  H    0.000000   0.000004  -0.000013   0.001509   0.006383   0.626801
    37  H    0.000000  -0.000001  -0.000031  -0.000062   0.000897   0.005797
    38  H    0.000000  -0.000054  -0.000014   0.002643  -0.000029   0.001747
    39  H    0.000017   0.000000   0.000000   0.000000   0.000000  -0.000001
    40  H   -0.000228   0.000000   0.000000   0.000000   0.000000   0.000000
    41  H   -0.000205   0.000000   0.000000   0.000000  -0.000015  -0.000001
    42  H   -0.013332   0.000000   0.000000   0.000000   0.000000   0.000000
    43  H    0.000050   0.000000   0.000000   0.000000   0.000000   0.000000
    44  H    0.000014   0.000001   0.000001  -0.000004   0.000002  -0.000005
    45  H    0.000001  -0.000002   0.000035  -0.000001   0.006189  -0.000039
             37         38         39         40         41         42
     1  O    0.000000   0.000000  -0.000400   0.002333   0.005658  -0.019407
     2  C    0.000083   0.000002  -0.026481   0.028951   0.032285   0.308212
     3  C    0.000021   0.000004   0.005064  -0.010479  -0.028164  -0.003605
     4  O    0.000000   0.000000  -0.000001   0.000055   0.000375   0.000229
     5  H    0.000000   0.000000   0.000000  -0.000001   0.000001  -0.000032
     6  C    0.000747  -0.000102  -0.000844   0.008153  -0.042112  -0.038096
     7  O    0.000001   0.000001  -0.000010   0.000008   0.000136   0.000252
     8  H    0.000000   0.000000   0.000000   0.000000   0.000000   0.000002
     9  C   -0.000069  -0.000003   0.410352   0.616989   0.031620  -0.061776
    10  O    0.000000   0.000000  -0.018252  -0.054013   0.000414  -0.000880
    11  H    0.000000   0.000000  -0.015181   0.001251  -0.000311  -0.000012
    12  C    0.000169   0.000050  -0.014727  -0.291610   0.096664  -0.028270
    13  O    0.000114   0.000026  -0.004292  -0.003445  -0.017753   0.003458
    14  C   -0.005971   0.001074  -0.005999   0.005787   0.170832   0.100636
    15  O   -0.000342  -0.000047  -0.000477  -0.000466  -0.002032  -0.000419
    16  C    0.107972   0.075510  -0.001619  -0.002135  -0.000751  -0.002378
    17  C   -0.195143  -0.012659   0.002035   0.001062   0.007078   0.001600
    18  O    0.007285   0.000461  -0.000046  -0.000026  -0.000045   0.000054
    19  H   -0.000155   0.000000   0.000816   0.000027  -0.000217  -0.000032
    20  C    0.324188  -0.170316  -0.000571   0.000064   0.000172   0.000024
    21  O   -0.018379   0.001808   0.000001   0.000000  -0.000001   0.000000
    22  H   -0.002558  -0.001240   0.000000   0.000000   0.000000   0.000000
    23  C    0.005573  -0.003495  -0.000009  -0.000002   0.000006   0.000068
    24  O    0.000021   0.000062   0.000000   0.000000   0.000002   0.000006
    25  H    0.000000   0.000000   0.000000   0.000000   0.000000   0.000000
    26  C    0.004560  -0.043123   0.000155  -0.000164  -0.000273  -0.000250
    27  O    0.003622  -0.040929   0.000000   0.000000   0.000000   0.000000
    28  C    0.036543   0.493550   0.000018   0.000000  -0.000007  -0.000005
    29  O   -0.001033  -0.026617   0.000000   0.000000   0.000000   0.000000
    30  H   -0.000019  -0.009224   0.000000   0.000000   0.000000   0.000000
    31  H    0.000000   0.000000   0.000017  -0.000228  -0.000205  -0.013332
    32  H   -0.000001  -0.000054   0.000000   0.000000   0.000000   0.000000
    33  H   -0.000031  -0.000014   0.000000   0.000000   0.000000   0.000000
    34  H   -0.000062   0.002643   0.000000   0.000000   0.000000   0.000000
    35  H    0.000897  -0.000029   0.000000   0.000000  -0.000015   0.000000
    36  H    0.005797   0.001747  -0.000001   0.000000  -0.000001   0.000000
    37  H    0.586227   0.004753   0.000000   0.000000   0.000000   0.000000
    38  H    0.004753   0.591693   0.000000   0.000000   0.000000   0.000000
    39  H    0.000000   0.000000   0.573514  -0.045453  -0.002561   0.000088
    40  H    0.000000   0.000000  -0.045453   0.597026   0.006138   0.004072
    41  H    0.000000   0.000000  -0.002561   0.006138   0.615082   0.006392
    42  H    0.000000   0.000000   0.000088   0.004072   0.006392   0.614174
    43  H    0.000000   0.000000   0.000005  -0.000001   0.003129   0.006865
    44  H    0.000000   0.000000   0.000001  -0.000004  -0.000017   0.001687
    45  H   -0.000009   0.000000  -0.000029  -0.000012   0.002834  -0.000028
             43         44         45
     1  O   -0.004413  -0.000165   0.000100
     2  C   -0.008454   0.011859   0.001891
     3  C    0.372434  -0.126314  -0.071353
     4  O   -0.035141   0.000355  -0.000179
     5  H   -0.001539  -0.000103   0.000005
     6  C   -0.224870   0.421480   0.084413
     7  O    0.002835  -0.038734  -0.001118
     8  H   -0.000080  -0.006632  -0.000160
     9  C    0.008500   0.014099   0.021966
    10  O   -0.000203   0.000005   0.000049
    11  H    0.000000   0.000000   0.000000
    12  C    0.041422   0.052133   0.059350
    13  O    0.001403   0.008431  -0.021890
    14  C    0.075574  -0.053948   0.208191
    15  O    0.000531  -0.013718  -0.042051
    16  C   -0.003832  -0.022609   0.005193
    17  C    0.000941   0.000449   0.001498
    18  O    0.000034   0.000183  -0.000504
    19  H   -0.000003  -0.000037  -0.001257
    20  C    0.000031   0.000641   0.012227
    21  O    0.000000   0.000000   0.000010
    22  H    0.000000   0.000000   0.000000
    23  C    0.000337   0.001552   0.001571
    24  O    0.000055   0.001112  -0.000033
[...]
 00015971,0.00014277,0.00004586,-0.00003279,0.00001822,-0.01360712,0.00
 014693,0.00118658,0.00220852,0.00061222,-0.00013729,-0.00013182,0.0001
 6716,-0.00003358,0.00009686,-0.00000436,0.00020611,0.00001600,-0.00000
 088,-0.00002028,-0.00002520,0.00002726,0.00002191,0.00004426,-0.000034
 06,-0.00003069,-0.00003663,0.00002725,0.00003587,-0.00000867,-0.000000
 19,-0.00000493,0.00001496,-0.00001217,0.00000573,-0.00000290,0.0000004
 6,-0.00000053,-0.00000508,0.00002583,-0.00002099,0.00002621,0.00000368
 ,0.00008095,-0.00001082,-0.00000204,0.00000309,-0.00002097,-0.00000310
 ,-0.00000201,0.00001525,-0.00001643,0.00001343,-0.00001295,0.00001960,
 -0.00000838,0.00000463,-0.00000463,0.00000151,-0.00000177,0.00000045,-
 0.00000016,0.00162902,-0.00003903,-0.00079553,-0.00000023,-0.00000406,
 0.00000700,0.00000279,-0.00000154,-0.00000197,0.00000640,0.00000159,0.
 00000584,0.00001145,0.00000172,-0.00000830,0.00000476,0.00000059,0.000
 00878,0.00000388,0.00000108,-0.00000263,0.00000381,-0.00000109,0.00000
 247,0.00042935,0.00004506,-0.00009451,0.00090837,-0.00083702,-0.000276
 73,0.00021053,-0.00127154,0.00133293,0.38125605,-0.00651182,0.00137442
 ,-0.00365706,0.00525683,-0.04374690,0.00133304,0.03515003,-0.00291734,
 -0.00371414,-0.00253410,0.00360273,-0.00021498,0.00050420,-0.00020791,
 0.00058649,0.00065711,0.00120820,0.00154770,-0.00041847,-0.00034237,-0
 .00030029,-0.00003890,-0.00001801,0.00010452,-0.00233422,0.00181065,-0
 .00025770,0.00052488,-0.00000987,0.00010859,-0.00003774,-0.00004020,0.
 00000952,-0.02762409,-0.00180536,0.00422145,0.00139005,0.00100059,-0.0
 0204829,0.00029560,-0.00054921,-0.00012095,0.00000317,0.00012203,0.000
 00545,-0.00002905,0.00003710,-0.00000989,0.00001054,0.00000440,-0.0000
 1282,0.00002693,0.00000362,-0.00003412,-0.00003490,-0.00001242,0.00003
 097,-0.00000696,0.00000024,-0.00000072,0.00000192,0.00000143,-0.000001
 69,-0.00000015,-0.00000022,-0.00000033,-0.00000185,-0.00002846,0.00001
 692,-0.00001696,-0.00000615,-0.00008792,0.00000797,0.00000298,-0.00000
 660,0.00000639,-0.00000821,0.00000584,-0.00000499,0.00001057,-0.000002
 90,0.00000257,-0.00000495,0.00000505,0.00000156,0.00000044,-0.00000463
 ,0.00000026,0.00000030,0.00000073,-0.00034434,0.00130914,0.00019647,0.
 00000079,0.00000527,-0.00000786,0.00000046,0.00000130,0.00000145,-0.00
 000156,0.00000120,-0.00000147,-0.00000218,-0.00000692,0.00000519,0.000
 00037,0.00000341,0.00000243,0.00000098,-0.00000052,-0.00000141,-0.0000
 0044,0.00000122,-0.00000025,0.00032350,0.00022772,-0.00014573,0.000924
 42,-0.00031621,-0.00029302,-0.00118710,-0.00289468,0.00345655,-0.00573
 107,0.04769705,-0.04141202,-0.00247871,-0.02089261,0.01797006,0.000487
 41,-0.04195221,0.01322120,0.00017443,0.00064037,-0.00141362,0.00009483
 ,0.00061455,-0.00042580,-0.00029800,-0.00019339,0.00051224,0.00068907,
 0.00074924,-0.00026142,-0.00011129,-0.00008760,-0.00001021,0.00002860,
 0.00005501,0.00029491,-0.00142525,0.00036143,-0.00016631,0.00002862,0.
 00013723,0.00001819,-0.00002775,0.00004729,0.02221918,0.00146702,-0.00
 175476,-0.00051677,-0.00020288,0.00252416,0.00051961,-0.00033775,-0.00
 021812,-0.00006429,0.00001295,-0.00019616,-0.00002033,-0.00001776,0.00
 001534,0.00001880,-0.00000141,0.00000935,-0.00005280,-0.00001119,0.000
 01744,0.00006467,0.00002582,-0.00003811,0.00000597,-0.00000412,0.00000
 771,-0.00001184,0.00001063,-0.00000887,0.00000226,-0.00000076,0.000000
 01,0.00000521,-0.00000745,0.00000782,-0.00001290,-0.00000719,-0.000037
 45,0.00000528,0.00000329,-0.00000104,0.00001430,0.00001070,0.00000809,
 -0.00001037,0.00000711,-0.00001873,0.00000709,-0.00000976,0.00001776,0
 .00000087,0.00000118,-0.00001143,0.00000080,0.00000004,0.00000208,-0.0
 0329332,0.00035168,0.00303787,-0.00000076,-0.00000068,-0.00000463,-0.0
 0000292,0.00000161,0.00000275,-0.00000482,-0.00000251,-0.00000560,-0.0
 0001242,-0.00000010,0.00001396,-0.00000710,-0.00000455,-0.00001215,-0.
 00000337,-0.00000026,0.00000340,-0.00000236,0.00000024,-0.00000281,-0.
 00009468,-0.00014883,-0.00001135,-0.00061782,0.00016951,0.00026851,0.0
 0090811,0.00255161,-0.00296306,-0.00751603,0.00165878,0.06060696,0.002
 32664,-0.00065250,-0.00040728,-0.01916341,0.00441173,-0.00267924,-0.33
 816950,0.00288139,-0.04144071,-0.01122091,-0.01488609,0.01052191,-0.00
 049415,-0.00078857,-0.00033350,-0.00987093,0.00051852,-0.00513863,0.00
 182240,-0.00039252,0.00019866,0.00018753,0.00006359,0.00013507,0.00052
 703,0.00035798,-0.00021872,0.00005265,0.00002728,0.00003773,0.00000485
 ,0.00000567,0.00001105,-0.00065990,-0.00125877,0.00070268,0.00037026,0
 .00035548,0.00010923,-0.00083724,-0.00108131,0.00010555,0.00027193,0.0
 0023544,-0.00045715,-0.00011848,0.00006726,0.00002241,0.00002218,-0.00
 002248,-0.00007215,0.00004300,0.00002490,0.00002052,-0.00003385,-0.000
 02397,0.00000950,-0.00002232,0.00000948,0.00000833,0.00001086,0.000012
 51,-0.00000902,-0.00000557,-0.00000071,-0.00000200,-0.00003571,-0.0000
 1782,0.00003617,0.00002552,0.00003567,0.00001786,-0.00002099,-0.000006
 11,0.00001203,-0.00001088,0.00000415,0.00001367,0.00001400,0.00001591,
 -0.00002730,-0.00000710,-0.00001699,0.00001672,0.00000988,0.00000458,-
 0.00001270,-0.00000120,-0.00000111,0.00000172,0.00049779,-0.00061655,-
 0.00034145,0.00000303,-0.00000089,-0.00000090,0.00001060,0.00000633,-0
 .00000800,0.00001056,-0.00000179,0.00000832,0.00001781,-0.00000037,-0.
 00003091,0.00000954,-0.00000156,0.00000997,0.00000506,0.00000120,-0.00
 000455,0.00000211,0.00000129,0.00000054,0.00002316,0.00012085,0.000009
 49,0.00015075,-0.00035333,-0.00003177,0.00112683,0.00057295,-0.0005406
 0,0.00023228,0.00230799,0.00059178,0.37177054,-0.00199936,0.00244761,0
 .00186373,0.03547555,-0.00696824,0.00202855,0.00309873,-0.03517144,-0.
 00514408,-0.03723373,-0.01714354,0.01249208,-0.00019372,-0.00028037,-0
 .00081377,-0.00873310,0.00218119,-0.00411737,-0.00007734,0.00064791,0.
 00154370,0.00005182,-0.00010610,-0.00010927,0.00026359,-0.00007777,-0.
 00015825,-0.00013721,-0.00005774,-0.00006585,-0.00000588,0.00001281,-0
 .00000676,0.00185616,0.00213635,-0.00060374,-0.00028686,-0.00046320,0.
 00045342,0.00040516,-0.00044773,0.00016258,0.00001976,0.00012709,-0.00
 036624,-0.00005707,0.00005736,0.00002989,0.00001659,-0.00002579,-0.000
 05414,-0.00001031,0.00000567,0.00006271,0.00001209,0.00001396,-0.00008
 651,-0.00000384,0.00001319,0.00000838,0.00000071,0.00000221,-0.0000068
 3,-0.00000172,0.00000268,-0.00000103,-0.00000281,0.00004255,-0.0000260
 2,0.00004698,0.00001525,0.00014250,-0.00001835,-0.00000066,0.00000758,
 -0.00001552,0.00002386,0.00000636,0.00000789,-0.00001830,-0.00000329,-
 0.00000179,0.00000335,-0.00000069,-0.00000027,-0.00000086,0.00000299,-
 0.00000031,0.00000008,-0.00000069,0.00000262,0.00029756,0.00048246,-0.
 00000072,-0.00000897,0.00001049,0.00000003,0.00000039,-0.00000373,0.00
 000403,-0.00000408,0.00000190,0.00000773,0.00000559,-0.00000600,0.0000
 0282,-0.00000068,0.00000200,0.00000064,0.00000042,-0.00000094,0.000000
 68,-0.00000106,0.00000045,-0.00012280,0.00001734,0.00002937,-0.0003270
 2,0.00000079,0.00010580,-0.00056927,-0.00036924,0.00028433,0.00188056,
 -0.00530663,-0.00249756,0.00725649,0.05820388,0.00025177,0.00110239,0.
 00154414,0.01218915,-0.00451878,0.00214146,-0.04428042,-0.00541900,-0.
 04589997,0.02797057,0.01607076,-0.00398019,0.00133850,0.00018817,0.000
 38017,-0.03983669,-0.00258510,-0.01123698,0.00244942,0.00136939,0.0035
 8431,-0.00011504,0.00022497,-0.00006295,0.00009750,-0.00009674,0.00000
 418,-0.00002231,-0.00001030,-0.00001562,-0.00000479,0.00001242,-0.0000
 0593,-0.00074539,0.00069130,-0.00027463,0.00011594,0.00053546,-0.00033
 622,-0.00090447,-0.00103808,0.00135661,0.00044891,0.00024476,-0.000414
 27,-0.00001097,0.00007900,0.00009867,0.00001881,-0.00002569,-0.0000531
 4,0.00001999,0.00003353,-0.00000037,-0.00002067,-0.00004206,0.00001347
 ,-0.00001587,0.00000381,0.00001382,-0.00000108,0.00002017,-0.00002046,
 -0.00000249,0.00000021,-0.00000234,-0.00002316,0.00004181,0.00001813,0
 .00006846,0.00001373,0.00020736,-0.00000622,0.00001430,0.00000940,-0.0
 0002536,0.00002290,0.00003957,0.00001480,0.00000376,-0.00004637,-0.000
 00014,-0.00002024,0.00003389,0.00001078,0.00000305,-0.00002369,-0.0000
 0049,0.00000039,0.00000382,0.00008797,0.00021058,0.00007453,0.00000059
 ,-0.00001552,0.00000927,0.00000625,0.00000291,-0.00000687,0.00001349,-
 0.00000483,0.00001044,0.00002823,0.00001141,-0.00005346,0.00000420,-0.
 00000201,0.00000611,0.00000154,0.00000102,-0.00000247,-0.00000003,0.00
 000106,-0.00000090,-0.00005394,-0.00004706,0.00000976,-0.00007332,0.00
 002556,0.00000409,-0.00004337,0.00025438,0.00022302,0.00103126,-0.0018
 9734,-0.00062893,0.04055594,-0.00424375,0.06015271,0.00030994,-0.00008
 266,-0.00013739,-0.00041202,0.00072030,-0.00022151,-0.00816499,-0.0049
 6864,-0.00324589,0.00147582,0.00086038,0.00044687,0.00022967,0.0000523
 9,0.00016375,-0.32661267,-0.07754454,-0.03187300,-0.02350592,0.0133930
 0,0.00767643,0.00018291,-0.00008037,-0.00187493,-0.00002214,-0.0000211
 4,0.00000658,0.00004110,0.00002669,0.00001599,-0.00000809,-0.00000094,
 0.00000415,-0.00001099,0.00010497,0.00011659,0.00147016,-0.00096915,-0
 .00011792,-0.00910192,-0.00308552,-0.00068483,0.00174017,0.00121951,-0
 .00174401,0.00011656,0.00035453,0.00026047,0.00009303,0.00003606,-0.00
 013085,0.00005065,0.00003338,-0.00005086,-0.00003111,-0.00006906,-0.00
 005271,-0.00004585,0.00004278,0.00003917,0.00001160,0.00001150,-0.0000
 4858,-0.00000881,0.00000867,-0.00000552,-0.00005152,0.00027691,-0.0001
 3732,0.00026140,-0.00003205,0.00083932,-0.00005472,-0.00000663,0.00000
 065,-0.00012141,0.00007777,0.00008468,0.00005353,-0.00009215,-0.000036
 40,-0.00001632,0.00003336,0.00002999,0.00001416,-0.00001120,-0.0000220
 0,-0.00000207,0.00000210,0.00000335,-0.00004141,-0.00010199,-0.0000664
 6,0.00000983,-0.00005627,0.00005615,0.00000635,-0.00000476,-0.00003332
 ,0.00003492,-0.00001861,0.00001454,0.00004414,0.00006396,-0.00028149,0
 .00000546,-0.00002335,0.00002043,0.00000648,0.00000308,-0.00000426,0.0
 0000524,-0.00000522,0.00000270,-0.00000128,-0.00000615,-0.00001360,0.0
 0002442,-0.00001737,-0.00001407,0.00005515,0.00009449,0.00000206,0.000
 35979,-0.00050759,-0.00024331,0.00082189,-0.00061845,-0.00085098,0.360
 51732,0.00019155,0.00000390,0.00002337,-0.00066090,0.00044172,0.000448
 14,-0.00882095,-0.00062541,-0.00232917,0.00140432,0.00062980,0.0000493
 6,-0.00001321,-0.00009882,0.00008349,-0.07904863,-0.05821547,-0.005420
 28,0.04227226,-0.00828991,-0.00610477,0.00052714,0.00164459,0.00160751
 ,-0.00006139,0.00005384,0.00007290,0.00001737,-0.00002489,-0.00000229,
 -0.00000179,0.00000611,-0.00000099,-0.00013527,-0.00014389,-0.00006536
 ,0.00133186,0.00151002,-0.00006031,-0.02999685,-0.00916955,-0.00004806
 ,0.00067736,0.00153069,-0.00204358,-0.00012150,0.00037979,0.00015773,0
 .00006649,-0.00005427,-0.00021034,0.00014319,0.00001470,0.00005658,-0.
 00015464,0.00002019,-0.00002905,-0.00002989,0.00004078,0.00002010,0.00
 000531,0.00002734,-0.00002498,-0.00000517,0.00000183,-0.00000472,-0.00
 003177,-0.00007854,0.00011143,-0.00026035,-0.00014948,-0.00028723,0.00
 006718,0.00002217,-0.00003098,0.00009730,-0.00003888,0.00002226,-0.000
 01260,0.00005513,-0.00005912,0.00000339,-0.00005611,0.00003143,0.00000
 840,0.00001349,-0.00001785,-0.00000008,0.00000017,0.00000331,0.0000065
 3,0.00001629,-0.00001554,-0.00000085,0.00001064,-0.00002304,0.00000316
 ,-0.00001819,0.00003195,0.00000416,0.00003162,0.00002591,0.00021942,-0
 .00002242,-0.00015162,0.00002058,-0.00001638,0.00003863,0.00000622,0.0
 0000237,-0.00000966,-0.00000141,0.00000611,-0.00000087,0.00000551,-0.0
 0003232,-0.00000752,0.00003481,-0.00003600,-0.00002357,0.00014466,0.00
 013670,0.00005225,0.00025370,-0.00009529,-0.00019827,0.00040906,0.0000
 5310,-0.00162674,0.07130516,0.07383217,0.00071828,0.00006994,-0.000397
 76,-0.00118640,0.00142086,0.00110780,-0.03682695,-0.01140884,-0.009966
 59,0.00168141,0.00007206,0.00385790,0.00007155,-0.00031815,0.00053219,
 -0.03634173,-0.00636578,-0.04467225,0.01623714,-0.00644501,0.00086123,
 0.00133594,0.00009206,0.00087543,-0.00004822,-0.00000865,0.00006106,0.
 00001037,-0.00000347,0.00001368,0.00000562,-0.00000102,0.00000297,-0.0
 0023555,-0.00013263,-0.00049642,-0.00086548,-0.00048699,0.00025334,0.0
 2272752,0.01073406,-0.00076721,0.00065989,-0.00095863,0.00165450,0.000
 48796,0.00000732,-0.00040929,-0.00001120,0.00005632,0.00014539,-0.0001
 1414,-0.00004790,-0.00006707,0.00012023,0.00000846,0.00008251,0.000013
 75,-0.00002661,-0.00001866,-0.00000307,-0.00003076,0.00001785,0.000004
 25,0.00000147,0.00000487,0.00009236,0.00006235,-0.00011670,-0.00021669
 ,-0.00001169,-0.00000292,-0.00000144,-0.00002213,0.00005811,-0.0000532
 4,0.00001629,-0.00003620,-0.00002665,-0.00005691,0.00011603,-0.0000022
 1,0.00008078,-0.00004829,-0.00001494,-0.00001675,0.00002881,0.00000061
 ,-0.00000079,-0.00000510,0.00009731,-0.00021154,-0.00012095,-0.0000098
 1,-0.00000704,0.00000986,-0.00003295,-0.00001802,0.00003711,-0.0000407
 9,-0.00001644,-0.00008058,-0.00027337,-0.00000642,0.00003904,-0.000034
 49,0.00002498,-0.00002785,-0.00000560,-0.00000449,0.00001029,0.0000014
 7,-0.00000591,0.00000012,0.00000822,-0.00004011,0.00000678,0.00000508,
 -0.00001247,-0.00000579,0.00010465,0.00008125,-0.00010870,0.00059919,-
 0.00040383,-0.00017623,-0.00093385,-0.00139575,-0.00652006,0.03179634,
 0.01299745,0.05662890,0.00004844,-0.00006567,0.00023760,0.00012014,0.0
 0029283,-0.00005619,-0.00049990,-0.00054292,0.00000523,0.00019392,0.00
 009961,0.00008974,-0.00003440,-0.00002476,0.00003975,-0.00395221,0.001
 40826,0.00161145,0.00191627,-0.00029414,-0.00137791,-0.00022131,-0.000
 23292,0.00005577,0.00045566,-0.00004808,0.00006364,0.00002513,0.000181
 38,0.00008855,-0.00001550,0.00000227,0.00002498,-0.00004406,-0.0005229
 6,-0.00074086,-0.00851491,0.00791298,0.00512432,-0.33049698,-0.0483702
 6,0.07325315,-0.02081853,-0.00295404,-0.00525247,-0.00037370,-0.000443
 10,0.00448792,0.00037265,0.00024065,-0.00024757,0.00063760,-0.00010922
 ,-0.00037942,-0.00081722,-0.00014395,0.00078771,-0.00004267,0.00012732
 ,0.00000127,0.00002935,-0.00000399,-0.00002282,-0.00001627,0.00000719,
 -0.00000605,-0.00018990,-0.00000336,-0.00000977,0.00009525,0.00002170,
 0.00002714,0.00000539,-0.00001303,0.00000669,0.00053899,0.00005980,-0.
 00009672,0.00003961,-0.00010016,-0.00021175,-0.00001516,-0.00003561,0.
 00001552,0.00001174,0.00000743,-0.00000746,-0.00000089,0.00000186,-0.0
 0000019,0.00001180,-0.00000854,-0.00000450,0.00004591,0.00001585,0.000
 00640,0.00008280,-0.00002499,-0.00003862,0.00009693,0.00016808,0.00026
 296,0.00175360,0.00015726,-0.00065565,0.00010975,-0.00025455,0.0002117
 7,0.00002433,0.00001609,-0.00003788,0.00000572,0.00000474,0.00000621,-
 0.00001267,-0.00002726,0.00000612,0.00005889,-0.00016908,-0.00009534,0
 .00045530,0.00041038,0.00104117,0.00006455,-0.00003008,-0.00020292,0.0
 0030145,0.00000684,0.00031311,0.00027156,0.00013119,0.00049963,0.35829
 357,-0.00002683,0.00041664,-0.00023800,-0.00022644,-0.00070523,-0.0002
 0467,-0.00105830,-0.00081332,-0.00143346,0.00032378,0.00008892,0.00088
 889,0.00011702,-0.00019900,0.00013860,-0.02418945,-0.00165499,0.007914
 31,0.00113272,0.00386742,-0.00115758,-0.00032041,-0.00028565,-0.000006
 44,0.00005626,0.00022751,0.00003986,-0.00015006,-0.00021548,-0.0000966
 3,0.00000695,0.00002464,-0.00003237,0.00334207,0.00150745,0.00429393,0
 .03339427,-0.00745904,-0.01557504,-0.05206725,-0.05139712,0.01427253,-
 0.00292254,0.00263435,0.00015931,-0.00001207,0.00011041,0.00102945,0.0
 0018777,0.00008181,0.00008969,-0.00040529,0.00005254,0.00013920,0.0007
 4588,0.00000638,-0.00095338,0.00002486,0.00002323,0.00006136,-0.000027
 16,0.00002929,-0.00005269,-0.00000016,0.00000391,-0.00000365,-0.000125
 30,0.00001082,-0.00007092,0.00006981,-0.00004183,0.00002940,-0.0000207
 7,-0.00001341,-0.00000357,-0.00004504,0.00009083,0.00003117,0.00001933
 ,-0.00004995,-0.00006456,-0.00000447,0.00002163,0.00006081,0.00001308,
 -0.00000737,-0.00003954,0.00000033,0.00000094,0.00000701,-0.00001141,0
 .00000686,0.00000718,0.00003602,-0.00000438,0.00000288,0.00003623,-0.0
 0000709,-0.00006164,0.00001373,-0.00001413,0.00002602,0.00031435,0.000
 33932,-0.00006201,0.00000169,-0.00006522,0.00001210,-0.00000763,0.0000
 0212,0.00000320,-0.00000065,-0.00000595,-0.00000502,0.00004298,0.00001
 994,0.00000548,-0.00012839,0.00004067,0.00004596,-0.00121477,0.0003270
 7,0.00001573,-0.00008220,-0.00010816,0.00001892,0.00041572,0.00014021,
 0.00041005,-0.00039721,-0.00331946,0.00273905,0.04314895,0.05629186,-0
 .00006210,-0.00003687,-0.00035023,-0.00012311,0.00029087,-0.00008691,0
 .00073241,-0.00042478,0.00153062,-0.00040850,0.00012412,-0.00032658,-0
 .00006157,-0.00000551,-0.00002968,0.02168512,0.00304949,-0.00025903,-0
 .00228841,-0.00136226,0.00138986,-0.00011943,0.00008043,-0.00017488,-0
 .00005040,0.00001712,0.00001084,-0.00012105,-0.00015319,-0.00007942,0.
 00001430,0.00001187,-0.00001638,0.00293516,0.00064351,0.00321342,0.013
 99735,-0.00654993,-0.00456164,0.08136551,0.01703167,-0.06625929,-0.032
 12192,-0.00233543,-0.00740514,-0.00654532,-0.00143347,0.00361497,-0.00
 023116,-0.00005049,-0.00040891,0.00011671,0.00014431,0.00046105,-0.000
 18920,0.00003280,-0.00063246,0.00003541,0.00005277,0.00005568,0.000002
 33,0.00005464,-0.00003565,-0.00000031,0.00000153,-0.00000601,-0.000056
 46,0.00013147,0.00000366,0.00003410,-0.00008792,0.00010941,0.00001761,
 0.00000047,-0.00001086,0.00004751,-0.00000890,-0.00009825,0.00009267,0
 .00000224,-0.00026266,0.00000384,-0.00010266,0.00009804,0.00002197,0.0
 0001816,-0.00006049,0.00000073,0.00000238,0.00000902,-0.00002878,0.000
 00159,0.00001711,0.00002328,-0.00001176,0.00000184,0.00003720,-0.00006
 173,-0.00002882,0.00018602,0.00008832,0.00002100,0.00098958,0.00011935
 ,-0.00113391,0.00027331,0.00001772,-0.00001175,0.00002104,0.00002389,-
 0.00005830,-0.00000049,0.00000751,0.00000135,0.00000633,0.00002381,-0.
 00000214,-0.00012288,0.00008601,0.00001439,-0.00095969,0.00006584,-0.0
 0009698,-0.00016960,-0.00007120,0.00006690,-0.00046641,-0.00000902,-0.
 00035311,0.00031103,0.00296214,-0.00236115,-0.07882373,-0.01238093,0.0
 7449148\\0.00578741,-0.00353307,-0.00890048,-0.00608526,-0.01366425,-0
 .00221623,0.03029256,-0.02948591,0.00204550,-0.01102649,0.02754260,0.0
 2372351,0.00066206,-0.01855319,-0.02268468,-0.01502894,-0.00869891,-0.
 01897581,0.00549687,0.01124847,0.01190951,0.00352042,0.00801916,0.0175
 8610,0.00150980,0.00773229,0.00298616,0.00340935,0.02257082,-0.0130957
 6,0.00409110,-0.03167663,0.01351847,-0.00244155,0.00988464,0.01491449,
 0.01834734,0.00631832,0.02956653,-0.05474118,0.01435832,-0.01171610,0.
 02351650,-0.03910458,-0.01263250,-0.02137083,0.02143341,-0.00161645,0.
 00844032,-0.00447931,0.02657281,0.01306156,-0.00352194,-0.00412407,-0.
 00362880,0.00712187,-0.02370354,-0.03327616,0.01895391,0.00992839,0.01
 061433,0.00940211,-0.04531383,-0.00119206,0.00527104,0.02942573,0.0054
 0862,-0.02138839,0.00000434,-0.00979797,-0.02485223,-0.00966283,-0.007
 52866,0.03185446,0.01274922,0.02525526,-0.01917130,0.01172321,-0.01071
 270,0.01428971,0.00376296,0.03943083,-0.02831950,-0.00441105,-0.010200
 43,0.01403457,0.01638684,-0.00197969,-0.00267001,-0.00214544,-0.001437
 09,0.00393557,-0.00019911,-0.00292332,-0.00703307,-0.01559641,0.017602
 68,0.00656448,-0.00224151,-0.01898752,0.00028696,0.00011507,0.01772478
 ,-0.00194476,0.00106948,-0.02109601,-0.00283023,-0.00460943,0.01753968
 ,0.00327889,-0.00260631,-0.01882141,0.00050223,-0.00276291,-0.00057711
 ,0.00578010,-0.01753618,-0.02053754,-0.00076567,0.00305604,0.02073523,
 0.00115147,-0.00048614,-0.02009647,0.00308067,-0.00149955,0.02581044,0
 .00325831,0.00411505,-0.02204900,0.00037506,-0.00240742,0.01727903,0.0
 0344347,-0.00401568\\\@


 I HAVE NOT FAILED, I HAVE ONLY DISCOVERED 10,000
 WAYS THAT DIDN'T WORK.  -- THOMAS A. EDISON
 Job cpu time:  1 days  7 hours 43 minutes  2.9 seconds.
 File lengths (MBytes):  RWF=   1769 Int=      0 D2E=      0 Chk=     28 Scr=      1
 Normal termination of Gaussian 09 at Mon Mar 21 22:48:29 2016.
Gaussian '09 finished on node010 at Mon Mar 21 22:48:29 EDT 2016.
