Gaussian '09 started on node004 at Thu Jan 21 05:16:46 EST 2016.
 Entering Gaussian System, Link 0=/usr/local/gaussian/g09/g09
 Initial command:
 /usr/local/gaussian/g09/l1.exe /home/srmcgrat/thesis/gaussian/cellobiose/550/9000/gaussian11601/Gau-11637.inp -scrdir=/home/srmcgrat/thesis/gaussian/cellobiose/550/9000/gaussian11601/
 Entering Link 1 = /usr/local/gaussian/g09/l1.exe PID=     11639.
  
 Copyright (c) 1988,1990,1992,1993,1995,1998,2003,2009,2010,
            Gaussian, Inc.  All Rights Reserved.
  
 This is part of the Gaussian(R) 09 program.  It is based on
 the Gaussian(R) 03 system (copyright 2003, Gaussian, Inc.),
 the Gaussian(R) 98 system (copyright 1998, Gaussian, Inc.),
 the Gaussian(R) 94 system (copyright 1995, Gaussian, Inc.),
 the Gaussian 92(TM) system (copyright 1992, Gaussian, Inc.),
 the Gaussian 90(TM) system (copyright 1990, Gaussian, Inc.),
 the Gaussian 88(TM) system (copyright 1988, Gaussian, Inc.),
 the Gaussian 86(TM) system (copyright 1986, Carnegie Mellon
 University), and the Gaussian 82(TM) system (copyright 1983,
 Carnegie Mellon University). Gaussian is a federally registered
 trademark of Gaussian, Inc.
  
 This software contains proprietary and confidential information,
 including trade secrets, belonging to Gaussian, Inc.
  
 This software is provided under written license and may be
 used, copied, transmitted, or stored only in accord with that
 written license.
  
 The following legend is applicable only to US Government
 contracts under FAR:
  
                    RESTRICTED RIGHTS LEGEND
  
 Use, reproduction and disclosure by the US Government is
 subject to restrictions as set forth in subparagraphs (a)
 and (c) of the Commercial Computer Software - Restricted
 Rights clause in FAR 52.227-19.
  
 Gaussian, Inc.
 340 Quinnipiac St., Bldg. 40, Wallingford CT 06492
  
  
 ---------------------------------------------------------------
 Warning -- This program may not be used in any manner that
 competes with the business of Gaussian, Inc. or will provide
 assistance to any competitor of Gaussian, Inc.  The licensee
 of this program is prohibited from giving any competitor of
 Gaussian, Inc. access to this program.  By using this program,
 the user acknowledges that Gaussian, Inc. is engaged in the
 business of creating and licensing software in the field of
 computational chemistry and represents and warrants to the
 licensee that it is not a competitor of Gaussian, Inc. and that
 it will not use this program in any manner prohibited above.
 ---------------------------------------------------------------
  

 Cite this work as:
 Gaussian 09, Revision B.01,
 M. J. Frisch, G. W. Trucks, H. B. Schlegel, G. E. Scuseria, 
 M. A. Robb, J. R. Cheeseman, G. Scalmani, V. Barone, B. Mennucci, 
 G. A. Petersson, H. Nakatsuji, M. Caricato, X. Li, H. P. Hratchian, 
 A. F. Izmaylov, J. Bloino, G. Zheng, J. L. Sonnenberg, M. Hada, 
 M. Ehara, K. Toyota, R. Fukuda, J. Hasegawa, M. Ishida, T. Nakajima, 
 Y. Honda, O. Kitao, H. Nakai, T. Vreven, J. A. Montgomery, Jr., 
 J. E. Peralta, F. Ogliaro, M. Bearpark, J. J. Heyd, E. Brothers, 
 K. N. Kudin, V. N. Staroverov, T. Keith, R. Kobayashi, J. Normand, 
 K. Raghavachari, A. Rendell, J. C. Burant, S. S. Iyengar, J. Tomasi, 
 M. Cossi, N. Rega, J. M. Millam, M. Klene, J. E. Knox, J. B. Cross, 
 V. Bakken, C. Adamo, J. Jaramillo, R. Gomperts, R. E. Stratmann, 
 O. Yazyev, A. J. Austin, R. Cammi, C. Pomelli, J. W. Ochterski, 
 R. L. Martin, K. Morokuma, V. G. Zakrzewski, G. A. Voth, 
 P. Salvador, J. J. Dannenberg, S. Dapprich, A. D. Daniels, 
 O. Farkas, J. B. Foresman, J. V. Ortiz, J. Cioslowski, 
 and D. J. Fox, Gaussian, Inc., Wallingford CT, 2010.
 
 ******************************************
 Gaussian 09:  EM64L-G09RevB.01 12-Aug-2010
                21-Jan-2016 
 ******************************************
 ------------------------------------------------
 # freq=raman b3lyp/6-31+g(d,p) geom=connectivity
 ------------------------------------------------
 1/10=4,30=1,38=1,57=2/1,3;
 2/12=2,17=6,18=5,40=1/2;
 3/5=1,6=6,7=111,11=2,16=1,25=1,30=1,71=2,74=-5/1,2,3;
 4//1;
 5/5=2,38=5,98=1/2;
 8/6=4,10=90,11=11/1;
 10/13=10,15=4/2;
 11/6=3,8=1,9=11,15=111,16=1/1,2,10;
 10/6=1/2;
 6/7=2,8=2,9=2,10=2,18=1,28=1/1;
 7/8=1,10=1,25=1/1,2,3,16;
 1/10=4,30=1/3;
 99//99;
 ------------
 550 9000.com
 ------------
 Symbolic Z-matrix:
 Charge =  0 Multiplicity = 1
 O                     9.503     7.57      12.088 
 C                     10.196    7.468     13.34 
 C                     10.544    8.836     13.904 
 O                     11.329    9.546     12.935 
 H                     10.946    9.362     12.03 
 C                     11.251    8.774     15.249 
 O                     11.48     10.045    15.874 
 H                     11.814    10.521    15.06 
 C                     8.514     5.575     14.112 
 O                     9.253     4.616     13.342 
 H                     9.254     4.862     12.373 
 C                     9.301     6.844     14.399 
 O                     10.192    6.536     15.481 
 C                     10.391    7.828     16.071 
 O                     11.01     7.43      17.304 
 C                     10.135    7.692     18.411 
 C                     9.61      6.344     18.877 
 O                     8.833     5.651     17.889 
 H                     9.348     5.376     17.078 
 C                     8.927     6.352     20.235 
 O                     8.449     5.088     20.715 
 H                     7.844     4.594     20.09 
 C                     11.743    9.57      19.049 
 O                     11.188    10.853    18.724 
 H                     11.305    10.809    17.732 
 C                     10.942    8.363     19.51 
 O                     10.22     8.36      20.75 
 C                     9.859     7.05      21.212 
 O                     9.141     7.245     22.44 
 H                     10.14092   7.62825   11.37297 
 H                     8.23446   5.12643   15.04235 
 H                     7.62596   5.83566   13.57503 
 H                     8.61244   7.59172   14.73322 
 H                     11.08462   6.88393   13.22114 
 H                     9.62954   9.37423   14.04177 
 H                     12.20262   8.30824   15.09936 
 H                     9.44372   8.28282   16.27276 
 H                     9.76478   7.35944   23.1607 
 H                     10.73456   6.45877   21.38153 
 H                     8.0655    6.97882   20.13592 
 H                     10.48434   5.74229   19.01257 
 H                     9.32578   8.3216    18.10495 
 H                     11.71535   7.64878   19.70162 
 H                     12.27937   9.25252   18.17928 
 H                     12.471    9.74911   19.81243 
 

 GradGradGradGradGradGradGradGradGradGradGradGradGradGradGradGradGradGrad
 Berny optimization.
 Initialization pass.
 Trust Radius=3.00D-01 FncErr=1.00D-07 GrdErr=1.00D-07
 Number of steps in this run=      2 maximum allowed number of steps=      2.
 GradGradGradGradGradGradGradGradGradGradGradGradGradGradGradGradGradGrad

                          Input orientation:                          
 ---------------------------------------------------------------------
 Center     Atomic      Atomic             Coordinates (Angstroms)
 Number     Number       Type             X           Y           Z
 ---------------------------------------------------------------------
      1          8           0        9.503000    7.570000   12.088000
      2          6           0       10.196000    7.468000   13.340000
      3          6           0       10.544000    8.836000   13.904000
      4          8           0       11.329000    9.546000   12.935000
      5          1           0       10.946000    9.362000   12.030000
      6          6           0       11.251000    8.774000   15.249000
      7          8           0       11.480000   10.045000   15.874000
      8          1           0       11.814000   10.521000   15.060000
      9          6           0        8.514000    5.575000   14.112000
     10          8           0        9.253000    4.616000   13.342000
     11          1           0        9.254000    4.862000   12.373000
     12          6           0        9.301000    6.844000   14.399000
     13          8           0       10.192000    6.536000   15.481000
     14          6           0       10.391000    7.828000   16.071000
     15          8           0       11.010000    7.430000   17.304000
     16          6           0       10.135000    7.692000   18.411000
     17          6           0        9.610000    6.344000   18.877000
     18          8           0        8.833000    5.651000   17.889000
     19          1           0        9.348000    5.376000   17.078000
     20          6           0        8.927000    6.352000   20.235000
     21          8           0        8.449000    5.088000   20.715000
     22          1           0        7.844000    4.594000   20.090000
     23          6           0       11.743000    9.570000   19.049000
     24          8           0       11.188000   10.853000   18.724000
     25          1           0       11.305000   10.809000   17.732000
     26          6           0       10.942000    8.363000   19.510000
     27          8           0       10.220000    8.360000   20.750000
     28          6           0        9.859000    7.050000   21.212000
     29          8           0        9.141000    7.245000   22.440000
     30          1           0       10.140918    7.628253   11.372971
     31          1           0        8.234458    5.126434   15.042347
     32          1           0        7.625957    5.835662   13.575032
     33          1           0        8.612440    7.591719   14.733216
     34          1           0       11.084616    6.883934   13.221137
     35          1           0        9.629542    9.374225   14.041766
     36          1           0       12.202618    8.308240   15.099364
     37          1           0        9.443724    8.282822   16.272757
     38          1           0        9.764779    7.359443   23.160696
     39          1           0       10.734561    6.458771   21.381532
     40          1           0        8.065503    6.978821   20.135918
     41          1           0       10.484337    5.742290   19.012571
     42          1           0        9.325783    8.321602   18.104946
     43          1           0       11.715352    7.648781   19.701618
     44          1           0       12.279373    9.252518   18.179282
     45          1           0       12.471003    9.749111   19.812434
 ---------------------------------------------------------------------
                    Distance matrix (angstroms):
                    1          2          3          4          5
     1  O    0.000000
     2  C    1.434628   0.000000
     3  C    2.446281   1.520074   0.000000
     4  O    2.820684   2.401208   1.435021   0.000000
     5  H    2.301495   2.421949   1.987500   0.999785   0.000000
     6  C    3.807498   2.542232   1.520762   2.440628   3.286446
     7  O    4.936390   3.835458   2.493728   2.984882   3.940556
     8  H    4.783504   3.859680   2.405922   2.387776   3.358215
     9  C    3.009107   2.647368   3.846854   5.007833   4.958903
    10  O    3.218871   3.003857   4.448699   5.364730   5.206929
    11  H    2.734317   2.934909   4.449802   5.153768   4.819804
    12  C    2.430761   1.520487   2.399612   3.681967   3.828643
    13  O    3.613354   2.335063   2.810842   4.103046   4.523737
    14  C    4.088936   2.761519   2.394862   3.696737   4.357851
    15  O    5.431142   4.046892   3.708637   4.864913   5.617099
    16  C    6.355678   5.076311   4.667876   5.903349   6.645584
    17  C    6.899641   5.680241   5.640315   6.965280   7.600962
    18  O    6.146793   5.084551   5.380704   6.778138   7.250115
    19  H    5.453234   4.366716   4.845234   6.203040   6.627526
    20  C    8.257658   7.099073   6.990458   8.322334   8.969865
    21  O    9.038604   7.943994   8.051475   9.417885   9.996565
    22  H    8.697175   7.704173   7.971898   9.373449   9.865081
    23  C    7.581103   6.277284   5.333609   6.128048   7.067166
    24  O    7.593011   6.436594   5.264544   5.936384   6.862309
    25  H    6.752263   5.628661   4.373264   4.960540   5.893683
    26  C    7.601688   6.279048   5.639980   6.691777   7.546417
    27  O    8.727453   7.463534   6.870172   7.981898   8.807354
    28  C    9.145737   7.890290   7.554197   8.769244   9.530794
    29  O   10.363425   9.163665   8.795623  10.021326  10.775334
    30  H    0.960000   1.974315   2.833238   2.743944   2.021317
    31  H    4.038363   3.496936   4.515606   5.792207   5.862313
    32  H    2.956769   3.053669   4.198241   5.280983   5.083785
    33  H    2.791189   2.112823   2.442695   3.799012   3.985822
    34  H    2.063055   1.070000   2.137553   2.688530   2.752968
    35  H    2.662413   2.108802   1.070000   2.035337   2.404249
    36  H    4.111112   2.797835   2.111501   2.641918   3.480013
    37  H    4.245447   3.135429   2.669760   4.036149   4.628438
    38  H   11.077791   9.830758   9.406052  10.573205  11.370924
    39  H    9.440408   8.122489   7.848631   9.012671   9.794110
    40  H    8.196638   7.138825   6.959085   8.312283   8.926518
    41  H    7.228639   5.936268   5.972612   7.219316   7.878561
    42  H    6.066297   4.918397   4.404158   5.678061   6.372794
    43  H    7.928928   6.543035   6.032739   7.038170   7.898149
    44  H    6.902379   5.562697   4.632822   5.337774   6.293134
    45  H    8.557128   7.229904   6.281457   6.974562   7.939884
                    6          7          8          9         10
     6  C    0.000000
     7  O    1.434750   0.000000
     8  H    1.845183   1.000364   0.000000
     9  C    4.360910   5.646477   6.020932   0.000000
    10  O    4.991755   6.390978   6.661777   1.434818   0.000000
    11  H    5.250060   6.638943   6.767411   2.019923   0.999739
    12  C    2.872264   4.143678   4.502490   1.520559   2.466483
    13  O    2.486755   3.758520   4.323002   2.369254   3.023812
    14  C    1.519934   2.477866   3.209252   3.526587   4.365711
    15  O    2.467274   3.017288   3.903362   4.456445   5.167503
    16  C    3.523411   3.712412   4.695901   5.058728   5.994536
    17  C    4.664779   5.119796   6.072432   4.949525   5.809446
    18  O    4.750732   5.511268   6.372323   3.791209   4.682183
    19  H    4.302680   5.272059   6.051818   3.087444   3.813702
    20  C    6.010595   6.258944   7.245409   6.185906   7.115716
    21  O    7.163446   7.562678   8.533448   6.621254   7.431711
    22  H    7.246746   7.791569   8.728753   6.094895   6.893567
    23  C    3.913525   3.221090   4.101410   7.124636   7.956888
    24  O    4.049918   2.976681   3.731889   7.501873   8.462288
    25  H    3.210830   2.016553   2.735253   6.949017   7.863590
    26  C    4.291914   4.042161   5.021937   6.542670   7.411947
    27  O    5.612073   5.310574   6.291809   7.397953   8.356500
    28  C    6.361384   6.331817   7.329186   7.375273   8.260054
    29  O    7.648557   7.511543   8.505381   8.516902   9.470892
    30  H    4.191494   5.281389   4.976080   3.790118   3.706635
    31  H    4.737823   5.951259   6.474162   1.070000   2.046741
    32  H    4.957513   6.152839   6.457339   1.070000   2.046741
    33  H    2.936975   3.942445   4.351719   2.112524   3.346746
    34  H    2.777097   4.145643   4.140250   3.019107   2.917695
    35  H    2.108747   2.689092   2.669036   3.960237   4.824123
    36  H    1.070000   2.034348   2.246971   4.695891   5.041945
    37  H    2.134380   2.722260   3.478279   3.586859   4.698009
    38  H    8.173418   7.952995   8.933981   9.307394  10.207604
    39  H    6.575328   6.614350   7.591354   7.652322   8.380030
    40  H    6.103444   6.262922   7.236243   6.201569   7.290432
    41  H    4.893210   5.418052   6.342467   5.284488   5.911015
    42  H    3.473839   3.547940   4.505583   4.913902   6.035101
    43  H    4.616010   4.521937   5.459303   6.767057   7.463624
    44  H    3.142146   2.565414   3.399344   6.651688   7.352247
    45  H    4.823295   4.071965   4.859330   8.097902   8.864022
                   11         12         13         14         15
    11  H    0.000000
    12  C    2.834644   0.000000
    13  O    3.652641   1.435085   0.000000
    14  C    4.874949   2.225295   1.434212   0.000000
    15  O    5.830345   3.420980   2.188993   1.435916   0.000000
    16  C    6.726255   4.184591   3.150315   2.357887   1.435172
    17  C    6.680200   4.516411   3.450856   3.268922   2.369330
    18  O    5.588025   3.717845   2.903200   3.236019   2.871654
    19  H    4.733926   3.055204   2.146706   2.848544   2.651836
    20  C    8.008625   5.868632   4.922865   4.654113   3.753896
    21  O    8.383798   6.610696   5.703465   5.731117   4.866067
    22  H    7.849332   6.290694   5.525156   5.753114   5.082150
    23  C    8.539869   5.917511   4.933699   3.705530   2.856906
    24  O    8.942463   6.191807   5.490497   4.101737   3.710123
    25  H    8.263915   5.553929   4.956238   3.532800   3.418750
    26  C    8.126691   5.578760   4.487011   3.523712   2.396153
    27  O    9.129255   6.593786   5.575852   4.712251   3.655669
    28  C    9.125858   6.838916   5.763631   5.226680   4.091658
    29  O   10.345818   8.052582   7.073540   6.516636   5.468627
    30  H    3.072269   3.236876   4.251062   4.708919   5.997642
    31  H    2.869634   2.121660   2.451788   3.606558   4.257361
    32  H    2.245757   2.121660   3.272272   4.224303   5.281938
    33  H    3.665186   1.070000   2.041748   2.238028   3.519003
    34  H    2.856345   2.137812   2.454547   3.081247   4.119894
    35  H    4.825556   2.576353   3.231606   2.662409   4.040774
    36  H    5.291878   3.324740   2.707225   2.111082   2.655949
    37  H    5.190965   2.366758   2.058685   1.070000   2.060094
    38  H   11.084787   8.789089   7.735522   7.132705   5.988025
    39  H    9.267976   7.138575   5.925927   5.494959   4.200645
    40  H    8.133656   5.869997   5.136764   4.759475   4.110157
    41  H    6.809739   4.888669   3.631450   3.607178   2.458434
    42  H    6.695462   3.989732   3.289954   2.348461   2.067137
    43  H    8.217850   5.881712   4.623041   3.868775   2.508777
    44  H    7.883048   5.381654   4.360886   3.168605   2.387258
    45  H    9.464573   6.913310   5.854849   4.692058   3.715514
                   16         17         18         19         20
    16  C    0.000000
    17  C    1.519831   0.000000
    18  O    2.476564   1.435313   0.000000
    19  H    2.785698   2.059628   0.999285   0.000000
    20  C    2.565510   1.520104   2.450297   3.331136   0.000000
    21  O    3.864172   2.510717   2.907009   3.757514   1.434078
    22  H    4.203014   2.766338   2.634345   3.456253   2.069898
    23  C    2.553349   3.871221   5.017197   5.216369   4.437564
    24  O    3.346446   4.779600   5.770966   6.007699   5.258730
    25  H    3.397886   4.911240   5.721922   5.811631   5.637796
    26  C    1.519635   2.500255   3.798745   4.168648   2.937681
    27  O    2.434003   2.818596   4.177053   4.811260   2.443182
    28  C    2.886857   2.452073   3.748627   4.489249   1.519986
    29  O    4.173810   3.704960   4.831904   5.682170   2.388571
    30  H    7.038320   7.631621   6.933889   6.184555   9.035374
    31  H    4.641337   4.251958   2.955817   2.333697   5.380081
    32  H    5.755682   5.683810   4.483455   3.930332   6.805475
    33  H    3.981751   4.441044   3.711336   3.308848   5.648494
    34  H    5.337548   5.869822   5.327180   4.490556   7.357482
    35  H    4.709095   5.706324   5.412772   5.028299   6.927017
    36  H    3.952433   4.985022   5.118332   4.545534   6.397758
    37  H    2.323579   3.250963   3.148287   3.017813   4.437843
    38  H    4.775696   4.405125   5.619410   6.411469   3.205700
    39  H    3.271756   2.747815   4.057857   4.649229   2.143178
    40  H    2.786895   2.091255   2.720442   3.683029   1.070000
    41  H    2.070095   1.070000   1.999415   2.273322   2.071564
    42  H    1.070000   2.141905   2.724258   3.119564   2.928393
    43  H    2.040852   2.610548   3.947743   4.201579   3.121065
    44  H    2.662188   4.008970   4.993264   4.983289   4.886450
    45  H    3.413595   4.544794   5.807683   6.029459   4.927361
                   21         22         23         24         25
    21  O    0.000000
    22  H    1.000343   0.000000
    23  C    5.806403   6.406751   0.000000
    24  O    6.685913   7.226574   1.435179   0.000000
    25  H    7.055839   7.494325   1.860498   0.999844   0.000000
    26  C    4.288671   4.913183   1.520188   2.622673   3.045648
    27  O    3.720706   4.501526   2.583995   3.355108   4.035239
    28  C    2.466689   3.369131   3.818170   4.734891   5.322725
    29  O    2.847304   3.772600   4.865687   5.569249   6.288899
    30  H    9.827969   9.511526   8.078271   8.095246   7.204824
    31  H    5.676839   5.090653   6.936023   7.421020   6.996715
    32  H    7.226032   6.635817   7.801260   8.023323   7.453176
    33  H    6.486684   6.186433   5.686826   5.761581   5.156887
    34  H    8.144313   7.932633   6.450769   6.785697   5.983528
    35  H    8.018570   7.913271   5.438514   5.151591   4.299252
    36  H    7.482978   7.596024   4.171680   4.543483   3.740360
    37  H    5.561465   5.544175   3.827666   3.956881   3.460537
    38  H    3.587779   4.556999   5.070105   5.823639   6.613809
    39  H    2.747192   3.674339   4.017138   5.155321   5.706924
    40  H    2.014351   2.395526   4.628130   5.172307   5.562682
    41  H    2.732940   3.074216   4.029506   5.166988   5.290075
    42  H    4.247035   4.475615   2.879701   3.202976   3.200553
    43  H    4.272423   4.946706   2.029226   3.391291   3.746301
    44  H    6.200390   6.710080   1.070000   2.012301   1.890000
    45  H    6.222306   6.932631   1.070000   2.012301   2.609814
                   26         27         28         29         30
    26  C    0.000000
    27  O    1.434884   0.000000
    28  C    2.407003   1.435223   0.000000
    29  O    3.616411   2.294246   1.435804   0.000000
    30  H    8.209314   9.405870   9.860038  11.118716   0.000000
    31  H    6.145410   6.853877   6.663622   7.748252   4.833012
    32  H    7.253098   8.036262   8.048874   9.103255   3.793085
    33  H    5.370232   6.275045   6.619820   7.732665   3.691724
    34  H    6.462026   7.720759   8.086013   9.428439   2.204607
    35  H    5.713730   6.810118   7.541017   8.677708   3.229921
    36  H    4.587578   5.988584   6.666336   8.024271   4.312655
    37  H    3.568053   4.544697   5.107683   6.261278   4.992238
    38  H    3.964916   2.649490   1.975360   0.960000  11.796788
    39  H    2.678012   2.068400   1.070000   2.068320  10.094127
    40  H    3.252993   2.631845   2.092762   2.556626   9.028752
    41  H    2.706476   3.152926   2.634130   3.976174   7.876438
    42  H    2.141973   2.792384   3.399276   4.470560   6.816500
    43  H    1.070000   1.959851   2.466949   3.780088   8.476180
    44  H    2.085814   3.412653   4.461689   5.659791   7.316905
    45  H    2.085814   2.806363   4.008310   4.925809   9.008433
                   31         32         33         34         35
    31  H    0.000000
    32  H    1.739624   0.000000
    33  H    2.513178   2.323419   0.000000
    34  H    3.811694   3.631314   2.983119   0.000000
    35  H    4.581610   4.093119   2.165624   2.998704   0.000000
    36  H    5.086593   5.420614   3.679245   2.608891   2.979188
    37  H    3.597085   4.070699   1.881181   3.736549   2.490584
    38  H    8.557792   9.938884   8.509069  10.038073   9.339835
    39  H    6.943407   8.425742   7.070154   8.178958   7.974529
    40  H    5.422579   6.674222   5.464794   7.545744   6.732227
    41  H    4.604771   6.143768   5.023671   5.933329   6.215347
    42  H    4.558465   5.439617   3.522805   5.386277   4.208292
    43  H    6.339375   7.585883   5.858016   6.555873   6.273890
    44  H    6.574669   7.384329   5.299059   5.623242   4.914821
    45  H    7.878527   8.814462   6.733595   7.319598   6.443217
                   36         37         38         39         40
    36  H    0.000000
    37  H    2.998165   0.000000
    38  H    8.475161   6.956969   0.000000
    39  H    6.711286   5.576110   2.217456   0.000000
    40  H    6.652064   4.303944   3.490228   2.990966   0.000000
    41  H    4.984955   3.878629   4.509976   2.487556   2.939674
    42  H    4.160515   1.836391   5.165179   4.023780   2.741571
    43  H    4.674726   4.161658   3.981667   2.280392   3.736157
    44  H    3.222336   3.551909   5.892487   4.521711   5.172507
    45  H    4.935704   4.883005   4.923923   4.037777   5.214171
                   41         42         43         44         45
    41  H    0.000000
    42  H    2.969660   0.000000
    43  H    2.371686   2.951626   0.000000
    44  H    4.029668   3.097713   2.282017   0.000000
    45  H    4.543263   3.853013   2.234877   1.717705   0.000000
 Stoichiometry    C12H22O11
 Framework group  C1[X(C12H22O11)]
 Deg. of freedom   129
 Full point group                 C1      NOp   1
 Largest Abelian subgroup         C1      NOp   1
 Largest concise Abelian subgroup C1      NOp   1
                         Standard orientation:                         
 ---------------------------------------------------------------------
 Center     Atomic      Atomic             Coordinates (Angstroms)
 Number     Number       Type             X           Y           Z
 ---------------------------------------------------------------------
      1          8           0        4.875653   -0.532810   -0.631587
      2          6           0        3.654982   -0.208117    0.048630
      3          6           0        3.154812    1.178307   -0.323235
      4          8           0        4.183307    2.133134   -0.023589
      5          1           0        5.062467    1.734606   -0.284015
      6          6           0        1.843317    1.549507    0.351235
      7          8           0        1.273344    2.795821   -0.073430
      8          1           0        2.117886    3.331110   -0.042726
      9          6           0        2.740674   -2.644468   -0.437978
     10          8           0        3.511646   -3.144807    0.663823
     11          1           0        4.487411   -2.983042    0.518248
     12          6           0        2.534374   -1.138827   -0.387140
     13          8           0        1.485755   -0.902227    0.563591
     14          6           0        0.950021    0.345384    0.101617
     15          8           0       -0.265225    0.376204    0.865869
     16          6           0       -1.402715    0.223915    0.004102
     17          6           0       -1.938471   -1.179096    0.237365
     18          8           0       -1.012319   -2.219002   -0.110428
     19          1           0       -0.187746   -2.242242    0.453585
     20          6           0       -3.326111   -1.441645   -0.324988
     21          8           0       -3.870773   -2.747804   -0.092885
     22          1           0       -3.292138   -3.510447   -0.383128
     23          6           0       -1.900023    2.685071    0.467770
     24          8           0       -1.558163    3.499411   -0.663477
     25          1           0       -0.563817    3.467269   -0.563818
     26          6           0       -2.439012    1.265689    0.391512
     27          8           0       -3.711064    0.967875   -0.201855
     28          6           0       -4.233803   -0.320506    0.154072
     29          8           0       -5.486961   -0.445800   -0.535442
     30          1           0        5.621533   -0.201434   -0.126163
     31          1           0        1.783482   -3.122646   -0.432583
     32          1           0        3.243713   -2.891609   -1.349445
     33          1           0        2.193651   -0.819015   -1.349703
     34          1           0        3.795708   -0.275024    1.107223
     35          1           0        2.992440    1.193670   -1.380732
     36          1           0        2.021754    1.614733    1.404233
     37          1           0        0.719386    0.275638   -0.940900
     38          1           0       -6.173137    0.003209   -0.036290
     39          1           0       -4.381843   -0.384839    1.211827
     40          1           0       -3.246529   -1.335778   -1.386760
     41          1           0       -2.053022   -1.254902    1.298511
     42          1           0       -1.113951    0.347348   -1.018776
     43          1           0       -2.618100    1.045111    1.423100
     44          1           0       -1.017266    2.632681    1.070179
     45          1           0       -2.621754    3.244356    1.025628
 ---------------------------------------------------------------------
 Rotational constants (GHZ):      0.4004645      0.1553239      0.1159264
 Standard basis: 6-31+G(d,p) (6D, 7F)
 There are   547 symmetry adapted basis functions of A   symmetry.
 Integral buffers will be    131072 words long.
 Raffenetti 2 integral format.
 Two-electron integral symmetry is turned on.
   547 basis functions,   890 primitive gaussians,   547 cartesian basis functions
    91 alpha electrons       91 beta electrons
       nuclear repulsion energy      2307.4398488895 Hartrees.
 NAtoms=   45 NActive=   45 NUniq=   45 SFac= 1.00D+00 NAtFMM=   50 NAOKFM=F Big=F
 One-electron integrals computed using PRISM.
 NBasis=   547 RedAO= T  NBF=   547
 NBsUse=   547 1.00D-06 NBFU=   547
 Harris functional with IExCor=  402 diagonalized for initial guess.
 ExpMin= 4.38D-02 ExpMax= 5.48D+03 ExpMxC= 8.25D+02 IAcc=2 IRadAn=         0 AccDes= 0.00D+00
 HarFok:  IExCor=  402 AccDes= 0.00D+00 IRadAn=         0 IDoV= 1
 ScaDFX=  1.000000  1.000000  1.000000  1.000000
 FoFCou: FMM=F IPFlag=           0 FMFlag=      100000 FMFlg1=           0
         NFxFlg=           0 DoJE=T BraDBF=F KetDBF=T FulRan=T
         Omega=  0.000000  0.000000  1.000000  0.000000  0.000000 ICntrl=     500 IOpCl=  0
         NMat0=    1 NMatS0=    1 NMatT0=    0 NMatD0=    1 NMtDS0=    0 NMtDT0=    0
         I1Cent=           4 NGrid=           0.
 Petite list used in FoFCou.
 Initial guess orbital symmetries:
       Occupied  (A) (A) (A) (A) (A) (A) (A) (A) (A) (A) (A) (A)
                 (A) (A) (A) (A) (A) (A) (A) (A) (A) (A) (A) (A)
                 (A) (A) (A) (A) (A) (A) (A) (A) (A) (A) (A) (A)
                 (A) (A) (A) (A) (A) (A) (A) (A) (A) (A) (A) (A)
                 (A) (A) (A) (A) (A) (A) (A) (A) (A) (A) (A) (A)
                 (A) (A) (A) (A) (A) (A) (A) (A) (A) (A) (A) (A)
                 (A) (A) (A) (A) (A) (A) (A) (A) (A) (A) (A) (A)
                 (A) (A) (A) (A) (A) (A) (A)
       Virtual   (A) (A) (A) (A) (A) (A) (A) (A) (A) (A) (A) (A)
                 (A) (A) (A) (A) (A) (A) (A) (A) (A) (A) (A) (A)
                 (A) (A) (A) (A) (A) (A) (A) (A) (A) (A) (A) (A)
                 (A) (A) (A) (A) (A) (A) (A) (A) (A) (A) (A) (A)
                 (A) (A) (A) (A) (A) (A) (A) (A) (A) (A) (A) (A)
                 (A) (A) (A) (A) (A) (A) (A) (A) (A) (A) (A) (A)
                 (A) (A) (A) (A) (A) (A) (A) (A) (A) (A) (A) (A)
                 (A) (A) (A) (A) (A) (A) (A) (A) (A) (A) (A) (A)
                 (A) (A) (A) (A) (A) (A) (A) (A) (A) (A) (A) (A)
                 (A) (A) (A) (A) (A) (A) (A) (A) (A) (A) (A) (A)
                 (A) (A) (A) (A) (A) (A) (A) (A) (A) (A) (A) (A)
                 (A) (A) (A) (A) (A) (A) (A) (A) (A) (A) (A) (A)
                 (A) (A) (A) (A) (A) (A) (A) (A) (A) (A) (A) (A)
                 (A) (A) (A) (A) (A) (A) (A) (A) (A) (A) (A) (A)
                 (A) (A) (A) (A) (A) (A) (A) (A) (A) (A) (A) (A)
                 (A) (A) (A) (A) (A) (A) (A) (A) (A) (A) (A) (A)
                 (A) (A) (A) (A) (A) (A) (A) (A) (A) (A) (A) (A)
                 (A) (A) (A) (A) (A) (A) (A) (A) (A) (A) (A) (A)
                 (A) (A) (A) (A) (A) (A) (A) (A) (A) (A) (A) (A)
                 (A) (A) (A) (A) (A) (A) (A) (A) (A) (A) (A) (A)
                 (A) (A) (A) (A) (A) (A) (A) (A) (A) (A) (A) (A)
                 (A) (A) (A) (A) (A) (A) (A) (A) (A) (A) (A) (A)
                 (A) (A) (A) (A) (A) (A) (A) (A) (A) (A) (A) (A)
                 (A) (A) (A) (A) (A) (A) (A) (A) (A) (A) (A) (A)
                 (A) (A) (A) (A) (A) (A) (A) (A) (A) (A) (A) (A)
                 (A) (A) (A) (A) (A) (A) (A) (A) (A) (A) (A) (A)
                 (A) (A) (A) (A) (A) (A) (A) (A) (A) (A) (A) (A)
                 (A) (A) (A) (A) (A) (A) (A) (A) (A) (A) (A) (A)
                 (A) (A) (A) (A) (A) (A) (A) (A) (A) (A) (A) (A)
                 (A) (A) (A) (A) (A) (A) (A) (A) (A) (A) (A) (A)
                 (A) (A) (A) (A) (A) (A) (A) (A) (A) (A) (A) (A)
                 (A) (A) (A) (A) (A) (A) (A) (A) (A) (A) (A) (A)
                 (A) (A) (A) (A) (A) (A) (A) (A) (A) (A) (A) (A)
                 (A) (A) (A) (A) (A) (A) (A) (A) (A) (A) (A) (A)
                 (A) (A) (A) (A) (A) (A) (A) (A) (A) (A) (A) (A)
                 (A) (A) (A) (A) (A) (A) (A) (A) (A) (A) (A) (A)
                 (A) (A) (A) (A) (A) (A) (A) (A) (A) (A) (A) (A)
                 (A) (A) (A) (A) (A) (A) (A) (A) (A) (A) (A) (A)
 The electronic state of the initial guess is 1-A.
 Requested convergence on RMS density matrix=1.00D-08 within 128 cycles.
 Requested convergence on MAX density matrix=1.00D-06.
 Requested convergence on             energy=1.00D-06.
 No special actions if energy rises.
 SCF Done:  E(RB3LYP) =  -1297.92632285     A.U. after   14 cycles
             Convg  =    0.2951D-08             -V/T =  2.0086
 Range of M.O.s used for correlation:     1   547
 NBasis=   547 NAE=    91 NBE=    91 NFC=     0 NFV=     0
 NROrb=    547 NOA=    91 NOB=    91 NVA=   456 NVB=   456

 **** Warning!!: The largest alpha MO coefficient is  0.80008793D+02

          Differentiating once with respect to electric field.
                with respect to dipole field.
          Electric field/nuclear overlap derivatives assumed to be zero.
          There are     3 degrees of freedom in the 1st order CPHF.  IDoFFX=0.
      3 vectors produced by pass  0 Test12= 1.38D-12 3.33D-08 XBig12= 1.20D+02 1.41D+00.
 AX will form     3 AO Fock derivatives at one time.
      3 vectors produced by pass  1 Test12= 1.38D-12 3.33D-08 XBig12= 2.55D+01 4.45D-01.
      3 vectors produced by pass  2 Test12= 1.38D-12 3.33D-08 XBig12= 1.01D+01 2.29D-01.
      3 vectors produced by pass  3 Test12= 1.38D-12 3.33D-08 XBig12= 9.26D-01 6.67D-02.
      3 vectors produced by pass  4 Test12= 1.38D-12 3.33D-08 XBig12= 2.72D-01 3.17D-02.
      3 vectors produced by pass  5 Test12= 1.38D-12 3.33D-08 XBig12= 4.67D-02 1.56D-02.
      3 vectors produced by pass  6 Test12= 1.38D-12 3.33D-08 XBig12= 1.53D-02 9.53D-03.
      3 vectors produced by pass  7 Test12= 1.38D-12 3.33D-08 XBig12= 2.64D-03 3.98D-03.
      3 vectors produced by pass  8 Test12= 1.38D-12 3.33D-08 XBig12= 5.13D-04 1.75D-03.
      3 vectors produced by pass  9 Test12= 1.38D-12 3.33D-08 XBig12= 9.95D-05 7.35D-04.
      3 vectors produced by pass 10 Test12= 1.38D-12 3.33D-08 XBig12= 2.02D-05 3.83D-04.
      3 vectors produced by pass 11 Test12= 1.38D-12 3.33D-08 XBig12= 6.55D-06 2.14D-04.
      3 vectors produced by pass 12 Test12= 1.38D-12 3.33D-08 XBig12= 8.85D-07 7.26D-05.
      3 vectors produced by pass 13 Test12= 1.38D-12 3.33D-08 XBig12= 1.50D-07 3.06D-05.
      3 vectors produced by pass 14 Test12= 1.38D-12 3.33D-08 XBig12= 2.23D-08 1.35D-05.
      3 vectors produced by pass 15 Test12= 1.38D-12 3.33D-08 XBig12= 3.62D-09 4.62D-06.
      3 vectors produced by pass 16 Test12= 1.38D-12 3.33D-08 XBig12= 7.29D-10 1.65D-06.
      3 vectors produced by pass 17 Test12= 1.38D-12 3.33D-08 XBig12= 9.16D-11 7.46D-07.
      3 vectors produced by pass 18 Test12= 1.38D-12 3.33D-08 XBig12= 2.50D-11 3.46D-07.
      3 vectors produced by pass 19 Test12= 1.38D-12 3.33D-08 XBig12= 8.36D-12 1.67D-07.
      2 vectors produced by pass 20 Test12= 1.38D-12 3.33D-08 XBig12= 9.16D-12 2.53D-07.
      2 vectors produced by pass 21 Test12= 1.38D-12 3.33D-08 XBig12= 4.52D-12 1.17D-07.
      1 vectors produced by pass 22 Test12= 1.38D-12 3.33D-08 XBig12= 2.71D-12 9.83D-08.
 Inverted reduced A of dimension    65 with in-core refinement.
 End of Minotr Frequency-dependent properties file   721 does not exist.
 End of Minotr Frequency-dependent properties file   722 does not exist.
 Symmetrizing basis deriv contribution to polar:
 IMax=3 JMax=2 DiffMx= 0.00D+00
 G2DrvN: will do    23 centers at a time, making    2 passes doing MaxLOS=2.
 Calling FoFCou, ICntrl=  3107 FMM=F I1Cent=   0 AccDes= 0.00D+00.
 Calling FoFCou, ICntrl=  3107 FMM=F I1Cent=   0 AccDes= 0.00D+00.
 FoFDir/FoFCou used for L=0 through L=2.
 End of G2Drv Frequency-dependent properties file   721 does not exist.
 End of G2Drv Frequency-dependent properties file   722 does not exist.
          IDoAtm=111111111111111111111111111111111111111111111
          Differentiating once with respect to electric field.
                with respect to dipole field.
          Differentiating once with respect to nuclear coordinates.
          There are   138 degrees of freedom in the 1st order CPHF.  IDoFFX=5.
 Will reuse    3 saved solutions.
    135 vectors produced by pass  0 Test12= 4.15D-14 1.00D-09 XBig12= 2.49D-01 8.49D-02.
 AX will form    68 AO Fock derivatives at one time.
    135 vectors produced by pass  1 Test12= 4.15D-14 1.00D-09 XBig12= 2.69D-02 1.67D-02.
    132 vectors produced by pass  2 Test12= 4.15D-14 1.00D-09 XBig12= 1.50D-04 1.54D-03.
    132 vectors produced by pass  3 Test12= 4.15D-14 1.00D-09 XBig12= 4.96D-07 6.08D-05.
    132 vectors produced by pass  4 Test12= 4.15D-14 1.00D-09 XBig12= 1.03D-09 1.83D-06.
    131 vectors produced by pass  5 Test12= 4.15D-14 1.00D-09 XBig12= 5.55D-12 1.66D-07.
     79 vectors produced by pass  6 Test12= 4.15D-14 1.00D-09 XBig12= 1.38D-13 2.29D-08.
 Inverted reduced A of dimension   876 with in-core refinement.
 Isotropic polarizability for W=    0.000000      185.44 Bohr**3.
 End of Minotr Frequency-dependent properties file   721 does not exist.
 End of Minotr Frequency-dependent properties file   722 does not exist.

 **********************************************************************

            Population analysis using the SCF density.

 **********************************************************************

 Orbital symmetries:
       Occupied  (A) (A) (A) (A) (A) (A) (A) (A) (A) (A) (A) (A)
                 (A) (A) (A) (A) (A) (A) (A) (A) (A) (A) (A) (A)
                 (A) (A) (A) (A) (A) (A) (A) (A) (A) (A) (A) (A)
                 (A) (A) (A) (A) (A) (A) (A) (A) (A) (A) (A) (A)
                 (A) (A) (A) (A) (A) (A) (A) (A) (A) (A) (A) (A)
                 (A) (A) (A) (A) (A) (A) (A) (A) (A) (A) (A) (A)
                 (A) (A) (A) (A) (A) (A) (A) (A) (A) (A) (A) (A)
                 (A) (A) (A) (A) (A) (A) (A)
       Virtual   (A) (A) (A) (A) (A) (A) (A) (A) (A) (A) (A) (A)
                 (A) (A) (A) (A) (A) (A) (A) (A) (A) (A) (A) (A)
                 (A) (A) (A) (A) (A) (A) (A) (A) (A) (A) (A) (A)
                 (A) (A) (A) (A) (A) (A) (A) (A) (A) (A) (A) (A)
                 (A) (A) (A) (A) (A) (A) (A) (A) (A) (A) (A) (A)
                 (A) (A) (A) (A) (A) (A) (A) (A) (A) (A) (A) (A)
                 (A) (A) (A) (A) (A) (A) (A) (A) (A) (A) (A) (A)
                 (A) (A) (A) (A) (A) (A) (A) (A) (A) (A) (A) (A)
                 (A) (A) (A) (A) (A) (A) (A) (A) (A) (A) (A) (A)
                 (A) (A) (A) (A) (A) (A) (A) (A) (A) (A) (A) (A)
                 (A) (A) (A) (A) (A) (A) (A) (A) (A) (A) (A) (A)
                 (A) (A) (A) (A) (A) (A) (A) (A) (A) (A) (A) (A)
                 (A) (A) (A) (A) (A) (A) (A) (A) (A) (A) (A) (A)
                 (A) (A) (A) (A) (A) (A) (A) (A) (A) (A) (A) (A)
                 (A) (A) (A) (A) (A) (A) (A) (A) (A) (A) (A) (A)
                 (A) (A) (A) (A) (A) (A) (A) (A) (A) (A) (A) (A)
                 (A) (A) (A) (A) (A) (A) (A) (A) (A) (A) (A) (A)
                 (A) (A) (A) (A) (A) (A) (A) (A) (A) (A) (A) (A)
                 (A) (A) (A) (A) (A) (A) (A) (A) (A) (A) (A) (A)
                 (A) (A) (A) (A) (A) (A) (A) (A) (A) (A) (A) (A)
                 (A) (A) (A) (A) (A) (A) (A) (A) (A) (A) (A) (A)
                 (A) (A) (A) (A) (A) (A) (A) (A) (A) (A) (A) (A)
                 (A) (A) (A) (A) (A) (A) (A) (A) (A) (A) (A) (A)
                 (A) (A) (A) (A) (A) (A) (A) (A) (A) (A) (A) (A)
                 (A) (A) (A) (A) (A) (A) (A) (A) (A) (A) (A) (A)
                 (A) (A) (A) (A) (A) (A) (A) (A) (A) (A) (A) (A)
                 (A) (A) (A) (A) (A) (A) (A) (A) (A) (A) (A) (A)
                 (A) (A) (A) (A) (A) (A) (A) (A) (A) (A) (A) (A)
                 (A) (A) (A) (A) (A) (A) (A) (A) (A) (A) (A) (A)
                 (A) (A) (A) (A) (A) (A) (A) (A) (A) (A) (A) (A)
                 (A) (A) (A) (A) (A) (A) (A) (A) (A) (A) (A) (A)
                 (A) (A) (A) (A) (A) (A) (A) (A) (A) (A) (A) (A)
                 (A) (A) (A) (A) (A) (A) (A) (A) (A) (A) (A) (A)
                 (A) (A) (A) (A) (A) (A) (A) (A) (A) (A) (A) (A)
                 (A) (A) (A) (A) (A) (A) (A) (A) (A) (A) (A) (A)
                 (A) (A) (A) (A) (A) (A) (A) (A) (A) (A) (A) (A)
                 (A) (A) (A) (A) (A) (A) (A) (A) (A) (A) (A) (A)
                 (A) (A) (A) (A) (A) (A) (A) (A) (A) (A) (A) (A)
 The electronic state is 1-A.
 Alpha  occ. eigenvalues --  -19.21721 -19.21429 -19.20485 -19.20435 -19.18886
 Alpha  occ. eigenvalues --  -19.17755 -19.17016 -19.16474 -19.16332 -19.15791
 Alpha  occ. eigenvalues --  -19.14902 -10.32322 -10.29981 -10.28360 -10.28304
 Alpha  occ. eigenvalues --  -10.28024 -10.27090 -10.25627 -10.25158 -10.24800
 Alpha  occ. eigenvalues --  -10.24538 -10.24503 -10.22882  -1.11815  -1.09192
 Alpha  occ. eigenvalues --   -1.07780  -1.07262  -1.05522  -1.05063  -1.03209
 Alpha  occ. eigenvalues --   -1.02552  -1.01368  -1.00815  -1.00306  -0.83952
 Alpha  occ. eigenvalues --   -0.82211  -0.79084  -0.78123  -0.73315  -0.70551
 Alpha  occ. eigenvalues --   -0.68487  -0.65670  -0.64924  -0.63404  -0.61844
 Alpha  occ. eigenvalues --   -0.60153  -0.58540  -0.57346  -0.56245  -0.54621
 Alpha  occ. eigenvalues --   -0.54088  -0.53467  -0.53431  -0.52745  -0.52046
 Alpha  occ. eigenvalues --   -0.51302  -0.50542  -0.49287  -0.48565  -0.47881
 Alpha  occ. eigenvalues --   -0.47034  -0.45943  -0.45586  -0.45008  -0.43473
 Alpha  occ. eigenvalues --   -0.43068  -0.43016  -0.41892  -0.41309  -0.40346
 Alpha  occ. eigenvalues --   -0.39913  -0.39529  -0.37878  -0.37029  -0.36346
 Alpha  occ. eigenvalues --   -0.35746  -0.35432  -0.35013  -0.34746  -0.33632
 Alpha  occ. eigenvalues --   -0.33178  -0.32741  -0.32393  -0.31256  -0.30889
 Alpha  occ. eigenvalues --   -0.30526  -0.29245  -0.28527  -0.27780  -0.27340
 Alpha  occ. eigenvalues --   -0.26210
 Alpha virt. eigenvalues --   -0.05248  -0.01867  -0.01049  -0.00148   0.00349
 Alpha virt. eigenvalues --    0.00547   0.01927   0.02091   0.02607   0.03005
 Alpha virt. eigenvalues --    0.03800   0.04338   0.04578   0.04890   0.05467
 Alpha virt. eigenvalues --    0.05863   0.06040   0.06683   0.07072   0.07384
 Alpha virt. eigenvalues --    0.08157   0.08361   0.09059   0.09417   0.10002
 Alpha virt. eigenvalues --    0.10174   0.10531   0.10814   0.11376   0.11811
 Alpha virt. eigenvalues --    0.12041   0.12206   0.12416   0.12836   0.13174
 Alpha virt. eigenvalues --    0.13746   0.13879   0.14458   0.14569   0.14746
 Alpha virt. eigenvalues --    0.15505   0.15830   0.16092   0.16277   0.16428
 Alpha virt. eigenvalues --    0.16983   0.17123   0.17576   0.18122   0.18453
 Alpha virt. eigenvalues --    0.18713   0.18863   0.19293   0.19575   0.19671
 Alpha virt. eigenvalues --    0.19897   0.20184   0.20584   0.20861   0.21111
 Alpha virt. eigenvalues --    0.21666   0.21769   0.22146   0.22316   0.22625
 Alpha virt. eigenvalues --    0.23143   0.23189   0.23383   0.23705   0.24052
 Alpha virt. eigenvalues --    0.24471   0.24660   0.24945   0.25363   0.25698
 Alpha virt. eigenvalues --    0.26102   0.26491   0.26788   0.27256   0.27721
 Alpha virt. eigenvalues --    0.27795   0.27999   0.28316   0.28441   0.28802
 Alpha virt. eigenvalues --    0.28997   0.29308   0.29661   0.29946   0.30191
 Alpha virt. eigenvalues --    0.30526   0.30948   0.31137   0.31334   0.31596
 Alpha virt. eigenvalues --    0.32187   0.32447   0.32528   0.33180   0.33701
 Alpha virt. eigenvalues --    0.33885   0.34281   0.34739   0.35124   0.35355
 Alpha virt. eigenvalues --    0.35671   0.35913   0.36799   0.36887   0.37413
 Alpha virt. eigenvalues --    0.37642   0.38283   0.38524   0.38794   0.39168
 Alpha virt. eigenvalues --    0.39712   0.39826   0.39935   0.40218   0.40669
 Alpha virt. eigenvalues --    0.40983   0.41522   0.42113   0.42379   0.42902
 Alpha virt. eigenvalues --    0.44002   0.44197   0.44950   0.45602   0.45723
 Alpha virt. eigenvalues --    0.46755   0.47234   0.48137   0.49844   0.51211
 Alpha virt. eigenvalues --    0.52166   0.52761   0.55034   0.63621   0.64020
 Alpha virt. eigenvalues --    0.64812   0.66310   0.66753   0.68420   0.69656
 Alpha virt. eigenvalues --    0.71062   0.71795   0.72720   0.74050   0.74332
 Alpha virt. eigenvalues --    0.75218   0.75714   0.76348   0.77591   0.78154
 Alpha virt. eigenvalues --    0.79475   0.80097   0.81284   0.82187   0.83153
 Alpha virt. eigenvalues --    0.83942   0.85218   0.86743   0.88266   0.89897
 Alpha virt. eigenvalues --    0.90462   0.91794   0.92917   0.93398   0.94760
 Alpha virt. eigenvalues --    0.95424   0.97337   0.98020   0.98641   0.99551
 Alpha virt. eigenvalues --    1.00102   1.00693   1.01891   1.03005   1.03236
 Alpha virt. eigenvalues --    1.03870   1.04452   1.05130   1.05400   1.06175
 Alpha virt. eigenvalues --    1.06569   1.07365   1.08200   1.08905   1.09260
 Alpha virt. eigenvalues --    1.09808   1.10871   1.12899   1.13197   1.14324
 Alpha virt. eigenvalues --    1.15623   1.17052   1.17978   1.19167   1.21031
 Alpha virt. eigenvalues --    1.21681   1.22818   1.23565   1.23755   1.24592
 Alpha virt. eigenvalues --    1.25386   1.25760   1.26999   1.27341   1.28036
 Alpha virt. eigenvalues --    1.28501   1.29265   1.29647   1.30453   1.31121
 Alpha virt. eigenvalues --    1.31352   1.32013   1.32342   1.33338   1.33913
 Alpha virt. eigenvalues --    1.35447   1.36042   1.37318   1.37369   1.38131
 Alpha virt. eigenvalues --    1.38690   1.39403   1.40086   1.40762   1.41893
 Alpha virt. eigenvalues --    1.42956   1.43750   1.47070   1.47260   1.47627
 Alpha virt. eigenvalues --    1.48516   1.49141   1.49991   1.51007   1.51556
 Alpha virt. eigenvalues --    1.52775   1.54780   1.55114   1.56277   1.56622
 Alpha virt. eigenvalues --    1.57964   1.59073   1.59331   1.60150   1.60913
 Alpha virt. eigenvalues --    1.60937   1.61554   1.62263   1.63133   1.64337
 Alpha virt. eigenvalues --    1.65469   1.66594   1.67457   1.67527   1.67894
 Alpha virt. eigenvalues --    1.68711   1.68938   1.69635   1.71013   1.72451
 Alpha virt. eigenvalues --    1.73194   1.74540   1.75266   1.76202   1.76873
 Alpha virt. eigenvalues --    1.77112   1.77801   1.79647   1.80882   1.81238
 Alpha virt. eigenvalues --    1.82098   1.82522   1.83540   1.84875   1.85127
 Alpha virt. eigenvalues --    1.85371   1.87024   1.88054   1.88994   1.89590
 Alpha virt. eigenvalues --    1.91289   1.92496   1.93024   1.93201   1.95113
 Alpha virt. eigenvalues --    1.96009   1.96903   1.97092   1.97447   1.98326
 Alpha virt. eigenvalues --    1.98935   2.00293   2.01177   2.02532   2.03066
 Alpha virt. eigenvalues --    2.03627   2.04610   2.06695   2.07204   2.07875
 Alpha virt. eigenvalues --    2.08401   2.08750   2.10104   2.11462   2.11858
 Alpha virt. eigenvalues --    2.12194   2.14002   2.15285   2.15760   2.16813
 Alpha virt. eigenvalues --    2.18082   2.20459   2.20875   2.21179   2.22058
 Alpha virt. eigenvalues --    2.23573   2.25427   2.25766   2.27468   2.28198
 Alpha virt. eigenvalues --    2.30523   2.30879   2.31356   2.34102   2.34408
 Alpha virt. eigenvalues --    2.34860   2.35436   2.36594   2.38202   2.38616
 Alpha virt. eigenvalues --    2.38937   2.40852   2.42057   2.42166   2.43887
 Alpha virt. eigenvalues --    2.45917   2.46240   2.46887   2.47478   2.48671
 Alpha virt. eigenvalues --    2.49314   2.49698   2.50669   2.51989   2.53268
 Alpha virt. eigenvalues --    2.54254   2.56766   2.57756   2.58181   2.58546
 Alpha virt. eigenvalues --    2.59529   2.60732   2.61120   2.62621   2.63741
 Alpha virt. eigenvalues --    2.65128   2.65718   2.66909   2.68439   2.68891
 Alpha virt. eigenvalues --    2.69488   2.70090   2.71044   2.71571   2.72069
 Alpha virt. eigenvalues --    2.74394   2.75563   2.75878   2.76965   2.78798
 Alpha virt. eigenvalues --    2.81182   2.81821   2.82956   2.83449   2.84436
 Alpha virt. eigenvalues --    2.85063   2.86183   2.87219   2.88028   2.88353
 Alpha virt. eigenvalues --    2.90761   2.91213   2.91494   2.92942   2.93171
 Alpha virt. eigenvalues --    2.94411   2.96934   2.97775   3.00001   3.00290
 Alpha virt. eigenvalues --    3.00645   3.01457   3.02920   3.05697   3.06451
 Alpha virt. eigenvalues --    3.06775   3.08867   3.11559   3.12519   3.15074
 Alpha virt. eigenvalues --    3.17419   3.19758   3.20999   3.25009   3.31716
 Alpha virt. eigenvalues --    3.34700   3.36753   3.38160   3.39570   3.40776
 Alpha virt. eigenvalues --    3.42653   3.45129   3.45549   3.47039   3.48579
 Alpha virt. eigenvalues --    3.50273   3.51555   3.51809   3.52547   3.53301
 Alpha virt. eigenvalues --    3.55945   3.56866   3.58422   3.59145   3.62161
 Alpha virt. eigenvalues --    3.62968   3.63748   3.68178   4.25397   4.31657
 Alpha virt. eigenvalues --    4.32950   4.33358   4.41503   4.43146   4.44563
 Alpha virt. eigenvalues --    4.45419   4.47911   4.48459   4.52195   4.55082
 Alpha virt. eigenvalues --    4.56874   4.57992   4.59825   4.63054   4.72004
 Alpha virt. eigenvalues --    4.78772   4.81712   4.84897   4.85648   4.90076
 Alpha virt. eigenvalues --    4.96810
          Condensed to atoms (all electrons):
              1          2          3          4          5          6
     1  O    8.298088   0.303788   0.012337  -0.034390   0.038308  -0.023424
     2  C    0.303788   8.256291  -1.108718   0.068545  -0.102528  -1.233320
     3  C    0.012337  -1.108718   8.696251   0.082844   0.083819  -1.220781
     4  O   -0.034390   0.068545   0.082844   8.303514   0.188749  -0.029566
     5  H    0.038308  -0.102528   0.083819   0.188749   0.449349  -0.052123
     6  C   -0.023424  -1.233320  -1.220781  -0.029566  -0.052123  15.721009
     7  O   -0.000245   0.023050  -0.021973  -0.020814   0.001202   0.035194
     8  H   -0.000133   0.017975  -0.063046   0.017985  -0.000661   0.062373
     9  C   -0.032182   0.168988  -0.679648   0.002287  -0.007262   0.738686
    10  O   -0.001438  -0.011771   0.006909   0.000126   0.000111   0.018204
    11  H    0.009434   0.028682   0.009207   0.000012  -0.000006   0.000117
    12  C   -0.281611  -1.140327  -0.324547  -0.021403   0.023387   0.905165
    13  O    0.006605  -0.026653  -0.004306  -0.000441   0.000130   0.014701
    14  C    0.061999   0.536603   0.410066  -0.009347   0.045750  -6.437880
    15  O    0.000340  -0.011068   0.029210  -0.000928   0.000069  -0.039663
    16  C    0.002675   0.012902  -0.093068  -0.000367   0.000803  -0.691576
    17  C    0.000974  -0.067487  -0.084260   0.002174   0.000132  -0.286098
    18  O    0.000078   0.006007  -0.002558  -0.000003   0.000000  -0.002293
    19  H   -0.000020   0.001720  -0.000850   0.000004   0.000000  -0.005978
    20  C    0.000114  -0.003661   0.013624   0.000064   0.000004  -0.125540
    21  O    0.000000   0.000016   0.000122   0.000000   0.000000   0.000603
    22  H    0.000000   0.000057  -0.000007   0.000000   0.000000   0.000177
    23  C    0.000166   0.021762  -0.038943   0.000606  -0.000142  -0.257076
    24  O   -0.000002   0.000595  -0.009279   0.000079   0.000000   0.007118
    25  H    0.000001  -0.001478  -0.017297  -0.000011   0.000000   0.083744
    26  C   -0.000517  -0.066673   0.190731  -0.000285   0.000160  -0.653479
    27  O    0.000000  -0.000061   0.001651  -0.000001   0.000000  -0.013625
    28  C    0.000000   0.003430   0.000082   0.000018   0.000001   0.005369
    29  O    0.000000   0.000006   0.000008   0.000000   0.000000   0.000124
    30  H    0.215205   0.036079  -0.076883   0.002478   0.005182  -0.007989
    31  H    0.000266   0.000516   0.002212   0.000021   0.000000   0.007097
    32  H   -0.000180  -0.008367  -0.000101   0.000005  -0.000003   0.010820
    33  H    0.012599  -0.015796   0.050899  -0.000216   0.000007  -0.104432
    34  H   -0.037351   0.443628  -0.059122   0.001960   0.000036  -0.065701
    35  H   -0.003490   0.087484   0.308326  -0.042533  -0.002837  -0.325547
    36  H   -0.000838   0.027936  -0.073315   0.004846  -0.000098   0.291472
    37  H    0.000155   0.002141   0.020744  -0.000306   0.000000  -0.303335
    38  H    0.000000   0.000000   0.000000   0.000000   0.000000   0.000032
    39  H    0.000000   0.000012  -0.000021   0.000000   0.000000   0.000185
    40  H    0.000000   0.000056  -0.000050   0.000000   0.000000  -0.000580
    41  H    0.000000   0.000634   0.000113   0.000000   0.000000   0.002531
    42  H   -0.000007   0.004060   0.000057   0.000017   0.000000  -0.019559
    43  H    0.000000   0.000613  -0.000923   0.000000   0.000000   0.001611
    44  H    0.000000   0.001120   0.008099  -0.000008   0.000000  -0.068044
    45  H    0.000000  -0.000029  -0.002792   0.000000   0.000000   0.008345
              7          8          9         10         11         12
     1  O   -0.000245  -0.000133  -0.032182  -0.001438   0.009434  -0.281611
     2  C    0.023050   0.017975   0.168988  -0.011771   0.028682  -1.140327
     3  C   -0.021973  -0.063046  -0.679648   0.006909   0.009207  -0.324547
     4  O   -0.020814   0.017985   0.002287   0.000126   0.000012  -0.021403
     5  H    0.001202  -0.000661  -0.007262   0.000111  -0.000006   0.023387
     6  C    0.035194   0.062373   0.738686   0.018204   0.000117   0.905165
     7  O    8.324899   0.181152  -0.003073  -0.000051  -0.000001  -0.012210
     8  H    0.181152   0.398632   0.001694   0.000003   0.000000   0.003980
     9  C   -0.003073   0.001694   7.795403   0.318568   0.051420  -1.834005
    10  O   -0.000051   0.000003   0.318568   8.205614   0.247204  -0.231151
    11  H   -0.000001   0.000000   0.051420   0.247204   0.409766  -0.102467
    12  C   -0.012210   0.003980  -1.834005  -0.231151  -0.102467  10.539120
    13  O    0.006897  -0.000559  -0.064781   0.013542  -0.001531  -0.137612
    14  C    0.044952  -0.011922  -1.065047   0.031740  -0.000664  -1.410926
    15  O   -0.003789   0.000111  -0.027347  -0.001155  -0.000037  -0.021276
    16  C    0.009678   0.004098  -0.046750  -0.004202   0.000765  -0.240962
    17  C    0.013593  -0.000737   0.043972   0.001226   0.000004  -0.109616
    18  O    0.000376  -0.000003  -0.012492  -0.000007  -0.000002   0.009545
    19  H   -0.000038   0.000000   0.005141  -0.000210   0.000001  -0.007773
    20  C    0.000990  -0.000101  -0.019499   0.000627  -0.000005  -0.048447
    21  O   -0.000007   0.000000  -0.000273  -0.000002   0.000000   0.000487
    22  H    0.000000   0.000000  -0.000084   0.000000   0.000000   0.000148
    23  C    0.030001  -0.001472   0.014351   0.000223   0.000006  -0.026423
    24  O   -0.001756   0.001045   0.000616   0.000000   0.000000   0.005574
    25  H    0.020281   0.000127   0.000154   0.000000   0.000000   0.002784
    26  C   -0.062162   0.001278  -0.022419  -0.000717  -0.000001   0.048180
    27  O    0.000166  -0.000002   0.000013  -0.000001   0.000000   0.001295
    28  C   -0.000410  -0.000005  -0.004153  -0.000046   0.000000   0.000562
    29  O   -0.000001   0.000000   0.000024   0.000000   0.000000   0.000097
    30  H   -0.000010  -0.000001   0.005151  -0.000801  -0.000372   0.053375
    31  H   -0.000007   0.000000   0.569876  -0.048392   0.006213  -0.183951
    32  H   -0.000006   0.000000   0.403890  -0.041474  -0.011096  -0.036045
    33  H   -0.000596   0.000008  -0.069682   0.012597  -0.000032   0.105440
    34  H   -0.000240   0.000014  -0.025468   0.004447  -0.000204  -0.149361
    35  H    0.010163  -0.001058   0.016980   0.000069  -0.000001  -0.054549
    36  H   -0.043326  -0.004043   0.010496   0.000059   0.000000   0.007443
    37  H    0.011115  -0.000274  -0.006337   0.000009   0.000003  -0.028554
    38  H    0.000000   0.000000   0.000000   0.000000   0.000000  -0.000005
    39  H    0.000001   0.000000   0.000003   0.000000   0.000000   0.000127
    40  H    0.000005   0.000000  -0.000032   0.000000   0.000000   0.001778
    41  H    0.000051   0.000000  -0.000495   0.000005   0.000000   0.004902
    42  H    0.000750   0.000008  -0.000717   0.000003   0.000000   0.025590
    43  H    0.000658   0.000001   0.000260   0.000000   0.000000   0.002427
    44  H    0.000931  -0.000222  -0.000298   0.000000   0.000000  -0.003396
    45  H    0.000057   0.000005   0.000047   0.000000   0.000000   0.000726
             13         14         15         16         17         18
     1  O    0.006605   0.061999   0.000340   0.002675   0.000974   0.000078
     2  C   -0.026653   0.536603  -0.011068   0.012902  -0.067487   0.006007
     3  C   -0.004306   0.410066   0.029210  -0.093068  -0.084260  -0.002558
     4  O   -0.000441  -0.009347  -0.000928  -0.000367   0.002174  -0.000003
     5  H    0.000130   0.045750   0.000069   0.000803   0.000132   0.000000
     6  C    0.014701  -6.437880  -0.039663  -0.691576  -0.286098  -0.002293
     7  O    0.006897   0.044952  -0.003789   0.009678   0.013593   0.000376
     8  H   -0.000559  -0.011922   0.000111   0.004098  -0.000737  -0.000003
     9  C   -0.064781  -1.065047  -0.027347  -0.046750   0.043972  -0.012492
    10  O    0.013542   0.031740  -0.001155  -0.004202   0.001226  -0.000007
    11  H   -0.001531  -0.000664  -0.000037   0.000765   0.000004  -0.000002
    12  C   -0.137612  -1.410926  -0.021276  -0.240962  -0.109616   0.009545
    13  O    8.362731   0.328153  -0.015795  -0.026082   0.031881   0.005243
    14  C    0.328153  15.208511   0.346587  -1.745586  -0.082388  -0.047773
    15  O   -0.015795   0.346587   8.284724  -0.082376  -0.148809   0.004175
    16  C   -0.026082  -1.745586  -0.082376  17.471167  -4.209920  -0.156366
    17  C    0.031881  -0.082388  -0.148809  -4.209920  11.351763   0.335694
    18  O    0.005243  -0.047773   0.004175  -0.156366   0.335694   8.251144
    19  H    0.014703  -0.019300   0.008860  -0.047868   0.049861   0.215750
    20  C   -0.015146  -0.666590   0.035130  -1.947384  -0.389515  -0.072191
    21  O    0.000234   0.003227   0.000071   0.002182  -0.157977   0.001334
    22  H   -0.000023   0.002651  -0.000071   0.044829  -0.108206   0.017892
    23  C   -0.005172  -0.899550  -0.192179   0.537594   0.059605   0.010714
    24  O    0.000366  -0.018655  -0.003990  -0.000948   0.020580   0.000078
    25  H   -0.000080  -0.034134  -0.002001   0.036291  -0.000315   0.000008
    26  C    0.001113   0.066433   0.285880  -4.860041   0.199678   0.038914
    27  O    0.000452  -0.008624   0.004500  -0.255627  -0.018138   0.000697
    28  C    0.000807   0.142610   0.017121   1.347219  -0.697159   0.012821
    29  O    0.000005   0.006401   0.000183   0.025053   0.005668  -0.000698
    30  H   -0.000309   0.004528   0.000008   0.000334   0.000003  -0.000001
    31  H   -0.004425  -0.029537  -0.001282   0.008363   0.000116  -0.001357
    32  H    0.005658  -0.016420   0.000113  -0.006490  -0.000823  -0.000049
    33  H   -0.047916   0.198939   0.002424   0.057165   0.005884   0.000111
    34  H    0.000961   0.136232  -0.000711   0.003515   0.002014   0.000015
    35  H    0.005100   0.198550  -0.001824   0.015225   0.003883   0.000093
    36  H    0.007368  -0.027250  -0.007434   0.039904   0.009429   0.000116
    37  H   -0.045853   0.410879  -0.056108   0.100084   0.033689   0.001312
    38  H    0.000000   0.000351  -0.000008   0.003163  -0.000400   0.000012
    39  H    0.000020   0.009826   0.000049   0.117512  -0.013631  -0.000606
    40  H    0.000258  -0.000074  -0.001178   0.084894  -0.087165  -0.000166
    41  H    0.003667   0.047169  -0.010986  -0.075500   0.468973  -0.059182
    42  H    0.004973   0.073445  -0.066355   0.302473  -0.046389  -0.000956
    43  H    0.000257   0.084669   0.002538   0.036924   0.042540  -0.000719
    44  H   -0.000786   0.040874   0.006463  -0.120832   0.004403  -0.000076
    45  H    0.000009  -0.014303  -0.005053   0.107091   0.007034   0.000050
             19         20         21         22         23         24
     1  O   -0.000020   0.000114   0.000000   0.000000   0.000166  -0.000002
     2  C    0.001720  -0.003661   0.000016   0.000057   0.021762   0.000595
     3  C   -0.000850   0.013624   0.000122  -0.000007  -0.038943  -0.009279
     4  O    0.000004   0.000064   0.000000   0.000000   0.000606   0.000079
     5  H    0.000000   0.000004   0.000000   0.000000  -0.000142   0.000000
     6  C   -0.005978  -0.125540   0.000603   0.000177  -0.257076   0.007118
     7  O   -0.000038   0.000990  -0.000007   0.000000   0.030001  -0.001756
     8  H    0.000000  -0.000101   0.000000   0.000000  -0.001472   0.001045
     9  C    0.005141  -0.019499  -0.000273  -0.000084   0.014351   0.000616
    10  O   -0.000210   0.000627  -0.000002   0.000000   0.000223   0.000000
    11  H    0.000001  -0.000005   0.000000   0.000000   0.000006   0.000000
    12  C   -0.007773  -0.048447   0.000487   0.000148  -0.026423   0.005574
    13  O    0.014703  -0.015146   0.000234  -0.000023  -0.005172   0.000366
    14  C   -0.019300  -0.666590   0.003227   0.002651  -0.899550  -0.018655
    15  O    0.008860   0.035130   0.000071  -0.000071  -0.192179  -0.003990
    16  C   -0.047868  -1.947384   0.002182   0.044829   0.537594  -0.000948
    17  C    0.049861  -0.389515  -0.157977  -0.108206   0.059605   0.020580
    18  O    0.215750  -0.072191   0.001334   0.017892   0.010714   0.000078
    19  H    0.374958   0.026861   0.000925  -0.000391  -0.000627  -0.000004
    20  C    0.026861   8.650028   0.439642   0.025464   0.330412  -0.001224
    21  O    0.000925   0.439642   8.205381   0.218833  -0.002285  -0.000011
    22  H   -0.000391   0.025464   0.218833   0.401569   0.000495   0.000000
    23  C   -0.000627   0.330412  -0.002285   0.000495   9.197780   0.514456
    24  O   -0.000004  -0.001224  -0.000011   0.000000   0.514456   8.179657
    25  H    0.000000  -0.002351   0.000000   0.000000  -0.114982   0.232156
    26  C    0.002499   1.124393   0.037330  -0.007432  -3.236860  -0.342844
    27  O   -0.000037  -0.072020   0.002840  -0.000292  -0.045847   0.008268
    28  C   -0.001121  -0.911609  -0.210189   0.040441  -0.399583  -0.002512
    29  O    0.000018  -0.147789  -0.004424  -0.000455  -0.019587  -0.000124
    30  H    0.000000   0.000001   0.000000   0.000000  -0.000006   0.000000
    31  H    0.002633  -0.000832   0.000008   0.000000   0.000137   0.000000
    32  H    0.000017   0.000111   0.000000   0.000000  -0.000018   0.000000
    33  H    0.000215   0.002345   0.000002   0.000000   0.002033  -0.000012
    34  H   -0.000004   0.000029   0.000000   0.000000   0.000236   0.000000
    35  H   -0.000004   0.000183   0.000000   0.000000   0.002254   0.000032
    36  H   -0.000004   0.000949   0.000000   0.000000   0.012968  -0.000161
    37  H    0.000161   0.017322   0.000021   0.000000   0.009221   0.000139
    38  H    0.000000   0.024630  -0.001550   0.000027   0.002864  -0.000003
    39  H    0.000011  -0.178950   0.009351  -0.000155  -0.003664   0.000032
    40  H   -0.000140   0.322766  -0.055243  -0.003269   0.010009   0.000055
    41  H   -0.008423  -0.163109   0.000918  -0.000188   0.005158   0.000066
    42  H   -0.000045  -0.026191  -0.000232   0.000001  -0.038679   0.004855
    43  H    0.000044  -0.096377  -0.000124  -0.000002  -0.098949   0.008698
    44  H    0.000000   0.004282   0.000001   0.000000   0.494754  -0.045437
    45  H    0.000000   0.001170  -0.000010   0.000000   0.574784  -0.071628
             25         26         27         28         29         30
     1  O    0.000001  -0.000517   0.000000   0.000000   0.000000   0.215205
     2  C   -0.001478  -0.066673  -0.000061   0.003430   0.000006   0.036079
     3  C   -0.017297   0.190731   0.001651   0.000082   0.000008  -0.076883
     4  O   -0.000011  -0.000285  -0.000001   0.000018   0.000000   0.002478
     5  H    0.000000   0.000160   0.000000   0.000001   0.000000   0.005182
     6  C    0.083744  -0.653479  -0.013625   0.005369   0.000124  -0.007989
     7  O    0.020281  -0.062162   0.000166  -0.000410  -0.000001  -0.000010
     8  H    0.000127   0.001278  -0.000002  -0.000005   0.000000  -0.000001
     9  C    0.000154  -0.022419   0.000013  -0.004153   0.000024   0.005151
    10  O    0.000000  -0.000717  -0.000001  -0.000046   0.000000  -0.000801
    11  H    0.000000  -0.000001   0.000000   0.000000   0.000000  -0.000372
    12  C    0.002784   0.048180   0.001295   0.000562   0.000097   0.053375
    13  O   -0.000080   0.001113   0.000452   0.000807   0.000005  -0.000309
    14  C   -0.034134   0.066433  -0.008624   0.142610   0.006401   0.004528
    15  O   -0.002001   0.285880   0.004500   0.017121   0.000183   0.000008
    16  C    0.036291  -4.860041  -0.255627   1.347219   0.025053   0.000334
    17  C   -0.000315   0.199678  -0.018138  -0.697159   0.005668   0.000003
    18  O    0.000008   0.038914   0.000697   0.012821  -0.000698  -0.000001
    19  H    0.000000   0.002499  -0.000037  -0.001121   0.000018   0.000000
    20  C   -0.002351   1.124393  -0.072020  -0.911609  -0.147789   0.000001
    21  O    0.000000   0.037330   0.002840  -0.210189  -0.004424   0.000000
    22  H    0.000000  -0.007432  -0.000292   0.040441  -0.000455   0.000000
    23  C   -0.114982  -3.236860  -0.045847  -0.399583  -0.019587  -0.000006
    24  O    0.232156  -0.342844   0.008268  -0.002512  -0.000124   0.000000
    25  H    0.386605   0.039837  -0.000977   0.001342  -0.000002   0.000000
    26  C    0.039837  13.666004   0.479380  -0.943336  -0.063056   0.000009
    27  O   -0.000977   0.479380   8.400758   0.025431  -0.036085   0.000000
    28  C    0.001342  -0.943336   0.025431   6.273968   0.393475   0.000000
    29  O   -0.000002  -0.063056  -0.036085   0.393475   8.162950   0.000000
    30  H    0.000000   0.000009   0.000000   0.000000   0.000000   0.419957
    31  H    0.000000   0.000896   0.000001  -0.000058   0.000000  -0.000005
    32  H    0.000000  -0.000210   0.000000  -0.000007   0.000000  -0.000030
    33  H   -0.000001   0.001071   0.000000  -0.000114   0.000000  -0.000366
    34  H    0.000000  -0.000235   0.000000   0.000002   0.000000  -0.009867
    35  H    0.000000  -0.002861   0.000001   0.000012   0.000000   0.000251
    36  H   -0.000011  -0.017513   0.000018  -0.000005   0.000000   0.000029
    37  H    0.000008   0.021781   0.000376   0.001507  -0.000010   0.000003
    38  H    0.000000  -0.008406  -0.005908  -0.002479   0.231464   0.000000
    39  H    0.000000  -0.046666  -0.071796   0.445826  -0.046944   0.000000
    40  H    0.000000   0.030769   0.003418  -0.078410  -0.001689   0.000000
    41  H   -0.000001  -0.015863   0.002998   0.007818   0.000107   0.000000
    42  H   -0.000211  -0.019428   0.005567   0.026700  -0.000425   0.000000
    43  H   -0.000174   0.207810  -0.063875   0.077006  -0.000455   0.000000
    44  H   -0.019850  -0.003829   0.007567   0.000887   0.000026   0.000000
    45  H    0.007096  -0.299201  -0.004979  -0.004129  -0.000185   0.000000
             31         32         33         34         35         36
     1  O    0.000266  -0.000180   0.012599  -0.037351  -0.003490  -0.000838
     2  C    0.000516  -0.008367  -0.015796   0.443628   0.087484   0.027936
     3  C    0.002212  -0.000101   0.050899  -0.059122   0.308326  -0.073315
     4  O    0.000021   0.000005  -0.000216   0.001960  -0.042533   0.004846
     5  H    0.000000  -0.000003   0.000007   0.000036  -0.002837  -0.000098
     6  C    0.007097   0.010820  -0.104432  -0.065701  -0.325547   0.291472
     7  O   -0.000007  -0.000006  -0.000596  -0.000240   0.010163  -0.043326
     8  H    0.000000   0.000000   0.000008   0.000014  -0.001058  -0.004043
     9  C    0.569876   0.403890  -0.069682  -0.025468   0.016980   0.010496
    10  O   -0.048392  -0.041474   0.012597   0.004447   0.000069   0.000059
    11  H    0.006213  -0.011096  -0.000032  -0.000204  -0.000001   0.000000
    12  C   -0.183951  -0.036045   0.105440  -0.149361  -0.054549   0.007443
    13  O   -0.004425   0.005658  -0.047916   0.000961   0.005100   0.007368
    14  C   -0.029537  -0.016420   0.198939   0.136232   0.198550  -0.027250
    15  O   -0.001282   0.000113   0.002424  -0.000711  -0.001824  -0.007434
    16  C    0.008363  -0.006490   0.057165   0.003515   0.015225   0.039904
    17  C    0.000116  -0.000823   0.005884   0.002014   0.003883   0.009429
    18  O   -0.001357  -0.000049   0.000111   0.000015   0.000093   0.000116
    19  H    0.002633   0.000017   0.000215  -0.000004  -0.000004  -0.000004
    20  C   -0.000832   0.000111   0.002345   0.000029   0.000183   0.000949
    21  O    0.000008   0.000000   0.000002   0.000000   0.000000   0.000000
    22  H    0.000000   0.000000   0.000000   0.000000   0.000000   0.000000
    23  C    0.000137  -0.000018   0.002033   0.000236   0.002254   0.012968
    24  O    0.000000   0.000000  -0.000012   0.000000   0.000032  -0.000161
    25  H    0.000000   0.000000  -0.000001   0.000000   0.000000  -0.000011
    26  C    0.000896  -0.000210   0.001071  -0.000235  -0.002861  -0.017513
    27  O    0.000001   0.000000   0.000000   0.000000   0.000001   0.000018
    28  C   -0.000058  -0.000007  -0.000114   0.000002   0.000012  -0.000005
    29  O    0.000000   0.000000   0.000000   0.000000   0.000000   0.000000
    30  H   -0.000005  -0.000030  -0.000366  -0.009867   0.000251   0.000029
    31  H    0.554065  -0.035255   0.000402   0.000046  -0.000010   0.000001
    32  H   -0.035255   0.599176  -0.002061  -0.000068   0.000001   0.000001
    33  H    0.000402  -0.002061   0.655132   0.005632   0.004530   0.000068
    34  H    0.000046  -0.000068   0.005632   0.571231   0.005532   0.002527
    35  H   -0.000010   0.000001   0.004530   0.005532   0.611009   0.006481
    36  H    0.000001   0.000001   0.000068   0.002527   0.006481   0.585178
    37  H    0.000017  -0.000059   0.011860   0.000049   0.004161   0.006380
    38  H    0.000000   0.000000   0.000000   0.000000   0.000000   0.000000
    39  H    0.000000   0.000000   0.000000   0.000000   0.000000   0.000000
    40  H    0.000000   0.000000   0.000000   0.000000   0.000000   0.000000
    41  H    0.000008   0.000000  -0.000004   0.000000   0.000000  -0.000004
    42  H    0.000000   0.000000  -0.000302   0.000000  -0.000011  -0.000013
    43  H    0.000000   0.000000   0.000000   0.000000   0.000000  -0.000004
    44  H    0.000000   0.000000   0.000000   0.000000   0.000003   0.000299
    45  H    0.000000   0.000000   0.000000   0.000000   0.000000  -0.000001
             37         38         39         40         41         42
     1  O    0.000155   0.000000   0.000000   0.000000   0.000000  -0.000007
     2  C    0.002141   0.000000   0.000012   0.000056   0.000634   0.004060
     3  C    0.020744   0.000000  -0.000021  -0.000050   0.000113   0.000057
     4  O   -0.000306   0.000000   0.000000   0.000000   0.000000   0.000017
     5  H    0.000000   0.000000   0.000000   0.000000   0.000000   0.000000
     6  C   -0.303335   0.000032   0.000185  -0.000580   0.002531  -0.019559
     7  O    0.011115   0.000000   0.000001   0.000005   0.000051   0.000750
     8  H   -0.000274   0.000000   0.000000   0.000000   0.000000   0.000008
     9  C   -0.006337   0.000000   0.000003  -0.000032  -0.000495  -0.000717
    10  O    0.000009   0.000000   0.000000   0.000000   0.000005   0.000003
    11  H    0.000003   0.000000   0.000000   0.000000   0.000000   0.000000
    12  C   -0.028554  -0.000005   0.000127   0.001778   0.004902   0.025590
    13  O   -0.045853   0.000000   0.000020   0.000258   0.003667   0.004973
    14  C    0.410879   0.000351   0.009826  -0.000074   0.047169   0.073445
    15  O   -0.056108  -0.000008   0.000049  -0.001178  -0.010986  -0.066355
    16  C    0.100084   0.003163   0.117512   0.084894  -0.075500   0.302473
    17  C    0.033689  -0.000400  -0.013631  -0.087165   0.468973  -0.046389
    18  O    0.001312   0.000012  -0.000606  -0.000166  -0.059182  -0.000956
    19  H    0.000161   0.000000   0.000011  -0.000140  -0.008423  -0.000045
    20  C    0.017322   0.024630  -0.178950   0.322766  -0.163109  -0.026191
    21  O    0.000021  -0.001550   0.009351  -0.055243   0.000918  -0.000232
    22  H    0.000000   0.000027  -0.000155  -0.003269  -0.000188   0.000001
    23  C    0.009221   0.002864  -0.003664   0.010009   0.005158  -0.038679
    24  O    0.000139  -0.000003   0.000032   0.000055   0.000066   0.004855
    25  H    0.000008   0.000000   0.000000   0.000000  -0.000001  -0.000211
    26  C    0.021781  -0.008406  -0.046666   0.030769  -0.015863  -0.019428
    27  O    0.000376  -0.005908  -0.071796   0.003418   0.002998   0.005567
    28  C    0.001507  -0.002479   0.445826  -0.078410   0.007818   0.026700
    29  O   -0.000010   0.231464  -0.046944  -0.001689   0.000107  -0.000425
    30  H    0.000003   0.000000   0.000000   0.000000   0.000000   0.000000
    31  H    0.000017   0.000000   0.000000   0.000000   0.000008   0.000000
    32  H   -0.000059   0.000000   0.000000   0.000000   0.000000   0.000000
    33  H    0.011860   0.000000   0.000000   0.000000  -0.000004  -0.000302
    34  H    0.000049   0.000000   0.000000   0.000000   0.000000   0.000000
    35  H    0.004161   0.000000   0.000000   0.000000   0.000000  -0.000011
    36  H    0.006380   0.000000   0.000000   0.000000  -0.000004  -0.000013
    37  H    0.666493   0.000000   0.000000  -0.000019  -0.000042   0.013490
    38  H    0.000000   0.417419  -0.009173   0.000094   0.000005   0.000002
    39  H    0.000000  -0.009173   0.646827   0.006228   0.004645   0.000035
    40  H   -0.000019   0.000094   0.006228   0.614515   0.007803   0.002762
    41  H   -0.000042   0.000005   0.004645   0.007803   0.631170   0.006973
    42  H    0.013490   0.000002   0.000035   0.002762   0.006973   0.612857
    43  H   -0.000024  -0.000033   0.010233   0.000213   0.005723   0.007942
    44  H    0.000173   0.000000   0.000001   0.000001  -0.000011   0.000131
    45  H    0.000001   0.000001  -0.000062   0.000001   0.000001   0.000005
             43         44         45
     1  O    0.000000   0.000000   0.000000
     2  C    0.000613   0.001120  -0.000029
     3  C   -0.000923   0.008099  -0.002792
     4  O    0.000000  -0.000008   0.000000
     5  H    0.000000   0.000000   0.000000
     6  C    0.001611  -0.068044   0.008345
     7  O    0.000658   0.000931   0.000057
     8  H    0.000001  -0.000222   0.000005
     9  C    0.000260  -0.000298   0.000047
    10  O    0.000000   0.000000   0.000000
    11  H    0.000000   0.000000   0.000000
    12  C    0.002427  -0.003396   0.000726
    13  O    0.000257  -0.000786   0.000009
    14  C    0.084669   0.040874  -0.014303
    15  O    0.002538   0.006463  -0.005053
    16  C    0.036924  -0.120832   0.107091
    17  C    0.042540   0.004403   0.007034
    18  O   -0.000719  -0.000076   0.000050
    19  H    0.000044   0.000000   0.000000
    20  C   -0.096377   0.004282   0.001170
    21  O   -0.000124   0.000001  -0.000010
    22  H   -0.000002   0.000000   0.000000
    23  C   -0.098949   0.494754   0.574784
    24  O    0.008698  -0.045437  -0.071628
    25  H   -0.000174  -0.019850   0.007096
    26  C    0.207810  -0.003829  -0.299201
    27  O   -0.063875   0.007567  -0.004979
    28  C    0.077006   0.000887  -0.004129
    29  O   -0.000455   0.000026  -0.000185
    30  H    0.000000   0.000000   0.000000
    31  H    0.000000   0.000000   0.000000
    32  H    0.000000   0.000000   0.000000
    33  H    0.000000   0.000000   0.000000
    34  H    0.000000   0.000000   0.000000
    35  H    0.000000   0.000003   0.000000
    36  H   -0.000004   0.000299  -0.000001
    37  H   -0.000024   0.000173   0.000001
    38  H   -0.000033   0.000000   0.000001
    39  H    0.010233   0.000001  -0.000062
    40  H    0.000213   0.000001   0.000001
    41  H    0.005723  -0.000011   0.000001
    42  H    0.007942   0.000131   0.000005
    43  H    0.670515  -0.003923  -0.004914
    44  H   -0.003923   0.587165  -0.040722
    45  H   -0.004914  -0.040722   0.607085
 Mulliken atomic charges:
              1
     1  O   -0.547302
     2  C   -0.256757
     3  C   -0.044823
     4  O   -0.515713
     5  H    0.328460
     6  C    0.052935
     7  O   -0.545449
     8  H    0.393750
     9  C   -0.225976
    10  O   -0.519867
    11  H    0.353583
    12  C    0.664487
    13  O   -0.418364
    14  C    0.104826
    15  O   -0.327134
    16  C    0.240041
    17  C   -0.185741
    18  O   -0.554681
    19  H    0.388456
    20  C   -0.132613
    21  O   -0.491201
    22  H    0.367992
    23  C   -0.450545
    24  O   -0.485881
    25  H    0.383441
    26  C    0.229886
    27  O   -0.347503
    28  C    0.430868
    29  O   -0.503680
    30  H    0.354047
    31  H    0.152217
    32  H    0.138967
    33  H    0.112170
    34  H    0.170226
    35  H    0.154400
    36  H    0.160052
    37  H    0.107628
    38  H    0.347899
    39  H    0.120745
    40  H    0.142392
    41  H    0.132367
    42  H    0.126824
    43  H    0.109815
    44  H    0.150255
    45  H    0.134502
 Sum of Mulliken atomic charges =   0.00000
 Mulliken charges with hydrogens summed into heavy atoms:
              1
     1  O   -0.193255
     2  C   -0.086530
     3  C    0.109576
     4  O   -0.187253
     6  C    0.212986
     7  O   -0.151699
     9  C    0.065208
    10  O   -0.166283
    12  C    0.776656
    13  O   -0.418364
    14  C    0.212455
    15  O   -0.327134
    16  C    0.366865
    17  C   -0.053375
    18  O   -0.166225
    20  C    0.009779
    21  O   -0.123209
    23  C   -0.165788
    24  O   -0.102439
    26  C    0.339701
    27  O   -0.347503
    28  C    0.551613
    29  O   -0.155781
 Sum of Mulliken charges with hydrogens summed into heavy atoms =   0.00000
 APT atomic charges:
              1
     1  O   -0.638909
     2  C    0.419275
     3  C    0.371395
     4  O   -0.663928
     5  H    0.261630
     6  C    0.348685
     7  O   -0.621369
     8  H    0.282152
     9  C    0.472932
    10  O   -0.610919
    11  H    0.264893
    12  C    0.345067
    13  O   -0.730029
    14  C    0.871228
    15  O   -0.841286
    16  C    0.385754
    17  C    0.379360
    18  O   -0.702501
    19  H    0.328251
    20  C    0.416132
    21  O   -0.645150
    22  H    0.283309
    23  C    0.440195
    24  O   -0.627953
    25  H    0.321839
    26  C    0.440701
    27  O   -0.798721
    28  C    0.940846
    29  O   -0.664158
    30  H    0.250761
    31  H   -0.001981
    32  H   -0.044947
    33  H   -0.038610
    34  H   -0.022043
    35  H   -0.049500
    36  H   -0.026366
    37  H   -0.036209
    38  H    0.262373
    39  H   -0.083389
    40  H   -0.045877
    41  H   -0.053207
    42  H   -0.028789
    43  H   -0.060431
    44  H    0.003150
    45  H   -0.053659
 Sum of APT charges=   0.00000
 APT Atomic charges with hydrogens summed into heavy atoms:
              1
[...]
 00000386,-0.00001902,0.00011474,0.00013993,0.00062471,-0.00051967,0.00
 015668,-0.00132710,0.00192459,-0.00604899,-0.02124983,0.01323189,0.006
 44864,-0.21714466,0.13629148,-0.06888014,0.01039591,-0.00862668,0.0037
 4490,0.00090540,0.00172312,0.00059710,-0.00009156,-0.00003780,-0.00012
 792,0.00082586,0.00039312,-0.00056291,-0.00032287,-0.00006384,0.000000
 56,-0.00001837,-0.00000707,0.00003124,0.00010226,0.00155282,-0.0003210
 3,0.00107354,-0.00058801,0.00062265,-0.00052830,-0.00042525,0.00007997
 ,-0.01426365,0.01064668,-0.00686271,0.00195234,-0.00026265,-0.00058012
 ,-0.00017858,-0.00073934,0.00010509,0.00013167,0.00005476,-0.00004666,
 -0.00000216,0.00000525,0.00000718,-0.00000629,0.00000341,-0.00000533,0
 .00001302,0.00001494,0.00000746,0.00010038,0.00000789,0.00006681,0.000
 00642,-0.00000463,-0.00000833,0.00004431,-0.00001564,0.00004196,0.0002
 0320,0.00016679,-0.00027535,0.00247166,-0.00084778,0.00082524,-0.00001
 399,0.00001313,0.00003056,-0.00013410,0.00002040,0.00011955,0.00004465
 ,0.00009524,-0.00013214,-0.00052880,-0.00277257,0.00082173,0.23750131,
 -0.00001217,-0.00002388,0.00003368,-0.00000018,0.00005006,-0.00002398,
 0.00012679,0.00011218,-0.00006939,-0.00004995,-0.00004699,-0.00002644,
 0.00001000,0.00001809,-0.00001489,-0.00060861,0.00045705,-0.00015937,-
 0.00001763,-0.00023646,-0.00011081,-0.00000597,0.00000085,-0.00001554,
 0.00000669,-0.00004924,-0.00005347,-0.00003291,0.00005586,0.00005910,-
 0.00000026,0.00000042,-0.00000815,0.00001909,-0.00006624,-0.00024843,-
 0.00037550,0.00041373,0.00043676,0.00100320,0.00103874,0.00310500,0.00
 597990,-0.00206270,-0.00272822,0.13831563,-0.15498095,0.05475967,0.023
 19581,-0.01981523,0.01322962,-0.00036566,0.00424776,-0.00098120,0.0001
 2174,-0.00016552,-0.00000500,0.00148423,-0.00036482,-0.00166034,-0.000
 85905,0.00018206,0.00023332,0.00010653,-0.00006264,0.00006216,0.000134
 59,0.00086697,0.00037581,0.00042566,-0.00011183,0.00030962,-0.00014361
 ,-0.00014956,0.00006784,-0.01353961,0.01215346,-0.00596328,0.00080639,
 0.00013033,0.00153149,-0.00000219,-0.00038243,-0.00012859,0.00001498,0
 .00009182,0.00006574,0.00000232,0.00000138,-0.00000130,-0.00000380,-0.
 00003297,-0.00000471,-0.00000499,0.00000486,-0.00000399,-0.00005305,0.
 00002644,-0.00007429,-0.00000913,-0.00000815,0.00001096,-0.00001349,0.
 00001700,-0.00000892,-0.00011031,-0.00018391,0.00016808,-0.00099676,0.
 00121954,-0.00068977,-0.00000930,0.00000679,0.00001021,-0.00014614,-0.
 00004541,-0.00006401,-0.00074504,0.00044499,0.00048319,-0.00195121,-0.
 00458807,0.00187663,-0.14955054,0.16277663,-0.00001166,-0.00001067,-0.
 00004173,-0.00001106,0.00001632,0.00002026,0.00005370,0.00000443,0.000
 04632,-0.00001893,0.00001816,-0.00002820,-0.00000516,0.00000478,-0.000
 00528,0.00027922,-0.00023255,-0.00039076,-0.00002692,0.00012618,0.0000
 6721,-0.00001210,-0.00001965,0.00000321,-0.00004840,0.00001927,-0.0000
 2946,-0.00001057,0.00000774,0.00001431,0.00000038,0.00000775,0.0000009
 3,0.00008641,0.00003304,0.00001156,-0.00076571,-0.00017872,-0.00042654
 ,0.00919610,-0.00454354,-0.00095129,0.02576854,-0.01647801,-0.00723423
 ,-0.07854486,0.06263488,-0.07160899,-0.01057679,0.00617448,-0.00277601
 ,0.00122816,-0.00095965,0.00115048,0.00017509,0.00002766,-0.00016151,-
 0.00110194,0.00028923,0.00079495,0.00039122,-0.00019564,-0.00006906,-0
 .00006470,0.00002836,0.00002684,0.00076915,0.00103326,0.00027084,0.000
 53233,-0.00073313,0.00048590,-0.00012726,-0.00021645,-0.00000786,-0.01
 991812,0.01505930,-0.00647601,0.00165979,-0.00044211,0.00199653,-0.000
 32973,0.00029384,-0.00000151,0.00012922,-0.00011808,-0.00020883,-0.000
 00009,0.00000743,0.00000132,0.00000380,-0.00000804,-0.00000957,-0.0000
 0933,-0.00001675,-0.00000713,-0.00007340,0.00006535,-0.00007109,-0.000
 00525,0.00000154,0.00001734,-0.00003761,0.00001077,-0.00004163,-0.0001
 4864,0.00010558,-0.00004042,0.00081295,-0.00036551,-0.00282384,0.00001
 182,0.00004214,0.00001860,0.00018795,-0.00019403,0.00011922,0.00045796
 ,-0.00009159,-0.00017157,0.00094915,0.00195975,-0.00051448,0.07180836,
 -0.06092260,0.09226177,0.00000926,0.00000606,-0.00000376,-0.00000169,-
 0.00001632,0.00001234,-0.00002690,0.00001640,0.00003860,0.00002316,0.0
 0001504,-0.00001355,-0.00000385,0.00000004,0.00000034,0.00003873,-0.00
 016605,-0.00001031,0.00003737,0.00013554,0.00012775,-0.00000489,-0.000
 00215,0.00000218,-0.00000635,0.00001970,0.00001798,0.00001633,-0.00001
 900,-0.00001847,-0.00000268,-0.00000021,0.00000229,-0.00002260,0.00004
 601,0.00006759,0.00013849,-0.00011274,-0.00001065,0.00007868,0.0002743
 3,-0.00019304,0.00158039,-0.00093346,0.00127500,-0.02228294,0.01445011
 ,-0.01089725,-0.00061644,0.00214938,-0.00023169,0.00084861,-0.00038254
 ,0.00028546,-0.00005867,0.00005869,-0.00012140,-0.00008831,-0.00017603
 ,0.00023009,-0.00008580,-0.00032187,-0.00005163,-0.00003511,-0.0000191
 3,0.00003727,0.00803794,-0.01255245,0.00218011,-0.00093116,-0.00304734
 ,0.00164150,0.00002212,-0.00041527,-0.00004142,-0.19378614,0.14398849,
 -0.05047047,-0.02510501,0.01195610,0.02075224,0.00000465,0.00414680,-0
 .00094878,0.00051865,-0.00078203,0.00024064,-0.00000131,0.00000153,-0.
 00000022,-0.00000184,0.00000707,-0.00000256,0.00000353,-0.00000280,0.0
 0000207,0.00001611,-0.00000791,0.00001192,0.00000397,0.00000064,-0.000
 00555,0.00000659,-0.00000881,0.00000154,0.00002200,0.00004479,-0.00003
 401,0.00022444,-0.00014405,0.00025271,-0.00003155,0.00015977,-0.000016
 83,0.00005567,-0.00151380,0.00055921,0.00032200,0.00009157,-0.00008795
 ,0.00054809,-0.00116290,0.00024932,-0.00155201,-0.00239088,-0.00272142
 ,0.22988849,0.00000218,0.00002013,0.00000038,0.00000297,-0.00002669,0.
 00001335,0.00000150,0.00003665,0.00003587,-0.00000676,0.00002505,0.000
 00202,0.00000512,-0.00000445,-0.00000406,0.00009321,-0.00028255,-0.000
 01794,-0.00005370,0.00026929,0.00018400,0.00001842,-0.00000845,0.00000
 176,0.00002232,-0.00000335,-0.00001271,-0.00001451,-0.00000028,0.00000
 252,0.00000341,-0.00000103,0.00000062,0.00001052,0.00000010,0.00003992
 ,0.00002782,-0.00000901,0.00001531,-0.00045070,0.00026114,0.00022222,-
 0.00039806,0.00033920,0.00121643,-0.01102890,0.00821759,-0.00542701,-0
 .00186452,0.00031049,-0.00094986,0.00004742,-0.00002826,0.00041974,0.0
 0009514,0.00000027,0.00002005,-0.00027721,-0.00024196,-0.00013793,0.00
 008834,0.00015456,0.00004930,0.00002284,-0.00001826,-0.00004031,0.0216
 2140,-0.02412297,0.00732294,-0.00492187,-0.00304180,0.00253949,-0.0000
 2320,-0.00085975,-0.00033111,0.14635229,-0.18124163,0.04384196,0.00716
 497,0.00117713,-0.00593322,-0.00372321,0.00146098,0.00173014,-0.000067
 51,-0.00005309,-0.00024573,0.00000200,-0.00000603,-0.00000224,0.000001
 22,0.00000023,-0.00000032,-0.00000362,0.00000087,-0.00000234,0.0000051
 3,-0.00000208,0.00000057,-0.00000061,0.00000353,0.00000441,-0.00001011
 ,-0.00000452,-0.00000844,0.00000955,0.00006305,0.00002336,0.00009196,-
 0.00005249,-0.00018616,0.00008176,-0.00005192,0.00002914,0.00106306,0.
 00124819,-0.00077515,0.00005756,-0.00007369,0.00006338,-0.00001122,0.0
 0042754,-0.00030070,-0.00142422,-0.00091228,-0.00214225,-0.15315742,0.
 19587689,-0.00000493,-0.00002139,-0.00001617,0.00001023,0.00002325,0.0
 0000464,-0.00004325,-0.00005381,0.00002215,0.00002014,-0.00001109,-0.0
 0001565,-0.00000621,0.00000119,0.00000767,0.00014437,0.00006365,0.0000
 9475,0.00003998,-0.00009749,-0.00011513,-0.00000316,-0.00001372,0.0000
 0682,0.00000553,0.00002108,0.00002207,0.00001239,-0.00002757,-0.000017
 65,0.00000041,0.00000408,0.00000328,-0.00002460,0.00004445,0.00006853,
 0.00017455,-0.00012340,0.00012681,-0.00042531,0.00066006,-0.00024126,0
 .00056332,-0.00045607,0.00189975,-0.02524749,0.01469437,-0.00848846,-0
 .00003592,0.00169687,0.00049298,0.00059830,-0.00029117,0.00013431,-0.0
 0005869,0.00003567,-0.00007619,-0.00019234,0.00031322,-0.00036247,0.00
 007502,0.00009269,0.00025402,0.00001228,0.00006070,-0.00001787,-0.0059
 6360,0.00522613,-0.00195504,0.00132725,0.00144642,0.00077968,-0.000062
 89,-0.00016510,0.00029036,-0.05101118,0.04581110,-0.04777559,0.0426932
 8,-0.02033363,-0.01574997,0.00253659,-0.00554490,0.00186264,-0.0005579
 5,0.00058734,-0.00027399,-0.00000275,0.00000603,0.00000416,-0.00000274
 ,0.00000490,-0.00000137,0.00000522,0.00000099,-0.00000041,0.00002734,-
 0.00000848,0.00002039,0.00000319,-0.00000164,-0.00000595,0.00001659,-0
 .00000756,0.00001307,0.00004504,0.00002757,-0.00007854,0.00037146,-0.0
 0015706,0.00006038,0.00003364,-0.00003882,-0.00002152,-0.00128767,0.00
 066592,0.00013856,-0.00003992,-0.00002277,-0.00023353,0.00024339,-0.00
 070771,0.00039115,-0.00200192,-0.00294674,-0.00326291,0.03785147,-0.04
 061866,0.07148309,0.00004408,0.00001793,0.00015109,-0.00000331,-0.0000
 5139,-0.00009335,-0.00006346,0.00003909,-0.00012580,-0.00002101,-0.000
 04695,0.00019764,0.00000084,0.00001105,-0.00000362,0.00000598,-0.00029
 265,-0.00054469,-0.00025520,-0.00070344,0.00052760,0.00028496,0.000136
 42,0.00025270,0.00000188,-0.00008594,-0.00002364,0.00000264,0.00008406
 ,0.00005567,-0.00000798,-0.00002255,-0.00001849,-0.00013766,0.00007159
 ,-0.00009341,0.00023964,0.00028634,0.00042827,-0.00074386,-0.00037412,
 -0.00160218,0.00158932,0.00068031,-0.00041115,-0.00130188,0.00059795,0
 .00138714,0.00005885,-0.00005520,0.00028677,0.00015205,0.00017542,-0.0
 0020478,-0.00007215,-0.00013104,0.00002576,0.00003215,0.00009436,0.000
 24313,0.00000117,-0.00006065,-0.00018427,-0.00003988,-0.00002387,0.000
 04117,-0.12108043,0.04098595,0.12435385,-0.00987012,0.01728507,0.00866
 973,0.00078976,0.00208397,0.00210494,-0.01206929,0.00504168,0.01949724
 ,-0.00044881,-0.00534290,0.00023042,-0.00005602,0.00118932,0.00028976,
 -0.00033072,-0.00032764,0.00053413,0.00000079,-0.00001536,-0.00001880,
 -0.00001204,-0.00000052,0.00000054,0.00001487,0.00001956,0.00001986,-0
 .00000150,-0.00000720,0.00000751,0.00000559,0.00000306,0.00000448,0.00
 000011,0.00000263,0.00001044,0.00001898,0.00004423,-0.00000032,0.00003
 937,-0.00004268,0.00008332,-0.00004507,-0.00001957,-0.00005556,-0.0000
 0894,-0.00013035,0.00002779,0.00000568,-0.00001098,-0.00001152,-0.0000
 1970,-0.00000553,-0.00000144,-0.00001929,-0.00008705,-0.00017143,0.000
 91372,0.00012870,-0.00042490,0.12851555,-0.00001237,-0.00003302,0.0000
 2437,0.00000377,0.00005502,-0.00006879,-0.00000557,-0.00021201,-0.0001
 1388,-0.00003231,-0.00004199,0.00006630,-0.00000225,-0.00001066,0.0000
 0922,-0.00000528,0.00078096,0.00016266,-0.00049775,-0.00014344,-0.0005
 2435,0.00001206,-0.00008137,0.00000514,-0.00000461,-0.00004170,0.00000
 621,0.00000247,0.00003774,0.00002514,-0.00000072,-0.00000597,-0.000007
 16,-0.00004699,0.00004141,-0.00008390,0.00010291,0.00008746,0.00027580
 ,-0.00034169,-0.00006054,-0.00119723,-0.00100995,-0.00221996,-0.001254
 14,-0.00089670,0.00022501,0.00014063,0.00006851,-0.00007477,0.00026614
 ,0.00011029,0.00012240,-0.00015753,-0.00005346,-0.00006798,0.00001243,
 0.00009320,0.00001947,0.00035882,-0.00009206,-0.00017722,-0.00022642,-
 0.00003725,-0.00003369,0.00004851,0.04023571,-0.06342907,-0.06946405,0
 .02451026,-0.03051889,-0.01538045,0.00335068,-0.00245379,-0.00452595,-
 0.01053725,0.00835738,0.01979035,-0.00340577,-0.00620903,0.00112455,-0
 .00034283,0.00191099,-0.00022783,-0.00044940,-0.00046224,0.00091475,-0
 .00000172,-0.00000065,-0.00000006,-0.00000758,-0.00000353,0.00000056,0
 .00000720,0.00000915,0.00000846,0.00000171,0.00000065,0.00001220,0.000
 00049,-0.00000175,-0.00000220,0.00000432,0.00000455,0.00002546,0.00006
 077,-0.00002962,-0.00006219,0.00008576,-0.00005740,0.00007434,-0.00004
 814,-0.00002169,-0.00009712,0.00004133,-0.00018669,0.00004116,0.000007
 73,-0.00001727,-0.00000949,-0.00000250,-0.00001173,0.00000964,0.000053
 24,-0.00009933,-0.00011099,0.00030815,0.00105747,0.00096000,-0.0542788
 2,0.09482442,0.00004967,0.00006561,0.00008420,-0.00003304,-0.00011951,
 -0.00000473,0.00003814,0.00017979,-0.00004704,-0.00000703,0.00000529,0
 .00009107,0.00000655,0.00000520,-0.00000932,-0.00021375,-0.00065049,-0
 .00050998,-0.00039402,0.00070164,-0.00059730,0.00015474,0.00019728,0.0
 0002623,0.00000393,-0.00002096,-0.00003319,-0.00000360,0.00002736,0.00
 001410,-0.00000375,-0.00001306,-0.00000588,-0.00002454,-0.00002789,-0.
 00002339,-0.00001865,0.00012143,-0.00017794,-0.00041744,-0.00061947,0.
 00048413,-0.00280488,-0.00295070,-0.00145768,0.00048401,-0.00005660,-0
 .00088787,0.00022150,-0.00007326,-0.00008059,-0.00003934,0.00005368,0.
 00008521,0.00002887,0.00000105,0.00001899,-0.00007383,0.00003423,-0.00
 010525,0.00005451,0.00010129,0.00006178,0.00000477,0.00000525,-0.00001
 142,0.13397415,-0.07674081,-0.26433624,-0.00819115,0.00924188,0.009011
 19,-0.00194017,0.00175015,0.00422435,0.00369968,-0.00254669,-0.0073691
 9,-0.00016260,0.00184008,0.00066607,0.00012650,-0.00092837,0.00039796,
 0.00012181,0.00015011,-0.00026534,0.00000184,-0.00001199,-0.00001920,0
 .00000215,0.00000497,0.00000121,-0.00000214,0.00000167,0.00000369,-0.0
 0000143,-0.00000875,-0.00000153,0.00000071,0.00000395,0.00000444,0.000
 00467,-0.00000911,0.00001223,0.00000306,0.00006088,-0.00000378,0.00000
 190,0.00002816,-0.00008677,0.00001695,-0.00003015,0.00005581,-0.000029
 81,0.00008192,-0.00002354,-0.00001109,0.00000370,-0.00000739,-0.000023
 26,0.00002000,0.00000030,-0.00004013,0.00001930,0.00001496,0.00001678,
 0.00056597,-0.00019240,-0.13612864,0.07526227,0.27891276,-0.00001388,-
 0.00000694,-0.00004892,0.00000623,0.00001358,0.00003259,-0.00000998,-0
 .00004105,0.00002381,0.00001850,0.00000960,-0.00004537,-0.00000374,-0.
 00000268,0.00000692,-0.00005921,0.00004283,-0.00013003,0.00008338,-0.0
 0034563,-0.00005132,0.00005251,-0.00000362,0.00002541,-0.00001061,0.00
 002557,0.00003666,0.00000801,-0.00003324,-0.00003469,0.00000324,0.0000
 0862,0.00000761,0.00001966,-0.00000739,0.00005129,0.00001446,-0.000017
 89,-0.00006448,-0.00006316,-0.00002882,0.00001673,0.00084328,0.0009043
 4,-0.00006330,-0.00063299,-0.00419641,0.00363770,-0.00027337,0.0004553
 6,-0.00122503,-0.00042206,-0.00078991,-0.00019058,-0.00006100,0.000027
 26,0.00009942,0.00014526,0.00016509,-0.00034153,-0.00002625,-0.0000253
 4,0.00020605,0.00004889,0.00003618,-0.00004334,-0.18509038,-0.04268444
 ,-0.14724894,-0.00832305,0.01003958,-0.01579784,-0.00261861,0.00160604
 ,0.00033170,-0.01790446,-0.01136344,-0.01806395,0.00106887,0.00189948,
 -0.00000612,-0.00012267,-0.00034222,0.00012479,0.00007251,0.00008899,0
 .00009528,0.00000003,0.00000591,0.00000881,0.00000776,0.00000677,0.000
 00351,-0.00000118,-0.00000269,-0.00000729,0.00000385,-0.00000208,0.000
 00079,-0.00000024,-0.00000112,-0.00000414,0.00001105,-0.00000035,0.000
 00746,0.00000751,-0.00003575,-0.00003892,0.00001787,-0.00000787,0.0000
 3274,-0.00005003,-0.00007222,0.00004660,-0.00000982,0.00001231,-0.0000
 1013,-0.00001079,-0.00000456,0.00001928,0.00004822,-0.00007147,0.00003
 038,0.00020351,0.00033146,0.00023978,0.00128625,0.00041654,0.00058645,
 0.01389033,0.00305242,0.01154739,0.19784627,0.00001184,0.00004162,-0.0
 0004074,-0.00002418,-0.00004321,0.00005955,0.00004446,0.00006709,0.000
 06121,0.00001401,0.00006292,-0.00005631,0.00000300,-0.00000763,-0.0000
 0747,-0.00014003,-0.00035490,-0.00001511,-0.00005246,0.00065064,0.0002
 1273,-0.00001910,-0.00001387,-0.00002089,-0.00002353,0.00002623,0.0000
 3254,0.00001538,-0.00002718,-0.00004607,0.00000003,0.00000172,0.000007
 67,0.00005898,-0.00005555,0.00009201,-0.00006627,0.00002154,-0.0002911
 2,0.00030249,-0.00017207,0.00079032,-0.00026755,0.00018931,-0.00006830
 ,-0.00267599,-0.00361855,0.00284968,-0.00016368,0.00071591,-0.00119356
 ,-0.00047249,-0.00099341,-0.00026807,-0.00005458,0.00004027,0.00013778
 ,0.00016284,0.00011982,-0.00033929,-0.00008480,-0.00008451,0.00020266,
 0.00005744,0.00003689,-0.00004025,-0.04348072,-0.04793062,-0.05005153,
 0.02757916,-0.01035404,0.03190799,0.00423165,-0.00326205,0.00140503,-0
 .01958576,-0.00953175,-0.01787500,0.00123774,0.00100510,0.00048973,-0.
 00011220,-0.00020093,-0.00003299,0.00004016,0.00004399,0.00009626,-0.0
 0000065,-0.00000342,-0.00000278,0.00001523,0.00001564,0.00000430,-0.00
 000655,-0.00000818,-0.00001237,-0.00000287,-0.00000488,-0.00000146,-0.
 00000114,0.00000302,-0.00000169,-0.00001031,-0.00000748,-0.00000969,-0
 .00000273,0.00008041,0.00003916,-0.00001674,-0.00002174,-0.00001879,-0
 .00003209,-0.00000888,0.00002062,0.00000414,-0.00001138,0.00000022,-0.
 00001079,0.00000113,0.00002459,0.00003430,-0.00010990,0.00005027,-0.00
 004148,0.00007162,0.00000871,-0.00054106,0.00009618,-0.00079890,-0.006
 86230,-0.00082712,-0.00572625,0.04093921,0.07436220,-0.00003602,-0.000
 03828,-0.00009314,0.00001636,0.00006356,0.00004382,-0.00001298,-0.0000
 7338,0.00007408,0.00002473,0.00000127,-0.00011159,-0.00000810,-0.00000
 343,0.00001162,0.00010045,0.00038176,0.00030965,0.00004061,0.00002651,
 -0.00045265,-0.00015941,-0.00006099,-0.00004471,-0.00000227,0.00005426
 ,0.00001879,0.00000205,-0.00005392,-0.00002907,0.00000428,0.00001630,0
 .00001092,0.00005614,-0.00001202,0.00003851,-0.00009533,-0.00017182,-0
 .00013065,0.00022859,0.00025623,0.00041889,-0.00129659,-0.00110649,0.0
 0016837,0.00227207,0.00171682,-0.00156890,0.00015188,-0.00009008,0.000
 46387,0.00012465,0.00030298,0.00017703,0.00004421,0.00006875,-0.000054
 83,-0.00000178,-0.00003158,0.00004057,-0.00003556,-0.00007977,-0.00001
 200,-0.00000421,-0.00000006,0.00000861,-0.14898141,-0.04867831,-0.2068
 2758,-0.00605410,0.01101413,-0.00449619,-0.00210013,0.00038396,0.00122
 199,0.00981427,0.00584824,0.00739053,-0.00098155,-0.00112408,0.0013693
 1,-0.00009186,0.00037169,-0.00010624,-0.00006240,-0.00008148,0.0001367
 3,-0.00000192,0.00001468,0.00001674,0.00000204,-0.00000350,-0.00000256
 ,-0.00000416,-0.00000959,-0.00000762,0.00000494,0.00000376,-0.00000361
 ,-0.00000205,-0.00000441,-0.00000522,0.00001105,0.00000306,-0.00000195
 ,-0.00000004,-0.00005771,-0.00000593,0.00001757,0.00001917,-0.00002910
 ,-0.00001890,0.00000641,-0.00002090,0.00003654,-0.00005385,0.00000595,
 0.00001723,-0.00000891,0.00000886,-0.00001622,0.00000931,-0.00000579,0
 .00008892,0.00007526,0.00003732,0.00002457,-0.00120868,0.00072078,-0.0
 1931294,-0.00611135,-0.01791367,0.16619680,0.03842559,0.21923094\\0.00
 418133,-0.00404882,-0.00599418,0.01824532,0.00169944,-0.00236235,-0.01
 193907,-0.01346703,0.02685943,-0.00036533,0.00146476,0.01651739,-0.008
 49050,-0.01084350,-0.02884356,0.00074249,0.02187094,0.00542303,0.00143
 109,-0.00284096,0.04121396,0.00518242,-0.00389930,-0.02960492,-0.01810
 452,-0.00436322,0.03490421,-0.00221423,-0.00153423,0.01941502,0.003404
 78,0.00306424,-0.03146372,-0.00529884,0.04115101,0.00832443,0.00952006
 ,-0.03938103,0.01461079,-0.04040258,0.03780788,-0.04996081,0.01147968,
 -0.03447960,0.01158482,0.00154523,0.00934361,-0.01051486,-0.00979132,0
 .02718786,0.01092399,0.00896179,0.00074255,0.01090505,0.00431574,-0.01
 558917,-0.02781329,0.02792131,0.00075361,0.01752947,-0.00569253,0.0131
 5692,0.00741573,-0.02237286,-0.02574133,-0.00972863,-0.00079561,-0.018
 52139,-0.02174108,0.00566789,0.01935837,0.03307663,0.01296167,-0.01526
 700,-0.02420133,0.00570516,0.01917799,0.00058431,0.00800123,-0.0130377
 8,0.00607840,0.02771133,-0.01584950,-0.02949609,-0.00648665,0.00673604
 ,0.02447518,-0.00328540,0.00343335,0.00529671,0.00205660,0.00865072,-0
 .01212955,0.01764007,-0.00471657,0.00659999,0.01817117,-0.00919285,-0.
 00394941,-0.01278103,0.01164577,0.00162910,0.01886563,-0.01134585,-0.0
 0153636,-0.01760027,0.01024538,0.00151344,0.01435260,-0.00729068,-0.00
 349936,-0.00537008,-0.00219404,-0.00276578,-0.01933794,0.00987571,-0.0
 0318229,0.01631383,-0.01620384,-0.00191476,-0.02129801,0.01117770,-0.0
 0296799,0.01353097,-0.01068617,0.00323359,-0.02539295,0.01200791,0.002
 27648,-0.00841931,0.01321456,0.00855818,-0.01247033,-0.00327249,-0.015
 27898\\\@


 TIMES HAVE CHANGED. IN THE BIBLE WHEN AN ASS
 SPOKE IT WAS CONSIDERED A MIRACLE.
 Job cpu time:  0 days 13 hours 36 minutes 41.9 seconds.
 File lengths (MBytes):  RWF=   1326 Int=      0 D2E=      0 Chk=     19 Scr=      1
 Normal termination of Gaussian 09 at Thu Jan 21 18:53:38 2016.
Gaussian '09 finished on node004 at Thu Jan 21 18:53:39 EST 2016.
