Gaussian '09 started on node005 at Wed Jan 20 15:58:15 EST 2016.
 Entering Gaussian System, Link 0=/usr/local/gaussian/g09/g09
 Initial command:
 /usr/local/gaussian/g09/l1.exe /home/srmcgrat/thesis/gaussian/cellobiose/320/6000/gaussian24480/Gau-24516.inp -scrdir=/home/srmcgrat/thesis/gaussian/cellobiose/320/6000/gaussian24480/
 Entering Link 1 = /usr/local/gaussian/g09/l1.exe PID=     24518.
  
 Copyright (c) 1988,1990,1992,1993,1995,1998,2003,2009,2010,
            Gaussian, Inc.  All Rights Reserved.
  
 This is part of the Gaussian(R) 09 program.  It is based on
 the Gaussian(R) 03 system (copyright 2003, Gaussian, Inc.),
 the Gaussian(R) 98 system (copyright 1998, Gaussian, Inc.),
 the Gaussian(R) 94 system (copyright 1995, Gaussian, Inc.),
 the Gaussian 92(TM) system (copyright 1992, Gaussian, Inc.),
 the Gaussian 90(TM) system (copyright 1990, Gaussian, Inc.),
 the Gaussian 88(TM) system (copyright 1988, Gaussian, Inc.),
 the Gaussian 86(TM) system (copyright 1986, Carnegie Mellon
 University), and the Gaussian 82(TM) system (copyright 1983,
 Carnegie Mellon University). Gaussian is a federally registered
 trademark of Gaussian, Inc.
  
 This software contains proprietary and confidential information,
 including trade secrets, belonging to Gaussian, Inc.
  
 This software is provided under written license and may be
 used, copied, transmitted, or stored only in accord with that
 written license.
  
 The following legend is applicable only to US Government
 contracts under FAR:
  
                    RESTRICTED RIGHTS LEGEND
  
 Use, reproduction and disclosure by the US Government is
 subject to restrictions as set forth in subparagraphs (a)
 and (c) of the Commercial Computer Software - Restricted
 Rights clause in FAR 52.227-19.
  
 Gaussian, Inc.
 340 Quinnipiac St., Bldg. 40, Wallingford CT 06492
  
  
 ---------------------------------------------------------------
 Warning -- This program may not be used in any manner that
 competes with the business of Gaussian, Inc. or will provide
 assistance to any competitor of Gaussian, Inc.  The licensee
 of this program is prohibited from giving any competitor of
 Gaussian, Inc. access to this program.  By using this program,
 the user acknowledges that Gaussian, Inc. is engaged in the
 business of creating and licensing software in the field of
 computational chemistry and represents and warrants to the
 licensee that it is not a competitor of Gaussian, Inc. and that
 it will not use this program in any manner prohibited above.
 ---------------------------------------------------------------
  

 Cite this work as:
 Gaussian 09, Revision B.01,
 M. J. Frisch, G. W. Trucks, H. B. Schlegel, G. E. Scuseria, 
 M. A. Robb, J. R. Cheeseman, G. Scalmani, V. Barone, B. Mennucci, 
 G. A. Petersson, H. Nakatsuji, M. Caricato, X. Li, H. P. Hratchian, 
 A. F. Izmaylov, J. Bloino, G. Zheng, J. L. Sonnenberg, M. Hada, 
 M. Ehara, K. Toyota, R. Fukuda, J. Hasegawa, M. Ishida, T. Nakajima, 
 Y. Honda, O. Kitao, H. Nakai, T. Vreven, J. A. Montgomery, Jr., 
 J. E. Peralta, F. Ogliaro, M. Bearpark, J. J. Heyd, E. Brothers, 
 K. N. Kudin, V. N. Staroverov, T. Keith, R. Kobayashi, J. Normand, 
 K. Raghavachari, A. Rendell, J. C. Burant, S. S. Iyengar, J. Tomasi, 
 M. Cossi, N. Rega, J. M. Millam, M. Klene, J. E. Knox, J. B. Cross, 
 V. Bakken, C. Adamo, J. Jaramillo, R. Gomperts, R. E. Stratmann, 
 O. Yazyev, A. J. Austin, R. Cammi, C. Pomelli, J. W. Ochterski, 
 R. L. Martin, K. Morokuma, V. G. Zakrzewski, G. A. Voth, 
 P. Salvador, J. J. Dannenberg, S. Dapprich, A. D. Daniels, 
 O. Farkas, J. B. Foresman, J. V. Ortiz, J. Cioslowski, 
 and D. J. Fox, Gaussian, Inc., Wallingford CT, 2010.
 
 ******************************************
 Gaussian 09:  EM64L-G09RevB.01 12-Aug-2010
                20-Jan-2016 
 ******************************************
 ------------------------------------------------
 # freq=raman b3lyp/6-31+g(d,p) geom=connectivity
 ------------------------------------------------
 1/10=4,30=1,38=1,57=2/1,3;
 2/12=2,17=6,18=5,40=1/2;
 3/5=1,6=6,7=111,11=2,16=1,25=1,30=1,71=2,74=-5/1,2,3;
 4//1;
 5/5=2,38=5,98=1/2;
 8/6=4,10=90,11=11/1;
 10/13=10,15=4/2;
 11/6=3,8=1,9=11,15=111,16=1/1,2,10;
 10/6=1/2;
 6/7=2,8=2,9=2,10=2,18=1,28=1/1;
 7/8=1,10=1,25=1/1,2,3,16;
 1/10=4,30=1/3;
 99//99;
 ------------
 320 6000.com
 ------------
 Symbolic Z-matrix:
 Charge =  0 Multiplicity = 1
 O                     7.754     7.444     12.332 
 C                     8.339     7.762     13.604 
 C                     7.755     9.091     14.053 
 O                     8.064     10.089    13.068 
 H                     7.918     9.691     12.162 
 C                     8.297     9.498     15.414 
 O                     7.689     10.699    15.912 
 H                     8.119     10.928    16.786 
 C                     8.04      5.321     14.226 
 O                     7.63      4.649     13.026 
 H                     7.396     3.7       13.236 
 C                     7.926     6.768     14.677 
 O                     8.489     7.079     15.959 
 C                     8.078     8.376     16.416 
 O                     8.873     8.801     17.532 
 C                     8.414     8.406     18.833 
 C                     8.875     7.022     19.261 
 O                     8.49      5.906     18.445 
 H                     8.592     6.281     17.523 
 C                     8.392     6.654     20.654 
 O                     9.223     5.585     21.129 
 H                     8.856     5.307     22.017 
 C                     8.213     10.778    19.691 
 O                     8.349     11.526    18.474 
 H                     8.183     12.494    18.662 
 C                     8.782     9.39      19.931 
 O                     8.214     9.058     21.206 
 C                     8.636     7.765     21.662 
 O                     7.84      7.565     22.839 
 H                     8.41554   7.43629   23.59648 
 H                     9.67244   7.79426   21.92626 
 H                     7.36232   6.36328   20.64227 
 H                     9.94449   7.04159   19.28771 
 H                     7.34539   8.37698   18.78674 
 H                     9.84686   9.44919   20.01746 
 H                     8.61505   11.39862   20.46436 
 H                     7.16141   10.70043   19.87278 
 H                     8.45017   7.28368   11.69072 
 H                     9.08812   5.11519   14.2891 
 H                     7.55527   4.77115   15.00549 
 H                     6.8751    6.9261    14.80155 
 H                     9.40476   7.82148   13.52972 
 H                     6.69168   8.9935    14.12189 
 H                     9.34949   9.66673   15.32071 
 H                     7.0471    8.34591   16.70101 
 

 GradGradGradGradGradGradGradGradGradGradGradGradGradGradGradGradGradGrad
 Berny optimization.
 Initialization pass.
 Trust Radius=3.00D-01 FncErr=1.00D-07 GrdErr=1.00D-07
 Number of steps in this run=      2 maximum allowed number of steps=      2.
 GradGradGradGradGradGradGradGradGradGradGradGradGradGradGradGradGradGrad

                          Input orientation:                          
 ---------------------------------------------------------------------
 Center     Atomic      Atomic             Coordinates (Angstroms)
 Number     Number       Type             X           Y           Z
 ---------------------------------------------------------------------
      1          8           0        7.754000    7.444000   12.332000
      2          6           0        8.339000    7.762000   13.604000
      3          6           0        7.755000    9.091000   14.053000
      4          8           0        8.064000   10.089000   13.068000
      5          1           0        7.918000    9.691000   12.162000
      6          6           0        8.297000    9.498000   15.414000
      7          8           0        7.689000   10.699000   15.912000
      8          1           0        8.119000   10.928000   16.786000
      9          6           0        8.040000    5.321000   14.226000
     10          8           0        7.630000    4.649000   13.026000
     11          1           0        7.396000    3.700000   13.236000
     12          6           0        7.926000    6.768000   14.677000
     13          8           0        8.489000    7.079000   15.959000
     14          6           0        8.078000    8.376000   16.416000
     15          8           0        8.873000    8.801000   17.532000
     16          6           0        8.414000    8.406000   18.833000
     17          6           0        8.875000    7.022000   19.261000
     18          8           0        8.490000    5.906000   18.445000
     19          1           0        8.592000    6.281000   17.523000
     20          6           0        8.392000    6.654000   20.654000
     21          8           0        9.223000    5.585000   21.129000
     22          1           0        8.856000    5.307000   22.017000
     23          6           0        8.213000   10.778000   19.691000
     24          8           0        8.349000   11.526000   18.474000
     25          1           0        8.183000   12.494000   18.662000
     26          6           0        8.782000    9.390000   19.931000
     27          8           0        8.214000    9.058000   21.206000
     28          6           0        8.636000    7.765000   21.662000
     29          8           0        7.840000    7.565000   22.839000
     30          1           0        8.415544    7.436286   23.596484
     31          1           0        9.672442    7.794258   21.926258
     32          1           0        7.362319    6.363279   20.642268
     33          1           0        9.944487    7.041591   19.287713
     34          1           0        7.345394    8.376978   18.786741
     35          1           0        9.846858    9.449188   20.017456
     36          1           0        8.615048   11.398625   20.464358
     37          1           0        7.161412   10.700429   19.872784
     38          1           0        8.450170    7.283679   11.690717
     39          1           0        9.088123    5.115194   14.289096
     40          1           0        7.555272    4.771146   15.005487
     41          1           0        6.875100    6.926103   14.801547
     42          1           0        9.404760    7.821482   13.529721
     43          1           0        6.691681    8.993500   14.121891
     44          1           0        9.349486    9.666728   15.320708
     45          1           0        7.047095    8.345913   16.701010
 ---------------------------------------------------------------------
                    Distance matrix (angstroms):
                    1          2          3          4          5
     1  O    0.000000
     2  C    1.435734   0.000000
     3  C    2.382111   1.519506   0.000000
     4  O    2.762937   2.403716   1.435866   0.000000
     5  H    2.259382   2.444922   1.990590   1.000278   0.000000
     6  C    3.743326   2.508298   1.520439   2.430491   3.279694
     7  O    4.838972   3.791482   2.458841   2.932757   3.889859
     8  H    5.666533   4.494116   3.313058   3.811885   4.790819
     9  C    2.859399   2.536684   3.784713   4.906665   4.834447
    10  O    2.882540   3.244616   4.560890   5.457446   5.123593
    11  H    3.868193   4.186229   5.464362   6.426023   6.108849
    12  C    2.446546   1.519847   2.411420   3.692826   3.856062
    13  O    3.718680   2.456627   2.867008   4.195069   4.643899
    14  C    4.201506   2.890062   2.489844   3.760807   4.455484
    15  O    5.489409   4.098031   3.665715   4.716007   5.526393
    16  C    6.604850   5.269042   4.873593   6.015830   6.811717
    17  C    7.031768   5.730318   5.714755   6.958266   7.644293
    18  O    6.346330   5.186793   5.474862   6.825767   7.357275
    19  H    5.385285   4.197134   4.542859   5.884443   6.389264
    20  C    8.383724   7.136734   7.065263   8.333919   9.031174
    21  O    9.110491   7.883299   8.032237   9.306397   9.948334
    22  H    9.978998   8.779116   8.885727  10.177396  10.826834
    23  C    8.092040   6.794387   5.902777   6.660409   7.612781
    24  O    7.398710   6.155055   5.082057   5.600985   6.587437
    25  H    8.108973   6.928169   5.745126   6.090240   7.083575
    26  C    7.911289   6.548096   5.974530   6.935769   7.822689
    27  O    9.031305   7.712694   7.167788   8.204420   9.070956
    28  C    9.377093   8.063472   7.773758   8.921042   9.719825
    29  O   10.508049   9.250569   8.917942  10.094216  10.886886
    30  H   11.283896   9.998084   9.708372  10.863216  11.665278
    31  H    9.790449   8.428469   8.206480   9.290945  10.100318
    32  H    8.389393   7.242067   7.142346   8.470117   9.126744
    33  H    7.303568   5.949888   6.032922   7.176891   7.867770
    34  H    6.534607   5.312838   4.804779   6.012604   6.778032
    35  H    8.213834   6.800930   6.330790   7.202977   8.092413
    36  H    9.083816   7.769540   6.868066   7.531592   8.504764
    37  H    8.235224   7.022730   6.067330   6.891560   7.813294
    38  H    0.960000   1.975298   3.054514   3.148946   2.510081
    39  H    3.321663   2.834806   4.199999   5.222897   5.179935
    40  H    3.785654   3.394643   4.428122   5.682625   5.694028
    41  H    2.671955   2.067812   2.453839   3.797708   3.962260
    42  H    2.074135   1.070000   2.146440   2.674409   2.752492
    43  H    2.594837   2.120958   1.070000   2.047942   2.414857
    44  H    4.051971   2.756113   2.116821   2.627828   3.468022
    45  H    4.516792   3.406089   2.840464   4.155864   4.813558
                    6          7          8          9         10
     6  C    0.000000
     7  O    1.435294   0.000000
     8  H    1.989716   1.000608   0.000000
     9  C    4.350255   5.647006   6.164275   0.000000
    10  O    5.446121   6.703356   7.335023   1.435160   0.000000
    11  H    6.258777   7.498855   8.085123   2.005611   0.999728
    12  C    2.851966   4.127245   4.668054   1.519936   2.702513
    13  O    2.487056   3.707642   3.954191   2.509074   3.904519
    14  C    1.520148   2.408665   2.579009   3.759065   5.057997
    15  O    2.302935   2.762003   2.376796   4.871748   6.252055
    16  C    3.591060   3.783611   3.261551   5.557117   6.960672
    17  C    4.611298   5.112996   4.685509   5.379763   6.786485
    18  O    4.703900   5.480013   5.301925   4.283070   5.628962
    19  H    3.857978   4.788471   4.728796   3.478004   4.879741
    20  C    5.962798   6.272384   5.770878   6.574190   7.923828
    21  O    6.987866   7.464800   6.973386   7.008609   8.310978
    22  H    7.840700   8.228401   7.713765   7.833628   9.098028
    23  C    4.465219   3.815974   2.910388   7.724960   9.073409
    24  O    3.671388   2.771890   1.805505   7.526155   8.802886
    25  H    4.420239   3.320928   2.444551   8.435074   9.675450
    26  C    4.544247   4.365832   3.563150   7.046584   8.454774
    27  O    5.809282   5.567310   4.800242   7.919334   9.310893
    28  C    6.492743   6.524390   5.835001   7.849997   9.235908
    29  O    7.686089   7.604478   6.930110   8.902770  10.239244
    30  H    8.439062   8.380004   7.659158   9.613607  10.959981
    31  H    6.870523   6.967271   6.217377   8.250809   9.658095
    32  H    6.167243   6.425001   6.023292   6.535602   7.811398
    33  H    4.873788   5.464366   4.969421   5.675248   7.091572
    34  H    3.679351   3.711332   3.333038   5.533700   6.867674
    35  H    4.857597   4.803452   3.951542   7.338094   8.765655
    36  H    5.405520   4.697978   3.741372   8.728420  10.092419
    37  H    4.755644   3.995768   3.239907   7.848334   9.149744
    38  H    4.334688   5.482976   6.273170   3.232338   3.065484
    39  H    4.593504   5.980824   6.400191   1.070000   1.984659
    40  H    4.802103   5.998258   6.433884   1.070000   1.984659
    41  H    3.001925   4.016253   4.636865   2.065092   2.984567
    42  H    2.754696   4.110863   4.680490   2.932539   3.669898
    43  H    2.121584   2.666059   3.588455   3.913573   4.577783
    44  H    1.070000   2.042652   2.291721   4.668886   5.779266
    45  H    2.132125   2.563512   2.797030   4.032572   5.245249
                   11         12         13         14         15
    11  H    0.000000
    12  C    3.430744   0.000000
    13  O    4.475156   1.434299   0.000000
    14  C    5.695832   2.373371   1.435263   0.000000
    15  O    6.830618   3.630554   2.363698   1.434610   0.000000
    16  C    7.383033   4.493721   3.166454   2.440427   1.435029
    17  C    7.037311   4.688088   3.324974   3.250008   2.480783
    18  O    5.761680   3.906272   2.748841   3.222962   3.059621
    19  H    5.144934   2.963181   1.758837   2.424597   2.535634
    20  C    8.046419   5.996222   4.715194   4.585251   3.819405
    21  O    8.318089   6.686554   5.431362   5.595809   4.837723
    22  H    9.045441   7.541553   6.322502   6.433914   5.685380
    23  C    9.614187   6.426715   5.261806   4.063675   3.000902
    24  O    9.465259   6.102024   5.110835   3.772440   2.930455
    25  H   10.363169   6.980928   6.059874   4.691851   3.923168
    26  C    8.894949   5.933981   4.604710   3.725458   2.471923
    27  O    9.638371   6.924947   5.614541   4.840219   3.741471
    28  C    9.437124   7.091427   5.745991   5.310857   4.264547
    29  O   10.361128   8.201271   6.927611   6.478371   5.546083
    30  H   11.060693   8.957871   7.646189   7.249576   6.232951
    31  H    9.872473   7.526952   6.125381   5.765727   4.578443
    32  H    7.870641   6.005494   4.869770   4.735460   4.230651
    33  H    7.367784   5.040617   3.633204   3.675753   2.706683
    34  H    7.258609   4.451503   3.314920   2.481355   2.021818
    35  H    9.222148   6.276857   4.892099   4.153441   2.747005
    36  H   10.630337   7.443855   6.242860   5.080736   3.925929
    37  H    9.649245   6.560851   5.494992   4.265262   3.466502
    38  H    4.042516   3.075478   4.273365   4.864152   6.049929
    39  H    2.444395   2.057369   2.646519   4.022055   4.914049
    40  H    2.074561   2.057369   2.665938   3.906119   4.935524
    41  H    3.623537   1.070000   1.991921   2.481054   3.868102
    42  H    4.594345   2.147744   2.700239   3.224653   4.154571
    43  H    5.413133   2.604715   3.204783   2.750659   4.052660
    44  H    6.615433   3.292916   2.800748   2.117150   2.422053
    45  H    5.806250   2.712729   2.057848   1.070000   2.057080
                   16         17         18         19         20
    16  C    0.000000
    17  C    1.520250   0.000000
    18  O    2.531071   1.435109   0.000000
    19  H    2.502680   1.910449   1.000556   0.000000
    20  C    2.527059   1.519593   2.334264   3.159476   0.000000
    21  O    3.726143   2.382330   2.800747   3.726367   1.434903
    22  H    4.465089   3.246093   3.640322   4.605910   1.971668
    23  C    2.530405   3.838057   5.036430   5.006683   4.238725
    24  O    3.141259   4.602397   5.621843   5.336054   5.337662
    25  H    4.098091   5.548013   6.598718   6.329769   6.173925
    26  C    1.519633   2.462717   3.798910   3.937060   2.856663
    27  O    2.469055   2.892273   4.199333   4.628078   2.472975
    28  C    2.909193   2.524672   3.718371   4.397217   1.519842
    29  O    4.133375   3.764061   4.741521   5.520328   2.430813
    30  H    4.861186   4.379401   5.374487   6.184903   3.044789
    31  H    3.395018   2.887195   4.133140   4.779747   2.135031
    32  H    2.924413   2.151748   2.511723   3.353911   1.070000
    33  H    2.100183   1.070000   2.028611   2.349879   2.104087
    34  H    1.070000   2.097756   2.744565   2.746669   2.747852
    35  H    2.131727   2.721759   4.107050   4.223078   3.214790
    36  H    3.414316   4.546481   5.853407   5.902728   4.753649
    37  H    2.813278   4.103840   5.175931   5.205710   4.300957
    38  H    7.230016   7.586709   6.893470   5.919545   8.985562
    39  H    5.650744   5.329274   4.272548   3.473238   6.585174
    40  H    5.347844   4.991735   3.740570   3.113252   6.012566
    41  H    4.561899   4.888304   4.113789   3.281800   6.051961
    42  H    5.426604   5.810970   5.354047   4.356597   7.289996
    43  H    5.050356   5.921498   5.608554   4.747253   7.143724
    44  H    3.847177   4.769238   4.964171   4.109384   6.199784
    45  H    2.533263   3.412848   3.328161   2.706708   4.505272
                   21         22         23         24         25
    21  O    0.000000
    22  H    1.000258   0.000000
    23  C    5.482262   5.979596   0.000000
    24  O    6.565697   7.175365   1.434953   0.000000
    25  H    7.409586   7.960020   2.001099   0.999962   0.000000
    26  C    4.013441   4.585604   1.519179   2.621609   3.406461
    27  O    3.617422   3.891001   2.292079   3.684165   4.275394
    28  C    2.319711   2.493229   3.625181   4.938708   5.618599
    29  O    2.959255   2.608928   4.513580   5.916234   6.469932
    30  H    3.188687   2.687495   5.144014   6.555153   7.069914
    31  H    2.391326   2.619401   4.003632   5.253140   5.912816
    32  H    2.074792   2.288383   4.595469   5.685826   6.494669
    33  H    2.456123   3.412128   4.137806   4.828833   5.763950
    34  H    4.099600   4.705451   2.708382   3.319845   4.203215
    35  H    4.068990   4.705071   2.131151   2.989813   3.725126
    36  H    5.882992   6.290998   1.070000   2.012096   2.152906
    37  H    5.656486   6.046351   1.070000   2.012096   2.393019
    38  H    9.621017  10.521601   8.733331   8.001278   8.707331
    39  H    6.857346   7.733768   7.874883   7.691434   8.624866
    40  H    6.398522   7.151248   7.646498   7.634700   8.567766
    41  H    6.880978   7.655601   6.366619   6.067812   6.900375
    42  H    7.923631   8.868915   6.937049   6.267693   7.047369
    43  H    8.192987   8.978157   6.042668   5.301049   5.923692
    44  H    7.100195   8.005691   4.650374   3.794880   4.529723
    45  H    5.653698   6.384895   4.026713   3.866704   4.726773
                   26         27         28         29         30
    26  C    0.000000
    27  O    1.434738   0.000000
    28  C    2.378719   1.434527   0.000000
    29  O    3.560120   2.244017   1.434902   0.000000
    30  H    4.169780   2.895685   1.974559   0.960000   0.000000
    31  H    2.705612   2.059822   1.070000   2.059976   2.120753
    32  H    3.417958   2.881784   2.151032   2.549107   3.314818
    33  H    2.698188   3.277242   2.805833   4.161065   4.589004
    34  H    2.097470   2.659151   3.210498   4.162301   5.016349
    35  H    1.070000   2.057156   2.647110   3.941923   4.348549
    36  H    2.084926   2.487850   3.825966   4.575621   5.054715
    37  H    2.084926   2.362833   3.740648   4.369191   5.108172
    38  H    8.511696   9.682180   9.984623  11.168513  11.906796
    39  H    7.085109   8.009580   7.847650   8.981104   9.615992
    40  H    6.862897   7.566862   7.378367   8.321696   9.035943
    41  H    6.001528   6.881472   7.132344   8.120337   8.943387
    42  H    6.620004   7.865885   8.168729   9.443354  10.122581
    43  H    6.186469   7.246118   7.883073   8.907707   9.755231
    44  H    4.653323   6.024662   6.658650   7.951134   8.621810
    45  H    3.812197   4.707831   5.241517   6.238065   7.088557
                   31         32         33         34         35
    31  H    0.000000
    32  H    3.005495   0.000000
    33  H    2.757251   2.993747   0.000000
    34  H    3.951111   2.738293   2.964711   0.000000
    35  H    2.532339   4.010755   2.517654   2.986907   0.000000
    36  H    4.030719   5.191887   4.704854   3.681952   2.348911
    37  H    4.355210   4.409460   4.634103   2.571335   2.966168
    38  H   10.320898   9.064261   7.746350   7.264254   8.716350
    39  H    8.114497   6.700665   5.424992   5.822813   7.223108
    40  H    7.843385   5.860496   5.403770   5.229145   7.228781
    41  H    7.703267   5.887969   5.436926   4.267081   6.511759
    42  H    8.400846   7.542297   5.835581   5.673254   6.703400
    43  H    8.439862   7.062799   6.409089   4.750607   6.702274
    44  H    6.873408   6.571196   4.794007   4.206332   4.728017
    45  H    5.873669   4.423090   4.097215   2.107183   4.478247
                   36         37         38         39         40
    36  H    0.000000
    37  H    1.717700   0.000000
    38  H    9.692097   8.959983   0.000000
    39  H    8.822651   8.129246   3.443964   0.000000
    40  H    8.651351   7.681283   4.254570   1.726620   0.000000
    41  H    7.422823   6.328108   3.505135   2.905077   2.268935
    42  H    7.842753   7.318155   2.140657   2.828587   3.860445
    43  H    7.050593   6.017228   3.453459   4.562034   4.399409
    44  H    5.476861   5.155347   4.434470   4.674291   5.223533
    45  H    5.093163   3.951830   5.310367   4.518924   3.988985
                   41         42         43         44         45
    41  H    0.000000
    42  H    2.969583   0.000000
    43  H    2.183965   3.014148   0.000000
    44  H    3.728692   2.572085   2.992378   0.000000
    45  H    2.377688   3.986312   2.682824   2.991787   0.000000
 Stoichiometry    C12H22O11
 Framework group  C1[X(C12H22O11)]
 Deg. of freedom   129
 Full point group                 C1      NOp   1
 Largest Abelian subgroup         C1      NOp   1
 Largest concise Abelian subgroup C1      NOp   1
                         Standard orientation:                         
 ---------------------------------------------------------------------
 Center     Atomic      Atomic             Coordinates (Angstroms)
 Number     Number       Type             X           Y           Z
 ---------------------------------------------------------------------
      1          8           0        5.031101   -0.254204   -0.165979
      2          6           0        3.701844   -0.040186    0.332626
      3          6           0        3.206419    1.275098   -0.244851
      4          8           0        4.096636    2.324885    0.164015
      5          1           0        5.035723    1.992409    0.073837
      6          6           0        1.785619    1.573452    0.206866
      7          8           0        1.251855    2.758660   -0.401777
      8          1           0        0.335794    2.915252   -0.030930
      9          6           0        3.270278   -2.505507   -0.080541
     10          8           0        4.539446   -3.083120   -0.420043
     11          1           0        4.411748   -4.035565   -0.695720
     12          6           0        2.731223   -1.088311   -0.186278
     13          8           0        1.394065   -0.881199    0.289460
     14          6           0        0.880482    0.395891   -0.117053
     15          8           0       -0.315833    0.719892    0.605416
     16          6           0       -1.550789    0.255673    0.040889
     17          6           0       -1.915545   -1.168048    0.429650
     18          8           0       -1.000094   -2.214539    0.074203
     19          1           0       -0.115394   -1.783315    0.254383
     20          6           0       -3.242172   -1.610592   -0.164805
     21          8           0       -3.701583   -2.735569    0.598291
     22          1           0       -4.540093   -3.059005    0.159193
     23          6           0       -2.551545    2.571480   -0.155256
     24          8           0       -1.401084    3.392960    0.091121
     25          1           0       -1.642128    4.351485   -0.060705
     26          6           0       -2.736670    1.152542    0.354889
     27          8           0       -3.942242    0.756488   -0.314595
     28          6           0       -4.338261   -0.577024    0.035811
     29          8           0       -5.438982   -0.827407   -0.850002
     30          1           0       -6.225177   -1.024735   -0.335649
     31          1           0       -4.677345   -0.599704    1.050409
     32          1           0       -3.137082   -1.865497   -1.198671
     33          1           0       -2.019950   -1.185845    1.494396
     34          1           0       -1.426355    0.265321   -1.021807
     35          1           0       -2.902888    1.170459    1.411748
     36          1           0       -3.392090    3.126181    0.206255
     37          1           0       -2.651956    2.517148   -1.219148
     38          1           0        5.630366   -0.395073    0.570660
     39          1           0        3.146525   -2.749771    0.953829
     40          1           0        2.566660   -3.089005   -0.636736
     41          1           0        2.671692   -0.903868   -1.238579
     42          1           0        3.695492   -0.011435    1.402221
     43          1           0        3.220545    1.208706   -1.312696
     44          1           0        1.791707    1.712844    1.267730
     45          1           0        0.672640    0.381437   -1.166573
 ---------------------------------------------------------------------
 Rotational constants (GHZ):      0.4075157      0.1438927      0.1091066
 Standard basis: 6-31+G(d,p) (6D, 7F)
 There are   547 symmetry adapted basis functions of A   symmetry.
 Integral buffers will be    131072 words long.
 Raffenetti 2 integral format.
 Two-electron integral symmetry is turned on.
   547 basis functions,   890 primitive gaussians,   547 cartesian basis functions
    91 alpha electrons       91 beta electrons
       nuclear repulsion energy      2282.2240866709 Hartrees.
 NAtoms=   45 NActive=   45 NUniq=   45 SFac= 1.00D+00 NAtFMM=   50 NAOKFM=F Big=F
 One-electron integrals computed using PRISM.
 NBasis=   547 RedAO= T  NBF=   547
 NBsUse=   547 1.00D-06 NBFU=   547
 Harris functional with IExCor=  402 diagonalized for initial guess.
 ExpMin= 4.38D-02 ExpMax= 5.48D+03 ExpMxC= 8.25D+02 IAcc=2 IRadAn=         0 AccDes= 0.00D+00
 HarFok:  IExCor=  402 AccDes= 0.00D+00 IRadAn=         0 IDoV= 1
 ScaDFX=  1.000000  1.000000  1.000000  1.000000
 FoFCou: FMM=F IPFlag=           0 FMFlag=      100000 FMFlg1=           0
         NFxFlg=           0 DoJE=T BraDBF=F KetDBF=T FulRan=T
         Omega=  0.000000  0.000000  1.000000  0.000000  0.000000 ICntrl=     500 IOpCl=  0
         NMat0=    1 NMatS0=    1 NMatT0=    0 NMatD0=    1 NMtDS0=    0 NMtDT0=    0
         I1Cent=           4 NGrid=           0.
 Petite list used in FoFCou.
 Initial guess orbital symmetries:
       Occupied  (A) (A) (A) (A) (A) (A) (A) (A) (A) (A) (A) (A)
                 (A) (A) (A) (A) (A) (A) (A) (A) (A) (A) (A) (A)
                 (A) (A) (A) (A) (A) (A) (A) (A) (A) (A) (A) (A)
                 (A) (A) (A) (A) (A) (A) (A) (A) (A) (A) (A) (A)
                 (A) (A) (A) (A) (A) (A) (A) (A) (A) (A) (A) (A)
                 (A) (A) (A) (A) (A) (A) (A) (A) (A) (A) (A) (A)
                 (A) (A) (A) (A) (A) (A) (A) (A) (A) (A) (A) (A)
                 (A) (A) (A) (A) (A) (A) (A)
       Virtual   (A) (A) (A) (A) (A) (A) (A) (A) (A) (A) (A) (A)
                 (A) (A) (A) (A) (A) (A) (A) (A) (A) (A) (A) (A)
                 (A) (A) (A) (A) (A) (A) (A) (A) (A) (A) (A) (A)
                 (A) (A) (A) (A) (A) (A) (A) (A) (A) (A) (A) (A)
                 (A) (A) (A) (A) (A) (A) (A) (A) (A) (A) (A) (A)
                 (A) (A) (A) (A) (A) (A) (A) (A) (A) (A) (A) (A)
                 (A) (A) (A) (A) (A) (A) (A) (A) (A) (A) (A) (A)
                 (A) (A) (A) (A) (A) (A) (A) (A) (A) (A) (A) (A)
                 (A) (A) (A) (A) (A) (A) (A) (A) (A) (A) (A) (A)
                 (A) (A) (A) (A) (A) (A) (A) (A) (A) (A) (A) (A)
                 (A) (A) (A) (A) (A) (A) (A) (A) (A) (A) (A) (A)
                 (A) (A) (A) (A) (A) (A) (A) (A) (A) (A) (A) (A)
                 (A) (A) (A) (A) (A) (A) (A) (A) (A) (A) (A) (A)
                 (A) (A) (A) (A) (A) (A) (A) (A) (A) (A) (A) (A)
                 (A) (A) (A) (A) (A) (A) (A) (A) (A) (A) (A) (A)
                 (A) (A) (A) (A) (A) (A) (A) (A) (A) (A) (A) (A)
                 (A) (A) (A) (A) (A) (A) (A) (A) (A) (A) (A) (A)
                 (A) (A) (A) (A) (A) (A) (A) (A) (A) (A) (A) (A)
                 (A) (A) (A) (A) (A) (A) (A) (A) (A) (A) (A) (A)
                 (A) (A) (A) (A) (A) (A) (A) (A) (A) (A) (A) (A)
                 (A) (A) (A) (A) (A) (A) (A) (A) (A) (A) (A) (A)
                 (A) (A) (A) (A) (A) (A) (A) (A) (A) (A) (A) (A)
                 (A) (A) (A) (A) (A) (A) (A) (A) (A) (A) (A) (A)
                 (A) (A) (A) (A) (A) (A) (A) (A) (A) (A) (A) (A)
                 (A) (A) (A) (A) (A) (A) (A) (A) (A) (A) (A) (A)
                 (A) (A) (A) (A) (A) (A) (A) (A) (A) (A) (A) (A)
                 (A) (A) (A) (A) (A) (A) (A) (A) (A) (A) (A) (A)
                 (A) (A) (A) (A) (A) (A) (A) (A) (A) (A) (A) (A)
                 (A) (A) (A) (A) (A) (A) (A) (A) (A) (A) (A) (A)
                 (A) (A) (A) (A) (A) (A) (A) (A) (A) (A) (A) (A)
                 (A) (A) (A) (A) (A) (A) (A) (A) (A) (A) (A) (A)
                 (A) (A) (A) (A) (A) (A) (A) (A) (A) (A) (A) (A)
                 (A) (A) (A) (A) (A) (A) (A) (A) (A) (A) (A) (A)
                 (A) (A) (A) (A) (A) (A) (A) (A) (A) (A) (A) (A)
                 (A) (A) (A) (A) (A) (A) (A) (A) (A) (A) (A) (A)
                 (A) (A) (A) (A) (A) (A) (A) (A) (A) (A) (A) (A)
                 (A) (A) (A) (A) (A) (A) (A) (A) (A) (A) (A) (A)
                 (A) (A) (A) (A) (A) (A) (A) (A) (A) (A) (A) (A)
 The electronic state of the initial guess is 1-A.
 Requested convergence on RMS density matrix=1.00D-08 within 128 cycles.
 Requested convergence on MAX density matrix=1.00D-06.
 Requested convergence on             energy=1.00D-06.
 No special actions if energy rises.
 SCF Done:  E(RB3LYP) =  -1297.92238125     A.U. after   14 cycles
             Convg  =    0.3332D-08             -V/T =  2.0087
 Range of M.O.s used for correlation:     1   547
 NBasis=   547 NAE=    91 NBE=    91 NFC=     0 NFV=     0
 NROrb=    547 NOA=    91 NOB=    91 NVA=   456 NVB=   456

 **** Warning!!: The largest alpha MO coefficient is  0.65588928D+02

          Differentiating once with respect to electric field.
                with respect to dipole field.
          Electric field/nuclear overlap derivatives assumed to be zero.
          There are     3 degrees of freedom in the 1st order CPHF.  IDoFFX=0.
      3 vectors produced by pass  0 Test12= 1.38D-12 3.33D-08 XBig12= 1.19D+02 1.30D+00.
 AX will form     3 AO Fock derivatives at one time.
      3 vectors produced by pass  1 Test12= 1.38D-12 3.33D-08 XBig12= 2.11D+01 3.96D-01.
      3 vectors produced by pass  2 Test12= 1.38D-12 3.33D-08 XBig12= 8.91D+00 2.57D-01.
      3 vectors produced by pass  3 Test12= 1.38D-12 3.33D-08 XBig12= 8.54D-01 8.82D-02.
      3 vectors produced by pass  4 Test12= 1.38D-12 3.33D-08 XBig12= 2.30D-01 3.57D-02.
      3 vectors produced by pass  5 Test12= 1.38D-12 3.33D-08 XBig12= 5.56D-02 2.00D-02.
      3 vectors produced by pass  6 Test12= 1.38D-12 3.33D-08 XBig12= 1.59D-02 1.60D-02.
      3 vectors produced by pass  7 Test12= 1.38D-12 3.33D-08 XBig12= 1.90D-03 9.49D-03.
      3 vectors produced by pass  8 Test12= 1.38D-12 3.33D-08 XBig12= 4.34D-04 2.75D-03.
      3 vectors produced by pass  9 Test12= 1.38D-12 3.33D-08 XBig12= 1.27D-04 1.65D-03.
      3 vectors produced by pass 10 Test12= 1.38D-12 3.33D-08 XBig12= 2.49D-05 5.55D-04.
      3 vectors produced by pass 11 Test12= 1.38D-12 3.33D-08 XBig12= 5.21D-06 3.83D-04.
      3 vectors produced by pass 12 Test12= 1.38D-12 3.33D-08 XBig12= 7.55D-07 1.14D-04.
      3 vectors produced by pass 13 Test12= 1.38D-12 3.33D-08 XBig12= 2.93D-07 4.78D-05.
      3 vectors produced by pass 14 Test12= 1.38D-12 3.33D-08 XBig12= 2.75D-08 1.90D-05.
      3 vectors produced by pass 15 Test12= 1.38D-12 3.33D-08 XBig12= 6.07D-09 6.82D-06.
      3 vectors produced by pass 16 Test12= 1.38D-12 3.33D-08 XBig12= 6.85D-10 3.20D-06.
      3 vectors produced by pass 17 Test12= 1.38D-12 3.33D-08 XBig12= 8.23D-11 7.62D-07.
      3 vectors produced by pass 18 Test12= 1.38D-12 3.33D-08 XBig12= 2.83D-11 3.60D-07.
      3 vectors produced by pass 19 Test12= 1.38D-12 3.33D-08 XBig12= 9.83D-12 2.31D-07.
      3 vectors produced by pass 20 Test12= 1.38D-12 3.33D-08 XBig12= 2.42D-12 1.36D-07.
      2 vectors produced by pass 21 Test12= 1.38D-12 3.33D-08 XBig12= 1.11D-12 7.65D-08.
 Inverted reduced A of dimension    65 with in-core refinement.
 End of Minotr Frequency-dependent properties file   721 does not exist.
 End of Minotr Frequency-dependent properties file   722 does not exist.
 Symmetrizing basis deriv contribution to polar:
 IMax=3 JMax=2 DiffMx= 0.00D+00
 G2DrvN: will do    23 centers at a time, making    2 passes doing MaxLOS=2.
 Calling FoFCou, ICntrl=  3107 FMM=F I1Cent=   0 AccDes= 0.00D+00.
 Calling FoFCou, ICntrl=  3107 FMM=F I1Cent=   0 AccDes= 0.00D+00.
 FoFDir/FoFCou used for L=0 through L=2.
 End of G2Drv Frequency-dependent properties file   721 does not exist.
 End of G2Drv Frequency-dependent properties file   722 does not exist.
          IDoAtm=111111111111111111111111111111111111111111111
          Differentiating once with respect to electric field.
                with respect to dipole field.
          Differentiating once with respect to nuclear coordinates.
          There are   138 degrees of freedom in the 1st order CPHF.  IDoFFX=5.
 Will reuse    3 saved solutions.
    135 vectors produced by pass  0 Test12= 4.15D-14 1.00D-09 XBig12= 2.38D-01 1.20D-01.
 AX will form    68 AO Fock derivatives at one time.
    135 vectors produced by pass  1 Test12= 4.15D-14 1.00D-09 XBig12= 3.66D-02 1.55D-02.
    132 vectors produced by pass  2 Test12= 4.15D-14 1.00D-09 XBig12= 3.02D-04 2.68D-03.
    132 vectors produced by pass  3 Test12= 4.15D-14 1.00D-09 XBig12= 8.00D-07 8.97D-05.
    132 vectors produced by pass  4 Test12= 4.15D-14 1.00D-09 XBig12= 1.33D-09 2.36D-06.
    132 vectors produced by pass  5 Test12= 4.15D-14 1.00D-09 XBig12= 3.82D-12 1.59D-07.
     80 vectors produced by pass  6 Test12= 4.15D-14 1.00D-09 XBig12= 1.26D-13 2.28D-08.
      1 vectors produced by pass  7 Test12= 4.15D-14 1.00D-09 XBig12= 1.49D-16 1.07D-09.
 Inverted reduced A of dimension   879 with in-core refinement.
 Isotropic polarizability for W=    0.000000      187.54 Bohr**3.
 End of Minotr Frequency-dependent properties file   721 does not exist.
 End of Minotr Frequency-dependent properties file   722 does not exist.

 **********************************************************************

            Population analysis using the SCF density.

 **********************************************************************

 Orbital symmetries:
       Occupied  (A) (A) (A) (A) (A) (A) (A) (A) (A) (A) (A) (A)
                 (A) (A) (A) (A) (A) (A) (A) (A) (A) (A) (A) (A)
                 (A) (A) (A) (A) (A) (A) (A) (A) (A) (A) (A) (A)
                 (A) (A) (A) (A) (A) (A) (A) (A) (A) (A) (A) (A)
                 (A) (A) (A) (A) (A) (A) (A) (A) (A) (A) (A) (A)
                 (A) (A) (A) (A) (A) (A) (A) (A) (A) (A) (A) (A)
                 (A) (A) (A) (A) (A) (A) (A) (A) (A) (A) (A) (A)
                 (A) (A) (A) (A) (A) (A) (A)
       Virtual   (A) (A) (A) (A) (A) (A) (A) (A) (A) (A) (A) (A)
                 (A) (A) (A) (A) (A) (A) (A) (A) (A) (A) (A) (A)
                 (A) (A) (A) (A) (A) (A) (A) (A) (A) (A) (A) (A)
                 (A) (A) (A) (A) (A) (A) (A) (A) (A) (A) (A) (A)
                 (A) (A) (A) (A) (A) (A) (A) (A) (A) (A) (A) (A)
                 (A) (A) (A) (A) (A) (A) (A) (A) (A) (A) (A) (A)
                 (A) (A) (A) (A) (A) (A) (A) (A) (A) (A) (A) (A)
                 (A) (A) (A) (A) (A) (A) (A) (A) (A) (A) (A) (A)
                 (A) (A) (A) (A) (A) (A) (A) (A) (A) (A) (A) (A)
                 (A) (A) (A) (A) (A) (A) (A) (A) (A) (A) (A) (A)
                 (A) (A) (A) (A) (A) (A) (A) (A) (A) (A) (A) (A)
                 (A) (A) (A) (A) (A) (A) (A) (A) (A) (A) (A) (A)
                 (A) (A) (A) (A) (A) (A) (A) (A) (A) (A) (A) (A)
                 (A) (A) (A) (A) (A) (A) (A) (A) (A) (A) (A) (A)
                 (A) (A) (A) (A) (A) (A) (A) (A) (A) (A) (A) (A)
                 (A) (A) (A) (A) (A) (A) (A) (A) (A) (A) (A) (A)
                 (A) (A) (A) (A) (A) (A) (A) (A) (A) (A) (A) (A)
                 (A) (A) (A) (A) (A) (A) (A) (A) (A) (A) (A) (A)
                 (A) (A) (A) (A) (A) (A) (A) (A) (A) (A) (A) (A)
                 (A) (A) (A) (A) (A) (A) (A) (A) (A) (A) (A) (A)
                 (A) (A) (A) (A) (A) (A) (A) (A) (A) (A) (A) (A)
                 (A) (A) (A) (A) (A) (A) (A) (A) (A) (A) (A) (A)
                 (A) (A) (A) (A) (A) (A) (A) (A) (A) (A) (A) (A)
                 (A) (A) (A) (A) (A) (A) (A) (A) (A) (A) (A) (A)
                 (A) (A) (A) (A) (A) (A) (A) (A) (A) (A) (A) (A)
                 (A) (A) (A) (A) (A) (A) (A) (A) (A) (A) (A) (A)
                 (A) (A) (A) (A) (A) (A) (A) (A) (A) (A) (A) (A)
                 (A) (A) (A) (A) (A) (A) (A) (A) (A) (A) (A) (A)
                 (A) (A) (A) (A) (A) (A) (A) (A) (A) (A) (A) (A)
                 (A) (A) (A) (A) (A) (A) (A) (A) (A) (A) (A) (A)
                 (A) (A) (A) (A) (A) (A) (A) (A) (A) (A) (A) (A)
                 (A) (A) (A) (A) (A) (A) (A) (A) (A) (A) (A) (A)
                 (A) (A) (A) (A) (A) (A) (A) (A) (A) (A) (A) (A)
                 (A) (A) (A) (A) (A) (A) (A) (A) (A) (A) (A) (A)
                 (A) (A) (A) (A) (A) (A) (A) (A) (A) (A) (A) (A)
                 (A) (A) (A) (A) (A) (A) (A) (A) (A) (A) (A) (A)
                 (A) (A) (A) (A) (A) (A) (A) (A) (A) (A) (A) (A)
                 (A) (A) (A) (A) (A) (A) (A) (A) (A) (A) (A) (A)
 The electronic state is 1-A.
 Alpha  occ. eigenvalues --  -19.20849 -19.19805 -19.19108 -19.19036 -19.18899
 Alpha  occ. eigenvalues --  -19.18205 -19.17350 -19.17138 -19.15264 -19.14872
 Alpha  occ. eigenvalues --  -19.14203 -10.31487 -10.30848 -10.27025 -10.26769
 Alpha  occ. eigenvalues --  -10.26239 -10.25615 -10.25269 -10.25083 -10.24887
 Alpha  occ. eigenvalues --  -10.24514 -10.24496 -10.24215  -1.10687  -1.09443
 Alpha  occ. eigenvalues --   -1.05971  -1.05231  -1.04646  -1.03919  -1.03146
 Alpha  occ. eigenvalues --   -1.02879  -1.01552  -1.00987  -0.99795  -0.82604
 Alpha  occ. eigenvalues --   -0.81239  -0.79276  -0.78436  -0.72258  -0.70183
 Alpha  occ. eigenvalues --   -0.67508  -0.65213  -0.63367  -0.62976  -0.61529
 Alpha  occ. eigenvalues --   -0.60526  -0.56615  -0.55905  -0.55230  -0.55112
 Alpha  occ. eigenvalues --   -0.54071  -0.53461  -0.52651  -0.52516  -0.51920
 Alpha  occ. eigenvalues --   -0.50805  -0.50061  -0.49566  -0.48796  -0.46726
 Alpha  occ. eigenvalues --   -0.45889  -0.45327  -0.44391  -0.43933  -0.43445
 Alpha  occ. eigenvalues --   -0.42596  -0.42117  -0.41287  -0.40180  -0.39842
 Alpha  occ. eigenvalues --   -0.39158  -0.38171  -0.37450  -0.37107  -0.35944
 Alpha  occ. eigenvalues --   -0.35365  -0.35131  -0.34101  -0.33835  -0.33303
 Alpha  occ. eigenvalues --   -0.33020  -0.31296  -0.30878  -0.30440  -0.30357
 Alpha  occ. eigenvalues --   -0.29668  -0.28841  -0.28392  -0.27493  -0.26720
 Alpha  occ. eigenvalues --   -0.26576
 Alpha virt. eigenvalues --   -0.02334  -0.02059  -0.01921  -0.00496   0.00390
 Alpha virt. eigenvalues --    0.01185   0.01735   0.02424   0.02993   0.03528
 Alpha virt. eigenvalues --    0.03848   0.04293   0.04735   0.05225   0.05529
 Alpha virt. eigenvalues --    0.06011   0.06587   0.07127   0.07563   0.07909
 Alpha virt. eigenvalues --    0.08576   0.08771   0.09013   0.09466   0.09821
 Alpha virt. eigenvalues --    0.10334   0.11016   0.11391   0.11849   0.12416
 Alpha virt. eigenvalues --    0.12445   0.12711   0.12863   0.13298   0.13351
 Alpha virt. eigenvalues --    0.14178   0.14503   0.14508   0.14809   0.15114
 Alpha virt. eigenvalues --    0.16089   0.16283   0.16689   0.16965   0.17144
 Alpha virt. eigenvalues --    0.17289   0.17484   0.17771   0.18328   0.18485
 Alpha virt. eigenvalues --    0.18750   0.19184   0.19382   0.19459   0.19957
 Alpha virt. eigenvalues --    0.20447   0.20774   0.21199   0.21368   0.21691
 Alpha virt. eigenvalues --    0.22038   0.22328   0.22451   0.23072   0.23281
 Alpha virt. eigenvalues --    0.23754   0.24013   0.24433   0.24507   0.24762
 Alpha virt. eigenvalues --    0.25008   0.25128   0.25759   0.25840   0.26299
 Alpha virt. eigenvalues --    0.26430   0.26827   0.26880   0.27090   0.27260
 Alpha virt. eigenvalues --    0.27444   0.27737   0.28248   0.28649   0.28884
 Alpha virt. eigenvalues --    0.29132   0.29779   0.30246   0.30574   0.30929
 Alpha virt. eigenvalues --    0.31201   0.31529   0.31720   0.32080   0.32732
 Alpha virt. eigenvalues --    0.33054   0.33110   0.33380   0.33468   0.34056
 Alpha virt. eigenvalues --    0.34312   0.34747   0.35242   0.35696   0.36092
 Alpha virt. eigenvalues --    0.36386   0.36502   0.37080   0.37426   0.37862
 Alpha virt. eigenvalues --    0.38359   0.38497   0.38864   0.39144   0.39335
 Alpha virt. eigenvalues --    0.39693   0.40329   0.40951   0.41147   0.41589
 Alpha virt. eigenvalues --    0.41915   0.42773   0.43331   0.43695   0.44114
 Alpha virt. eigenvalues --    0.44389   0.44995   0.45456   0.46704   0.47412
 Alpha virt. eigenvalues --    0.47643   0.48085   0.48756   0.49466   0.50325
 Alpha virt. eigenvalues --    0.51034   0.51471   0.53283   0.62830   0.63934
 Alpha virt. eigenvalues --    0.65670   0.67197   0.67845   0.68916   0.70359
 Alpha virt. eigenvalues --    0.70887   0.71844   0.72809   0.73276   0.74764
 Alpha virt. eigenvalues --    0.75181   0.76524   0.77226   0.78011   0.78993
 Alpha virt. eigenvalues --    0.79218   0.81046   0.81200   0.82176   0.83792
 Alpha virt. eigenvalues --    0.84876   0.86135   0.86457   0.88477   0.89219
 Alpha virt. eigenvalues --    0.90019   0.91862   0.92791   0.93472   0.94404
 Alpha virt. eigenvalues --    0.95487   0.97065   0.98507   0.99602   1.00222
 Alpha virt. eigenvalues --    1.00788   1.02137   1.02766   1.04046   1.04297
 Alpha virt. eigenvalues --    1.04977   1.05544   1.06558   1.07340   1.07676
 Alpha virt. eigenvalues --    1.08135   1.08500   1.08909   1.09806   1.10502
 Alpha virt. eigenvalues --    1.12057   1.12620   1.13352   1.13708   1.15559
 Alpha virt. eigenvalues --    1.16086   1.18067   1.18644   1.20550   1.21668
 Alpha virt. eigenvalues --    1.23057   1.23655   1.23992   1.24765   1.25160
 Alpha virt. eigenvalues --    1.25864   1.26191   1.27166   1.27710   1.28910
 Alpha virt. eigenvalues --    1.29172   1.30154   1.30505   1.31218   1.31849
 Alpha virt. eigenvalues --    1.32117   1.33034   1.33234   1.33995   1.34576
 Alpha virt. eigenvalues --    1.35006   1.35406   1.36725   1.37625   1.37723
 Alpha virt. eigenvalues --    1.38163   1.39212   1.40632   1.42552   1.43864
 Alpha virt. eigenvalues --    1.44363   1.45089   1.46539   1.47313   1.48066
 Alpha virt. eigenvalues --    1.48840   1.49519   1.49942   1.51543   1.52120
 Alpha virt. eigenvalues --    1.52540   1.55023   1.56039   1.56463   1.56870
 Alpha virt. eigenvalues --    1.58397   1.59252   1.59838   1.60371   1.60869
 Alpha virt. eigenvalues --    1.61570   1.62559   1.63229   1.64553   1.65164
 Alpha virt. eigenvalues --    1.65365   1.66449   1.67827   1.68166   1.69716
 Alpha virt. eigenvalues --    1.70438   1.71254   1.72375   1.72867   1.73090
 Alpha virt. eigenvalues --    1.74134   1.75692   1.76034   1.76520   1.77837
 Alpha virt. eigenvalues --    1.78441   1.79234   1.80489   1.81408   1.81888
 Alpha virt. eigenvalues --    1.82532   1.84095   1.85133   1.86419   1.86601
 Alpha virt. eigenvalues --    1.87584   1.88623   1.89185   1.90295   1.90757
 Alpha virt. eigenvalues --    1.91090   1.91760   1.93316   1.94329   1.94523
 Alpha virt. eigenvalues --    1.95005   1.96323   1.96692   1.97735   1.98433
 Alpha virt. eigenvalues --    1.99724   2.00796   2.01242   2.02316   2.02757
 Alpha virt. eigenvalues --    2.03442   2.03785   2.04374   2.05296   2.05726
 Alpha virt. eigenvalues --    2.07006   2.07734   2.09407   2.10645   2.11760
 Alpha virt. eigenvalues --    2.12728   2.13594   2.14090   2.15517   2.15687
 Alpha virt. eigenvalues --    2.17001   2.17708   2.17955   2.19443   2.20005
 Alpha virt. eigenvalues --    2.21621   2.23055   2.24222   2.26266   2.26779
 Alpha virt. eigenvalues --    2.29911   2.30602   2.32173   2.32468   2.33938
 Alpha virt. eigenvalues --    2.35385   2.37384   2.38803   2.39372   2.40345
 Alpha virt. eigenvalues --    2.41274   2.41928   2.43202   2.43979   2.46059
 Alpha virt. eigenvalues --    2.47019   2.47706   2.47952   2.48442   2.49668
 Alpha virt. eigenvalues --    2.50501   2.51277   2.52452   2.55242   2.55963
 Alpha virt. eigenvalues --    2.56847   2.57717   2.58344   2.59110   2.60536
 Alpha virt. eigenvalues --    2.61874   2.62333   2.63025   2.63204   2.64450
 Alpha virt. eigenvalues --    2.66396   2.67355   2.68221   2.69195   2.70135
 Alpha virt. eigenvalues --    2.71095   2.71333   2.72629   2.73484   2.74425
 Alpha virt. eigenvalues --    2.75926   2.76669   2.77132   2.79322   2.81290
 Alpha virt. eigenvalues --    2.82057   2.82407   2.83324   2.85152   2.85791
 Alpha virt. eigenvalues --    2.86804   2.87451   2.88700   2.89515   2.89902
 Alpha virt. eigenvalues --    2.90866   2.91632   2.92663   2.93169   2.94462
 Alpha virt. eigenvalues --    2.95286   2.95970   2.98054   2.99456   3.00289
 Alpha virt. eigenvalues --    3.01383   3.02323   3.03224   3.05776   3.06598
 Alpha virt. eigenvalues --    3.07859   3.08525   3.08843   3.10646   3.13942
 Alpha virt. eigenvalues --    3.17816   3.19559   3.24891   3.26381   3.29200
 Alpha virt. eigenvalues --    3.32691   3.36897   3.38109   3.39608   3.41015
 Alpha virt. eigenvalues --    3.43070   3.44191   3.46785   3.47344   3.49517
 Alpha virt. eigenvalues --    3.50060   3.50554   3.52701   3.53714   3.54421
 Alpha virt. eigenvalues --    3.55766   3.57752   3.59683   3.62002   3.64843
 Alpha virt. eigenvalues --    3.64922   3.67993   3.73187   4.28763   4.33060
 Alpha virt. eigenvalues --    4.34310   4.35668   4.41785   4.43636   4.44444
 Alpha virt. eigenvalues --    4.46855   4.51226   4.52170   4.53366   4.55900
 Alpha virt. eigenvalues --    4.56217   4.59935   4.63601   4.66234   4.67223
 Alpha virt. eigenvalues --    4.77897   4.83050   4.85880   4.87164   4.88791
 Alpha virt. eigenvalues --    4.91160
          Condensed to atoms (all electrons):
              1          2          3          4          5          6
     1  O    8.293958   0.246247  -0.054803  -0.020093   0.038089   0.010315
     2  C    0.246247   9.136514  -0.993982   0.034008  -0.106958  -2.986607
     3  C   -0.054803  -0.993982   8.368118   0.207087   0.042595   0.211623
     4  O   -0.020093   0.034008   0.207087   8.250861   0.195089  -0.184905
     5  H    0.038089  -0.106958   0.042595   0.195089   0.429301   0.023582
     6  C    0.010315  -2.986607   0.211623  -0.184905   0.023582  12.551152
     7  O   -0.000953   0.032955  -0.140298   0.009748  -0.000856   0.290412
     8  H    0.000027  -0.009967   0.026003  -0.000646   0.000011   0.065239
     9  C   -0.068697  -0.704596  -0.078218   0.002147  -0.007412   0.888150
    10  O   -0.014098   0.014163  -0.007976  -0.000013   0.000039   0.001515
    11  H    0.001849  -0.012320   0.002737  -0.000002   0.000000   0.000142
    12  C   -0.171507  -1.327721  -0.313940  -0.008815   0.027650   1.227897
    13  O    0.006878  -0.066546   0.003430   0.001424   0.000098  -0.091484
    14  C    0.078317   1.891320  -0.493602   0.056514   0.008788  -4.593854
    15  O    0.000329  -0.034607  -0.010089  -0.000142   0.000065   0.145434
    16  C    0.005298   0.259525  -0.439557   0.002466   0.001367  -0.804577
    17  C    0.000887   0.037059  -0.084732   0.002466   0.000102  -0.096285
    18  O    0.000010   0.002435   0.003819  -0.000012   0.000000  -0.000396
    19  H   -0.000029   0.000492   0.004678  -0.000004   0.000000   0.006732
    20  C    0.000094   0.008099  -0.022226   0.000039   0.000003   0.052378
    21  O    0.000000  -0.000127  -0.000044   0.000000   0.000000   0.000019
    22  H    0.000000   0.000007  -0.000002   0.000000   0.000000  -0.000066
    23  C    0.000070   0.010104  -0.026540   0.000502  -0.000014  -0.162118
    24  O   -0.000007   0.003065  -0.008938  -0.000117  -0.000004  -0.012400
    25  H    0.000000   0.000010   0.000838   0.000001   0.000000  -0.000340
    26  C   -0.000044   0.058491  -0.084011  -0.000033   0.000033  -0.371268
    27  O    0.000000  -0.000039   0.000217   0.000001   0.000000   0.003796
    28  C    0.000005   0.000608  -0.001279   0.000008   0.000000  -0.002337
    29  O    0.000000   0.000009   0.000047   0.000000   0.000000  -0.000357
    30  H    0.000000   0.000000   0.000001   0.000000   0.000000   0.000002
    31  H    0.000000  -0.000011   0.000011   0.000000   0.000000   0.000177
    32  H    0.000000   0.000005   0.000033   0.000000   0.000000   0.000455
    33  H    0.000000  -0.000899   0.000886  -0.000001   0.000000   0.005349
    34  H   -0.000001  -0.000775   0.001227   0.000000   0.000000   0.011758
    35  H    0.000000  -0.000169   0.000598   0.000000   0.000000   0.005234
    36  H    0.000000  -0.000007   0.000038   0.000000   0.000000   0.000126
    37  H    0.000000   0.000033  -0.000028   0.000001   0.000000  -0.000534
    38  H    0.235231   0.079103  -0.045522   0.001509  -0.004152   0.012591
    39  H   -0.000138  -0.041084   0.009162  -0.000057   0.000000   0.010534
    40  H    0.001142  -0.006842  -0.016655   0.000059   0.000000   0.008023
    41  H    0.006493  -0.033554   0.007895   0.000494  -0.000009  -0.069133
    42  H   -0.041364   0.402303  -0.017067  -0.001036  -0.000696  -0.056264
    43  H   -0.005269   0.138001   0.274074  -0.041034  -0.002881  -0.314154
    44  H   -0.000336   0.102474  -0.216889   0.007867  -0.000012   0.256495
    45  H    0.000113   0.032720  -0.050352  -0.000024   0.000003  -0.094004
              7          8          9         10         11         12
     1  O   -0.000953   0.000027  -0.068697  -0.014098   0.001849  -0.171507
     2  C    0.032955  -0.009967  -0.704596   0.014163  -0.012320  -1.327721
     3  C   -0.140298   0.026003  -0.078218  -0.007976   0.002737  -0.313940
     4  O    0.009748  -0.000646   0.002147  -0.000013  -0.000002  -0.008815
     5  H   -0.000856   0.000011  -0.007412   0.000039   0.000000   0.027650
     6  C    0.290412   0.065239   0.888150   0.001515   0.000142   1.227897
     7  O    8.217100   0.211327   0.002568   0.000013   0.000000   0.003895
     8  H    0.211327   0.339976   0.000615   0.000000   0.000000   0.003830
     9  C    0.002568   0.000615  11.976978   0.167298  -0.014178  -4.779206
    10  O    0.000013   0.000000   0.167298   8.326073   0.206533  -0.027804
    11  H    0.000000   0.000000  -0.014178   0.206533   0.428027   0.039129
    12  C    0.003895   0.003830  -4.779206  -0.027804   0.039129  13.535999
    13  O    0.009632  -0.000289   0.008595  -0.000492  -0.000419  -0.054220
    14  C   -0.089864  -0.084768  -1.896030  -0.008119  -0.003473  -1.693621
    15  O   -0.010185   0.020643   0.007259   0.000043   0.000003   0.028679
    16  C    0.046138   0.007218  -0.466698  -0.001339   0.000086  -0.137211
    17  C    0.003393   0.003100   0.007261  -0.000355  -0.000126  -0.333710
    18  O   -0.000090  -0.000011   0.006631  -0.000034   0.000002  -0.014008
    19  H   -0.000080  -0.000005  -0.005573   0.000017  -0.000002   0.015005
    20  C    0.002038   0.001357   0.015498   0.000038  -0.000002  -0.048178
    21  O   -0.000005   0.000000   0.000218   0.000000   0.000000   0.000090
    22  H    0.000000   0.000000  -0.000014   0.000000   0.000000   0.000040
    23  C    0.016727   0.014465  -0.004997  -0.000007   0.000000  -0.022284
    24  O   -0.027417  -0.000954   0.000245   0.000000   0.000000   0.008298
    25  H    0.001987  -0.000767  -0.000012   0.000000   0.000000  -0.000450
    26  C   -0.017137  -0.029098  -0.032634   0.000006   0.000001   0.058975
    27  O    0.000369   0.000052  -0.000307   0.000000   0.000000  -0.001771
    28  C    0.000631  -0.000120  -0.006054  -0.000003   0.000000  -0.006941
    29  O   -0.000003   0.000000  -0.000034   0.000000   0.000000   0.000043
    30  H    0.000000   0.000000   0.000000   0.000000   0.000000  -0.000001
    31  H    0.000000   0.000000   0.000011   0.000000   0.000000   0.000043
    32  H    0.000003   0.000000   0.000050   0.000000   0.000000   0.000553
    33  H    0.000016   0.000002   0.000926   0.000000   0.000000   0.002960
    34  H   -0.000388   0.000132   0.001182   0.000000   0.000000   0.000984
    35  H    0.000045   0.000033   0.000112   0.000000   0.000000   0.000733
    36  H   -0.000520   0.000152  -0.000002   0.000000   0.000000   0.000039
    37  H    0.001037   0.000305   0.000018   0.000000   0.000000   0.000048
    38  H    0.000001   0.000000   0.026891  -0.000883  -0.000042  -0.044680
    39  H   -0.000002   0.000000   0.728403  -0.082474   0.000949  -0.346146
    40  H   -0.000001   0.000000   0.540547  -0.046694  -0.015553  -0.144730
    41  H   -0.000330   0.000006  -0.036338   0.002410   0.000004   0.211320
    42  H   -0.000096   0.000002  -0.056703  -0.000972   0.000008  -0.110439
    43  H    0.008589  -0.000085   0.020161  -0.000096   0.000001  -0.054299
    44  H   -0.039477  -0.006927   0.009687   0.000005   0.000000  -0.017278
    45  H    0.000545  -0.000457   0.006753   0.000018   0.000000  -0.035564
             13         14         15         16         17         18
     1  O    0.006878   0.078317   0.000329   0.005298   0.000887   0.000010
     2  C   -0.066546   1.891320  -0.034607   0.259525   0.037059   0.002435
     3  C    0.003430  -0.493602  -0.010089  -0.439557  -0.084732   0.003819
     4  O    0.001424   0.056514  -0.000142   0.002466   0.002466  -0.000012
     5  H    0.000098   0.008788   0.000065   0.001367   0.000102   0.000000
     6  C   -0.091484  -4.593854   0.145434  -0.804577  -0.096285  -0.000396
     7  O    0.009632  -0.089864  -0.010185   0.046138   0.003393  -0.000090
     8  H   -0.000289  -0.084768   0.020643   0.007218   0.003100  -0.000011
     9  C    0.008595  -1.896030   0.007259  -0.466698   0.007261   0.006631
    10  O   -0.000492  -0.008119   0.000043  -0.001339  -0.000355  -0.000034
    11  H   -0.000419  -0.003473   0.000003   0.000086  -0.000126   0.000002
    12  C   -0.054220  -1.693621   0.028679  -0.137211  -0.333710  -0.014008
    13  O    8.435860   0.185678  -0.002324   0.059989  -0.045112   0.028338
    14  C    0.185678  14.246897  -0.046632  -0.131311  -0.570696  -0.013374
    15  O   -0.002324  -0.046632   8.331742   0.043623   0.012038  -0.013655
    16  C    0.059989  -0.131311   0.043623  15.404645  -2.693004  -0.059084
    17  C   -0.045112  -0.570696   0.012038  -2.693004   8.842997   0.271863
    18  O    0.028338  -0.013374  -0.013655  -0.059084   0.271863   8.264882
    19  H    0.017977  -0.004617   0.011448  -0.077609   0.058494   0.172042
    20  C   -0.004443  -0.434746   0.050979  -1.877246  -0.186553  -0.124580
    21  O    0.000167   0.005984  -0.000669   0.060450   0.011007   0.005615
    22  H   -0.000006  -0.002341   0.000029  -0.034112  -0.007036  -0.001171
    23  C    0.012433  -0.170793  -0.050629   0.043261  -0.165236   0.009495
    24  O    0.000237   0.071467  -0.007413  -0.013133   0.001334   0.000236
    25  H    0.000011  -0.006430   0.001446  -0.005092  -0.002179   0.000001
    26  C   -0.003037  -1.459020  -0.026246  -4.768662   0.275000   0.018154
    27  O    0.000166  -0.034535   0.006837  -0.157754   0.020245  -0.000567
    28  C    0.001085  -0.057762   0.012290   0.737510   0.428558   0.015341
    29  O    0.000024  -0.000522   0.000131   0.024766   0.006158  -0.000458
    30  H    0.000000   0.000139   0.000003  -0.003763   0.005876  -0.000049
    31  H    0.000000   0.008349   0.000000   0.145141   0.015703  -0.000773
    32  H    0.000243   0.015530  -0.001263   0.134074  -0.104156   0.002392
    33  H   -0.000578   0.098917  -0.012356   0.154448   0.291166  -0.044472
    34  H   -0.001997   0.054663  -0.073449   0.433171  -0.041342   0.000330
    35  H   -0.000258   0.046282   0.003434   0.142540  -0.000972  -0.000292
    36  H   -0.000003   0.007320   0.000360   0.014309  -0.007852   0.000025
    37  H    0.000025  -0.007713   0.000434   0.043301   0.014490  -0.000001
    38  H   -0.000930  -0.011752  -0.000013   0.000192  -0.000100   0.000000
    39  H    0.004916  -0.003159   0.000111  -0.006475   0.002366   0.000054
    40  H    0.002500  -0.006482  -0.000043  -0.000756   0.001241  -0.000414
    41  H   -0.055066   0.172465   0.000377   0.001498   0.008507   0.000007
    42  H    0.010508   0.119756  -0.000051   0.000567   0.002051   0.000060
    43  H    0.008252   0.178114  -0.000656   0.009206   0.002743   0.000055
    44  H    0.013335   0.074841  -0.007965   0.044557   0.006410   0.000137
    45  H   -0.068442   0.354292  -0.061949   0.073608   0.024135  -0.000676
             19         20         21         22         23         24
     1  O   -0.000029   0.000094   0.000000   0.000000   0.000070  -0.000007
     2  C    0.000492   0.008099  -0.000127   0.000007   0.010104   0.003065
     3  C    0.004678  -0.022226  -0.000044  -0.000002  -0.026540  -0.008938
     4  O   -0.000004   0.000039   0.000000   0.000000   0.000502  -0.000117
     5  H    0.000000   0.000003   0.000000   0.000000  -0.000014  -0.000004
     6  C    0.006732   0.052378   0.000019  -0.000066  -0.162118  -0.012400
     7  O   -0.000080   0.002038  -0.000005   0.000000   0.016727  -0.027417
     8  H   -0.000005   0.001357   0.000000   0.000000   0.014465  -0.000954
     9  C   -0.005573   0.015498   0.000218  -0.000014  -0.004997   0.000245
    10  O    0.000017   0.000038   0.000000   0.000000  -0.000007   0.000000
    11  H   -0.000002  -0.000002   0.000000   0.000000   0.000000   0.000000
    12  C    0.015005  -0.048178   0.000090   0.000040  -0.022284   0.008298
    13  O    0.017977  -0.004443   0.000167  -0.000006   0.012433   0.000237
    14  C   -0.004617  -0.434746   0.005984  -0.002341  -0.170793   0.071467
    15  O    0.011448   0.050979  -0.000669   0.000029  -0.050629  -0.007413
    16  C   -0.077609  -1.877246   0.060450  -0.034112   0.043261  -0.013133
    17  C    0.058494  -0.186553   0.011007  -0.007036  -0.165236   0.001334
    18  O    0.172042  -0.124580   0.005615  -0.001171   0.009495   0.000236
    19  H    0.373723   0.005578  -0.000699   0.000026  -0.003989  -0.000024
    20  C    0.005578   9.048096   0.005004   0.033007   0.089105  -0.007334
    21  O   -0.000699   0.005004   8.281783   0.188707  -0.001474   0.000040
    22  H    0.000026   0.033007   0.188707   0.445446   0.000127   0.000000
    23  C   -0.003989   0.089105  -0.001474   0.000127   6.433618   0.045836
    24  O   -0.000024  -0.007334   0.000040   0.000000   0.045836   8.480501
    25  H    0.000000   0.000430   0.000000   0.000000  -0.014871   0.211521
    26  C    0.012740   1.006306  -0.013082   0.009790  -0.925064  -0.023842
    27  O    0.000068  -0.188058   0.008264   0.000586  -0.082436   0.001729
    28  C   -0.003511  -1.583486  -0.007024   0.021976  -0.066104   0.006437
    29  O    0.000041  -0.149511  -0.004350   0.014942  -0.003310   0.000033
    30  H    0.000000  -0.011661  -0.002249  -0.001848   0.000208  -0.000001
    31  H    0.000007  -0.159317  -0.003078  -0.002036  -0.006157   0.000046
    32  H    0.000116   0.324195  -0.032420  -0.008696   0.010548   0.000011
    33  H   -0.004550  -0.115938  -0.001407   0.000060   0.024060   0.000127
    34  H   -0.000940   0.023214  -0.000794   0.000011   0.043833   0.000196
    35  H   -0.000003  -0.033206  -0.000284   0.000007   0.002897   0.006574
    36  H    0.000000  -0.001096   0.000002   0.000000   0.435496  -0.048699
    37  H    0.000000  -0.000019  -0.000026   0.000000   0.596496  -0.068036
    38  H    0.000000   0.000001   0.000000   0.000000   0.000003   0.000000
    39  H   -0.000152   0.000452   0.000000   0.000000  -0.000006   0.000000
    40  H    0.000614  -0.000819   0.000001   0.000000  -0.000009   0.000000
    41  H    0.000248   0.001577   0.000000   0.000000   0.000166   0.000011
    42  H   -0.000009   0.000149   0.000000   0.000000   0.000093   0.000007
    43  H   -0.000004   0.000119   0.000000   0.000000   0.000352   0.000098
    44  H   -0.000051   0.001222   0.000000   0.000000   0.004838   0.001231
    45  H   -0.000591   0.017340   0.000001   0.000000   0.006351   0.000565
             25         26         27         28         29         30
     1  O    0.000000  -0.000044   0.000000   0.000005   0.000000   0.000000
     2  C    0.000010   0.058491  -0.000039   0.000608   0.000009   0.000000
     3  C    0.000838  -0.084011   0.000217  -0.001279   0.000047   0.000001
     4  O    0.000001  -0.000033   0.000001   0.000008   0.000000   0.000000
     5  H    0.000000   0.000033   0.000000   0.000000   0.000000   0.000000
     6  C   -0.000340  -0.371268   0.003796  -0.002337  -0.000357   0.000002
     7  O    0.001987  -0.017137   0.000369   0.000631  -0.000003   0.000000
     8  H   -0.000767  -0.029098   0.000052  -0.000120   0.000000   0.000000
     9  C   -0.000012  -0.032634  -0.000307  -0.006054  -0.000034   0.000000
    10  O    0.000000   0.000006   0.000000  -0.000003   0.000000   0.000000
    11  H    0.000000   0.000001   0.000000   0.000000   0.000000   0.000000
    12  C   -0.000450   0.058975  -0.001771  -0.006941   0.000043  -0.000001
    13  O    0.000011  -0.003037   0.000166   0.001085   0.000024   0.000000
    14  C   -0.006430  -1.459020  -0.034535  -0.057762  -0.000522   0.000139
    15  O    0.001446  -0.026246   0.006837   0.012290   0.000131   0.000003
    16  C   -0.005092  -4.768662  -0.157754   0.737510   0.024766  -0.003763
    17  C   -0.002179   0.275000   0.020245   0.428558   0.006158   0.005876
    18  O    0.000001   0.018154  -0.000567   0.015341  -0.000458  -0.000049
    19  H    0.000000   0.012740   0.000068  -0.003511   0.000041   0.000000
    20  C    0.000430   1.006306  -0.188058  -1.583486  -0.149511  -0.011661
    21  O    0.000000  -0.013082   0.008264  -0.007024  -0.004350  -0.002249
    22  H    0.000000   0.009790   0.000586   0.021976   0.014942  -0.001848
    23  C   -0.014871  -0.925064  -0.082436  -0.066104  -0.003310   0.000208
    24  O    0.211521  -0.023842   0.001729   0.006437   0.000033  -0.000001
    25  H    0.398440   0.038593  -0.000268  -0.001160   0.000000   0.000000
    26  C    0.038593  13.808266   0.336238  -1.022901  -0.083117   0.006854
    27  O   -0.000268   0.336238   8.412441   0.142322  -0.083331  -0.001635
    28  C   -0.001160  -1.022901   0.142322   6.391364   0.437088   0.010209
    29  O    0.000000  -0.083117  -0.083331   0.437088   8.220781   0.236257
    30  H    0.000000   0.006854  -0.001635   0.010209   0.236257   0.408058
    31  H    0.000000  -0.125543  -0.062349   0.480350  -0.056017  -0.007624
    32  H    0.000000  -0.046252   0.003988  -0.034076  -0.004777   0.000178
    33  H    0.000000  -0.154327   0.000348  -0.012797  -0.000529   0.000010
    34  H   -0.000011  -0.246241   0.004944   0.004662  -0.000863   0.000002
    35  H   -0.000169   0.055342  -0.043680   0.047335  -0.001782   0.000023
    36  H   -0.010065  -0.063060  -0.004198  -0.000034  -0.000023  -0.000002
    37  H   -0.002441  -0.301181   0.007461   0.009548  -0.000371   0.000000
    38  H    0.000000   0.000002   0.000000   0.000000   0.000000   0.000000
    39  H    0.000000  -0.000291   0.000000  -0.000021   0.000000   0.000000
    40  H    0.000000  -0.000028   0.000000   0.000041   0.000000   0.000000
    41  H    0.000000  -0.000698  -0.000001  -0.000090   0.000000   0.000000
    42  H    0.000000  -0.000304   0.000000  -0.000011   0.000000   0.000000
    43  H    0.000000   0.000411   0.000000  -0.000017   0.000000   0.000000
    44  H    0.000003   0.000010   0.000004  -0.000087   0.000000   0.000000
    45  H    0.000007   0.012989   0.000164  -0.000463  -0.000003   0.000000
             31         32         33         34         35         36
     1  O    0.000000   0.000000   0.000000  -0.000001   0.000000   0.000000
     2  C   -0.000011   0.000005  -0.000899  -0.000775  -0.000169  -0.000007
     3  C    0.000011   0.000033   0.000886   0.001227   0.000598   0.000038
     4  O    0.000000   0.000000  -0.000001   0.000000   0.000000   0.000000
     5  H    0.000000   0.000000   0.000000   0.000000   0.000000   0.000000
     6  C    0.000177   0.000455   0.005349   0.011758   0.005234   0.000126
     7  O    0.000000   0.000003   0.000016  -0.000388   0.000045  -0.000520
     8  H    0.000000   0.000000   0.000002   0.000132   0.000033   0.000152
     9  C    0.000011   0.000050   0.000926   0.001182   0.000112  -0.000002
    10  O    0.000000   0.000000   0.000000   0.000000   0.000000   0.000000
    11  H    0.000000   0.000000   0.000000   0.000000   0.000000   0.000000
    12  C    0.000043   0.000553   0.002960   0.000984   0.000733   0.000039
    13  O    0.000000   0.000243  -0.000578  -0.001997  -0.000258  -0.000003
    14  C    0.008349   0.015530   0.098917   0.054663   0.046282   0.007320
    15  O    0.000000  -0.001263  -0.012356  -0.073449   0.003434   0.000360
    16  C    0.145141   0.134074   0.154448   0.433171   0.142540   0.014309
    17  C    0.015703  -0.104156   0.291166  -0.041342  -0.000972  -0.007852
    18  O   -0.000773   0.002392  -0.044472   0.000330  -0.000292   0.000025
    19  H    0.000007   0.000116  -0.004550  -0.000940  -0.000003   0.000000
    20  C   -0.159317   0.324195  -0.115938   0.023214  -0.033206  -0.001096
    21  O   -0.003078  -0.032420  -0.001407  -0.000794  -0.000284   0.000002
    22  H   -0.002036  -0.008696   0.000060   0.000011   0.000007   0.000000
    23  C   -0.006157   0.010548   0.024060   0.043833   0.002897   0.435496
    24  O    0.000046   0.000011   0.000127   0.000196   0.006574  -0.048699
    25  H    0.000000   0.000000   0.000000  -0.000011  -0.000169  -0.010065
    26  C   -0.125543  -0.046252  -0.154327  -0.246241   0.055342  -0.063060
    27  O   -0.062349   0.003988   0.000348   0.004944  -0.043680  -0.004198
    28  C    0.480350  -0.034076  -0.012797   0.004662   0.047335  -0.000034
    29  O   -0.056017  -0.004777  -0.000529  -0.000863  -0.001782  -0.000023
    30  H   -0.007624   0.000178   0.000010   0.000002   0.000023  -0.000002
    31  H    0.623972   0.004750   0.001670   0.000040   0.005769   0.000007
    32  H    0.004750   0.564465   0.005315   0.002107   0.000030   0.000002
    33  H    0.001670   0.005315   0.607195   0.007073   0.003460   0.000008
    34  H    0.000040   0.002107   0.007073   0.630206   0.006770   0.000037
    35  H    0.005769   0.000030   0.003460   0.006770   0.614494  -0.009695
    36  H    0.000007   0.000002   0.000008   0.000037  -0.009695   0.597225
    37  H   -0.000010  -0.000007   0.000001   0.004500   0.006751  -0.045350
    38  H    0.000000   0.000000   0.000000   0.000000   0.000000   0.000000
    39  H    0.000000   0.000000   0.000000   0.000000   0.000000   0.000000
    40  H    0.000000   0.000000   0.000000   0.000000   0.000000   0.000000
    41  H    0.000000   0.000000  -0.000001  -0.000001   0.000000   0.000000
    42  H    0.000000   0.000000   0.000000   0.000000   0.000000   0.000000
    43  H    0.000000   0.000000   0.000000  -0.000002   0.000000   0.000000
    44  H    0.000000   0.000000  -0.000006  -0.000001  -0.000004   0.000000
    45  H    0.000000  -0.000022  -0.000041   0.012097  -0.000004   0.000001
             37         38         39         40         41         42
     1  O    0.000000   0.235231  -0.000138   0.001142   0.006493  -0.041364
     2  C    0.000033   0.079103  -0.041084  -0.006842  -0.033554   0.402303
     3  C   -0.000028  -0.045522   0.009162  -0.016655   0.007895  -0.017067
     4  O    0.000001   0.001509  -0.000057   0.000059   0.000494  -0.001036
     5  H    0.000000  -0.004152   0.000000   0.000000  -0.000009  -0.000696
     6  C   -0.000534   0.012591   0.010534   0.008023  -0.069133  -0.056264
     7  O    0.001037   0.000001  -0.000002  -0.000001  -0.000330  -0.000096
     8  H    0.000305   0.000000   0.000000   0.000000   0.000006   0.000002
     9  C    0.000018   0.026891   0.728403   0.540547  -0.036338  -0.056703
    10  O    0.000000  -0.000883  -0.082474  -0.046694   0.002410  -0.000972
    11  H    0.000000  -0.000042   0.000949  -0.015553   0.000004   0.000008
    12  C    0.000048  -0.044680  -0.346146  -0.144730   0.211320  -0.110439
    13  O    0.000025  -0.000930   0.004916   0.002500  -0.055066   0.010508
    14  C   -0.007713  -0.011752  -0.003159  -0.006482   0.172465   0.119756
    15  O    0.000434  -0.000013   0.000111  -0.000043   0.000377  -0.000051
    16  C    0.043301   0.000192  -0.006475  -0.000756   0.001498   0.000567
    17  C    0.014490  -0.000100   0.002366   0.001241   0.008507   0.002051
    18  O   -0.000001   0.000000   0.000054  -0.000414   0.000007   0.000060
    19  H    0.000000   0.000000  -0.000152   0.000614   0.000248  -0.000009
    20  C   -0.000019   0.000001   0.000452  -0.000819   0.001577   0.000149
    21  O   -0.000026   0.000000   0.000000   0.000001   0.000000   0.000000
    22  H    0.000000   0.000000   0.000000   0.000000   0.000000   0.000000
    23  C    0.596496   0.000003  -0.000006  -0.000009   0.000166   0.000093
    24  O   -0.068036   0.000000   0.000000   0.000000   0.000011   0.000007
    25  H   -0.002441   0.000000   0.000000   0.000000   0.000000   0.000000
    26  C   -0.301181   0.000002  -0.000291  -0.000028  -0.000698  -0.000304
    27  O    0.007461   0.000000   0.000000   0.000000  -0.000001   0.000000
    28  C    0.009548   0.000000  -0.000021   0.000041  -0.000090  -0.000011
    29  O   -0.000371   0.000000   0.000000   0.000000   0.000000   0.000000
    30  H    0.000000   0.000000   0.000000   0.000000   0.000000   0.000000
    31  H   -0.000010   0.000000   0.000000   0.000000   0.000000   0.000000
    32  H   -0.000007   0.000000   0.000000   0.000000   0.000000   0.000000
    33  H    0.000001   0.000000   0.000000   0.000000  -0.000001   0.000000
    34  H    0.004500   0.000000   0.000000   0.000000  -0.000001   0.000000
    35  H    0.006751   0.000000   0.000000   0.000000   0.000000   0.000000
    36  H   -0.045350   0.000000   0.000000   0.000000   0.000000   0.000000
    37  H    0.587207   0.000000   0.000000   0.000000   0.000000   0.000000
    38  H    0.000000   0.390697   0.000064  -0.000033  -0.000141  -0.010910
    39  H    0.000000   0.000064   0.618774  -0.044689   0.008895   0.003010
    40  H    0.000000  -0.000033  -0.044689   0.614259  -0.013608  -0.000110
    41  H    0.000000  -0.000141   0.008895  -0.013608   0.643450   0.006775
    42  H    0.000000  -0.010910   0.003010  -0.000110   0.006775   0.597899
    43  H    0.000000   0.000083  -0.000012   0.000013   0.005055   0.005344
    44  H    0.000000   0.000018  -0.000002   0.000001   0.000217   0.003021
    45  H    0.000013   0.000002   0.000002  -0.000013   0.007372   0.000008
             43         44         45
     1  O   -0.005269  -0.000336   0.000113
     2  C    0.138001   0.102474   0.032720
     3  C    0.274074  -0.216889  -0.050352
     4  O   -0.041034   0.007867  -0.000024
     5  H   -0.002881  -0.000012   0.000003
     6  C   -0.314154   0.256495  -0.094004
     7  O    0.008589  -0.039477   0.000545
     8  H   -0.000085  -0.006927  -0.000457
     9  C    0.020161   0.009687   0.006753
    10  O   -0.000096   0.000005   0.000018
    11  H    0.000001   0.000000   0.000000
    12  C   -0.054299  -0.017278  -0.035564
    13  O    0.008252   0.013335  -0.068442
    14  C    0.178114   0.074841   0.354292
    15  O   -0.000656  -0.007965  -0.061949
    16  C    0.009206   0.044557   0.073608
    17  C    0.002743   0.006410   0.024135
    18  O    0.000055   0.000137  -0.000676
    19  H   -0.000004  -0.000051  -0.000591
    20  C    0.000119   0.001222   0.017340
    21  O    0.000000   0.000000   0.000001
    22  H    0.000000   0.000000   0.000000
    23  C    0.000352   0.004838   0.006351
    24  O    0.000098   0.001231   0.000565
    25  H    0.000000   0.000003   0.000007
    26  C    0.000411   0.000010   0.012989
    27  O    0.000000   0.000004   0.000164
    28  C   -0.000017  -0.000087  -0.000463
    29  O    0.000000   0.000000  -0.000003
    30  H    0.000000   0.000000   0.000000
    31  H    0.000000   0.000000   0.000000
    32  H    0.000000   0.000000  -0.000022
    33  H    0.000000  -0.000006  -0.000041
    34  H   -0.000002  -0.000001   0.012097
    35  H    0.000000  -0.000004  -0.000004
    36  H    0.000000   0.000000   0.000001
    37  H    0.000000   0.000000   0.000013
    38  H    0.000083   0.000018   0.000002
    39  H   -0.000012  -0.000002   0.000002
    40  H    0.000013   0.000001  -0.000013
    41  H    0.005055   0.000217   0.007372
    42  H    0.005344   0.003021   0.000008
    43  H    0.620790   0.006978   0.002563
    44  H    0.006978   0.603023   0.005461
    45  H    0.002563   0.005461   0.620927
 Mulliken atomic charges:
              1
     1  O   -0.548013
     2  C   -0.162939
     3  C   -0.058367
     4  O   -0.515358
     5  H    0.356181
     6  C    0.051953
     7  O   -0.531466
     8  H    0.439599
     9  C   -0.260505
    10  O   -0.526811
    11  H    0.366644
    12  C    0.528315
    13  O   -0.416157
    14  C    0.149583
    15  O   -0.317402
    16  C   -0.215572
    17  C   -0.017203
    18  O   -0.527807
    19  H    0.422398
    20  C    0.262101
    21  O   -0.499619
    22  H    0.342568
    23  C   -0.095046
    24  O   -0.621522
    25  H    0.390965
    26  C    0.098918
    27  O   -0.289314
    28  C    0.058910
    29  O   -0.550962
    30  H    0.361016
    31  H    0.136872
    32  H    0.162628
    33  H    0.143905
    34  H    0.123665
    35  H    0.142054
    36  H    0.135458
    37  H    0.154048
    38  H    0.372770
    39  H    0.137016
    40  H    0.129037
    41  H    0.123727
    42  H    0.144472
    43  H    0.137509
    44  H    0.147198
    45  H    0.134555
 Sum of Mulliken atomic charges =   0.00000
 Mulliken charges with hydrogens summed into heavy atoms:
              1
     1  O   -0.175243
     2  C   -0.018467
     3  C    0.079142
     4  O   -0.159176
     6  C    0.199151
     7  O   -0.091868
     9  C    0.005548
    10  O   -0.160167
    12  C    0.652042
    13  O   -0.416157
    14  C    0.284138
    15  O   -0.317402
    16  C   -0.091907
    17  C    0.126701
    18  O   -0.105409
    20  C    0.424729
    21  O   -0.157052
    23  C    0.194460
    24  O   -0.230557
    26  C    0.240973
    27  O   -0.289314
    28  C    0.195782
    29  O   -0.189947
 Sum of Mulliken charges with hydrogens summed into heavy atoms =   0.00000
 APT atomic charges:
              1
     1  O   -0.630606
     2  C    0.377402
     3  C    0.424141
     4  O   -0.648957
     5  H    0.268660
     6  C    0.389715
     7  O   -0.710139
     8  H    0.443196
     9  C    0.449884
    10  O   -0.603312
    11  H    0.259554
    12  C    0.483272
    13  O   -0.909503
    14  C    0.914996
    15  O   -0.845051
    16  C    0.412769
    17  C    0.362594
    18  O   -0.693730
    19  H    0.411451
    20  C    0.354743
    21  O   -0.590056
    22  H    0.243661
    23  C    0.465052
    24  O   -0.669698
    25  H    0.260320
    26  C    0.451346
    27  O   -0.777808
    28  C    0.923481
    29  O   -0.670304
    30  H    0.263116
    31  H   -0.075863
    32  H   -0.023188
    33  H   -0.047114
    34  H   -0.040875
    35  H   -0.059534
    36  H   -0.052310
    37  H   -0.033432
    38  H    0.267070
    39  H   -0.059345
    40  H   -0.049742
    41  H   -0.059019
    42  H   -0.038972
    43  H   -0.051516
    44  H   -0.033126
    45  H   -0.053228
 Sum of APT charges=   0.00000
 APT Atomic charges with hydrogens summed into heavy atoms:
              1
[...]
 00018899,-0.00005522,0.00005993,0.00000636,-0.00001748,0.00001682,-0.0
 0909036,0.00045938,0.00116626,0.00186193,0.00064567,0.00074378,-0.0001
 8827,-0.00015788,0.00008347,0.00012645,0.00000855,0.00011943,-0.000001
 82,0.00001489,0.00001544,-0.00002650,-0.00000410,-0.00000992,0.0000389
 8,-0.00001944,0.00002076,-0.00004010,0.00003113,-0.00001990,-0.0000069
 2,0.00000008,0.00000227,0.00000895,-0.00000055,0.00000155,-0.00000220,
 -0.00000091,-0.00000173,-0.00000955,-0.00000159,0.00000732,0.00002035,
 0.00000741,0.00000719,-0.00000976,-0.00000004,0.00000246,-0.00001780,-
 0.00000742,0.00000381,0.00001127,0.00000251,-0.00000157,-0.00000883,0.
 00000051,0.00000367,0.00000652,0.00000041,-0.00000472,-0.00000140,-0.0
 0000011,0.00000080,0.00000245,0.00000053,0.00000122,0.00000290,0.00000
 108,-0.00000379,0.00000955,0.00000233,0.00001032,0.00001222,-0.0000011
 6,-0.00001036,0.00000675,0.00000058,0.00000465,-0.00000004,0.00000016,
 0.00000135,0.00000391,0.00000052,-0.00000324,0.00115190,0.00008884,-0.
 00057894,0.00023692,-0.00071754,0.00000410,0.00012465,-0.00007635,-0.0
 0000908,0.00027818,-0.00094826,0.00080386,0.38382011,-0.00950609,0.000
 00066,-0.00386534,-0.01570653,-0.04643769,0.00323051,0.03206352,0.0012
 2372,-0.00432439,-0.00217198,0.00322876,-0.00058362,0.00040753,-0.0001
 8936,0.00035643,0.00098912,0.00123980,0.00109674,-0.00047243,-0.000174
 01,0.00000033,-0.00008017,0.00000901,0.00003074,-0.00060183,0.00174655
 ,-0.00061136,0.00017331,-0.00011676,0.00004994,-0.00000033,-0.00001098
 ,-0.00001363,-0.02691778,-0.00022934,0.00363502,0.00187365,0.00134034,
 -0.00179043,0.00020084,-0.00043588,-0.00004930,0.00000856,0.00010689,-
 0.00001497,-0.00003225,0.00002301,-0.00003595,0.00000229,0.00000865,-0
 .00000413,0.00002034,-0.00000668,-0.00003739,-0.00001746,-0.00000355,0
 .00002751,-0.00000487,0.00000256,-0.00000287,0.00000556,-0.00000283,0.
 00000030,-0.00000121,0.00000030,-0.00000018,0.00000243,-0.00000440,-0.
 00000071,-0.00001139,-0.00000589,-0.00001857,0.00000533,0.00000144,-0.
 00000457,0.00000357,-0.00000053,0.00000090,-0.00000019,-0.00000304,0.0
 0000225,-0.00000184,0.00000481,-0.00000029,0.00000102,-0.00000187,-0.0
 0000164,-0.00000014,0.00000065,0.00000056,0.00000035,0.,0.00000024,0.0
 0000104,-0.00000066,-0.00000101,0.00000151,0.00000320,0.00000353,0.000
 00191,-0.00000608,0.00000982,-0.00000088,0.00000159,-0.00000056,0.0000
 0004,0.00000089,-0.00000277,-0.00000062,-0.00000072,0.00000171,-0.0006
 3106,0.00127548,0.00033322,0.00070804,-0.00037022,-0.00004179,0.000492
 34,0.00007445,-0.00002973,-0.00133611,-0.00276701,0.00315442,0.0193038
 6,0.04558100,-0.03951522,-0.00576455,-0.01377686,0.03498626,0.00178323
 ,-0.04663215,0.01033606,0.00207168,-0.00082734,-0.00121873,0.00031643,
 0.00070096,-0.00032729,-0.00049873,-0.00002046,0.00111755,0.00009311,0
 .00037997,-0.00030764,-0.00001509,-0.00006541,0.00001883,0.00002672,0.
 00000527,-0.00037022,-0.00091500,0.00006369,0.00002915,0.00003036,0.00
 023101,-0.00003302,-0.00006735,0.00006384,0.02444128,0.00061310,-0.001
 76705,-0.00128480,-0.00053062,0.00278275,0.00047697,-0.00014034,-0.000
 24723,-0.00014305,-0.00000765,-0.00016565,0.00001004,-0.00004668,-0.00
 000251,0.00002476,0.00000379,0.00001900,-0.00004200,-0.00000997,0.0000
 1391,0.00004123,0.00002307,-0.00002084,0.00000731,-0.00000426,0.000004
 41,-0.00001201,0.00000621,-0.00000772,0.00000285,-0.00000040,0.0000017
 7,0.00000738,0.00000166,0.00000092,-0.00001246,-0.00000789,-0.00001242
 ,0.00000501,0.00000199,-0.00000091,0.00001243,0.00001154,0.00000642,-0
 .00000966,0.00000285,-0.00001561,0.00000727,-0.00000724,0.00001418,-0.
 00000005,0.00000101,-0.00000893,0.00000054,0.,0.00000187,-0.00000230,0
 .00000014,-0.00000250,-0.00000330,-0.00000047,0.00000492,-0.00001170,-
 0.00000367,-0.00001442,-0.00001151,0.00000200,0.00001134,-0.00000646,-
 0.00000249,-0.00000604,-0.00000142,-0.00000209,-0.00000267,-0.00000214
 ,0.00000146,0.00000340,-0.00270491,0.00043659,0.00332432,-0.00042856,0
 .00039346,0.00009173,-0.00021384,-0.00004412,0.00007708,0.00129094,0.0
 0294183,-0.00335921,-0.02631620,0.00137776,0.05957671,0.00179526,-0.00
 006068,-0.00039470,-0.01538863,-0.00010888,-0.00063162,-0.35586027,-0.
 01978367,0.01103194,-0.00190391,-0.00814471,0.00928868,-0.00017789,-0.
 00075088,-0.00017624,-0.01408825,0.00023766,-0.00062344,0.00187503,0.0
 0002805,0.00029842,0.00018921,0.00004712,0.00008302,0.00079856,0.00015
 082,-0.00013700,0.00000022,-0.00007951,-0.00006345,0.00000422,0.000023
 21,-0.00000709,-0.00124170,-0.00166768,0.00086996,0.00074478,0.0004787
 1,0.00023942,-0.00113371,-0.00117730,0.00051514,0.00053209,0.00014847,
 -0.00023615,-0.00007674,0.00005244,-0.00009118,-0.00000573,-0.00004285
 ,-0.00007584,0.00004858,0.00001973,0.00006994,-0.00003266,0.00001103,-
 0.00004168,-0.00001942,0.00001175,0.00000238,0.00001474,0.00000712,0.0
 0000582,-0.00000579,-0.00000106,-0.00000503,-0.00002899,-0.00002522,0.
 00003769,0.00003371,0.00003193,-0.00002357,-0.00001984,-0.00000762,0.0
 0000995,-0.00000617,-0.00000066,-0.00000409,0.00001325,0.00001695,-0.0
 0001574,-0.00000655,-0.00002038,0.00000073,0.00000545,0.00000673,0.000
 00238,-0.00000127,-0.00000104,-0.00000154,0.00000307,0.00000181,0.0000
 0230,0.00000488,0.00000107,-0.00000515,0.00001407,0.00000241,0.0000098
 6,0.00001597,0.00000141,-0.00004922,0.00000925,-0.00000053,0.00000909,
 0.00000314,0.00000414,-0.00000211,0.00001013,0.00000247,-0.00001269,0.
 00036381,-0.00039702,-0.00023282,0.00008972,-0.00040994,-0.00003203,-0
 .00002456,0.00016006,0.00000174,0.00189643,0.00014995,-0.00075517,-0.0
 0003271,0.00180363,0.00058384,0.38099445,-0.00184905,0.00218706,0.0015
 0200,0.03177256,-0.00251926,-0.00049922,-0.02218792,-0.04077293,-0.004
 54432,-0.02838057,-0.01152763,0.01561916,-0.00068751,-0.00030051,-0.00
 071375,-0.01152682,0.00106948,-0.00150355,0.00031774,0.00093359,0.0013
 8804,0.00009354,0.00000285,-0.00002835,-0.00000052,-0.00005153,0.00014
 018,-0.00005828,0.00000390,-0.00007772,0.00000740,0.00001941,0.0000041
 7,0.00320858,0.00093812,-0.00136753,-0.00033673,-0.00015701,0.00022203
 ,0.00025057,-0.00049972,0.00042262,0.00016863,0.00000842,-0.00031021,-
 0.00002442,0.00003111,-0.00002592,0.00001196,-0.00002906,-0.00004650,-
 0.00000655,0.00001228,0.00004446,0.00000840,0.00000815,-0.00005258,-0.
 00000838,0.00000751,0.00000932,0.00000220,0.00000411,-0.00000777,-0.00
 000239,0.00000107,-0.00000086,-0.00001446,0.00002854,-0.00001817,0.000
 05374,0.00000848,0.00008648,-0.00002378,-0.00000405,0.00000632,-0.0000
 0364,0.00003846,0.00000911,0.00000682,-0.00001375,-0.00001460,-0.00000
 073,-0.00000092,0.00000324,0.00000186,0.00000012,-0.00000032,-0.000000
 37,0.00000001,-0.00000047,0.00000068,0.00000024,0.00000039,0.00000083,
 0.00000012,-0.00000151,0.00000142,0.00000010,0.00000079,0.00000538,0.0
 0000903,-0.00001862,0.00000386,-0.00000578,0.00000107,0.00000195,-0.00
 000647,0.00000937,0.00000165,0.00000053,-0.00000587,-0.00001777,0.0002
 1818,0.00042271,-0.00023622,0.00006967,0.00003158,-0.00007888,-0.00007
 101,-0.00002973,-0.00035426,-0.00085029,0.00070277,0.00158414,-0.00474
 946,-0.00174804,0.02895195,0.05577782,-0.00018906,0.00084339,0.0013898
 4,0.01204910,-0.00245942,0.00041106,0.01127097,-0.00460262,-0.04172182
 ,0.02704245,0.01583980,-0.01097517,0.00155552,0.00038612,0.00047463,-0
 .03402147,-0.00302706,0.00009274,0.00207240,0.00134295,0.00237972,-0.0
 0001146,0.00030302,0.00005118,-0.00019064,-0.00005910,0.00007145,-0.00
 002078,0.00002560,-0.00000257,0.00000210,0.00000385,-0.00000162,-0.000
 50586,0.00127047,-0.00054763,0.00006155,0.00039397,-0.00021196,-0.0011
 3818,-0.00067470,0.00114098,0.00042321,0.00003093,-0.00020603,0.000072
 05,0.00007262,0.00003655,0.00002503,-0.00002678,-0.00004547,0.00001872
 ,0.00002339,0.00000625,-0.00002522,-0.00001982,0.00001592,-0.00001435,
 0.00000365,0.00001628,0.00000077,0.00001694,-0.00001798,-0.00000241,-0
 .00000006,-0.00000106,-0.00001561,0.00003047,0.00001055,0.00004561,-0.
 00000827,0.00008559,-0.00000424,0.00000752,-0.00000222,-0.00001064,0.0
 0002798,0.00003573,0.00000600,0.00000044,-0.00004041,-0.00000149,-0.00
 001478,0.00002992,0.00000948,0.00000208,-0.00001994,-0.00000054,0.0000
 0159,0.00000363,0.00000006,0.00000016,-0.00000146,0.00000125,0.0000020
 7,-0.00000181,0.00000304,-0.00000199,0.00000574,0.00003267,0.00001706,
 -0.00006932,0.00000553,-0.00000511,0.00000407,0.00000025,-0.00000945,0
 .00000661,0.00000472,0.00000011,-0.00000678,-0.00005529,0.00035746,0.0
 0012428,-0.00002423,0.00011829,-0.00002624,-0.00003568,-0.00007695,-0.
 00001509,-0.00065067,0.00071842,0.00009941,0.00075556,-0.00155728,-0.0
 0053842,-0.01707852,-0.00794615,0.05381867,0.00061593,0.00009621,-0.00
 005041,-0.00078720,0.00097427,0.00048137,-0.01358628,-0.00478018,-0.00
 001759,0.00170910,0.00051518,0.00066136,0.00019730,0.00007206,0.000089
 97,-0.34582344,-0.06006993,0.02360392,-0.01513267,0.01205558,0.0080267
 4,0.00009575,0.00017145,-0.00145437,0.00000410,-0.00000569,-0.00000798
 ,0.00003857,0.00001645,0.00000751,-0.00001244,0.00000290,-0.00000025,-
 0.00013203,-0.00009349,0.00017081,0.00119910,-0.00127245,-0.00029047,-
 0.00610130,-0.00089694,0.00007844,0.00118276,0.00038796,-0.00143735,0.
 00049025,0.00016071,0.00009110,0.00001684,0.00001011,-0.00005571,0.000
 04292,0.00000012,-0.00002364,-0.00004139,-0.00004415,-0.00001663,-0.00
 002383,0.00002230,0.00003510,0.00001322,-0.00000531,-0.00002974,-0.000
 00501,0.00000536,-0.00000135,-0.00003670,0.00023151,-0.00018195,0.0002
 4473,-0.00006563,0.00059129,-0.00006315,-0.00002093,-0.00002350,-0.000
 05598,0.00011199,0.00006868,0.00003092,-0.00010329,-0.00001128,-0.0000
 2169,0.00005676,0.00001123,0.00000984,-0.00001656,-0.00001070,-0.00000
 162,0.00000212,0.00000181,0.00000530,-0.00000464,0.00000227,0.00000386
 ,0.00000285,-0.00000562,0.00000803,-0.00000908,0.00002021,0.00001044,0
 .00007274,-0.00035552,0.00001870,-0.00001779,0.00000503,0.00000858,-0.
 00004167,0.00006616,-0.00000298,-0.00001624,-0.00000809,-0.00002571,-0
 .00013882,-0.00012240,0.00003048,-0.00004634,-0.00000324,0.00000559,0.
 00001305,-0.00001002,0.00010397,0.00016585,-0.00007671,0.00082208,-0.0
 0048389,-0.00023207,0.00011559,-0.00082075,-0.00175294,0.37448903,0.00
 020301,-0.00002464,0.00001041,-0.00111013,0.00026133,0.00015010,-0.008
 91784,-0.00091029,0.00019251,0.00111504,0.00040375,-0.00003076,0.00000
 482,-0.00005820,0.00004188,-0.06062076,-0.05013246,0.00701958,0.040079
 40,-0.01004815,-0.01083592,0.00087028,0.00137868,0.00148067,-0.0000003
 8,0.00006237,0.00003369,0.00000618,-0.00003652,-0.00000926,0.00000007,
 0.00000454,-0.00000383,-0.00015327,-0.00018400,-0.00000835,0.00146659,
 0.00162587,-0.00055453,-0.02817697,-0.00506309,0.00440485,0.00079130,0
 .00086408,-0.00234754,-0.00016857,0.00022879,0.00002714,0.00002423,-0.
 00005100,-0.00021645,0.00012548,-0.00003044,0.00008134,-0.00012998,0.0
 0007396,-0.00002534,-0.00002372,0.00003064,0.00001406,0.00001165,0.000
 02054,-0.00000723,-0.00000526,-0.00000074,-0.00000386,-0.00001862,-0.0
 0014617,0.00014945,-0.00031267,-0.00006855,-0.00041651,0.00009138,0.00
 002427,-0.00001219,0.00012193,-0.00004242,-0.00000063,-0.00002158,0.00
 006583,-0.00004479,0.00000762,-0.00005889,0.00001940,0.00000452,0.0000
 1620,-0.00000729,0.00000058,-0.00000084,0.00000086,-0.00000140,0.00000
 588,-0.00000010,0.00000699,0.00000331,-0.00001272,0.00002783,-0.000012
 05,0.00002901,0.00023951,-0.00000024,-0.00008507,-0.00000151,0.0000314
 9,0.00002172,-0.00000210,0.00002896,-0.00005421,0.00001114,-0.00000139
 ,0.00002323,0.00000839,0.00000209,-0.00002242,0.00003747,-0.00005956,-
 0.00000925,-0.00000027,-0.00001157,0.00000375,0.00018445,0.00016928,0.
 00000164,0.00010748,-0.00019921,-0.00035469,-0.00008916,-0.00005076,-0
 .00160176,0.05396636,0.06480565,0.00050057,0.00016275,-0.00026931,-0.0
 0114784,0.00101465,0.00097340,-0.03339090,-0.00804800,0.00022555,0.001
 65529,0.00006518,0.00284057,0.00013555,-0.00019480,0.00038291,0.020861
 37,0.00656137,-0.04535930,0.01504352,-0.00695203,-0.00073763,0.0013110
 9,0.00006815,0.00085309,-0.00002723,-0.00001660,0.00008463,0.00001301,
 0.00000103,0.00000459,-0.00000053,0.00000197,0.00000275,-0.00033230,-0
 .00007198,-0.00048143,-0.00140859,-0.00032070,0.00084677,0.02555181,0.
 00772314,-0.00442599,0.00036177,-0.00005818,0.00189036,0.00043356,-0.0
 0017301,-0.00018999,-0.00002188,0.00007022,0.00025288,-0.00012158,0.00
 000650,-0.00009760,0.00013346,-0.00005170,0.00009092,0.00003006,-0.000
 04688,-0.00003078,-0.00001242,-0.00002763,0.00002331,0.00000644,-0.000
 00174,0.00000548,0.00005328,-0.00001544,-0.00004192,-0.00021405,-0.000
 01863,-0.00011653,0.00003277,-0.00000536,0.00003962,-0.00005622,-0.000
 05133,-0.00004267,-0.00003211,-0.00001013,0.00009965,0.00000751,0.0000
 4976,-0.00003422,-0.00001364,-0.00001094,0.00001683,0.00000102,-0.0000
 0097,-0.00000288,-0.00000148,-0.00000301,-0.00000275,-0.00000911,-0.00
 000406,0.00001371,-0.00004154,0.00002844,-0.00002894,-0.00037063,-0.00
 004970,0.00001117,-0.00004012,-0.00001444,-0.00006403,-0.00000528,0.00
 000614,-0.00000955,-0.00002064,-0.00000398,0.00003501,0.00010221,-0.00
 013204,-0.00004858,0.00000801,-0.00002138,-0.00000449,-0.00000331,-0.0
 0003608,0.00000355,0.00015648,0.00011696,-0.00017960,0.00038296,-0.000
 28740,-0.00000495,-0.00181540,-0.00161273,-0.00540876,-0.02792856,-0.0
 0020526,0.05176993,0.00007593,-0.00010853,0.00021168,0.00006438,0.0005
 3070,-0.00008036,-0.00030599,-0.00047045,-0.00009776,0.00027657,0.0000
 6769,-0.00008355,-0.00001859,0.00001399,0.00006070,-0.00404474,0.00026
 294,0.00245897,0.00183591,0.00019515,-0.00127312,-0.00040064,-0.000147
 30,-0.00003386,0.00045521,-0.00030649,0.00026898,0.00001324,0.00014519
 ,0.00001184,-0.00001828,0.00000046,0.00003346,-0.00032484,-0.00034857,
 -0.00045472,-0.00538324,0.00985122,0.00547668,-0.33299813,-0.01699253,
 0.08310465,-0.02364312,-0.00703904,-0.00688814,0.00015567,-0.00054480,
 0.00443894,0.00010437,0.00006400,-0.00047970,0.00054606,-0.00018879,-0
 .00023756,-0.00067134,-0.00000992,0.00076445,-0.00007155,0.00009489,0.
 00006211,0.00004137,0.00002821,-0.00004511,-0.00001865,0.00000632,-0.0
 0001283,-0.00020055,0.00005556,0.00007473,0.00015863,-0.00004986,0.000
 04728,0.00000100,-0.00001936,-0.00002577,0.00069890,0.00009444,-0.0000
 2331,0.00002301,-0.00007941,-0.00023357,-0.00001891,-0.00003898,0.0000
 4754,0.00002163,0.00001018,-0.00003194,0.00000028,0.00000207,0.0000028
 1,0.00000702,0.00000613,0.00000364,0.00002736,0.00002100,-0.00005214,0
 .00008673,-0.00019417,0.00016226,0.00143378,0.00049201,-0.00147357,0.0
 0010914,0.00016824,0.00030697,0.00003632,-0.00000163,-0.00000052,0.000
 05792,-0.00002416,-0.00003788,0.00000445,-0.00000168,-0.00000776,-0.00
 001375,-0.00021441,-0.00011635,-0.00001836,0.00000836,-0.00003113,0.00
 044329,0.00036582,0.00112805,0.00001860,-0.00009075,-0.00018915,0.0004
 7917,0.00016416,0.00029124,0.00034043,0.00024047,0.00023362,0.36063431
 ,-0.00003425,0.00038208,-0.00034809,-0.00050188,-0.00062470,-0.0001632
 0,-0.00077983,-0.00021787,-0.00110027,0.00037440,0.00002545,0.00039329
 ,0.00013169,-0.00011423,0.00005120,-0.02248219,-0.00099422,0.00839357,
 0.00079479,0.00303047,-0.00082509,-0.00052029,-0.00032442,-0.00007784,
 -0.00004893,0.00014207,-0.00018409,-0.00019538,-0.00026576,-0.00011991
 ,0.00001329,0.00003565,-0.00005102,0.00499213,0.00087451,0.00480762,0.
 03530324,-0.01788564,-0.02003188,-0.01803762,-0.03966439,0.00921486,-0
 .01255467,0.00224971,-0.00379851,-0.00000821,-0.00071675,0.00155893,0.
 00023327,-0.00015110,-0.00013348,-0.00035324,0.00012781,0.00045479,0.0
 0061696,-0.00002700,-0.00124658,0.00002589,0.00004111,0.00010718,-0.00
 003443,0.00007539,-0.00007874,-0.00000535,-0.00000139,0.00000003,-0.00
 010537,0.00010847,-0.00010651,0.00010349,-0.00006014,0.00011326,-0.000
 01797,-0.00000725,-0.00001001,-0.00002351,0.00016489,0.00007800,0.0000
 0597,-0.00002608,-0.00017390,0.00001625,-0.00006724,0.00012106,0.00002
 283,0.00001055,-0.00007023,-0.00000048,0.00000100,0.00001240,-0.000004
 02,0.00000263,-0.00000722,-0.00000672,0.00000041,-0.00000124,0.0000075
 2,-0.00005921,0.00002351,0.00052193,0.00024235,-0.00018712,0.00002091,
 -0.00002115,0.00001965,0.00002271,-0.00003057,0.00001039,0.00001931,-0
 .00001444,-0.00003896,-0.00002343,0.00001114,0.00001402,-0.00018818,0.
 00017971,0.00000878,-0.00000357,-0.00003613,0.00002157,-0.00151439,0.0
 0046764,0.00001125,-0.00002236,-0.00015759,0.00003136,0.00041816,0.000
 23179,0.00025098,-0.00016013,-0.00291633,0.00256989,0.01398167,0.05597
 876,-0.00006562,-0.00009470,-0.00025432,-0.00015425,0.00040062,-0.0000
 5100,0.00143132,-0.00008740,0.00128828,-0.00056310,0.00009445,-0.00019
 849,-0.00005879,-0.00002447,-0.00001074,0.02576230,0.00289277,-0.00460
 779,-0.00221076,-0.00201968,0.00157766,-0.00011592,0.00022205,-0.00011
 944,-0.00020715,-0.00007633,0.00000391,-0.00007294,-0.00009233,-0.0000
 6226,0.00001525,0.00000663,-0.00001062,0.00274377,0.00015350,0.0029624
 2,0.01067670,-0.00868599,-0.00230304,0.09095093,0.01185272,-0.07056608
 ,-0.03433745,-0.00697023,-0.00837814,-0.00647060,-0.00170989,0.0047459
 2,0.00028869,0.00009905,-0.00061079,0.00001132,0.00008730,0.00035767,-
 0.00013024,0.00011553,-0.00048931,-0.00000720,0.00009994,0.00005773,0.
 00001148,0.00005489,-0.00003833,-0.00001256,0.00000322,-0.00000928,-0.
 00010192,0.00008376,0.00011007,0.00006149,-0.00011101,0.00003558,0.000
 02648,-0.00000363,-0.00004105,-0.00016892,-0.00014104,-0.00002466,0.00
 013706,0.00008210,-0.00010420,-0.00000312,-0.00009008,0.00006264,0.000
 01200,0.00002259,-0.00003423,0.00000148,0.00000127,0.00000421,-0.00000
 263,0.00000159,0.00000107,0.00001743,0.00001483,-0.00004507,0.00022128
 ,-0.00012098,0.00001806,0.00109255,0.00004422,-0.00028689,0.00019749,0
 .00007591,0.00003094,0.00001483,-0.00000499,-0.00000497,0.00002920,-0.
 00003233,-0.00002316,-0.00002301,0.00000106,0.00001055,-0.00012992,0.0
 0015344,0.00000465,0.00001047,-0.00001903,-0.00000686,-0.00094861,0.00
 015311,-0.00016717,-0.00019231,-0.00003202,0.00011986,-0.00055079,-0.0
 0005133,-0.00044906,0.00009507,0.00316465,-0.00288475,-0.08728078,0.00
 048627,0.08039045\\0.00061914,-0.00405041,-0.00855271,0.01416346,-0.00
 624774,-0.00899921,-0.01782724,-0.02387104,0.02232569,0.00017306,0.004
 76324,0.01540482,0.00021112,-0.00799955,-0.02881734,0.01136040,-0.0135
 4257,0.00366422,-0.00679125,0.01149427,-0.00462913,0.01001993,0.004765
 63,0.01630008,-0.02909832,0.04462119,-0.03532822,0.01997337,-0.0036375
 0,0.01567960,-0.00784558,-0.03362989,-0.00026990,0.03943602,-0.0075089
 3,0.04061596,-0.01971527,0.00879630,0.00880806,-0.02383123,-0.01915626
 ,-0.01252205,0.00028675,0.01750622,-0.00047283,0.01513715,0.02080073,-
 0.00038936,0.00262640,0.02678656,-0.00345947,0.00037893,-0.03241842,0.
 02555116,0.00326873,0.02362553,-0.01315177,-0.02802942,-0.00759705,-0.
 01469550,0.01429194,0.01571534,-0.02206369,-0.00941429,-0.00548011,0.0
 2703587,0.01368953,-0.02634035,-0.00948699,-0.01208116,-0.01412303,0.0
 0697230,-0.00495362,0.03251867,0.00357344,0.00094446,-0.01779107,0.020
 58124,-0.00420274,0.01066213,0.01569479,0.03701567,-0.02162695,-0.0143
 1367,-0.00690632,0.00857644,0.01464794,-0.00301267,-0.00304405,-0.0043
 9914,-0.01944826,-0.00031929,-0.00233975,0.01753249,0.00237742,0.00174
 154,-0.02286588,-0.00147820,-0.00205863,0.02242262,-0.00171212,-0.0001
 7837,-0.02178209,0.00071316,-0.00144465,-0.00610087,-0.00725365,-0.016
 82864,0.01896866,0.00495428,-0.00592772,-0.00248754,0.00557738,0.00189
 855,-0.02284753,0.00615259,-0.00702117,0.00188457,0.00793487,-0.020673
 36,0.02359036,-0.00444552,-0.00019740,-0.01858158,-0.00164768,0.001632
 13,0.02093676,0.00279824,-0.00004523,-0.02034059,0.00021092,0.00214891
 ,0.01923190,0.00357028,-0.00601038\\\@


 Everything starts as somebody's daydream.
                           -- Larry Niven
 Job cpu time:  0 days 12 hours 41 minutes 45.2 seconds.
 File lengths (MBytes):  RWF=   1327 Int=      0 D2E=      0 Chk=     19 Scr=      1
 Normal termination of Gaussian 09 at Thu Jan 21 04:41:05 2016.
Gaussian '09 finished on node005 at Thu Jan 21 04:41:05 EST 2016.
