Gaussian '09 started on node025 at Sun Mar 27 18:04:57 EDT 2016.
 Entering Gaussian System, Link 0=/usr/local/gaussian/g09/g09
 Initial command:
 /usr/local/gaussian/g09/l1.exe /home/srmcgrat/thesis/gaussian/cellobiose/473K/6000ps/1/2dp/gaussian23336/Gau-23372.inp -scrdir=/home/srmcgrat/thesis/gaussian/cellobiose/473K/6000ps/1/2dp/gaussian23336/
 Entering Link 1 = /usr/local/gaussian/g09/l1.exe PID=     23374.
  
 Copyright (c) 1988,1990,1992,1993,1995,1998,2003,2009,2010,
            Gaussian, Inc.  All Rights Reserved.
  
 This is part of the Gaussian(R) 09 program.  It is based on
 the Gaussian(R) 03 system (copyright 2003, Gaussian, Inc.),
 the Gaussian(R) 98 system (copyright 1998, Gaussian, Inc.),
 the Gaussian(R) 94 system (copyright 1995, Gaussian, Inc.),
 the Gaussian 92(TM) system (copyright 1992, Gaussian, Inc.),
 the Gaussian 90(TM) system (copyright 1990, Gaussian, Inc.),
 the Gaussian 88(TM) system (copyright 1988, Gaussian, Inc.),
 the Gaussian 86(TM) system (copyright 1986, Carnegie Mellon
 University), and the Gaussian 82(TM) system (copyright 1983,
 Carnegie Mellon University). Gaussian is a federally registered
 trademark of Gaussian, Inc.
  
 This software contains proprietary and confidential information,
 including trade secrets, belonging to Gaussian, Inc.
  
 This software is provided under written license and may be
 used, copied, transmitted, or stored only in accord with that
 written license.
  
 The following legend is applicable only to US Government
 contracts under FAR:
  
                    RESTRICTED RIGHTS LEGEND
  
 Use, reproduction and disclosure by the US Government is
 subject to restrictions as set forth in subparagraphs (a)
 and (c) of the Commercial Computer Software - Restricted
 Rights clause in FAR 52.227-19.
  
 Gaussian, Inc.
 340 Quinnipiac St., Bldg. 40, Wallingford CT 06492
  
  
 ---------------------------------------------------------------
 Warning -- This program may not be used in any manner that
 competes with the business of Gaussian, Inc. or will provide
 assistance to any competitor of Gaussian, Inc.  The licensee
 of this program is prohibited from giving any competitor of
 Gaussian, Inc. access to this program.  By using this program,
 the user acknowledges that Gaussian, Inc. is engaged in the
 business of creating and licensing software in the field of
 computational chemistry and represents and warrants to the
 licensee that it is not a competitor of Gaussian, Inc. and that
 it will not use this program in any manner prohibited above.
 ---------------------------------------------------------------
  

 Cite this work as:
 Gaussian 09, Revision B.01,
 M. J. Frisch, G. W. Trucks, H. B. Schlegel, G. E. Scuseria, 
 M. A. Robb, J. R. Cheeseman, G. Scalmani, V. Barone, B. Mennucci, 
 G. A. Petersson, H. Nakatsuji, M. Caricato, X. Li, H. P. Hratchian, 
 A. F. Izmaylov, J. Bloino, G. Zheng, J. L. Sonnenberg, M. Hada, 
 M. Ehara, K. Toyota, R. Fukuda, J. Hasegawa, M. Ishida, T. Nakajima, 
 Y. Honda, O. Kitao, H. Nakai, T. Vreven, J. A. Montgomery, Jr., 
 J. E. Peralta, F. Ogliaro, M. Bearpark, J. J. Heyd, E. Brothers, 
 K. N. Kudin, V. N. Staroverov, T. Keith, R. Kobayashi, J. Normand, 
 K. Raghavachari, A. Rendell, J. C. Burant, S. S. Iyengar, J. Tomasi, 
 M. Cossi, N. Rega, J. M. Millam, M. Klene, J. E. Knox, J. B. Cross, 
 V. Bakken, C. Adamo, J. Jaramillo, R. Gomperts, R. E. Stratmann, 
 O. Yazyev, A. J. Austin, R. Cammi, C. Pomelli, J. W. Ochterski, 
 R. L. Martin, K. Morokuma, V. G. Zakrzewski, G. A. Voth, 
 P. Salvador, J. J. Dannenberg, S. Dapprich, A. D. Daniels, 
 O. Farkas, J. B. Foresman, J. V. Ortiz, J. Cioslowski, 
 and D. J. Fox, Gaussian, Inc., Wallingford CT, 2010.
 
 ******************************************
 Gaussian 09:  EM64L-G09RevB.01 12-Aug-2010
                27-Mar-2016 
 ******************************************
 -------------------------------------------------
 # freq=raman b3lyp/6-31+g(2d,p) geom=connectivity
 -------------------------------------------------
 1/10=4,30=1,38=1,57=2/1,3;
 2/12=2,17=6,18=5,40=1/2;
 3/5=1,6=6,7=112,11=2,16=1,25=1,30=1,71=2,74=-5/1,2,3;
 4//1;
 5/5=2,38=5,98=1/2;
 8/6=4,10=90,11=11/1;
 10/13=10,15=4/2;
 11/6=3,8=1,9=11,15=111,16=1/1,2,10;
 10/6=1/2;
 6/7=2,8=2,9=2,10=2,18=1,28=1/1;
 7/8=1,10=1,25=1/1,2,3,16;
 1/10=4,30=1/3;
 99//99;
 -----------------
 473 6000/6000.com
 -----------------
 Symbolic Z-matrix:
 Charge =  0 Multiplicity = 1
 O                     7.631     7.415     12.181 
 C                     8.074     7.741     13.506 
 C                     7.583     9.066     14.065 
 O                     7.89      10.153    13.179 
 H                     7.726     9.726     12.29 
 C                     8.268     9.391     15.382 
 O                     7.732     10.553    16.033 
 H                     8.103     10.654    16.956 
 C                     8.336     5.355     14.219 
 O                     7.829     4.653     13.075 
 H                     7.942     3.688     13.309 
 C                     7.795     6.723     14.6 
 O                     8.488     7.027     15.819 
 C                     8.063     8.273     16.391 
 O                     8.914     8.525     17.519 
 C                     8.238     8.288     18.763 
 C                     8.737     6.949     19.281 
 O                     8.65      5.89      18.316 
 H                     9.022     6.311     17.488 
 C                     8.101     6.584     20.613 
 O                     8.45      5.353     21.263 
 H                     8.08      5.258     22.188 
 C                     8.193     10.692    19.543 
 O                     8.641     11.41     18.384 
 H                     8.329     12.359    18.429 
 C                     8.669     9.278     19.833 
 O                     7.93      8.986     21.028 
 C                     8.317     7.725     21.593 
 O                     7.436     7.496     22.702 
 H                     7.95387   7.33253   23.49364 
 H                     8.39305   7.27551   11.61406 
 H                     8.19367   4.71622   15.06552 
 H                     9.39057   5.46531   14.07541 
 H                     6.74263   6.66154   14.7834 
 H                     9.139     7.82227   13.44225 
 H                     6.52485   9.01819   14.21643 
 H                     9.31543   9.52967   15.213 
 H                     7.03839   8.22004   16.69476 
 H                     8.45014   11.28653   20.39465 
 H                     7.12489   10.65512   19.49124 
 H                     9.72441   9.24374   20.00574 
 H                     7.17535   8.28505   18.63781 
 H                     9.78027   7.08063   19.47887 
 H                     7.04744   6.53427   20.43289 
 H                     9.33517   7.75429   21.92068 
 

 GradGradGradGradGradGradGradGradGradGradGradGradGradGradGradGradGradGrad
 Berny optimization.
 Initialization pass.
 Trust Radius=3.00D-01 FncErr=1.00D-07 GrdErr=1.00D-07
 Number of steps in this run=      2 maximum allowed number of steps=      2.
 GradGradGradGradGradGradGradGradGradGradGradGradGradGradGradGradGradGrad

                          Input orientation:                          
 ---------------------------------------------------------------------
 Center     Atomic      Atomic             Coordinates (Angstroms)
 Number     Number       Type             X           Y           Z
 ---------------------------------------------------------------------
      1          8           0        7.631000    7.415000   12.181000
      2          6           0        8.074000    7.741000   13.506000
      3          6           0        7.583000    9.066000   14.065000
      4          8           0        7.890000   10.153000   13.179000
      5          1           0        7.726000    9.726000   12.290000
      6          6           0        8.268000    9.391000   15.382000
      7          8           0        7.732000   10.553000   16.033000
      8          1           0        8.103000   10.654000   16.956000
      9          6           0        8.336000    5.355000   14.219000
     10          8           0        7.829000    4.653000   13.075000
     11          1           0        7.942000    3.688000   13.309000
     12          6           0        7.795000    6.723000   14.600000
     13          8           0        8.488000    7.027000   15.819000
     14          6           0        8.063000    8.273000   16.391000
     15          8           0        8.914000    8.525000   17.519000
     16          6           0        8.238000    8.288000   18.763000
     17          6           0        8.737000    6.949000   19.281000
     18          8           0        8.650000    5.890000   18.316000
     19          1           0        9.022000    6.311000   17.488000
     20          6           0        8.101000    6.584000   20.613000
     21          8           0        8.450000    5.353000   21.263000
     22          1           0        8.080000    5.258000   22.188000
     23          6           0        8.193000   10.692000   19.543000
     24          8           0        8.641000   11.410000   18.384000
     25          1           0        8.329000   12.359000   18.429000
     26          6           0        8.669000    9.278000   19.833000
     27          8           0        7.930000    8.986000   21.028000
     28          6           0        8.317000    7.725000   21.593000
     29          8           0        7.436000    7.496000   22.702000
     30          1           0        7.953869    7.332533   23.493638
     31          1           0        8.393051    7.275511   11.614060
     32          1           0        8.193665    4.716221   15.065524
     33          1           0        9.390567    5.465313   14.075408
     34          1           0        6.742628    6.661541   14.783402
     35          1           0        9.139003    7.822270   13.442245
     36          1           0        6.524850    9.018185   14.216433
     37          1           0        9.315430    9.529671   15.213000
     38          1           0        7.038389    8.220038   16.694755
     39          1           0        8.450138   11.286530   20.394654
     40          1           0        7.124889   10.655123   19.491236
     41          1           0        9.724408    9.243739   20.005741
     42          1           0        7.175353    8.285045   18.637808
     43          1           0        9.780275    7.080629   19.478868
     44          1           0        7.047441    6.534267   20.432889
     45          1           0        9.335169    7.754287   21.920679
 ---------------------------------------------------------------------
                    Distance matrix (angstroms):
                    1          2          3          4          5
     1  O    0.000000
     2  C    1.434625   0.000000
     3  C    2.505506   1.519601   0.000000
     4  O    2.925701   2.441010   1.435554   0.000000
     5  H    2.315519   2.353717   1.899125   0.999773   0.000000
     6  C    3.815330   2.505895   1.519651   2.361512   3.156969
     7  O    4.969421   3.796055   2.471112   2.886222   3.833277
     8  H    5.789174   4.515408   3.339165   3.816032   4.772302
     9  C    2.982293   2.503999   3.789755   4.929637   4.816511
    10  O    2.909825   3.127544   4.529369   5.501321   5.134410
    11  H    3.906358   4.059931   5.442729   6.466516   6.127190
    12  C    2.521373   1.520198   2.412637   3.713915   3.789310
    13  O    3.757664   2.455842   2.837792   4.135103   4.507670
    14  C    4.318204   2.933662   2.503902   3.725758   4.363826
    15  O    5.601110   4.174257   3.740903   4.747058   5.495106
    16  C    6.667331   5.287925   4.806819   5.897490   6.650543
    17  C    7.200722   5.866639   5.746308   6.943877   7.589989
    18  O    6.403297   5.185950   5.412621   6.718596   7.202871
    19  H    5.596244   4.335888   4.623600   5.883015   6.353034
    20  C    8.485876   7.200613   7.021749   8.249039   8.904219
    21  O    9.349082   8.124960   8.145506   9.418315  10.008098
    22  H   10.246673   9.030086   8.985043  10.254716  10.865484
    23  C    8.077971   6.720709   5.746691   6.393968   7.331934
    24  O    7.446968   6.130084   5.026675   5.407039   6.388264
    25  H    7.997990   6.754767   5.517686   5.711537   6.706983
    26  C    7.943634   6.538144   5.873173   6.756344   7.614907
    27  O    8.990375   7.625696   6.972100   7.935382   8.771651
    28  C    9.442057   8.090666   7.681655   8.767720   9.534101
    29  O   10.523119   9.221360   8.779765   9.897136  10.652077
    30  H   11.317545   9.996708   9.593834  10.693496  11.458713
    31  H    0.960000   1.974313   3.141519   3.313916   2.628069
    32  H    3.990047   3.405249   4.504946   5.762790   5.746314
    33  H    3.238231   2.690042   4.028939   5.002965   4.910389
    34  H    2.851211   2.137648   2.646460   4.010094   4.071238
    35  H    2.007655   1.070000   2.087063   2.657369   2.635988
    36  H    2.817225   2.129738   1.070000   2.056139   2.378005
    37  H    4.062285   2.766648   2.129368   2.560771   3.332981
    38  H    4.623122   3.386758   2.815647   4.101478   4.705592
    39  H    9.117228   7.756663   6.763667   7.325592   8.285230
    40  H    8.012122   6.724282   5.672672   6.378232   7.285767
    41  H    8.303808   6.872315   6.317407   7.127146   7.984915
    42  H    6.531077   5.238226   4.656892   5.813653   6.532552
    43  H    7.615121   6.246809   6.170874   7.259541   7.930817
    44  H    8.319249   7.105759   6.873609   8.150094   8.772357
    45  H    9.893465   8.508675   8.154899   9.179286   9.961278
                    6          7          8          9         10
     6  C    0.000000
     7  O    1.435737   0.000000
     8  H    2.024814   0.999885   0.000000
     9  C    4.200772   5.538467   5.968656   0.000000
    10  O    5.288063   6.600695   7.151870   1.434778   0.000000
    11  H    6.076826   7.388674   7.864584   1.939646   0.999375
    12  C    2.820191   4.089787   4.593295   1.519627   2.571319
    13  O    2.414097   3.612479   3.820487   2.319200   3.687776
    14  C    1.519878   2.331550   2.447445   3.647854   4.914775
    15  O    2.394586   2.778148   2.346770   4.612265   5.993225
    16  C    3.556497   3.583178   2.980173   5.409254   6.762681
    17  C    4.624449   4.954629   4.419797   5.322169   6.679110
    18  O    4.583806   5.272417   4.984426   4.143698   5.447228
    19  H    3.806593   4.666443   4.470932   3.474319   4.862796
    20  C    5.938897   6.071698   5.471613   6.515282   7.786154
    21  O    7.136156   7.410022   6.838952   7.044923   8.241298
    22  H    7.964840   8.126632   7.516061   7.973701   9.136509
    23  C    4.360292   3.542872   2.588844   7.539827   8.856469
    24  O    3.636962   2.662317   1.702987   7.355493   8.631447
    25  H    4.254051   3.059226   2.264471   8.171913   9.396688
    26  C    4.470455   4.116260   3.238960   6.856954   8.232059
    27  O    5.670589   5.238771   4.403787   7.727320   9.057334
    28  C    6.430745   6.265254   5.488771   7.745524   9.068167
    29  O    7.606947   7.342236   6.590476   8.795179  10.045707
    30  H    8.374642   8.129068   7.334514   9.490815  10.758415
    31  H    4.322997   5.541295   6.327293   3.236871   3.054516
    32  H    4.686069   5.934402   6.232121   1.070000   2.024639
    33  H    4.286998   5.698032   6.072735   1.070000   2.024639
    34  H    3.183555   4.205211   4.744525   2.136454   2.851855
    35  H    2.642387   4.018526   4.630170   2.708428   3.448948
    36  H    2.129815   2.666980   3.559730   4.086465   4.696650
    37  H    1.070000   2.055931   2.402530   4.401727   5.528330
    38  H    2.146258   2.522247   2.669423   4.002699   5.143097
    39  H    5.362174   4.480827   3.513536   8.563573   9.897821
    40  H    4.448655   3.512607   2.717374   7.573280   8.814156
    41  H    4.849927   4.633199   3.730781   7.108892   8.526584
    42  H    3.607950   3.498357   3.049747   5.427535   6.675615
    43  H    4.940558   5.303470   4.684773   5.721008   7.121122
    44  H    5.929769   5.998155   5.493192   6.454724   7.634692
    45  H    6.824368   6.713249   5.880018   8.128393   9.493817
                   11         12         13         14         15
    11  H    0.000000
    12  C    3.301441   0.000000
    13  O    4.212735   1.434791   0.000000
    14  C    5.525902   2.383696   1.435383   0.000000
    15  O    6.485789   3.608313   2.305532   1.435301   0.000000
    16  C    7.140990   4.469457   3.212438   2.378494   1.435507
    17  C    6.850615   4.780188   3.471819   3.249516   2.370601
    18  O    5.515443   3.903021   2.748458   3.119116   2.765525
    19  H    5.050799   3.164778   1.892980   2.443877   2.216849
    20  C    7.858786   6.022385   4.829954   4.547466   3.741829
    21  O    8.142260   6.833849   5.695687   5.693202   4.928937
    22  H    9.017793   7.733382   6.622687   6.534196   5.759202
    23  C    9.379860   6.351741   5.233300   3.975370   3.051607
    24  O    9.266796   6.082955   5.080681   3.761237   3.024232
    25  H   10.077222   6.834537   5.938653   4.573794   3.983702
    26  C    8.622019   5.888649   4.605644   3.636568   2.445737
    27  O    9.362260   6.816053   5.593096   4.693381   3.673399
    28  C    9.222942   7.083681   5.818550   5.236948   4.194507
    29  O   10.148170   8.146706   6.978707   6.389490   5.486968
    30  H   10.817098   8.915916   7.699267   7.165462   6.167668
    31  H    3.993308   3.094959   4.213347   4.891122   6.058129
    32  H    2.050841   2.098287   2.448276   3.797978   4.587507
    33  H    2.417555   2.098287   2.508706   3.873952   4.631104
    34  H    3.529065   1.070000   2.062122   2.631454   3.958640
    35  H    4.306130   2.086895   2.589444   3.171134   4.142992
    36  H    5.589510   2.651090   3.222887   2.765854   4.105876
    37  H    6.295764   3.250366   2.704670   2.129668   2.547184
    38  H    5.728806   2.683576   2.071632   1.070000   2.071304
    39  H   10.402036   7.404933   6.251531   5.025981   4.013801
    40  H    9.350322   6.311484   5.339163   4.020700   3.409994
    41  H    8.881979   6.268874   4.896064   4.094993   2.712421
    42  H    7.079320   4.373539   3.354311   2.415825   2.081394
    43  H    7.277119   5.279448   3.881686   3.729036   2.584129
    44  H    7.723423   5.883626   4.858597   4.515686   3.992219
    45  H    9.624792   7.551689   6.202993   5.697791   4.488447
                   16         17         18         19         20
    16  C    0.000000
    17  C    1.519949   0.000000
    18  O    2.473855   1.435366   0.000000
    19  H    2.479679   1.924349   1.000604   0.000000
    20  C    2.518906   1.520508   2.461554   3.269311   0.000000
    21  O    3.861239   2.560841   3.002196   3.936442   1.435152
    22  H    4.575641   3.426628   3.964430   4.907767   2.058966
    23  C    2.527774   3.791389   4.977307   4.909524   4.246060
    24  O    3.170636   4.551302   5.520426   5.191125   5.343250
    25  H    4.085692   5.491855   6.477945   6.159873   6.178387
    26  C    1.520119   2.394487   3.712168   3.798253   2.861583
    27  O    2.390040   2.802254   4.178344   4.569430   2.443577
    28  C    2.886539   2.474656   3.770523   4.398573   1.519519
    29  O    4.097095   3.700683   4.825974   5.577223   2.374424
    30  H    4.834520   4.301942   5.419726   6.184829   2.979937
    31  H    7.221947   7.681594   6.848479   5.985736   9.030194
    32  H    5.141099   4.801120   3.485914   3.016264   5.854202
    33  H    5.591913   5.452216   4.325669   3.535083   6.756815
    34  H    4.551780   4.928340   4.088104   3.554330   5.986267
    35  H    5.416562   5.917370   5.265574   4.320388   7.350543
    36  H    4.913179   5.901269   5.577478   4.926232   7.023217
    37  H    3.912173   4.852120   4.828935   3.952413   6.269914
    38  H    2.391929   3.345068   3.264169   2.865026   4.377031
    39  H    3.420304   4.487392   5.786474   5.790645   4.720526
    40  H    2.715256   4.047030   5.139411   5.146202   4.334189
    41  H    2.160382   2.601163   3.906039   3.928531   3.174654
    42  H    1.070000   2.153475   2.830969   2.937519   2.766181
    43  H    2.085383   1.070000   2.011810   2.265141   2.086351
    44  H    2.698433   2.086495   2.732122   3.552619   1.070000
    45  H    3.385198   2.823862   4.115669   4.672237   2.145407
                   21         22         23         24         25
    21  O    0.000000
    22  H    1.000775   0.000000
    23  C    5.615102   6.044597   0.000000
    24  O    6.709126   7.254808   1.435099   0.000000
    25  H    7.558454   8.038425   2.009572   0.999985   0.000000
    26  C    4.183119   4.696099   1.519892   2.577947   3.402848
    27  O    3.677542   3.907184   2.277022   3.656779   4.276813
    28  C    2.398536   2.548781   3.608457   4.897130   5.611149
    29  O    2.773331   2.384864   4.557055   5.951180   6.534887
    30  H    3.023316   2.454442   5.191410   6.573149   7.145393
    31  H    9.838767  10.769241   8.636000   7.936470   8.502315
    32  H    6.235375   7.143956   7.467110   7.484589   8.351249
    33  H    7.249742   8.220384   7.658132   7.380048   8.222141
    34  H    6.827341   7.654186   6.403276   6.254277   6.947517
    35  H    8.230202   9.175249   6.808045   6.127051   6.790121
    36  H    8.172753   8.950048   5.827238   5.250475   5.671131
    37  H    7.402435   8.271885   4.621662   3.747764   4.395543
    38  H    5.575071   6.327271   3.944138   3.949401   4.669507
    39  H    5.996733   6.300498   1.070000   2.023463   2.242467
    40  H    5.745222   6.108495   1.070000   2.023463   2.341244
    41  H    4.282834   4.832437   2.157962   2.914877   3.760070
    42  H    4.136816   4.752394   2.765576   3.460908   4.239294
    43  H    2.817350   3.681346   3.945321   4.608702   5.574013
    44  H    2.012870   2.403217   4.403516   5.523599   6.291699
    45  H    2.642394   2.806841   3.948172   5.133635   5.865798
                   26         27         28         29         30
    26  C    0.000000
    27  O    1.435064   0.000000
    28  C    2.373460   1.434962   0.000000
    29  O    3.595410   2.294866   1.434741   0.000000
    30  H    4.206723   2.968820   1.974416   0.960000   0.000000
    31  H    8.463869   9.579272   9.989348  11.131351  11.887830
    32  H    6.615482   7.338368   7.188596   8.161923   8.828119
    33  H    6.943133   7.928873   7.922936   9.075357   9.708432
    34  H    6.004599   6.768158   7.069669   7.992576   8.819611
    35  H    6.571286   7.769146   8.192677   9.420707  10.132861
    36  H    6.017533   6.955065   7.700511   8.669031   9.536773
    37  H    4.671789   6.002434   6.705080   7.984560   8.674688
    38  H    3.691444   4.489842   5.086523   6.063771   6.917411
    39  H    2.097034   2.442153   3.760087   4.551971   5.048176
    40  H    2.097034   2.407451   3.797916   4.515070   5.267451
    41  H    1.070000   2.081188   2.608976   3.944770   4.353497
    42  H    2.155324   2.602661   3.217167   4.148275   5.009236
    43  H    2.487726   3.074698   2.650649   4.007086   4.417871
    44  H    3.243053   2.672838   2.091766   2.494950   3.290444
    45  H    2.669061   2.070868   1.070000   2.069787   2.135431
                   31         32         33         34         35
    31  H    0.000000
    32  H    4.301433   0.000000
    33  H    3.214046   1.724541   0.000000
    34  H    3.625684   2.443230   2.990618   0.000000
    35  H    2.048817   3.629908   2.453451   2.981376   0.000000
    36  H    3.646839   4.691780   4.566741   2.433650   2.977142
    37  H    4.345617   4.944634   4.221228   3.876858   2.466155
    38  H    5.342350   4.033087   4.470148   2.483879   3.892251
    39  H    9.653515   8.463709   8.643138   7.469421   7.798181
    40  H    8.664866   7.483299   7.835727   6.185347   6.976532
    41  H    8.721625   6.873670   7.039659   6.544584   6.741124
    42  H    7.199652   5.151182   5.802892   4.204695   5.573505
    43  H    7.988590   5.252177   5.653184   5.608060   6.115724
    44  H    8.951639   5.781671   6.859334   5.659135   7.409634
    45  H   10.360657   7.584591   8.172560   7.671772   8.480975
                   36         37         38         39         40
    36  H    0.000000
    37  H    3.007009   0.000000
    38  H    2.653835   3.015900   0.000000
    39  H    6.857298   5.539388   5.008559   0.000000
    40  H    5.555462   4.936437   3.709101   1.723694   0.000000
    41  H    6.618470   4.818650   4.384666   2.438856   3.002369
    42  H    4.528709   4.225912   1.948959   3.704119   2.519555
    43  H    6.484222   4.940801   4.070316   4.505279   4.452891
    44  H    6.714706   6.431443   4.100677   4.955101   4.227785
    45  H    8.297635   6.938684   5.727338   3.948263   4.382053
                   41         42         43         44         45
    41  H    0.000000
    42  H    3.047625   0.000000
    43  H    2.227052   2.990588   0.000000
    44  H    3.832734   2.510757   2.945683   0.000000
    45  H    2.457023   3.965318   2.571842   2.989259   0.000000
 Stoichiometry    C12H22O11
 Framework group  C1[X(C12H22O11)]
 Deg. of freedom   129
 Full point group                 C1      NOp   1
 Largest Abelian subgroup         C1      NOp   1
 Largest concise Abelian subgroup C1      NOp   1
                         Standard orientation:                         
 ---------------------------------------------------------------------
 Center     Atomic      Atomic             Coordinates (Angstroms)
 Number     Number       Type             X           Y           Z
 ---------------------------------------------------------------------
      1          8           0       -5.122329   -0.293288    0.365664
      2          6           0       -3.767679   -0.040864   -0.033528
      3          6           0       -3.159967    1.261653    0.459748
      4          8           0       -3.978339    2.386996    0.106640
      5          1           0       -4.893076    2.007645    0.244101
      6          6           0       -1.804796    1.509843   -0.181542
      7          8           0       -1.115110    2.645645    0.362175
      8          1           0       -0.175638    2.694627    0.023405
      9          6           0       -3.167681   -2.463297   -0.238060
     10          8           0       -4.362992   -3.099323    0.236587
     11          1           0       -4.174342   -4.076436    0.144874
     12          6           0       -2.737217   -1.108157    0.298190
     13          8           0       -1.480640   -0.876142   -0.354351
     14          6           0       -0.861623    0.345840    0.074488
     15          8           0        0.307080    0.528117   -0.738531
     16          6           0        1.512793    0.239194   -0.015025
     17          6           0        1.979596   -1.131454   -0.477263
     18          8           0        0.959703   -2.139283   -0.411127
     19          1           0        0.167770   -1.682913   -0.818286
     20          6           0        3.268069   -1.553217    0.211140
     21          8           0        3.866790   -2.820381   -0.097876
     22          1           0        4.772127   -2.956095    0.306472
     23          6           0        2.411526    2.601441    0.026281
     24          8           0        1.306963    3.369867   -0.472690
     25          1           0        1.388933    4.319996   -0.171848
     26          6           0        2.646152    1.167680   -0.420206
     27          8           0        3.797944    0.827237    0.365213
     28          6           0        4.311650   -0.466193    0.015556
     29          8           0        5.375779   -0.737273    0.938936
     30          1           0        6.175931   -0.948013    0.452165
     31          1           0       -5.668310   -0.415597   -0.414428
     32          1           0       -2.360175   -3.141527   -0.056848
     33          1           0       -3.268122   -2.361780   -1.298487
     34          1           0       -2.594488   -1.162916    1.357213
     35          1           0       -3.789539    0.027487   -1.101119
     36          1           0       -3.048658    1.222210    1.523211
     37          1           0       -1.929413    1.641061   -1.236128
     38          1           0       -0.597358    0.293110    1.109999
     39          1           0        3.300770    3.148567   -0.207812
     40          1           0        2.320228    2.583264    1.092223
     41          1           0        2.854143    1.108938   -1.468151
     42          1           0        1.350119    0.258494    1.042361
     43          1           0        2.220643   -1.025611   -1.514371
     44          1           0        3.048532   -1.578013    1.258082
     45          1           0        4.676186   -0.468686   -0.990430
 ---------------------------------------------------------------------
 Rotational constants (GHZ):      0.4111278      0.1461931      0.1111381
 Standard basis: 6-31+G(2d,p) (6D, 7F)
 There are   685 symmetry adapted basis functions of A   symmetry.
 Integral buffers will be    131072 words long.
 Raffenetti 2 integral format.
 Two-electron integral symmetry is turned on.
   685 basis functions,  1028 primitive gaussians,   685 cartesian basis functions
    91 alpha electrons       91 beta electrons
       nuclear repulsion energy      2294.8700079530 Hartrees.
 NAtoms=   45 NActive=   45 NUniq=   45 SFac= 1.00D+00 NAtFMM=   50 NAOKFM=F Big=F
 One-electron integrals computed using PRISM.
 NBasis=   685 RedAO= T  NBF=   685
 NBsUse=   685 1.00D-06 NBFU=   685
 Harris functional with IExCor=  402 diagonalized for initial guess.
 ExpMin= 4.38D-02 ExpMax= 5.48D+03 ExpMxC= 8.25D+02 IAcc=2 IRadAn=         0 AccDes= 0.00D+00
 HarFok:  IExCor=  402 AccDes= 0.00D+00 IRadAn=         0 IDoV= 1
 ScaDFX=  1.000000  1.000000  1.000000  1.000000
 FoFCou: FMM=F IPFlag=           0 FMFlag=      100000 FMFlg1=           0
         NFxFlg=           0 DoJE=T BraDBF=F KetDBF=T FulRan=T
         Omega=  0.000000  0.000000  1.000000  0.000000  0.000000 ICntrl=     500 IOpCl=  0
         NMat0=    1 NMatS0=    1 NMatT0=    0 NMatD0=    1 NMtDS0=    0 NMtDT0=    0
         I1Cent=           4 NGrid=           0.
 Petite list used in FoFCou.
 Initial guess orbital symmetries:
       Occupied  (A) (A) (A) (A) (A) (A) (A) (A) (A) (A) (A) (A)
                 (A) (A) (A) (A) (A) (A) (A) (A) (A) (A) (A) (A)
                 (A) (A) (A) (A) (A) (A) (A) (A) (A) (A) (A) (A)
                 (A) (A) (A) (A) (A) (A) (A) (A) (A) (A) (A) (A)
                 (A) (A) (A) (A) (A) (A) (A) (A) (A) (A) (A) (A)
                 (A) (A) (A) (A) (A) (A) (A) (A) (A) (A) (A) (A)
                 (A) (A) (A) (A) (A) (A) (A) (A) (A) (A) (A) (A)
                 (A) (A) (A) (A) (A) (A) (A)
       Virtual   (A) (A) (A) (A) (A) (A) (A) (A) (A) (A) (A) (A)
                 (A) (A) (A) (A) (A) (A) (A) (A) (A) (A) (A) (A)
                 (A) (A) (A) (A) (A) (A) (A) (A) (A) (A) (A) (A)
                 (A) (A) (A) (A) (A) (A) (A) (A) (A) (A) (A) (A)
                 (A) (A) (A) (A) (A) (A) (A) (A) (A) (A) (A) (A)
                 (A) (A) (A) (A) (A) (A) (A) (A) (A) (A) (A) (A)
                 (A) (A) (A) (A) (A) (A) (A) (A) (A) (A) (A) (A)
                 (A) (A) (A) (A) (A) (A) (A) (A) (A) (A) (A) (A)
                 (A) (A) (A) (A) (A) (A) (A) (A) (A) (A) (A) (A)
                 (A) (A) (A) (A) (A) (A) (A) (A) (A) (A) (A) (A)
                 (A) (A) (A) (A) (A) (A) (A) (A) (A) (A) (A) (A)
                 (A) (A) (A) (A) (A) (A) (A) (A) (A) (A) (A) (A)
                 (A) (A) (A) (A) (A) (A) (A) (A) (A) (A) (A) (A)
                 (A) (A) (A) (A) (A) (A) (A) (A) (A) (A) (A) (A)
                 (A) (A) (A) (A) (A) (A) (A) (A) (A) (A) (A) (A)
                 (A) (A) (A) (A) (A) (A) (A) (A) (A) (A) (A) (A)
                 (A) (A) (A) (A) (A) (A) (A) (A) (A) (A) (A) (A)
                 (A) (A) (A) (A) (A) (A) (A) (A) (A) (A) (A) (A)
                 (A) (A) (A) (A) (A) (A) (A) (A) (A) (A) (A) (A)
                 (A) (A) (A) (A) (A) (A) (A) (A) (A) (A) (A) (A)
                 (A) (A) (A) (A) (A) (A) (A) (A) (A) (A) (A) (A)
                 (A) (A) (A) (A) (A) (A) (A) (A) (A) (A) (A) (A)
                 (A) (A) (A) (A) (A) (A) (A) (A) (A) (A) (A) (A)
                 (A) (A) (A) (A) (A) (A) (A) (A) (A) (A) (A) (A)
                 (A) (A) (A) (A) (A) (A) (A) (A) (A) (A) (A) (A)
                 (A) (A) (A) (A) (A) (A) (A) (A) (A) (A) (A) (A)
                 (A) (A) (A) (A) (A) (A) (A) (A) (A) (A) (A) (A)
                 (A) (A) (A) (A) (A) (A) (A) (A) (A) (A) (A) (A)
                 (A) (A) (A) (A) (A) (A) (A) (A) (A) (A) (A) (A)
                 (A) (A) (A) (A) (A) (A) (A) (A) (A) (A) (A) (A)
                 (A) (A) (A) (A) (A) (A) (A) (A) (A) (A) (A) (A)
                 (A) (A) (A) (A) (A) (A) (A) (A) (A) (A) (A) (A)
                 (A) (A) (A) (A) (A) (A) (A) (A) (A) (A) (A) (A)
                 (A) (A) (A) (A) (A) (A) (A) (A) (A) (A) (A) (A)
                 (A) (A) (A) (A) (A) (A) (A) (A) (A) (A) (A) (A)
                 (A) (A) (A) (A) (A) (A) (A) (A) (A) (A) (A) (A)
                 (A) (A) (A) (A) (A) (A) (A) (A) (A) (A) (A) (A)
                 (A) (A) (A) (A) (A) (A) (A) (A) (A) (A) (A) (A)
                 (A) (A) (A) (A) (A) (A) (A) (A) (A) (A) (A) (A)
                 (A) (A) (A) (A) (A) (A) (A) (A) (A) (A) (A) (A)
                 (A) (A) (A) (A) (A) (A) (A) (A) (A) (A) (A) (A)
                 (A) (A) (A) (A) (A) (A) (A) (A) (A) (A) (A) (A)
                 (A) (A) (A) (A) (A) (A) (A) (A) (A) (A) (A) (A)
                 (A) (A) (A) (A) (A) (A) (A) (A) (A) (A) (A) (A)
                 (A) (A) (A) (A) (A) (A) (A) (A) (A) (A) (A) (A)
                 (A) (A) (A) (A) (A) (A) (A) (A) (A) (A) (A) (A)
                 (A) (A) (A) (A) (A) (A) (A) (A) (A) (A) (A) (A)
                 (A) (A) (A) (A) (A) (A) (A) (A) (A) (A) (A) (A)
                 (A) (A) (A) (A) (A) (A) (A) (A) (A) (A) (A) (A)
                 (A) (A) (A) (A) (A) (A)
 The electronic state of the initial guess is 1-A.
 Requested convergence on RMS density matrix=1.00D-08 within 128 cycles.
 Requested convergence on MAX density matrix=1.00D-06.
 Requested convergence on             energy=1.00D-06.
 No special actions if energy rises.
 SCF Done:  E(RB3LYP) =  -1297.98336112     A.U. after   13 cycles
             Convg  =    0.5409D-08             -V/T =  2.0063
 Range of M.O.s used for correlation:     1   685
 NBasis=   685 NAE=    91 NBE=    91 NFC=     0 NFV=     0
 NROrb=    685 NOA=    91 NOB=    91 NVA=   594 NVB=   594

 **** Warning!!: The largest alpha MO coefficient is  0.73168463D+02

          Differentiating once with respect to electric field.
                with respect to dipole field.
          Electric field/nuclear overlap derivatives assumed to be zero.
          There are     3 degrees of freedom in the 1st order CPHF.  IDoFFX=0.
      3 vectors produced by pass  0 Test12= 1.80D-12 3.33D-08 XBig12= 1.22D+02 9.19D-01.
 AX will form     3 AO Fock derivatives at one time.
      3 vectors produced by pass  1 Test12= 1.80D-12 3.33D-08 XBig12= 2.47D+01 4.53D-01.
      3 vectors produced by pass  2 Test12= 1.80D-12 3.33D-08 XBig12= 1.06D+01 2.18D-01.
      3 vectors produced by pass  3 Test12= 1.80D-12 3.33D-08 XBig12= 1.13D+00 1.07D-01.
      3 vectors produced by pass  4 Test12= 1.80D-12 3.33D-08 XBig12= 3.48D-01 5.75D-02.
      3 vectors produced by pass  5 Test12= 1.80D-12 3.33D-08 XBig12= 6.16D-02 2.26D-02.
      3 vectors produced by pass  6 Test12= 1.80D-12 3.33D-08 XBig12= 2.25D-02 2.23D-02.
      3 vectors produced by pass  7 Test12= 1.80D-12 3.33D-08 XBig12= 3.32D-03 7.50D-03.
      3 vectors produced by pass  8 Test12= 1.80D-12 3.33D-08 XBig12= 5.27D-04 2.00D-03.
      3 vectors produced by pass  9 Test12= 1.80D-12 3.33D-08 XBig12= 1.62D-04 1.37D-03.
      3 vectors produced by pass 10 Test12= 1.80D-12 3.33D-08 XBig12= 3.57D-05 5.59D-04.
      3 vectors produced by pass 11 Test12= 1.80D-12 3.33D-08 XBig12= 1.22D-05 3.75D-04.
      3 vectors produced by pass 12 Test12= 1.80D-12 3.33D-08 XBig12= 1.15D-06 1.10D-04.
      3 vectors produced by pass 13 Test12= 1.80D-12 3.33D-08 XBig12= 3.20D-07 3.76D-05.
      3 vectors produced by pass 14 Test12= 1.80D-12 3.33D-08 XBig12= 5.21D-08 2.09D-05.
      3 vectors produced by pass 15 Test12= 1.80D-12 3.33D-08 XBig12= 1.13D-08 1.03D-05.
      3 vectors produced by pass 16 Test12= 1.80D-12 3.33D-08 XBig12= 2.49D-09 4.83D-06.
      3 vectors produced by pass 17 Test12= 1.80D-12 3.33D-08 XBig12= 2.37D-10 1.34D-06.
      3 vectors produced by pass 18 Test12= 1.80D-12 3.33D-08 XBig12= 5.92D-11 5.18D-07.
      3 vectors produced by pass 19 Test12= 1.80D-12 3.33D-08 XBig12= 1.47D-11 3.14D-07.
      2 vectors produced by pass 20 Test12= 1.80D-12 3.33D-08 XBig12= 4.16D-12 1.61D-07.
      2 vectors produced by pass 21 Test12= 1.80D-12 3.33D-08 XBig12= 1.19D-12 6.84D-08.
      1 vectors produced by pass 22 Test12= 1.80D-12 3.33D-08 XBig12= 1.28D-13 3.42D-08.
 Inverted reduced A of dimension    65 with in-core refinement.
 End of Minotr Frequency-dependent properties file   721 does not exist.
 End of Minotr Frequency-dependent properties file   722 does not exist.
 Symmetrizing basis deriv contribution to polar:
 IMax=3 JMax=2 DiffMx= 0.00D+00
 G2DrvN: will do    16 centers at a time, making    3 passes doing MaxLOS=2.
 Calling FoFCou, ICntrl=  3107 FMM=F I1Cent=   0 AccDes= 0.00D+00.
 Calling FoFCou, ICntrl=  3107 FMM=F I1Cent=   0 AccDes= 0.00D+00.
 Calling FoFCou, ICntrl=  3107 FMM=F I1Cent=   0 AccDes= 0.00D+00.
 FoFDir/FoFCou used for L=0 through L=2.
 End of G2Drv Frequency-dependent properties file   721 does not exist.
 End of G2Drv Frequency-dependent properties file   722 does not exist.
          IDoAtm=111111111111111111111111111111111111111111111
          Differentiating once with respect to electric field.
                with respect to dipole field.
          Differentiating once with respect to nuclear coordinates.
          There are   138 degrees of freedom in the 1st order CPHF.  IDoFFX=5.
 Will reuse    3 saved solutions.
    135 vectors produced by pass  0 Test12= 5.41D-14 1.00D-09 XBig12= 1.61D-01 1.01D-01.
 AX will form    45 AO Fock derivatives at one time.
    135 vectors produced by pass  1 Test12= 5.41D-14 1.00D-09 XBig12= 1.70D-02 1.18D-02.
    132 vectors produced by pass  2 Test12= 5.41D-14 1.00D-09 XBig12= 1.38D-04 1.29D-03.
    132 vectors produced by pass  3 Test12= 5.41D-14 1.00D-09 XBig12= 5.33D-07 6.05D-05.
    132 vectors produced by pass  4 Test12= 5.41D-14 1.00D-09 XBig12= 1.06D-09 3.14D-06.
    132 vectors produced by pass  5 Test12= 5.41D-14 1.00D-09 XBig12= 2.39D-12 8.71D-08.
     83 vectors produced by pass  6 Test12= 5.41D-14 1.00D-09 XBig12= 1.05D-13 2.45D-08.
 Inverted reduced A of dimension   881 with in-core refinement.
 Isotropic polarizability for W=    0.000000      190.55 Bohr**3.
 End of Minotr Frequency-dependent properties file   721 does not exist.
 End of Minotr Frequency-dependent properties file   722 does not exist.

 **********************************************************************

            Population analysis using the SCF density.

 **********************************************************************

 Orbital symmetries:
       Occupied  (A) (A) (A) (A) (A) (A) (A) (A) (A) (A) (A) (A)
                 (A) (A) (A) (A) (A) (A) (A) (A) (A) (A) (A) (A)
                 (A) (A) (A) (A) (A) (A) (A) (A) (A) (A) (A) (A)
                 (A) (A) (A) (A) (A) (A) (A) (A) (A) (A) (A) (A)
                 (A) (A) (A) (A) (A) (A) (A) (A) (A) (A) (A) (A)
                 (A) (A) (A) (A) (A) (A) (A) (A) (A) (A) (A) (A)
                 (A) (A) (A) (A) (A) (A) (A) (A) (A) (A) (A) (A)
                 (A) (A) (A) (A) (A) (A) (A)
       Virtual   (A) (A) (A) (A) (A) (A) (A) (A) (A) (A) (A) (A)
                 (A) (A) (A) (A) (A) (A) (A) (A) (A) (A) (A) (A)
                 (A) (A) (A) (A) (A) (A) (A) (A) (A) (A) (A) (A)
                 (A) (A) (A) (A) (A) (A) (A) (A) (A) (A) (A) (A)
                 (A) (A) (A) (A) (A) (A) (A) (A) (A) (A) (A) (A)
                 (A) (A) (A) (A) (A) (A) (A) (A) (A) (A) (A) (A)
                 (A) (A) (A) (A) (A) (A) (A) (A) (A) (A) (A) (A)
                 (A) (A) (A) (A) (A) (A) (A) (A) (A) (A) (A) (A)
                 (A) (A) (A) (A) (A) (A) (A) (A) (A) (A) (A) (A)
                 (A) (A) (A) (A) (A) (A) (A) (A) (A) (A) (A) (A)
                 (A) (A) (A) (A) (A) (A) (A) (A) (A) (A) (A) (A)
                 (A) (A) (A) (A) (A) (A) (A) (A) (A) (A) (A) (A)
                 (A) (A) (A) (A) (A) (A) (A) (A) (A) (A) (A) (A)
                 (A) (A) (A) (A) (A) (A) (A) (A) (A) (A) (A) (A)
                 (A) (A) (A) (A) (A) (A) (A) (A) (A) (A) (A) (A)
                 (A) (A) (A) (A) (A) (A) (A) (A) (A) (A) (A) (A)
                 (A) (A) (A) (A) (A) (A) (A) (A) (A) (A) (A) (A)
                 (A) (A) (A) (A) (A) (A) (A) (A) (A) (A) (A) (A)
                 (A) (A) (A) (A) (A) (A) (A) (A) (A) (A) (A) (A)
                 (A) (A) (A) (A) (A) (A) (A) (A) (A) (A) (A) (A)
                 (A) (A) (A) (A) (A) (A) (A) (A) (A) (A) (A) (A)
                 (A) (A) (A) (A) (A) (A) (A) (A) (A) (A) (A) (A)
                 (A) (A) (A) (A) (A) (A) (A) (A) (A) (A) (A) (A)
                 (A) (A) (A) (A) (A) (A) (A) (A) (A) (A) (A) (A)
                 (A) (A) (A) (A) (A) (A) (A) (A) (A) (A) (A) (A)
                 (A) (A) (A) (A) (A) (A) (A) (A) (A) (A) (A) (A)
                 (A) (A) (A) (A) (A) (A) (A) (A) (A) (A) (A) (A)
                 (A) (A) (A) (A) (A) (A) (A) (A) (A) (A) (A) (A)
                 (A) (A) (A) (A) (A) (A) (A) (A) (A) (A) (A) (A)
                 (A) (A) (A) (A) (A) (A) (A) (A) (A) (A) (A) (A)
                 (A) (A) (A) (A) (A) (A) (A) (A) (A) (A) (A) (A)
                 (A) (A) (A) (A) (A) (A) (A) (A) (A) (A) (A) (A)
                 (A) (A) (A) (A) (A) (A) (A) (A) (A) (A) (A) (A)
                 (A) (A) (A) (A) (A) (A) (A) (A) (A) (A) (A) (A)
                 (A) (A) (A) (A) (A) (A) (A) (A) (A) (A) (A) (A)
                 (A) (A) (A) (A) (A) (A) (A) (A) (A) (A) (A) (A)
                 (A) (A) (A) (A) (A) (A) (A) (A) (A) (A) (A) (A)
                 (A) (A) (A) (A) (A) (A) (A) (A) (A) (A) (A) (A)
                 (A) (A) (A) (A) (A) (A) (A) (A) (A) (A) (A) (A)
                 (A) (A) (A) (A) (A) (A) (A) (A) (A) (A) (A) (A)
                 (A) (A) (A) (A) (A) (A) (A) (A) (A) (A) (A) (A)
                 (A) (A) (A) (A) (A) (A) (A) (A) (A) (A) (A) (A)
                 (A) (A) (A) (A) (A) (A) (A) (A) (A) (A) (A) (A)
                 (A) (A) (A) (A) (A) (A) (A) (A) (A) (A) (A) (A)
                 (A) (A) (A) (A) (A) (A) (A) (A) (A) (A) (A) (A)
                 (A) (A) (A) (A) (A) (A) (A) (A) (A) (A) (A) (A)
                 (A) (A) (A) (A) (A) (A) (A) (A) (A) (A) (A) (A)
                 (A) (A) (A) (A) (A) (A) (A) (A) (A) (A) (A) (A)
                 (A) (A) (A) (A) (A) (A) (A) (A) (A) (A) (A) (A)
                 (A) (A) (A) (A) (A) (A)
 The electronic state is 1-A.
 Alpha  occ. eigenvalues --  -19.19095 -19.18761 -19.18599 -19.18473 -19.18371
 Alpha  occ. eigenvalues --  -19.17520 -19.16084 -19.16011 -19.14906 -19.14245
 Alpha  occ. eigenvalues --  -19.12820 -10.30898 -10.30240 -10.26856 -10.26042
 Alpha  occ. eigenvalues --  -10.25619 -10.25293 -10.25201 -10.24867 -10.24471
 Alpha  occ. eigenvalues --  -10.24032 -10.23810 -10.23669  -1.10482  -1.09639
 Alpha  occ. eigenvalues --   -1.05815  -1.05414  -1.04619  -1.04142  -1.02660
 Alpha  occ. eigenvalues --   -1.02438  -1.02045  -1.00889  -0.99673  -0.82635
 Alpha  occ. eigenvalues --   -0.80640  -0.79925  -0.78219  -0.71869  -0.69654
 Alpha  occ. eigenvalues --   -0.67183  -0.65017  -0.63604  -0.62202  -0.61920
 Alpha  occ. eigenvalues --   -0.60469  -0.56851  -0.56056  -0.55327  -0.55063
 Alpha  occ. eigenvalues --   -0.54353  -0.53554  -0.52947  -0.51617  -0.51464
 Alpha  occ. eigenvalues --   -0.50919  -0.50150  -0.49180  -0.48708  -0.46459
 Alpha  occ. eigenvalues --   -0.46165  -0.45378  -0.44318  -0.43659  -0.43299
 Alpha  occ. eigenvalues --   -0.42622  -0.42237  -0.41102  -0.40499  -0.39987
 Alpha  occ. eigenvalues --   -0.39415  -0.38150  -0.37594  -0.37315  -0.36292
 Alpha  occ. eigenvalues --   -0.35188  -0.34904  -0.34624  -0.34300  -0.33544
 Alpha  occ. eigenvalues --   -0.33326  -0.31486  -0.31459  -0.30468  -0.29969
 Alpha  occ. eigenvalues --   -0.29570  -0.28552  -0.28063  -0.27472  -0.26933
 Alpha  occ. eigenvalues --   -0.26152
 Alpha virt. eigenvalues --   -0.02269  -0.01968  -0.01897  -0.00254   0.00109
 Alpha virt. eigenvalues --    0.00855   0.01766   0.02305   0.03311   0.03665
 Alpha virt. eigenvalues --    0.04026   0.04476   0.04780   0.05235   0.05633
 Alpha virt. eigenvalues --    0.05948   0.06595   0.07241   0.07722   0.08144
 Alpha virt. eigenvalues --    0.08454   0.08877   0.08943   0.09527   0.10056
 Alpha virt. eigenvalues --    0.10388   0.10934   0.11367   0.11845   0.11935
 Alpha virt. eigenvalues --    0.12400   0.12642   0.13238   0.13468   0.13820
 Alpha virt. eigenvalues --    0.14042   0.14070   0.14374   0.14800   0.14860
 Alpha virt. eigenvalues --    0.15831   0.16207   0.16875   0.17012   0.17191
 Alpha virt. eigenvalues --    0.17390   0.17455   0.17768   0.18102   0.18348
 Alpha virt. eigenvalues --    0.18797   0.19143   0.19321   0.19785   0.20179
 Alpha virt. eigenvalues --    0.20556   0.20607   0.20999   0.21387   0.21600
 Alpha virt. eigenvalues --    0.21899   0.22120   0.22639   0.22715   0.23137
 Alpha virt. eigenvalues --    0.23249   0.23928   0.24035   0.24343   0.24434
 Alpha virt. eigenvalues --    0.24725   0.25169   0.25292   0.25703   0.25794
 Alpha virt. eigenvalues --    0.26177   0.26434   0.26618   0.26859   0.26886
 Alpha virt. eigenvalues --    0.27630   0.27836   0.28058   0.28149   0.28679
 Alpha virt. eigenvalues --    0.29298   0.29530   0.29744   0.30122   0.30471
 Alpha virt. eigenvalues --    0.30517   0.31336   0.31920   0.32165   0.32351
 Alpha virt. eigenvalues --    0.32649   0.32822   0.33234   0.33585   0.33828
 Alpha virt. eigenvalues --    0.34228   0.34540   0.34747   0.35141   0.35201
 Alpha virt. eigenvalues --    0.35922   0.36033   0.36428   0.36777   0.37120
 Alpha virt. eigenvalues --    0.37533   0.38000   0.38482   0.39053   0.39384
 Alpha virt. eigenvalues --    0.40144   0.40518   0.40866   0.41360   0.41484
 Alpha virt. eigenvalues --    0.42011   0.42128   0.42588   0.43054   0.43841
 Alpha virt. eigenvalues --    0.44368   0.46084   0.46405   0.46927   0.46998
 Alpha virt. eigenvalues --    0.48644   0.48806   0.49253   0.49590   0.50064
 Alpha virt. eigenvalues --    0.50827   0.51421   0.53260   0.56936   0.59151
 Alpha virt. eigenvalues --    0.59474   0.60236   0.61117   0.61286   0.62016
 Alpha virt. eigenvalues --    0.62687   0.63786   0.64369   0.65781   0.66575
 Alpha virt. eigenvalues --    0.67199   0.67545   0.68897   0.69482   0.70520
 Alpha virt. eigenvalues --    0.70895   0.72303   0.72505   0.73294   0.73891
 Alpha virt. eigenvalues --    0.74610   0.75730   0.76242   0.76525   0.77035
 Alpha virt. eigenvalues --    0.77987   0.78601   0.79629   0.80476   0.81715
 Alpha virt. eigenvalues --    0.82472   0.83231   0.84061   0.84744   0.84875
 Alpha virt. eigenvalues --    0.85759   0.87558   0.87843   0.88531   0.89165
 Alpha virt. eigenvalues --    0.89580   0.90821   0.91135   0.91342   0.91814
 Alpha virt. eigenvalues --    0.92461   0.93107   0.93571   0.94144   0.94404
 Alpha virt. eigenvalues --    0.94695   0.95319   0.95460   0.96405   0.96656
 Alpha virt. eigenvalues --    0.96951   0.97905   0.98102   0.99337   0.99540
 Alpha virt. eigenvalues --    1.00069   1.00813   1.01334   1.02697   1.03550
 Alpha virt. eigenvalues --    1.03959   1.04597   1.05091   1.05769   1.06360
 Alpha virt. eigenvalues --    1.06996   1.07805   1.08572   1.08808   1.09124
 Alpha virt. eigenvalues --    1.09731   1.10282   1.10500   1.11798   1.12220
 Alpha virt. eigenvalues --    1.12357   1.12651   1.14067   1.14536   1.14806
 Alpha virt. eigenvalues --    1.15398   1.15646   1.16244   1.16842   1.17233
 Alpha virt. eigenvalues --    1.17824   1.18126   1.19050   1.19465   1.20107
 Alpha virt. eigenvalues --    1.20936   1.21215   1.22038   1.22486   1.22773
 Alpha virt. eigenvalues --    1.23902   1.24232   1.24786   1.25116   1.25157
 Alpha virt. eigenvalues --    1.26092   1.26293   1.26622   1.27904   1.28038
 Alpha virt. eigenvalues --    1.28574   1.29098   1.29679   1.30063   1.30804
 Alpha virt. eigenvalues --    1.31559   1.32337   1.33290   1.34077   1.35158
 Alpha virt. eigenvalues --    1.35301   1.35722   1.36627   1.37451   1.38034
 Alpha virt. eigenvalues --    1.38223   1.38917   1.39649   1.40147   1.40988
 Alpha virt. eigenvalues --    1.42070   1.42669   1.43205   1.43756   1.44154
 Alpha virt. eigenvalues --    1.44827   1.45849   1.46675   1.47113   1.47713
 Alpha virt. eigenvalues --    1.48254   1.48803   1.49691   1.50486   1.51313
 Alpha virt. eigenvalues --    1.52483   1.54100   1.55157   1.56684   1.57059
 Alpha virt. eigenvalues --    1.58771   1.59084   1.61038   1.61202   1.61550
 Alpha virt. eigenvalues --    1.62609   1.63224   1.63549   1.63927   1.64874
 Alpha virt. eigenvalues --    1.66736   1.67541   1.67949   1.68530   1.69094
 Alpha virt. eigenvalues --    1.69221   1.70965   1.71620   1.71795   1.73560
 Alpha virt. eigenvalues --    1.74698   1.75436   1.76715   1.76989   1.78564
 Alpha virt. eigenvalues --    1.79219   1.80244   1.81983   1.82269   1.83068
 Alpha virt. eigenvalues --    1.84988   1.85732   1.86193   1.88089   1.88575
 Alpha virt. eigenvalues --    1.89567   1.90469   1.91212   1.92589   1.93842
 Alpha virt. eigenvalues --    1.94549   1.95277   1.97450   1.97562   1.99234
 Alpha virt. eigenvalues --    2.00111   2.00652   2.02254   2.04287   2.04837
 Alpha virt. eigenvalues --    2.06148   2.08026   2.08869   2.10305   2.11395
 Alpha virt. eigenvalues --    2.11871   2.13520   2.15688   2.16953   2.18345
 Alpha virt. eigenvalues --    2.20142   2.21663   2.22805   2.24127   2.25204
 Alpha virt. eigenvalues --    2.26379   2.27872   2.28133   2.29522   2.32402
 Alpha virt. eigenvalues --    2.34539   2.35094   2.35666   2.36079   2.37149
 Alpha virt. eigenvalues --    2.39961   2.40791   2.43495   2.46202   2.51102
 Alpha virt. eigenvalues --    2.53680   2.54387   2.56374   2.56652   2.58038
 Alpha virt. eigenvalues --    2.60891   2.63851   2.66014   2.68392   2.68667
 Alpha virt. eigenvalues --    2.69325   2.70140   2.71818   2.73115   2.74278
 Alpha virt. eigenvalues --    2.74969   2.75559   2.76841   2.78086   2.78964
 Alpha virt. eigenvalues --    2.80615   2.80854   2.82067   2.84252   2.85443
 Alpha virt. eigenvalues --    2.87200   2.87893   2.90663   2.91427   2.92426
 Alpha virt. eigenvalues --    2.93596   2.94439   2.95360   2.95883   2.97017
 Alpha virt. eigenvalues --    2.97680   2.98903   2.99398   2.99636   3.00131
 Alpha virt. eigenvalues --    3.01342   3.02398   3.03316   3.04106   3.04350
 Alpha virt. eigenvalues --    3.05221   3.06921   3.07235   3.08293   3.08862
 Alpha virt. eigenvalues --    3.09498   3.10557   3.11862   3.13340   3.14951
 Alpha virt. eigenvalues --    3.15120   3.17416   3.19136   3.20894   3.23196
 Alpha virt. eigenvalues --    3.26637   3.28097   3.32585   3.79340   3.84489
 Alpha virt. eigenvalues --    3.99200   4.06070   4.07335   4.08508   4.10852
 Alpha virt. eigenvalues --    4.13037   4.14656   4.15325   4.15654   4.17517
 Alpha virt. eigenvalues --    4.17990   4.18875   4.20677   4.22338   4.22837
 Alpha virt. eigenvalues --    4.23604   4.24116   4.25094   4.26267   4.26417
 Alpha virt. eigenvalues --    4.27452   4.28599   4.28871   4.29863   4.30809
 Alpha virt. eigenvalues --    4.31065   4.31501   4.31846   4.32386   4.32950
 Alpha virt. eigenvalues --    4.33253   4.33885   4.34742   4.35183   4.35741
 Alpha virt. eigenvalues --    4.36235   4.36987   4.37811   4.38750   4.39687
 Alpha virt. eigenvalues --    4.39891   4.40388   4.42613   4.42851   4.44045
 Alpha virt. eigenvalues --    4.44736   4.45864   4.46734   4.49503   4.50435
 Alpha virt. eigenvalues --    4.51007   4.52032   4.52669   4.54514   4.55502
 Alpha virt. eigenvalues --    4.56058   4.57153   4.58945   4.59423   4.59882
 Alpha virt. eigenvalues --    4.61312   4.62430   4.62825   4.63433   4.64091
 Alpha virt. eigenvalues --    4.64594   4.65007   4.65565   4.66030   4.66538
 Alpha virt. eigenvalues --    4.67367   4.68359   4.69587   4.69998   4.70930
 Alpha virt. eigenvalues --    4.71400   4.72684   4.73091   4.73851   4.74156
 Alpha virt. eigenvalues --    4.75049   4.75776   4.76778   4.76891   4.78080
 Alpha virt. eigenvalues --    4.78633   4.79004   4.79254   4.79618   4.80410
 Alpha virt. eigenvalues --    4.81301   4.81954   4.83870   4.84566   4.86158
 Alpha virt. eigenvalues --    4.87241   4.88469   4.88926   4.90105   4.90866
 Alpha virt. eigenvalues --    4.94096   4.94558   4.94991   4.96738   4.97920
 Alpha virt. eigenvalues --    5.01063   5.02372   5.04086   5.04728   5.05683
 Alpha virt. eigenvalues --    5.08773   5.10355   5.12113   5.12868   5.17079
 Alpha virt. eigenvalues --    5.27330   5.28663   5.30400   5.30830   5.43446
 Alpha virt. eigenvalues --    5.47727   5.81884   6.15573   6.35573   6.63296
 Alpha virt. eigenvalues --    6.74241   6.77756   6.79551   6.81172   6.83841
 Alpha virt. eigenvalues --    6.89703   6.92084   6.93859   6.95638   7.05733
 Alpha virt. eigenvalues --    7.09968  11.87355  11.96889  12.10052  12.19310
 Alpha virt. eigenvalues --   12.30695  12.38693  12.66478  12.74610  12.84533
 Alpha virt. eigenvalues --   13.04720  13.16926  13.23242  13.24510  13.29711
 Alpha virt. eigenvalues --   13.32569  13.34751  13.36510  13.38496  13.51813
 Alpha virt. eigenvalues --   13.63089  13.64761  13.76939  13.86338
          Condensed to atoms (all electrons):
              1          2          3          4          5          6
     1  O    8.185546   0.317565  -0.087818  -0.015840   0.020289  -0.008678
     2  C    0.317565   7.232859  -0.662698   0.105586  -0.059492  -1.738924
     3  C   -0.087818  -0.662698   6.557627   0.067498   0.031517   0.597104
     4  O   -0.015840   0.105586   0.067498   8.231748   0.227771  -0.086834
     5  H    0.020289  -0.059492   0.031517   0.227771   0.435767  -0.007877
     6  C   -0.008678  -1.738924   0.597104  -0.086834  -0.007877   9.395254
     7  O    0.000027   0.025935  -0.089964   0.009985  -0.000052   0.202451
     8  H    0.000007  -0.003416   0.008610  -0.000436   0.000013   0.026829
     9  C   -0.003306   0.035588  -0.409687   0.011144  -0.002080   0.277034
    10  O   -0.018107   0.016136   0.026130  -0.000250  -0.000001  -0.007365
    11  H    0.001754  -0.013990  -0.003158   0.000003   0.000000   0.001013
    12  C   -0.120649  -0.555474   0.142287  -0.005746   0.007595   0.448254
    13  O    0.000188  -0.051143  -0.069585  -0.000902  -0.000108   0.023338
    14  C    0.020541   0.960951  -0.377079   0.026709   0.009534  -2.594590
    15  O   -0.000092   0.000452   0.004940   0.000256  -0.000004  -0.020824
    16  C    0.002779   0.061398   0.049233  -0.005745   0.000863  -0.352967
    17  C   -0.000089  -0.003353   0.013746   0.000592   0.000009  -0.140585
    18  O    0.000014   0.005652  -0.002130   0.000001   0.000000   0.004916
    19  H   -0.000015  -0.004482   0.004427  -0.000001   0.000000   0.007906
    20  C    0.000039   0.001017   0.000710  -0.000117   0.000002   0.075152
    21  O    0.000000  -0.000028  -0.000028   0.000000   0.000000  -0.000104
    22  H    0.000000  -0.000001   0.000001   0.000000   0.000000  -0.000047
    23  C   -0.000006   0.010416  -0.007548  -0.000034  -0.000011  -0.064222
    24  O   -0.000001   0.001335  -0.010061  -0.000017  -0.000001  -0.001742
    25  H    0.000000   0.000041   0.001617   0.000002   0.000000  -0.000742
    26  C    0.000044  -0.023365  -0.017424  -0.000038   0.000018  -0.051157
    27  O    0.000000  -0.000121   0.000133   0.000001   0.000000   0.001445
    28  C    0.000005  -0.001230   0.000309   0.000016   0.000000  -0.016310
    29  O    0.000000   0.000002   0.000010   0.000000   0.000000  -0.000383
    30  H    0.000000   0.000000   0.000000   0.000000   0.000000   0.000008
    31  H    0.270139  -0.002835  -0.009640   0.001277  -0.002225   0.003372
    32  H   -0.000386  -0.021672   0.006072  -0.000003   0.000001   0.000121
    33  H    0.001837   0.019295  -0.016258  -0.000001  -0.000001   0.013177
    34  H    0.004983   0.090671  -0.057503   0.000532  -0.000003  -0.040144
    35  H   -0.019947   0.411686  -0.105201   0.003114  -0.000611  -0.013843
    36  H   -0.000571   0.113232   0.230531  -0.017977  -0.001294  -0.234262
    37  H   -0.000073   0.056069  -0.159520   0.005004  -0.000244   0.339256
    38  H    0.000053  -0.014898  -0.029919   0.000132   0.000001  -0.004665
    39  H    0.000000   0.000018  -0.000052   0.000000   0.000000  -0.000631
    40  H    0.000000  -0.000025   0.000378   0.000000   0.000000  -0.003189
    41  H    0.000000  -0.000027   0.000173   0.000000   0.000000  -0.004485
    42  H   -0.000001  -0.002910   0.004887   0.000004   0.000000   0.020748
    43  H    0.000000   0.000300   0.000423   0.000000   0.000000   0.012404
    44  H    0.000000   0.000092   0.000088   0.000000   0.000000   0.001765
    45  H    0.000000   0.000002   0.000002   0.000000   0.000000  -0.000141
              7          8          9         10         11         12
     1  O    0.000027   0.000007  -0.003306  -0.018107   0.001754  -0.120649
     2  C    0.025935  -0.003416   0.035588   0.016136  -0.013990  -0.555474
     3  C   -0.089964   0.008610  -0.409687   0.026130  -0.003158   0.142287
     4  O    0.009985  -0.000436   0.011144  -0.000250   0.000003  -0.005746
     5  H   -0.000052   0.000013  -0.002080  -0.000001   0.000000   0.007595
     6  C    0.202451   0.026829   0.277034  -0.007365   0.001013   0.448254
     7  O    8.270577   0.238428   0.000468  -0.000007   0.000000   0.004542
     8  H    0.238428   0.346717   0.000099   0.000000   0.000000   0.000111
     9  C    0.000468   0.000099   7.153550   0.056722   0.003809  -1.353509
    10  O   -0.000007   0.000000   0.056722   8.270467   0.224718   0.017756
    11  H    0.000000   0.000000   0.003809   0.224718   0.448420   0.020129
    12  C    0.004542   0.000111  -1.353509   0.017756   0.020129   8.363830
    13  O    0.000458  -0.000466  -0.006592  -0.002524  -0.000313   0.024231
    14  C   -0.034988  -0.076121  -0.511687   0.013645  -0.003545  -0.792551
    15  O   -0.000805   0.016160  -0.010100   0.000035   0.000000  -0.007336
    16  C    0.026772   0.037160  -0.126629  -0.000039  -0.000249  -0.215211
    17  C    0.006217   0.000215   0.016771   0.000073  -0.000010  -0.070667
    18  O   -0.000125  -0.000064  -0.000571  -0.000044  -0.000003  -0.004728
    19  H   -0.000041  -0.000006   0.003430  -0.000007   0.000000  -0.008654
    20  C    0.000794   0.001715  -0.002675   0.000012   0.000003  -0.010993
    21  O   -0.000005  -0.000001   0.000183   0.000000   0.000000   0.000044
    22  H    0.000000   0.000000  -0.000003   0.000000   0.000000   0.000010
    23  C   -0.002795   0.009530   0.000032  -0.000002   0.000000   0.005927
    24  O   -0.045503  -0.007891  -0.000002   0.000000   0.000000  -0.000239
    25  H    0.002018  -0.002974  -0.000009   0.000000   0.000000  -0.000231
    26  C   -0.002923  -0.027886   0.004042   0.000008  -0.000001   0.015768
    27  O    0.000078  -0.000056   0.000036   0.000000   0.000000   0.000271
    28  C    0.000447  -0.000081  -0.001694  -0.000001   0.000000  -0.000872
    29  O   -0.000005  -0.000001  -0.000007   0.000000   0.000000   0.000027
    30  H    0.000000   0.000000   0.000000   0.000000   0.000000  -0.000001
    31  H   -0.000013   0.000000   0.001876  -0.000670  -0.000036  -0.002185
    32  H   -0.000012   0.000000   0.414651  -0.019419  -0.015097  -0.028207
    33  H    0.000016   0.000000   0.632954  -0.058504   0.000935  -0.290053
    34  H    0.000326   0.000001   0.055412   0.001727  -0.000255   0.029391
    35  H    0.001440  -0.000003  -0.024198  -0.001278  -0.000010  -0.101071
    36  H    0.010994  -0.000189   0.018055  -0.000152   0.000000  -0.002502
    37  H   -0.028272  -0.002530   0.018669   0.000016   0.000000   0.037396
    38  H   -0.002950   0.000229   0.016858   0.000049   0.000000   0.061016
    39  H   -0.000633   0.000281   0.000000   0.000000   0.000000   0.000053
    40  H    0.001305  -0.000137  -0.000006   0.000000   0.000000   0.000052
    41  H   -0.000148   0.000012   0.000045   0.000000   0.000000   0.000877
    42  H   -0.002418  -0.000323   0.000023   0.000001   0.000000   0.002570
    43  H    0.000004  -0.000004  -0.000030   0.000000   0.000000  -0.002073
    44  H    0.000015   0.000000  -0.000138   0.000000   0.000000  -0.000259
    45  H    0.000002   0.000000  -0.000002   0.000000   0.000000   0.000015
             13         14         15         16         17         18
     1  O    0.000188   0.020541  -0.000092   0.002779  -0.000089   0.000014
     2  C   -0.051143   0.960951   0.000452   0.061398  -0.003353   0.005652
     3  C   -0.069585  -0.377079   0.004940   0.049233   0.013746  -0.002130
     4  O   -0.000902   0.026709   0.000256  -0.005745   0.000592   0.000001
     5  H   -0.000108   0.009534  -0.000004   0.000863   0.000009   0.000000
     6  C    0.023338  -2.594590  -0.020824  -0.352967  -0.140585   0.004916
     7  O    0.000458  -0.034988  -0.000805   0.026772   0.006217  -0.000125
     8  H   -0.000466  -0.076121   0.016160   0.037160   0.000215  -0.000064
     9  C   -0.006592  -0.511687  -0.010100  -0.126629   0.016771  -0.000571
    10  O   -0.002524   0.013645   0.000035  -0.000039   0.000073  -0.000044
    11  H   -0.000313  -0.003545   0.000000  -0.000249  -0.000010  -0.000003
    12  C    0.024231  -0.792551  -0.007336  -0.215211  -0.070667  -0.004728
    13  O    8.191257   0.197190   0.000370   0.047895  -0.014455  -0.023246
    14  C    0.197190   9.900697   0.249050  -1.071516   0.114019  -0.018037
    15  O    0.000370   0.249050   8.066573   0.100433  -0.002437  -0.010874
    16  C    0.047895  -1.071516   0.100433  11.448431  -1.927539  -0.001074
    17  C   -0.014455   0.114019  -0.002437  -1.927539   7.724640   0.227419
    18  O   -0.023246  -0.018037  -0.010874  -0.001074   0.227419   8.197430
    19  H    0.008402   0.016646   0.023687  -0.110573   0.072636   0.231472
    20  C   -0.014464  -0.152453   0.002491  -0.665766   0.094339  -0.063463
    21  O   -0.000091   0.005854  -0.000152   0.048680  -0.148048   0.011704
    22  H    0.000004  -0.001112  -0.000026  -0.015748   0.025943  -0.000474
    23  C    0.003604   0.118557  -0.019952   0.276922  -0.319629   0.011874
    24  O   -0.000592   0.075342  -0.014337  -0.004601  -0.003377  -0.000084
    25  H   -0.000012  -0.010089   0.001408  -0.012984  -0.001228  -0.000001
    26  C   -0.015867  -0.845663  -0.036140  -2.641127   0.395091   0.010764
    27  O    0.000298   0.021719   0.001861   0.107039  -0.027956  -0.000638
    28  C    0.003738  -0.098631   0.003216   0.657743  -0.224515  -0.014123
    29  O    0.000041  -0.002228  -0.000171  -0.029587  -0.019712   0.000064
    30  H    0.000000   0.000017  -0.000002  -0.000160   0.008695  -0.000010
    31  H   -0.000582  -0.001833  -0.000002   0.000173  -0.000031   0.000000
    32  H   -0.002187  -0.006319  -0.000142   0.002172   0.000358  -0.000069
    33  H   -0.003954   0.005075  -0.000364  -0.002701   0.001037  -0.000065
    34  H   -0.026972   0.173297  -0.000673   0.016943   0.003750  -0.000359
    35  H    0.005719   0.098946   0.000046  -0.003942   0.001241   0.000020
    36  H    0.005053   0.125321   0.000136  -0.009303   0.002027   0.000058
    37  H    0.009743   0.004563  -0.010508  -0.018400   0.003475   0.000161
    38  H   -0.029243   0.270947  -0.042381  -0.013577   0.020582  -0.002309
    39  H    0.000014   0.011890   0.000319  -0.001627   0.001537   0.000007
    40  H    0.000072  -0.001288   0.001065   0.069230  -0.000717   0.000060
    41  H    0.000015   0.048410   0.000765   0.039473  -0.006559   0.000111
    42  H   -0.000425  -0.026503  -0.028111   0.106692   0.057562  -0.000530
    43  H   -0.000538  -0.011940  -0.002200  -0.101052   0.224943  -0.021919
    44  H    0.000128  -0.018244   0.000699   0.105832  -0.247219   0.008132
    45  H    0.000016  -0.000656   0.000448   0.026042  -0.019665   0.000393
             19         20         21         22         23         24
     1  O   -0.000015   0.000039   0.000000   0.000000  -0.000006  -0.000001
     2  C   -0.004482   0.001017  -0.000028  -0.000001   0.010416   0.001335
     3  C    0.004427   0.000710  -0.000028   0.000001  -0.007548  -0.010061
     4  O   -0.000001  -0.000117   0.000000   0.000000  -0.000034  -0.000017
     5  H    0.000000   0.000002   0.000000   0.000000  -0.000011  -0.000001
     6  C    0.007906   0.075152  -0.000104  -0.000047  -0.064222  -0.001742
     7  O   -0.000041   0.000794  -0.000005   0.000000  -0.002795  -0.045503
     8  H   -0.000006   0.001715  -0.000001   0.000000   0.009530  -0.007891
     9  C    0.003430  -0.002675   0.000183  -0.000003   0.000032  -0.000002
    10  O   -0.000007   0.000012   0.000000   0.000000  -0.000002   0.000000
    11  H    0.000000   0.000003   0.000000   0.000000   0.000000   0.000000
    12  C   -0.008654  -0.010993   0.000044   0.000010   0.005927  -0.000239
    13  O    0.008402  -0.014464  -0.000091   0.000004   0.003604  -0.000592
    14  C    0.016646  -0.152453   0.005854  -0.001112   0.118557   0.075342
    15  O    0.023687   0.002491  -0.000152  -0.000026  -0.019952  -0.014337
    16  C   -0.110573  -0.665766   0.048680  -0.015748   0.276922  -0.004601
    17  C    0.072636   0.094339  -0.148048   0.025943  -0.319629  -0.003377
    18  O    0.231472  -0.063463   0.011704  -0.000474   0.011874  -0.000084
    19  H    0.390945   0.003361  -0.000232   0.000010  -0.004794   0.000027
    20  C    0.003361   6.489086   0.210929  -0.025148   0.029440  -0.006788
    21  O   -0.000232   0.210929   8.229148   0.236918  -0.000420   0.000011
    22  H    0.000010  -0.025148   0.236918   0.423944  -0.000235   0.000000
    23  C   -0.004794   0.029440  -0.000420  -0.000235   5.885901   0.063629
    24  O    0.000027  -0.006788   0.000011   0.000000   0.063629   8.345304
    25  H    0.000000   0.000896   0.000000   0.000000  -0.028169   0.257791
    26  C   -0.000632   0.455210  -0.019223   0.008076  -0.566639   0.000835
    27  O    0.000006  -0.112943   0.002854  -0.000521  -0.089553   0.000787
    28  C    0.001683  -0.639371   0.027928  -0.005880  -0.086681   0.006443
    29  O   -0.000006  -0.009208  -0.012764   0.018196   0.010053  -0.000013
    30  H    0.000000  -0.027809  -0.000544  -0.002651  -0.000405  -0.000001
    31  H    0.000000   0.000000   0.000000   0.000000   0.000002   0.000000
    32  H    0.000260  -0.000468   0.000000   0.000000  -0.000010   0.000000
    33  H    0.000032   0.000029   0.000000   0.000000  -0.000015   0.000000
    34  H    0.000084   0.000289  -0.000001   0.000000   0.000044   0.000001
    35  H    0.000003  -0.000026   0.000000   0.000000   0.000032   0.000012
    36  H   -0.000001  -0.000133   0.000000   0.000000   0.000214   0.000072
    37  H   -0.000033   0.000081   0.000000   0.000000   0.002302   0.000079
    38  H    0.000336   0.008314   0.000018   0.000000   0.000011  -0.000292
    39  H    0.000000  -0.000911  -0.000002   0.000000   0.421251  -0.030985
    40  H    0.000000  -0.003283  -0.000001   0.000000   0.557384  -0.057609
    41  H    0.000034  -0.039964   0.000036   0.000003   0.060870   0.002480
    42  H    0.000592   0.041955  -0.000425   0.000001  -0.017508   0.000837
    43  H   -0.004953   0.049381  -0.001586  -0.000198   0.022294  -0.000055
    44  H   -0.000171   0.348508  -0.031874  -0.002855   0.011588   0.000018
    45  H    0.000001  -0.110110   0.001156   0.000280   0.002087   0.000046
             25         26         27         28         29         30
     1  O    0.000000   0.000044   0.000000   0.000005   0.000000   0.000000
     2  C    0.000041  -0.023365  -0.000121  -0.001230   0.000002   0.000000
     3  C    0.001617  -0.017424   0.000133   0.000309   0.000010   0.000000
     4  O    0.000002  -0.000038   0.000001   0.000016   0.000000   0.000000
     5  H    0.000000   0.000018   0.000000   0.000000   0.000000   0.000000
     6  C   -0.000742  -0.051157   0.001445  -0.016310  -0.000383   0.000008
     7  O    0.002018  -0.002923   0.000078   0.000447  -0.000005   0.000000
     8  H   -0.002974  -0.027886  -0.000056  -0.000081  -0.000001   0.000000
     9  C   -0.000009   0.004042   0.000036  -0.001694  -0.000007   0.000000
    10  O    0.000000   0.000008   0.000000  -0.000001   0.000000   0.000000
    11  H    0.000000  -0.000001   0.000000   0.000000   0.000000   0.000000
    12  C   -0.000231   0.015768   0.000271  -0.000872   0.000027  -0.000001
    13  O   -0.000012  -0.015867   0.000298   0.003738   0.000041   0.000000
    14  C   -0.010089  -0.845663   0.021719  -0.098631  -0.002228   0.000017
    15  O    0.001408  -0.036140   0.001861   0.003216  -0.000171  -0.000002
    16  C   -0.012984  -2.641127   0.107039   0.657743  -0.029587  -0.000160
    17  C   -0.001228   0.395091  -0.027956  -0.224515  -0.019712   0.008695
    18  O   -0.000001   0.010764  -0.000638  -0.014123   0.000064  -0.000010
    19  H    0.000000  -0.000632   0.000006   0.001683  -0.000006   0.000000
    20  C    0.000896   0.455210  -0.112943  -0.639371  -0.009208  -0.027809
    21  O    0.000000  -0.019223   0.002854   0.027928  -0.012764  -0.000544
    22  H    0.000000   0.008076  -0.000521  -0.005880   0.018196  -0.002651
    23  C   -0.028169  -0.566639  -0.089553  -0.086681   0.010053  -0.000405
    24  O    0.257791   0.000835   0.000787   0.006443  -0.000013  -0.000001
    25  H    0.405087   0.041245  -0.000628  -0.000982  -0.000002   0.000000
    26  C    0.041245   9.835421   0.020989  -0.596900  -0.006801  -0.000599
    27  O   -0.000628   0.020989   8.158486   0.232405  -0.022357   0.002514
    28  C   -0.000982  -0.596900   0.232405   5.856143   0.244333   0.008810
    29  O   -0.000002  -0.006801  -0.022357   0.244333   8.139968   0.263668
    30  H    0.000000  -0.000599   0.002514   0.008810   0.263668   0.420370
    31  H    0.000000   0.000001   0.000000   0.000000   0.000000   0.000000
    32  H    0.000000   0.000091   0.000000   0.000044   0.000000   0.000000
    33  H    0.000000  -0.000129   0.000000  -0.000001   0.000000   0.000000
    34  H    0.000000   0.000061   0.000001   0.000002   0.000000   0.000000
    35  H    0.000000  -0.000378   0.000000  -0.000004   0.000000   0.000000
    36  H    0.000000  -0.000868   0.000000  -0.000021   0.000000   0.000000
    37  H   -0.000010  -0.004717   0.000003  -0.000085   0.000000   0.000000
    38  H    0.000008   0.025738   0.000482  -0.001143   0.000000   0.000000
    39  H   -0.007271  -0.059083  -0.005353  -0.000334  -0.000059  -0.000001
    40  H   -0.003054  -0.263025   0.001667   0.006658  -0.000133   0.000000
    41  H   -0.000193   0.117120  -0.018611   0.055808  -0.000567   0.000008
    42  H   -0.000017   0.097311   0.005887  -0.004160  -0.000380   0.000003
    43  H    0.000000   0.094897   0.001473  -0.039675   0.000366   0.000016
    44  H    0.000000  -0.002269   0.001672   0.066517  -0.003077   0.000166
    45  H    0.000000  -0.003423  -0.045340   0.442638  -0.021199  -0.009635
             31         32         33         34         35         36
     1  O    0.270139  -0.000386   0.001837   0.004983  -0.019947  -0.000571
     2  C   -0.002835  -0.021672   0.019295   0.090671   0.411686   0.113232
     3  C   -0.009640   0.006072  -0.016258  -0.057503  -0.105201   0.230531
     4  O    0.001277  -0.000003  -0.000001   0.000532   0.003114  -0.017977
     5  H   -0.002225   0.000001  -0.000001  -0.000003  -0.000611  -0.001294
     6  C    0.003372   0.000121   0.013177  -0.040144  -0.013843  -0.234262
     7  O   -0.000013  -0.000012   0.000016   0.000326   0.001440   0.010994
     8  H    0.000000   0.000000   0.000000   0.000001  -0.000003  -0.000189
     9  C    0.001876   0.414651   0.632954   0.055412  -0.024198   0.018055
    10  O   -0.000670  -0.019419  -0.058504   0.001727  -0.001278  -0.000152
    11  H   -0.000036  -0.015097   0.000935  -0.000255  -0.000010   0.000000
    12  C   -0.002185  -0.028207  -0.290053   0.029391  -0.101071  -0.002502
    13  O   -0.000582  -0.002187  -0.003954  -0.026972   0.005719   0.005053
    14  C   -0.001833  -0.006319   0.005075   0.173297   0.098946   0.125321
    15  O   -0.000002  -0.000142  -0.000364  -0.000673   0.000046   0.000136
    16  C    0.000173   0.002172  -0.002701   0.016943  -0.003942  -0.009303
    17  C   -0.000031   0.000358   0.001037   0.003750   0.001241   0.002027
    18  O    0.000000  -0.000069  -0.000065  -0.000359   0.000020   0.000058
    19  H    0.000000   0.000260   0.000032   0.000084   0.000003  -0.000001
    20  C    0.000000  -0.000468   0.000029   0.000289  -0.000026  -0.000133
    21  O    0.000000   0.000000   0.000000  -0.000001   0.000000   0.000000
    22  H    0.000000   0.000000   0.000000   0.000000   0.000000   0.000000
    23  C    0.000002  -0.000010  -0.000015   0.000044   0.000032   0.000214
    24  O    0.000000   0.000000   0.000000   0.000001   0.000012   0.000072
    25  H    0.000000   0.000000   0.000000   0.000000   0.000000   0.000000
    26  C    0.000001   0.000091  -0.000129   0.000061  -0.000378  -0.000868
    27  O    0.000000   0.000000   0.000000   0.000001   0.000000   0.000000
    28  C    0.000000   0.000044  -0.000001   0.000002  -0.000004  -0.000021
    29  O    0.000000   0.000000   0.000000   0.000000   0.000000   0.000000
    30  H    0.000000   0.000000   0.000000   0.000000   0.000000   0.000000
    31  H    0.408388   0.000013  -0.000267  -0.000214  -0.014365  -0.000193
    32  H    0.000013   0.575415  -0.046590  -0.004958   0.000042   0.000006
    33  H   -0.000267  -0.046590   0.596165   0.006291   0.003506  -0.000003
    34  H   -0.000214  -0.004958   0.006291   0.623767   0.006671   0.002539
    35  H   -0.014365   0.000042   0.003506   0.006671   0.628593   0.006530
    36  H   -0.000193   0.000006  -0.000003   0.002539   0.006530   0.624523
    37  H    0.000022   0.000001  -0.000034  -0.000103   0.002953   0.006364
    38  H    0.000002  -0.000025  -0.000016   0.002918  -0.000012   0.001967
    39  H    0.000000   0.000000   0.000000   0.000000   0.000000   0.000000
    40  H    0.000000   0.000000   0.000000   0.000000   0.000000   0.000000
    41  H    0.000000   0.000000   0.000000   0.000000   0.000000   0.000000
    42  H    0.000000   0.000000   0.000000  -0.000008   0.000000  -0.000005
    43  H    0.000000   0.000000   0.000000   0.000000   0.000000   0.000000
    44  H    0.000000   0.000000   0.000000   0.000000   0.000000   0.000000
    45  H    0.000000   0.000000   0.000000   0.000000   0.000000   0.000000
             37         38         39         40         41         42
     1  O   -0.000073   0.000053   0.000000   0.000000   0.000000  -0.000001
     2  C    0.056069  -0.014898   0.000018  -0.000025  -0.000027  -0.002910
     3  C   -0.159520  -0.029919  -0.000052   0.000378   0.000173   0.004887
     4  O    0.005004   0.000132   0.000000   0.000000   0.000000   0.000004
     5  H   -0.000244   0.000001   0.000000   0.000000   0.000000   0.000000
     6  C    0.339256  -0.004665  -0.000631  -0.003189  -0.004485   0.020748
     7  O   -0.028272  -0.002950  -0.000633   0.001305  -0.000148  -0.002418
     8  H   -0.002530   0.000229   0.000281  -0.000137   0.000012  -0.000323
     9  C    0.018669   0.016858   0.000000  -0.000006   0.000045   0.000023
    10  O    0.000016   0.000049   0.000000   0.000000   0.000000   0.000001
    11  H    0.000000   0.000000   0.000000   0.000000   0.000000   0.000000
    12  C    0.037396   0.061016   0.000053   0.000052   0.000877   0.002570
    13  O    0.009743  -0.029243   0.000014   0.000072   0.000015  -0.000425
    14  C    0.004563   0.270947   0.011890  -0.001288   0.048410  -0.026503
    15  O   -0.010508  -0.042381   0.000319   0.001065   0.000765  -0.028111
    16  C   -0.018400  -0.013577  -0.001627   0.069230   0.039473   0.106692
    17  C    0.003475   0.020582   0.001537  -0.000717  -0.006559   0.057562
    18  O    0.000161  -0.002309   0.000007   0.000060   0.000111  -0.000530
    19  H   -0.000033   0.000336   0.000000   0.000000   0.000034   0.000592
    20  C    0.000081   0.008314  -0.000911  -0.003283  -0.039964   0.041955
    21  O    0.000000   0.000018  -0.000002  -0.000001   0.000036  -0.000425
    22  H    0.000000   0.000000   0.000000   0.000000   0.000003   0.000001
    23  C    0.002302   0.000011   0.421251   0.557384   0.060870  -0.017508
    24  O    0.000079  -0.000292  -0.030985  -0.057609   0.002480   0.000837
    25  H   -0.000010   0.000008  -0.007271  -0.003054  -0.000193  -0.000017
    26  C   -0.004717   0.025738  -0.059083  -0.263025   0.117120   0.097311
    27  O    0.000003   0.000482  -0.005353   0.001667  -0.018611   0.005887
    28  C   -0.000085  -0.001143  -0.000334   0.006658   0.055808  -0.004160
    29  O    0.000000   0.000000  -0.000059  -0.000133  -0.000567  -0.000380
    30  H    0.000000   0.000000  -0.000001   0.000000   0.000008   0.000003
    31  H    0.000022   0.000002   0.000000   0.000000   0.000000   0.000000
    32  H    0.000001  -0.000025   0.000000   0.000000   0.000000   0.000000
    33  H   -0.000034  -0.000016   0.000000   0.000000   0.000000   0.000000
    34  H   -0.000103   0.002918   0.000000   0.000000   0.000000  -0.000008
    35  H    0.002953  -0.000012   0.000000   0.000000   0.000000   0.000000
    36  H    0.006364   0.001967   0.000000   0.000000   0.000000  -0.000005
    37  H    0.604433   0.004806   0.000000  -0.000001   0.000000  -0.000028
    38  H    0.004806   0.593775  -0.000001   0.000023  -0.000007   0.008165
    39  H    0.000000  -0.000001   0.572187  -0.043185  -0.004602   0.000073
    40  H   -0.000001   0.000023  -0.043185   0.570833   0.005652   0.002362
    41  H    0.000000  -0.000007  -0.004602   0.005652   0.601663   0.005154
    42  H   -0.000028   0.008165   0.000073   0.002362   0.005154   0.599280
    43  H   -0.000004  -0.000026   0.000004  -0.000018   0.002310   0.006239
    44  H    0.000000  -0.000007   0.000001  -0.000023  -0.000052   0.002771
    45  H    0.000000   0.000000  -0.000015  -0.000015   0.003242  -0.000033
             43         44         45
     1  O    0.000000   0.000000   0.000000
     2  C    0.000300   0.000092   0.000002
     3  C    0.000423   0.000088   0.000002
     4  O    0.000000   0.000000   0.000000
     5  H    0.000000   0.000000   0.000000
     6  C    0.012404   0.001765  -0.000141
     7  O    0.000004   0.000015   0.000002
     8  H   -0.000004   0.000000   0.000000
     9  C   -0.000030  -0.000138  -0.000002
    10  O    0.000000   0.000000   0.000000
    11  H    0.000000   0.000000   0.000000
    12  C   -0.002073  -0.000259   0.000015
    13  O   -0.000538   0.000128   0.000016
    14  C   -0.011940  -0.018244  -0.000656
    15  O   -0.002200   0.000699   0.000448
    16  C   -0.101052   0.105832   0.026042
    17  C    0.224943  -0.247219  -0.019665
    18  O   -0.021919   0.008132   0.000393
    19  H   -0.004953  -0.000171   0.000001
    20  C    0.049381   0.348508  -0.110110
    21  O   -0.001586  -0.031874   0.001156
    22  H   -0.000198  -0.002855   0.000280
    23  C    0.022294   0.011588   0.002087
    24  O   -0.000055   0.000018   0.000046
[...]
 01027072,-0.00038717,-0.00403320,0.00144087,-0.00001893,0.00086520,-0.
 00043538,-0.00014608,-0.00002875,-0.00043204,-0.00018054,0.00071728,0.
 00032229,-0.00015388,0.00010994,0.00002551,0.00005307,-0.00005570,0.00
 007154,0.00055960,0.00051654,0.00018080,-0.00001367,-0.00008553,0.0000
 0927,-0.00005325,-0.00000285,-0.00819174,0.00117029,-0.00082662,0.0019
 6115,0.00066579,0.00022759,-0.00000266,0.00008709,-0.00013544,0.000026
 12,-0.00002310,-0.00005019,0.00000317,-0.00000540,-0.00001525,-0.00000
 298,-0.00000126,-0.00000055,-0.00000630,0.00000456,-0.00000004,0.00000
 933,0.00000118,-0.00001120,0.00003007,0.00001577,0.00002489,0.00000703
 ,0.00000215,-0.00000980,0.00002012,0.00000367,0.00002064,0.00002115,0.
 00023096,-0.00035169,0.00197392,0.00039026,0.00007984,0.00032215,0.000
 06278,0.00002814,0.00053230,-0.00043169,-0.00000002,0.00029315,-0.0004
 2365,-0.00045991,0.37901976,0.00000632,-0.00002675,0.00002805,-0.00001
 512,0.00004523,-0.00003224,0.00003095,0.00002363,-0.00001874,0.0000020
 5,-0.00003761,-0.00000324,-0.00000578,0.00000933,-0.00000362,-0.000176
 44,0.00021853,0.00003839,0.00022709,-0.00012670,-0.00031112,-0.0003253
 3,-0.00012303,0.00018829,0.00001306,-0.00002965,-0.00000719,-0.0000071
 8,0.00002515,0.00002724,0.00000524,-0.00000427,-0.00000264,-0.00002151
 ,0.00003830,-0.00008257,0.00016927,-0.00001740,0.00023465,-0.00025225,
 0.00120926,-0.00143425,-0.00792440,0.00067422,0.00195302,0.00323435,-0
 .04508988,-0.00111629,0.03185611,0.00048909,0.00759161,-0.00245180,0.0
 0232236,-0.00043919,0.00037112,-0.00008914,-0.00012766,0.00184691,0.00
 121997,-0.00149335,-0.00058821,-0.00010678,-0.00012956,-0.00008139,-0.
 00001393,0.00002005,-0.00152673,0.00140722,0.00058647,0.00028356,-0.00
 007171,-0.00008368,-0.00003676,-0.00007759,0.00001357,-0.02535522,-0.0
 0016131,-0.00505201,0.00116209,0.00092925,0.00225330,0.00031544,-0.000
 39375,0.00015921,-0.00005631,0.00009591,0.00006136,-0.00001056,0.00001
 620,-0.00000428,0.00000170,0.00000074,-0.00000510,0.00000981,-0.000013
 19,-0.00000098,-0.00000786,-0.00000005,0.00000613,-0.00001470,0.000009
 71,-0.00000673,-0.00000109,-0.00000536,0.00000306,0.00000111,0.0000075
 2,0.00001096,0.00005885,-0.00002865,-0.00003552,0.00014212,0.00059515,
 0.00006795,0.00037672,0.00030777,0.00010393,0.00075129,-0.00054435,-0.
 00011559,-0.00077504,-0.00256716,-0.00327163,-0.00227248,0.04486917,-0
 .00000491,-0.00001106,-0.00002324,-0.00000040,0.00000302,0.00002419,0.
 00002493,0.00006385,0.00002412,-0.00003484,-0.00000327,-0.00001784,-0.
 00000157,0.00000288,-0.00000319,0.00032514,0.00003226,-0.00043426,-0.0
 0029760,-0.00001783,0.00009573,0.00024329,-0.00010992,-0.00010736,-0.0
 0004692,0.00002395,-0.00002797,0.00000268,-0.00002910,-0.00000574,0.00
 000212,-0.00000071,-0.00000619,0.00001679,-0.00009200,-0.00009015,-0.0
 0105404,-0.00036726,-0.00026693,0.00941400,0.00127549,0.00116294,0.031
 83643,0.00164840,-0.01327796,-0.04926701,-0.00131251,-0.04691444,-0.01
 186421,-0.00127195,-0.00111906,0.00100796,0.00019695,0.00101495,0.0002
 0154,0.00035255,-0.00017202,-0.00134541,-0.00008445,0.00044929,0.00042
 395,-0.00011743,0.00009978,-0.00001792,-0.00001561,-0.00002718,-0.0002
 7096,0.00112573,0.00066535,0.00014455,-0.00007657,0.00001719,-0.000032
 48,-0.00000328,0.00005735,-0.02111425,0.00051879,-0.00299749,0.0002254
 0,0.00034649,0.00163978,-0.00048905,0.00018224,-0.00036620,0.00011900,
 0.00002223,-0.00013750,0.00001987,-0.00000162,0.00001173,-0.00000047,0
 .00000396,0.00000222,-0.00000143,-0.00001001,-0.00000137,-0.00000285,0
 .00000995,0.00000704,-0.00004196,-0.00003130,-0.00006970,-0.00001047,0
 .00000735,0.00001568,-0.00005569,-0.00001031,-0.00005413,-0.00027263,-
 0.00004695,0.,-0.00077662,0.00003758,-0.00218197,0.00017073,0.00018998
 ,-0.00000676,0.00054048,-0.00032733,0.00012135,-0.00064881,-0.00224871
 ,-0.00272486,0.04294324,-0.00231320,0.06631871,0.00000181,0.00002648,-
 0.00005936,-0.00001847,-0.00003535,0.00003847,-0.00001608,-0.00005683,
 0.00003393,0.00001474,0.00005777,-0.00002324,-0.00000258,-0.00001537,0
 .00000770,0.00011896,-0.00005622,0.00004736,0.00007501,0.00015075,0.00
 008103,-0.00010990,-0.00010525,-0.00013662,-0.00001005,-0.00000901,0.0
 0009651,0.00000175,-0.00002761,-0.00007914,-0.00000999,0.00001414,0.00
 001969,0.00001694,0.00006041,0.00011569,-0.00008145,0.00025237,-0.0002
 4008,0.00006909,-0.00060617,-0.00020368,0.00211959,-0.00036683,0.00055
 398,-0.01712627,0.00067283,-0.00122081,-0.33587784,-0.02696226,-0.0470
 5385,0.00360152,-0.00721222,-0.00792855,0.00039984,-0.00088676,0.00036
 597,-0.02026476,-0.00084033,0.00044491,0.00185556,-0.00062907,0.000468
 07,0.00002934,-0.00007385,-0.00006434,0.00089125,0.00034458,0.00012657
 ,0.00003399,-0.00005702,0.00013635,-0.00001401,0.00001119,-0.00000461,
 -0.00118506,-0.00223993,-0.00115278,0.00049189,0.00075364,0.00025696,-
 0.00127776,-0.00142230,-0.00097526,0.00073538,0.00010375,0.00013186,-0
 .00003518,0.00001421,0.00015906,-0.00000911,-0.00000351,0.00001125,0.0
 0000750,0.00004497,-0.00000157,0.00000834,0.00000183,-0.00000880,0.000
 00552,-0.00000849,0.00000288,0.00000544,0.00000065,-0.00000679,0.00001
 312,0.00000112,0.00000152,-0.00000236,0.00002520,-0.00004311,0.0001581
 9,0.00002643,0.00025573,-0.00002404,0.00013927,0.00000382,0.00020299,-
 0.00043675,0.00001104,0.00179075,0.00027852,0.00072481,0.00001648,0.00
 209704,-0.00068775,0.36307527,-0.00000344,0.00003662,-0.00006623,-0.00
 002493,-0.00005451,0.00003845,0.00002660,-0.00000184,-0.00000763,-0.00
 000805,0.00005197,-0.00002533,0.00000448,-0.00001314,0.00000258,-0.000
 13816,-0.00010590,-0.00010835,-0.00007586,0.00008887,0.00013135,0.0000
 7209,0.00001315,-0.00010344,-0.00001118,-0.00003011,0.00014192,-0.0000
 0213,-0.00003354,-0.00010449,-0.00001205,0.00001900,0.00002412,0.00006
 727,0.00010549,0.00012081,-0.00011112,0.00049716,-0.00034536,0.0004400
 1,-0.00017658,-0.00020364,-0.00116007,0.00166846,-0.00189775,0.0321774
 1,-0.00420974,0.00561172,-0.03158684,-0.03987923,0.00148288,-0.0282710
 5,-0.01734852,-0.02208884,-0.00018095,-0.00018288,0.00141330,-0.012240
 22,0.00082485,0.00007195,0.00066099,0.00063984,-0.00114788,0.00013376,
 0.00005829,-0.00005886,0.00035000,0.00009675,0.00005593,-0.00005993,-0
 .00001130,0.00005507,0.00000580,0.00002269,-0.00000626,0.00323002,-0.0
 0006333,0.00111820,-0.00037859,-0.00026299,-0.00033623,0.00070999,-0.0
 0014545,-0.00083919,0.00015106,-0.00014256,0.00013829,0.00001060,0.000
 06863,0.00006710,-0.00000757,-0.00000223,0.00001000,0.00000163,0.00007
 044,0.00000744,0.00000978,0.00001386,-0.00001865,-0.00000617,-0.000026
 95,-0.00000044,-0.00000050,-0.00000051,-0.00000419,-0.00000276,-0.0000
 0054,-0.00000278,-0.00001949,-0.00001369,0.00003453,-0.00025425,-0.000
 02738,-0.00000726,-0.00010180,0.00000116,0.00000519,-0.00023542,-0.000
 09181,-0.00005069,-0.00026926,-0.00084727,-0.00033925,0.00137592,-0.00
 474842,0.00218943,0.03665528,0.06363962,0.00000244,0.00002494,-0.00006
 532,-0.00003125,-0.00003561,0.00003752,0.00000620,-0.00005753,0.000027
 54,0.00000812,0.00005045,-0.00002026,0.00000006,-0.00001427,0.00000805
 ,0.00001525,-0.00001821,0.00007959,0.00005685,0.00010104,0.00001783,-0
 .00008091,-0.00004670,-0.00003746,-0.00002463,-0.00003120,0.00012636,0
 .00000679,-0.00002721,-0.00008961,-0.00001113,0.00001516,0.00002236,0.
 00004724,0.00009159,0.00011662,0.00005484,0.00032861,-0.00039112,-0.00
 032475,-0.00060218,-0.00039322,0.00027917,-0.00086326,0.00166622,-0.01
 594191,0.00295872,-0.00122104,-0.04648886,0.00229919,-0.04823918,-0.02
 517503,-0.02127525,-0.01604730,-0.00136954,-0.00070819,0.00092751,0.03
 462468,0.00390768,0.00170437,-0.00199095,-0.00068772,0.00171244,-0.000
 11072,-0.00020832,0.00014514,0.00025925,0.00013776,-0.00005799,0.00002
 055,-0.00001865,0.00005574,-0.00000338,-0.00000497,-0.00000232,0.00041
 093,-0.00215187,-0.00004127,-0.00022631,-0.00014314,-0.00002467,0.0015
 4699,0.00083990,0.00088737,-0.00046948,0.00002768,0.00002899,-0.000095
 00,-0.00006905,-0.00005845,-0.00000974,-0.00000254,0.00000866,0.000001
 63,0.00006165,0.00000556,0.00001650,0.00000902,-0.00002568,0.00000987,
 -0.00001517,0.00000872,0.00000576,0.00000015,-0.00001082,0.00000964,0.
 00000211,0.00000337,0.00001081,0.00002811,-0.00003279,0.00020334,0.000
 02236,0.00000630,0.00003833,0.00006375,-0.00000016,0.00009789,-0.00015
 764,-0.00002308,0.00053038,-0.00035222,0.00066174,-0.00051696,0.002301
 32,-0.00065383,0.05198521,0.01325512,0.06467519,0.00000395,-0.00000587
 ,-0.00001794,0.00000575,0.00000553,0.00001805,-0.00002091,-0.00002165,
 0.00002122,0.00001342,0.00001190,-0.00001699,-0.00000422,-0.00000135,0
 .00000444,0.00003878,0.00000198,0.00003152,0.00003643,0.00000844,-0.00
 001299,-0.00002784,-0.00001170,-0.00000441,-0.00001241,0.00000869,0.00
 000696,0.00001855,-0.00000866,-0.00000857,-0.00001080,0.00000319,0.000
 00342,-0.00003844,-0.00000890,0.00002331,0.00006355,-0.00003353,-0.000
 02139,-0.00018756,-0.00002804,0.00010160,0.00071819,0.00006065,0.00012
 761,-0.00052434,0.00123327,-0.00065709,-0.02064555,-0.00539816,-0.0006
 9334,0.00189723,0.00099710,-0.00006403,0.00015791,0.00005384,-0.000164
 92,-0.34196933,-0.02549229,-0.04618670,-0.00639874,0.01197086,-0.00906
 944,-0.00012599,0.00053777,0.00043236,-0.00003738,-0.00001614,-0.00002
 213,0.00005038,0.00003574,-0.00001776,-0.00001506,-0.00000934,-0.00000
 372,-0.00003602,-0.00002034,-0.00003989,0.00181048,-0.00065752,0.00066
 153,-0.00900922,-0.00044710,-0.00096851,0.00174370,0.00000748,0.000775
 59,0.00036554,0.00038320,0.00051293,-0.00000404,0.00000177,0.00000443,
 -0.00001285,0.00000244,-0.00000011,0.00001086,0.00000181,-0.00000989,0
 .00001835,-0.00000339,0.00000857,0.00000602,0.00000252,-0.00000633,0.0
 0000976,0.00000044,0.00000054,0.00000543,0.00001123,-0.00001554,0.0000
 5684,-0.00002052,0.00004838,0.00001009,-0.00001467,0.00001515,0.000040
 93,-0.00006090,0.00001402,0.00011500,0.00022929,0.00003560,0.00081115,
 -0.00093066,0.00043594,-0.00044497,-0.00108227,0.00309316,0.37094640,0
 .00000150,-0.00000470,0.00001061,-0.00000005,0.00000629,-0.00000670,-0
 .00000319,0.00000641,-0.00000134,0.00000213,-0.00000851,0.00000277,-0.
 00000096,0.00000300,-0.00000143,0.00000124,0.00000745,-0.00000130,0.00
 001566,-0.00000849,-0.00000647,-0.00001719,-0.00000487,-0.00000502,0.0
 0000093,0.00000429,-0.00001809,-0.00000280,0.00000411,0.00001551,0.000
 00491,-0.00000298,-0.00000538,-0.00000146,-0.00000880,-0.00001090,0.00
 003371,-0.00004696,0.00003221,-0.00003197,0.00009124,-0.00000875,0.000
 12364,-0.00012169,-0.00008534,-0.00132476,0.00013926,0.00018872,-0.005
 86876,0.00094073,0.00045128,0.00052197,0.00046046,0.00071976,-0.000088
 89,-0.00002427,-0.00008582,-0.02507957,-0.03799992,-0.00952360,0.03847
 647,-0.01834088,0.01863490,0.00134427,0.00077430,-0.00040240,-0.000073
 41,0.00002024,-0.00001168,0.00002929,-0.00001575,-0.00001064,-0.000008
 61,-0.00000133,0.00000298,-0.00023493,-0.00029964,0.00010131,0.0011820
 0,0.00214397,0.00051271,-0.02895910,-0.00409212,-0.00691639,0.00111540
 ,0.00138185,0.00251309,-0.00006234,0.00001536,0.00045028,0.00000083,0.
 00000045,-0.00000241,0.00000289,-0.00000798,0.00000064,-0.00000145,-0.
 00000277,0.00000243,0.00000017,0.00000519,0.00000003,0.00000075,-0.000
 00079,0.00000017,0.00000049,0.00000072,0.00000118,0.00000211,0.0000020
 5,-0.00000642,0.00002096,0.00000573,0.00001896,0.00000686,-0.00001141,
 -0.00000992,0.00003175,-0.00005265,0.00002074,0.00017616,0.00010021,-0
 .00001433,0.00015817,-0.00008776,0.00026393,-0.00034106,0.00025325,0.0
 0120470,0.01914985,0.05814051,-0.00000074,-0.00000905,-0.00000112,-0.0
 0000098,0.00001015,0.00000031,0.00001060,0.00001543,0.00000335,-0.0000
 0248,-0.00000778,-0.00000879,-0.00000017,0.00000374,-0.00000117,-0.000
 02254,-0.00000717,-0.00000968,-0.00001225,-0.00001097,-0.00001998,0.00
 001313,-0.00000494,0.00001678,0.00000419,0.00001220,-0.00001636,-0.000
 00545,-0.00000696,0.00000700,0.00000345,-0.00000047,-0.00000580,0.0000
 2219,-0.00000747,0.00000309,0.00000541,-0.00008682,0.00002061,0.000054
 44,0.00015884,0.00011099,-0.00054788,-0.00018019,-0.00022390,0.0011568
 8,-0.00099177,0.00123260,0.03481953,0.00541158,0.00129156,-0.00219413,
 -0.00020364,0.00238544,-0.00023207,0.00026323,0.00023346,-0.04366079,-
 0.00871296,-0.04923547,-0.01741337,0.01338917,-0.00541031,-0.00121466,
 0.00006763,0.00009203,0.00001574,-0.00001837,0.00006873,-0.00000382,0.
 00000392,-0.00001290,-0.00000745,-0.00000489,0.00000135,0.00040958,0.0
 0017504,-0.00030215,0.00157705,0.00117762,0.00096333,-0.02638455,-0.00
 616155,-0.00669411,0.00026277,0.00087079,0.00243694,-0.00010158,0.0002
 6857,0.00047208,0.00000040,0.00000194,-0.00000035,0.00000162,-0.000008
 14,0.00000154,-0.00000414,-0.00000101,0.00000421,-0.00000830,0.0000031
 7,-0.00000677,-0.00000184,-0.00000072,0.00000308,-0.00000321,0.0000008
 8,-0.00000167,0.00000172,-0.00000617,0.00000856,-0.00003565,0.00000940
 ,-0.00005835,-0.00000790,0.00002046,0.00000727,-0.00001317,0.00001989,
 0.00000608,-0.00014421,-0.00000521,-0.00016676,-0.00051326,0.00042159,
 -0.00016113,0.00293342,0.00168672,-0.00527354,0.05184351,-0.00471343,0
 .06122855,0.00000239,-0.00000865,-0.00002166,-0.00000476,0.00000937,0.
 00001385,0.00000027,-0.00000659,0.00001701,0.00000646,0.00000622,-0.00
 002256,-0.00000281,0.00000066,0.00000296,-0.00002604,0.00001459,0.0000
 1381,0.00001076,-0.00002353,-0.00006491,0.00000588,0.00001611,0.000069
 54,-0.00000873,0.00001284,0.00000391,0.00000615,-0.00001287,-0.0000088
 9,-0.00000406,0.00000227,0.00000081,0.00000519,0.00000115,0.00002180,0
 .00001024,-0.00005549,-0.00005750,0.00002951,0.00007196,0.00009948,0.0
 0003456,-0.00009339,-0.00029202,0.00025742,0.00041772,0.00023639,-0.00
 032790,-0.00051615,0.00021483,0.00031900,0.00015710,0.00012075,-0.0000
 3000,0.00000004,-0.00008416,-0.00532303,0.00132374,-0.00326913,0.00174
 513,-0.00050005,0.00146240,-0.00054253,-0.00009625,-0.00004692,0.00051
 616,-0.00019308,-0.00005078,0.00001098,0.00024358,-0.00014627,-0.00000
 077,-0.00001201,-0.00002990,0.00000851,-0.00040697,0.00074724,-0.00447
 155,0.00914370,-0.00620810,-0.32232458,-0.01887783,-0.09252922,-0.0210
 3650,-0.00446524,0.00452820,0.00016681,0.00025806,0.00013900,-0.000003
 85,0.00000188,0.00000369,-0.00000332,-0.00000080,0.00000066,0.00000409
 ,0.00000041,-0.00000313,0.00000283,-0.00000043,-0.00000149,0.00000274,
 0.00000036,-0.00000176,0.00000369,0.00000091,-0.00000019,0.00000564,-0
 .00000242,-0.00000337,0.00000343,-0.00000347,-0.00000143,-0.00002294,-
 0.00000724,-0.00000617,0.00008544,-0.00024864,0.00010802,0.00050928,0.
 00040254,-0.00110039,0.00000670,-0.00012537,0.00024220,0.00076961,0.00
 016135,-0.00047128,0.00057096,-0.00030361,-0.00059901,0.34903355,0.000
 00043,0.00001635,0.00001297,0.00000348,-0.00001900,-0.00000543,-0.0000
 1022,0.00000254,-0.00000991,-0.00000024,0.00000733,0.00001479,0.000000
 75,-0.00000310,-0.00000188,0.00003007,-0.00005629,-0.00002666,0.000004
 89,0.00007877,0.00011879,-0.00002964,-0.00006523,-0.00015662,0.0000009
 7,-0.00001702,0.00001227,0.00000481,0.00001192,-0.00000338,-0.00000416
 ,-0.00000017,0.00000460,-0.00001861,0.00001147,-0.00000309,-0.00000260
 ,0.00011469,0.00002791,-0.00011100,-0.00010036,-0.00010478,0.00003022,
 0.00038281,0.00032639,-0.00029070,-0.00075098,0.00013433,-0.00137996,-
 0.00018189,0.00159638,0.00056798,0.00009424,-0.00037180,0.00011718,-0.
 00014313,0.00004992,-0.02355112,-0.00032980,-0.01093257,0.00132775,0.0
 0348711,0.00083250,-0.00043673,-0.00020611,0.00011775,0.00035279,0.000
 22204,-0.00008946,-0.00025957,-0.00029886,0.00026884,-0.00000603,0.000
 04637,0.00001702,0.00412079,0.00143301,-0.00371605,0.03323002,-0.01361
 208,0.02076985,-0.01981520,-0.04320318,-0.00826570,-0.00561180,0.00280
 540,0.00151665,-0.00067106,0.00062498,-0.00045125,0.00000107,-0.000002
 67,-0.00000146,0.00000017,0.00000890,-0.00000075,0.00000171,0.00000155
 ,-0.00000122,0.00000412,-0.00000383,0.00000340,0.00000063,0.00000026,-
 0.00000114,0.00000139,-0.00000100,0.00000079,-0.00000550,0.00000710,0.
 00000014,0.00000683,-0.00000700,0.00000314,0.00002817,-0.00001587,-0.0
 0002325,-0.00029567,0.00000910,0.00003788,-0.00122272,0.00030376,-0.00
 003857,-0.00004093,-0.00014929,0.00000538,0.00065974,0.00025032,-0.000
 24009,-0.00044602,-0.00336280,-0.00284230,0.01371350,0.05260962,-0.000
 00060,-0.00000674,-0.00003816,-0.00000550,0.00000702,0.00002586,0.0000
 0786,-0.00000905,0.00002808,0.00000169,0.00001672,-0.00003544,-0.00000
 082,-0.00000126,0.00000403,-0.00002178,-0.00001126,0.00000317,0.000007
 21,0.00000258,-0.00005515,-0.00000064,-0.00000301,0.00005320,-0.000004
 88,0.00001862,0.00001965,-0.00000061,-0.00002337,-0.00002446,-0.000002
 12,0.00000538,0.00000344,0.00001955,0.00001348,0.00004666,-0.00000469,
 -0.00004965,-0.00010119,0.00006135,0.00006535,0.00014731,0.00008146,0.
 00001491,-0.00039538,0.00008928,-0.00025461,-0.00005862,-0.00212466,0.
 00013286,0.00171921,0.00072653,-0.00000714,-0.00007006,0.00002307,-0.0
 0001152,0.00001129,-0.02475602,-0.00166827,-0.00658015,0.00210948,0.00
 091358,0.00205145,0.00018766,-0.00042368,0.00000488,-0.00003648,0.0000
 0740,0.00005610,0.00011669,0.00017578,-0.00014819,-0.00000791,-0.00002
 799,-0.00001428,-0.00280723,-0.00024370,0.00266187,-0.01206107,0.00976
 558,-0.00581814,-0.09961453,-0.01068170,-0.07915750,0.03759286,0.00431
 655,-0.00324092,0.00162483,-0.00021951,0.00377256,-0.00000457,0.000001
 81,0.00000654,-0.00000200,0.00000439,-0.00000029,0.00000231,-0.0000003
 7,-0.00000323,0.00000040,-0.00000127,-0.00000197,0.00000143,0.00000038
 ,-0.00000212,0.00000270,0.00000036,-0.00000076,0.00000328,0.00000036,-
 0.00000433,0.00000754,-0.00000810,0.00001073,0.00000222,-0.00001386,-0
 .00000836,0.00018816,-0.00006719,-0.00003107,0.00076980,0.00003471,-0.
 00007160,0.00019664,0.00002022,0.00012108,0.00087656,0.00010065,-0.000
 22410,-0.00021812,-0.00330111,-0.00298865,0.09697368,0.00141567,0.0883
 2704\\0.01736847,-0.01117936,-0.01529881,-0.01582266,-0.00863248,-0.00
 985694,-0.01079834,-0.02859220,0.01419634,0.00876232,0.02524925,0.0290
 0602,-0.00412108,-0.02036945,-0.01907048,0.01864449,-0.00695036,-0.033
 45727,0.00304445,0.00247897,0.00840109,-0.00000557,-0.00009294,0.02158
 510,-0.00281781,0.01787544,-0.00104597,0.00557265,0.01977902,-0.008640
 54,0.00581444,-0.03119531,0.01134548,-0.00296233,0.02680615,0.02174163
 ,0.00424150,-0.00851250,0.00785939,-0.04138723,0.00290058,0.01185848,0
 .02824697,0.00137802,0.00942250,-0.03134196,0.01700422,-0.01097441,-0.
 01210195,0.04445135,0.00149039,-0.00237206,-0.02347604,0.00735775,0.01
 225897,0.02032530,-0.01752890,0.01915147,0.00313219,-0.01617493,-0.014
 23224,0.00624045,-0.00364195,-0.00411034,-0.01533504,0.03457588,0.0049
 5282,-0.02443302,-0.00303625,-0.00644201,-0.01253042,0.00238737,-0.008
 20854,0.03261825,-0.00153757,0.02778840,-0.02090726,0.01692115,-0.0119
 3379,0.01282319,-0.00437702,0.03415824,-0.00383313,-0.00683344,-0.0095
 6763,-0.00392942,0.01164969,-0.00207927,-0.00480862,-0.00287631,-0.001
 38852,0.00291483,-0.00205321,0.00065154,0.00702351,-0.01773138,-0.0209
 1188,-0.00435460,-0.00026338,0.02005397,0.00100365,-0.00468871,-0.0205
 4998,-0.00156662,-0.00216987,0.02157590,-0.00067468,-0.00261296,-0.018
 51232,-0.00015372,0.00463103,0.01620244,0.00223173,-0.00460313,-0.0034
 8263,-0.00744953,-0.01699022,0.01927225,0.00361100,-0.00226635,-0.0180
 6067,0.00181230,-0.00185092,0.01565106,-0.00408536,0.00140011,-0.02349
 291,-0.00443008,-0.00182976,0.02191046,-0.00159780,0.00221598,-0.01861
 908,-0.00256945,-0.00663476\\\@


 THEREFORE SHALL EVIL COME UPON THEE...
 THOU SHALT NOT KNOW FROM WHENCE IT RISETH...
 AND MISCHIEF SHALL FALL UPON THEE...
 THOU SHALT NOT BE ABLE TO PUT IT OFF...
 AND DESOLATION SHALL COME UPON THEE SUDDENLY...
 WHICH THOU SHALT NOT KNOW...

                                         ISAIAH 47.11
 Job cpu time:  1 days  8 hours  9 minutes 16.4 seconds.
 File lengths (MBytes):  RWF=   1769 Int=      0 D2E=      0 Chk=     28 Scr=      1
 Normal termination of Gaussian 09 at Tue Mar 29 02:15:08 2016.
Gaussian '09 finished on node025 at Tue Mar 29 02:15:08 EDT 2016.
