Gaussian '09 started on node030 at Mon Feb  8 13:53:38 EST 2016.
 Entering Gaussian System, Link 0=/usr/local/gaussian/g09/g09
 Initial command:
 /usr/local/gaussian/g09/l1.exe /home/srmcgrat/thesis/gaussian/cellobiose/290/5000/1/2dfp/gaussian10548/Gau-10584.inp -scrdir=/home/srmcgrat/thesis/gaussian/cellobiose/290/5000/1/2dfp/gaussian10548/
 Entering Link 1 = /usr/local/gaussian/g09/l1.exe PID=     10586.
  
 Copyright (c) 1988,1990,1992,1993,1995,1998,2003,2009,2010,
            Gaussian, Inc.  All Rights Reserved.
  
 This is part of the Gaussian(R) 09 program.  It is based on
 the Gaussian(R) 03 system (copyright 2003, Gaussian, Inc.),
 the Gaussian(R) 98 system (copyright 1998, Gaussian, Inc.),
 the Gaussian(R) 94 system (copyright 1995, Gaussian, Inc.),
 the Gaussian 92(TM) system (copyright 1992, Gaussian, Inc.),
 the Gaussian 90(TM) system (copyright 1990, Gaussian, Inc.),
 the Gaussian 88(TM) system (copyright 1988, Gaussian, Inc.),
 the Gaussian 86(TM) system (copyright 1986, Carnegie Mellon
 University), and the Gaussian 82(TM) system (copyright 1983,
 Carnegie Mellon University). Gaussian is a federally registered
 trademark of Gaussian, Inc.
  
 This software contains proprietary and confidential information,
 including trade secrets, belonging to Gaussian, Inc.
  
 This software is provided under written license and may be
 used, copied, transmitted, or stored only in accord with that
 written license.
  
 The following legend is applicable only to US Government
 contracts under FAR:
  
                    RESTRICTED RIGHTS LEGEND
  
 Use, reproduction and disclosure by the US Government is
 subject to restrictions as set forth in subparagraphs (a)
 and (c) of the Commercial Computer Software - Restricted
 Rights clause in FAR 52.227-19.
  
 Gaussian, Inc.
 340 Quinnipiac St., Bldg. 40, Wallingford CT 06492
  
  
 ---------------------------------------------------------------
 Warning -- This program may not be used in any manner that
 competes with the business of Gaussian, Inc. or will provide
 assistance to any competitor of Gaussian, Inc.  The licensee
 of this program is prohibited from giving any competitor of
 Gaussian, Inc. access to this program.  By using this program,
 the user acknowledges that Gaussian, Inc. is engaged in the
 business of creating and licensing software in the field of
 computational chemistry and represents and warrants to the
 licensee that it is not a competitor of Gaussian, Inc. and that
 it will not use this program in any manner prohibited above.
 ---------------------------------------------------------------
  

 Cite this work as:
 Gaussian 09, Revision B.01,
 M. J. Frisch, G. W. Trucks, H. B. Schlegel, G. E. Scuseria, 
 M. A. Robb, J. R. Cheeseman, G. Scalmani, V. Barone, B. Mennucci, 
 G. A. Petersson, H. Nakatsuji, M. Caricato, X. Li, H. P. Hratchian, 
 A. F. Izmaylov, J. Bloino, G. Zheng, J. L. Sonnenberg, M. Hada, 
 M. Ehara, K. Toyota, R. Fukuda, J. Hasegawa, M. Ishida, T. Nakajima, 
 Y. Honda, O. Kitao, H. Nakai, T. Vreven, J. A. Montgomery, Jr., 
 J. E. Peralta, F. Ogliaro, M. Bearpark, J. J. Heyd, E. Brothers, 
 K. N. Kudin, V. N. Staroverov, T. Keith, R. Kobayashi, J. Normand, 
 K. Raghavachari, A. Rendell, J. C. Burant, S. S. Iyengar, J. Tomasi, 
 M. Cossi, N. Rega, J. M. Millam, M. Klene, J. E. Knox, J. B. Cross, 
 V. Bakken, C. Adamo, J. Jaramillo, R. Gomperts, R. E. Stratmann, 
 O. Yazyev, A. J. Austin, R. Cammi, C. Pomelli, J. W. Ochterski, 
 R. L. Martin, K. Morokuma, V. G. Zakrzewski, G. A. Voth, 
 P. Salvador, J. J. Dannenberg, S. Dapprich, A. D. Daniels, 
 O. Farkas, J. B. Foresman, J. V. Ortiz, J. Cioslowski, 
 and D. J. Fox, Gaussian, Inc., Wallingford CT, 2010.
 
 ******************************************
 Gaussian 09:  EM64L-G09RevB.01 12-Aug-2010
                 8-Feb-2016 
 ******************************************
 --------------------------------------------------
 # freq=raman b3lyp/6-31+g(2df,p) geom=connectivity
 --------------------------------------------------
 1/10=4,30=1,38=1,57=2/1,3;
 2/12=2,17=6,18=5,40=1/2;
 3/5=1,6=6,7=114,11=2,16=1,25=1,30=1,71=2,74=-5/1,2,3;
 4//1;
 5/5=2,38=5,98=1/2;
 8/6=4,10=90,11=11/1;
 10/13=10,15=4/2;
 11/6=3,8=1,9=11,15=111,16=1/1,2,10;
 10/6=1/2;
 6/7=2,8=2,9=2,10=2,18=1,28=1/1;
 7/8=1,10=1,25=1/1,2,3,16;
 1/10=4,30=1/3;
 99//99;
 ------------
 290 5000.com
 ------------
 Symbolic Z-matrix:
 Charge =  0 Multiplicity = 1
 O                     7.462     7.763     12.157 
 C                     8.014     8.05      13.45 
 C                     7.59      9.413     13.972 
 O                     7.887     10.409    12.983 
 H                     7.741     10.052    12.061 
 C                     8.223     9.723     15.319 
 O                     7.606     10.906    15.846 
 H                     7.626     10.829    16.843 
 C                     7.969     5.53      14.237 
 O                     7.879     4.823     12.992 
 H                     7.991     3.832     13.065 
 C                     7.624     6.992     14.47 
 O                     8.149     7.335     15.76 
 C                     7.866     8.629     16.312 
 O                     8.68      8.766     17.486 
 C                     8.172     8.303     18.746 
 C                     8.576     6.911     19.204 
 O                     8.195     5.961     18.198 
 H                     8.473     6.208     17.27 
 C                     8.191     6.575     20.635 
 O                     8.649     5.329     21.18 
 H                     8.165     5.314     22.055 
 C                     8.        10.738    19.61 
 O                     8.199     11.357    18.331 
 H                     8.249     12.331    18.551 
 C                     8.506     9.321     19.824 
 O                     7.894     8.911     21.055 
 C                     8.482     7.718     21.594 
 O                     7.611     7.562     22.724 
 H                     8.17434   7.62355   11.52873 
 H                     8.13617   7.4521    23.52006 
 H                     9.51413   7.82409   21.85545 
 H                     9.08032   8.04702   13.36138 
 H                     6.52883   9.39474   14.10794 
 H                     6.55808   7.03762   14.55149 
 H                     7.36564   4.97766   14.92677 
 H                     8.98291   5.41777   14.55993 
 H                     9.28305   9.84176   15.23479 
 H                     6.83093   8.69637   16.57466 
 H                     7.10593   8.29192   18.65502 
 H                     9.56743   9.34875   19.95624 
 H                     8.4675    11.36031   20.34422 
 H                     6.94808   10.73643   19.80588 
 H                     9.64599   6.91144   19.19894 
 H                     7.12451   6.49028   20.61717 
 

 GradGradGradGradGradGradGradGradGradGradGradGradGradGradGradGradGradGrad
 Berny optimization.
 Initialization pass.
 Trust Radius=3.00D-01 FncErr=1.00D-07 GrdErr=1.00D-07
 Number of steps in this run=      2 maximum allowed number of steps=      2.
 GradGradGradGradGradGradGradGradGradGradGradGradGradGradGradGradGradGrad

                          Input orientation:                          
 ---------------------------------------------------------------------
 Center     Atomic      Atomic             Coordinates (Angstroms)
 Number     Number       Type             X           Y           Z
 ---------------------------------------------------------------------
      1          8           0        7.462000    7.763000   12.157000
      2          6           0        8.014000    8.050000   13.450000
      3          6           0        7.590000    9.413000   13.972000
      4          8           0        7.887000   10.409000   12.983000
      5          1           0        7.741000   10.052000   12.061000
      6          6           0        8.223000    9.723000   15.319000
      7          8           0        7.606000   10.906000   15.846000
      8          1           0        7.626000   10.829000   16.843000
      9          6           0        7.969000    5.530000   14.237000
     10          8           0        7.879000    4.823000   12.992000
     11          1           0        7.991000    3.832000   13.065000
     12          6           0        7.624000    6.992000   14.470000
     13          8           0        8.149000    7.335000   15.760000
     14          6           0        7.866000    8.629000   16.312000
     15          8           0        8.680000    8.766000   17.486000
     16          6           0        8.172000    8.303000   18.746000
     17          6           0        8.576000    6.911000   19.204000
     18          8           0        8.195000    5.961000   18.198000
     19          1           0        8.473000    6.208000   17.270000
     20          6           0        8.191000    6.575000   20.635000
     21          8           0        8.649000    5.329000   21.180000
     22          1           0        8.165000    5.314000   22.055000
     23          6           0        8.000000   10.738000   19.610000
     24          8           0        8.199000   11.357000   18.331000
     25          1           0        8.249000   12.331000   18.551000
     26          6           0        8.506000    9.321000   19.824000
     27          8           0        7.894000    8.911000   21.055000
     28          6           0        8.482000    7.718000   21.594000
     29          8           0        7.611000    7.562000   22.724000
     30          1           0        8.174340    7.623546   11.528729
     31          1           0        8.136171    7.452101   23.520064
     32          1           0        9.514127    7.824087   21.855455
     33          1           0        9.080319    8.047017   13.361377
     34          1           0        6.528827    9.394738   14.107938
     35          1           0        6.558084    7.037624   14.551493
     36          1           0        7.365639    4.977663   14.926767
     37          1           0        8.982912    5.417766   14.559933
     38          1           0        9.283049    9.841764   15.234787
     39          1           0        6.830931    8.696373   16.574665
     40          1           0        7.105933    8.291918   18.655019
     41          1           0        9.567435    9.348751   19.956237
     42          1           0        8.467497   11.360305   20.344222
     43          1           0        6.948083   10.736432   19.805879
     44          1           0        9.645988    6.911436   19.198935
     45          1           0        7.124508    6.490280   20.617169
 ---------------------------------------------------------------------
                    Distance matrix (angstroms):
                    1          2          3          4          5
     1  O    0.000000
     2  C    1.434894   0.000000
     3  C    2.456239   1.519878   0.000000
     4  O    2.804321   2.408132   1.434694   0.000000
     5  H    2.307938   2.451908   2.020654   0.999424   0.000000
     6  C    3.797231   2.517096   1.520262   2.457720   3.309853
     7  O    4.848495   3.750202   2.396076   2.919373   3.882495
     8  H    5.602307   4.402935   3.201405   3.891545   4.846079
     9  C    3.093499   2.640415   3.910442   5.038242   5.023489
    10  O    3.084593   3.262134   4.702342   5.586013   5.313026
    11  H    4.069037   4.235597   5.668422   6.578333   6.305467
    12  C    2.443492   1.520482   2.471923   3.735803   3.896225
    13  O    3.692799   2.421890   2.797769   4.150885   4.607728
    14  C    4.263472   2.923729   2.483230   3.775061   4.484591
    15  O    5.557677   4.152771   3.735626   4.858529   5.653861
    16  C    6.649107   5.304393   4.935778   6.142364   6.923438
    17  C    7.185201   5.892511   5.882689   7.170186   7.847646
    18  O    6.346509   5.190394   5.490119   6.861180   7.389531
    19  H    5.439018   4.265682   4.682790   6.030768   6.515047
    20  C    8.591814   7.336973   7.267119   8.564174   9.263126
    21  O    9.420608   8.219487   8.351994   9.673565  10.309576
    22  H   10.220676   9.030754   9.081152  10.408530  11.068354
    23  C    8.042840   6.720948   5.806098   6.636124   7.584529
    24  O    7.181802   5.898698   4.811538   5.440326   6.420723
    25  H    7.897419   6.663512   5.469575   5.901504   6.897246
    26  C    7.893047   6.518081   5.923970   6.954580   7.834779
    27  O    8.982145   7.654525   7.107272   8.209826   9.067377
    28  C    9.492070   8.164189   7.858980   9.041285   9.842496
    29  O   10.569962   9.295570   8.945622  10.152274  10.950642
    30  H    0.960000   1.974552   3.084343   3.155348   2.523586
    31  H   11.387291  10.088538   9.762630  10.946920  11.756946
    32  H    9.913374   8.541258   8.268964   9.383484  10.199947
    33  H    2.037191   1.070000   2.111829   2.673227   2.739473
    34  H    2.709159   2.108777   1.070000   2.034415   2.468058
    35  H    2.660231   2.087554   2.653879   3.948717   4.085133
    36  H    3.929249   3.469938   4.542481   5.792191   5.839728
    37  H    3.686107   3.016521   4.271740   5.347912   5.409541
    38  H    4.136454   2.829553   2.155199   2.709474   3.534832
    39  H    4.559078   3.403084   2.804212   4.116847   4.799908
    40  H    6.529226   5.289171   4.839609   6.104416   6.854362
    41  H    8.232591   6.814032   6.302815   7.250795   8.134199
    42  H    8.999013   7.661206   6.720656   7.445102   8.417317
    43  H    8.222576   6.982141   6.016450   6.894958   7.815389
    44  H    7.421847   6.083582   6.148639   7.346077   8.027592
    45  H    8.562020   7.388656   7.274424   8.615004   9.288377
                    6          7          8          9         10
     6  C    0.000000
     7  O    1.434541   0.000000
     8  H    1.975404   1.000169   0.000000
     9  C    4.337798   5.623347   5.915090   0.000000
    10  O    5.435372   6.724785   7.139065   1.434564   0.000000
    11  H    6.311753   7.610760   7.960183   2.063316   0.999977
    12  C    2.921979   4.148867   4.511508   1.520118   2.637057
    13  O    2.429506   3.613072   3.695193   2.368534   3.747648
    14  C    1.519978   2.338693   2.275865   3.730956   5.050565
    15  O    2.412589   2.902185   2.404233   4.640390   6.031989
    16  C    3.709896   3.937761   3.209393   5.297341   6.730881
    17  C    4.808865   5.308210   4.671996   5.191021   6.590485
    18  O    4.737306   5.507436   5.084999   3.990784   5.338290
    19  H    4.027918   4.985045   4.717349   3.148458   4.535675
    20  C    6.178251   6.483387   5.726692   6.486579   7.847439
    21  O    7.337577   7.787319   7.078566   6.979115   8.239677
    22  H    8.050860   8.374642   7.607279   7.823439   9.080795
    23  C    4.415046   3.788292   2.793644   7.482871   8.876925
    24  O    3.426759   2.594277   1.679660   7.125143   8.443961
    25  H    4.153091   3.124276   2.358261   8.058697   9.349302
    26  C    4.531746   4.375695   3.454682   6.773080   8.203740
    27  O    5.802524   5.585396   4.635892   7.610645   9.040129
    28  C    6.592627   6.631005   5.743088   7.692591   9.096100
    29  O    7.738119   7.647826   6.727531   8.734206  10.113643
    30  H    4.333155   5.453104   6.230336   3.429261   3.173554
    31  H    8.510110   8.432186   7.499794   9.481439  10.854420
    32  H    6.928068   7.018026   6.141599   8.105005   9.499526
    33  H    2.715917   4.064573   4.687875   2.887407   3.460331
    34  H    2.108233   2.542650   3.277416   4.126373   4.895822
    35  H    3.251501   4.211675   4.556970   2.088665   3.013536
    36  H    4.838093   6.003994   6.162620   1.070000   2.007681
    37  H    4.437194   5.802634   6.027857   1.070000   2.007681
    38  H    1.070000   2.078141   2.511333   4.616667   5.673574
    39  H    2.137408   2.452373   2.291775   4.097048   5.379308
    40  H    3.798007   3.869636   3.160802   5.281284   6.685866
    41  H    4.842679   4.813138   3.956331   7.060278   8.475484
    42  H    5.290879   4.602453   3.639912   8.458080   9.855854
    43  H    4.773315   4.017742   3.040854   7.691659   9.069963
    44  H    4.998368   5.600024   4.997808   5.416775   6.783056
    45  H    6.302996   6.518779   5.772377   6.507063   7.841702
                   11         12         13         14         15
    11  H    0.000000
    12  C    3.477688   0.000000
    13  O    4.422556   1.434355   0.000000
    14  C    5.793949   2.476146   1.435001   0.000000
    15  O    6.660654   3.654924   2.304083   1.435145   0.000000
    16  C    7.231622   4.505907   3.139068   2.474726   1.435282
    17  C    6.892734   4.829453   3.496175   3.437919   2.530487
    18  O    5.560750   3.909858   2.798899   3.283818   2.934313
    19  H    4.853836   3.029102   1.911859   2.673472   2.575436
    20  C    8.054126   6.205047   4.934064   4.797173   3.867273
    21  O    8.278116   6.988583   5.800900   5.933002   5.045747
    22  H    9.112996   7.787207   6.611484   6.637822   5.749547
    23  C    9.514722   6.371302   5.140536   3.916968   2.977005
    24  O    9.186928   5.855866   4.773785   3.410166   2.767430
    25  H   10.119079   6.749082   5.723609   4.343341   3.745559
    26  C    8.722295   5.904869   4.537372   3.636290   2.409262
    27  O    9.468144   6.864232   5.530445   4.751458   3.657401
    28  C    9.385410   7.212116   5.856034   5.395267   4.244193
    29  O   10.361157   8.273668   6.988438   6.505172   5.479874
    30  H    4.095066   3.058235   4.241174   4.897519   6.086869
    31  H   11.065015   9.076214   7.760958   7.308507   6.199355
    32  H    9.773882   7.668761   6.265569   5.839015   4.546989
    33  H    4.363579   2.112575   2.669779   3.243371   4.205914
    34  H    5.845488   2.665266   3.097869   2.689289   4.053906
    35  H    3.812996   1.070000   2.019885   2.709706   4.012623
    36  H    2.273718   2.081572   2.620109   3.937194   4.756965
    37  H    2.394446   2.081572   2.410675   3.824821   4.456937
    38  H    6.518791   3.385040   2.801033   2.153883   2.566885
    39  H    6.109471   2.821960   2.062601   1.070000   2.062629
    40  H    7.205728   4.412773   3.222548   2.486174   2.017188
    41  H    8.967097   6.279332   4.865753   4.085754   2.688719
    42  H   10.482820   7.368858   6.108978   4.907203   3.865878
    43  H    9.705581   6.553566   5.420431   4.182228   3.501996
    44  H    7.060246   5.143710   3.774474   3.801681   2.703088
    45  H    8.053106   6.187803   5.035398   4.863992   4.171652
                   16         17         18         19         20
    16  C    0.000000
    17  C    1.520080   0.000000
    18  O    2.405368   1.435164   0.000000
    19  H    2.580349   2.060382   0.999738   0.000000
    20  C    2.560208   1.519501   2.513162   3.396680   0.000000
    21  O    3.872539   2.532317   3.081860   4.011448   1.435028
    22  H    4.459109   3.293559   3.911005   4.877533   1.899262
    23  C    2.589460   3.891342   4.985128   5.120569   4.291582
    24  O    3.082186   4.546556   5.397640   5.264314   5.308107
    25  H    4.033452   5.468980   6.380002   6.259574   6.121924
    26  C    1.519857   2.489458   3.745690   4.026757   2.880532
    27  O    2.403836   2.809150   4.117712   4.686969   2.391967
    28  C    2.923941   2.524319   3.834349   4.580083   1.520135
    29  O    4.085130   3.707482   4.836211   5.685286   2.382119
    30  H    7.249184   7.718733   6.873403   5.920740   9.166455
    31  H    4.849433   4.372030   5.527315   6.381578   3.015942
    32  H    3.420435   2.957030   4.311400   4.972130   2.190980
    33  H    5.466694   5.973368   5.341178   4.362128   7.474177
    34  H    5.040191   6.027414   5.594220   4.892212   7.301800
    35  H    4.669025   5.072853   4.139520   3.427165   6.315813
    36  H    5.127829   4.847421   3.515076   2.868923   5.984700
    37  H    5.148330   4.895169   3.761840   2.868613   6.234801
    38  H    3.991346   4.984371   5.002481   4.242937   6.405203
    39  H    2.582229   3.625773   3.460949   3.061353   4.778738
    40  H    1.070000   2.090314   2.613066   2.851292   2.836460
    41  H    2.122618   2.737048   4.056085   4.275274   3.170013
    42  H    3.462477   4.594366   5.816616   5.999760   4.802099
    43  H    2.922825   4.200750   5.190840   5.409505   4.421515
    44  H    2.077075   1.070000   2.002640   2.364638   2.071826
    45  H    2.807929   2.069029   2.697864   3.619621   1.070000
                   21         22         23         24         25
    21  O    0.000000
    22  H    1.000053   0.000000
    23  C    5.669513   5.951893   0.000000
    24  O    6.682521   7.098393   1.434783   0.000000
    25  H    7.489970   7.843683   1.929023   0.999788   0.000000
    26  C    4.218442   4.598879   1.519777   2.543343   3.278213
    27  O    3.662837   3.743241   2.331778   3.673706   4.253521
    28  C    2.430351   2.468244   3.645405   4.895874   5.531176
    29  O    2.906487   2.409975   4.464896   5.834914   6.369014
    30  H    9.931630  10.776663   8.662399   7.759522   8.454466
    31  H    3.201008   2.592049   5.109234   6.494503   6.964767
    32  H    2.725829   2.856659   3.978133   5.160699   5.729942
    33  H    8.288819   9.158945   6.888670   6.035716   6.780545
    34  H    8.428488   9.082141   5.851614   4.947140   5.596555
    35  H    7.157404   7.864838   6.431205   5.969446   6.846538
    36  H    6.393229   7.180794   7.450944   7.278684   8.245421
    37  H    6.629077   7.540277   7.400958   7.078839   8.016236
    38  H    7.490836   8.262324   4.646713   3.613535   4.273502
    39  H    5.987795   6.576798   3.840341   3.469187   4.373480
    40  H    4.187537   4.642143   2.773926   3.270247   4.199001
    41  H    4.301106   4.759290   2.122910   2.923538   3.550602
    42  H    6.091643   6.290952   1.070000   2.031050   2.050764
    43  H    5.832808   5.995181   1.070000   2.031050   2.410343
    44  H    2.724464   3.591968   4.185791   4.755010   5.634099
    45  H    1.997354   2.129229   4.452415   5.483253   6.296630
                   26         27         28         29         30
    26  C    0.000000
    27  O    1.434575   0.000000
    28  C    2.388113   1.435101   0.000000
    29  O    3.507863   2.164590   1.435227   0.000000
    30  H    8.473657   9.616963  10.070415  11.209605   0.000000
    31  H    4.158178   2.874643   1.974847   0.960000  11.992621
    32  H    2.717329   2.108772   1.070000   2.108306  10.415206
    33  H    6.611987   7.832347   8.260891   9.489618   2.087756
    34  H    6.048802   7.096433   7.916278   8.875052   3.535131
    35  H    6.066919   6.898537   7.332208   8.256723   3.477455
    36  H    6.644388   7.301065   7.294361   8.218019   4.381936
    37  H    6.570622   7.454817   7.417552   8.551717   3.835030
    38  H    4.683575   6.055631   6.752159   8.005085   4.459214
    39  H    3.708665   4.609727   5.373730   6.301558   5.330776
    40  H    2.094210   2.600812   3.295535   4.164671   7.236865
    41  H    1.070000   2.049216   2.553386   3.831530   8.714353
    42  H    2.104966   2.614039   3.850785   4.563338   9.579261
    43  H    2.104966   2.405673   3.828996   4.362557   8.927764
    44  H    2.737933   3.242329   2.782400   4.121952   7.842507
    45  H    3.248171   2.577537   2.074675   2.413295   9.218795
                   31         32         33         34         35
    31  H    0.000000
    32  H    2.192729   0.000000
    33  H   10.219798   8.508070   0.000000
    34  H    9.743998   8.450028   2.980573   0.000000
    35  H    9.115778   7.918622   2.965961   2.398663   0.000000
    36  H    8.975596   7.792615   3.848573   4.569605   2.244196
    37  H    9.227103   7.700468   2.891191   4.695012   2.916128
    38  H    8.698945   6.925148   2.602284   3.009212   3.969323
    39  H    7.175684   5.987251   3.975756   2.581418   2.630422
    40  H    5.043347   4.032500   5.655159   4.714362   4.325773
    41  H    4.283300   2.436077   6.739731   6.590740   6.603693
    42  H    5.046762   3.985486   7.753294   6.820054   7.475770
    43  H    5.098387   4.389430   7.301437   5.868768   6.437534
    44  H    4.609124   2.812013   5.973827   6.465426   5.581200
    45  H    3.221080   3.003776   7.674318   7.152678   6.116605
                   36         37         38         39         40
    36  H    0.000000
    37  H    1.715760   0.000000
    38  H    5.237444   4.485228   0.000000
    39  H    4.102474   4.409017   3.019946   0.000000
    40  H    4.995157   5.343550   4.340489   2.137074   0.000000
    41  H    7.017826   6.701821   4.755632   4.398759   2.978096
    42  H    8.443994   8.308876   5.392348   4.897392   3.757961
    43  H    7.559332   7.742653   5.210314   3.823128   2.706482
    44  H    5.214489   4.918440   4.942977   4.242328   2.941676
    45  H    5.892948   6.426045   6.697894   4.614638   2.663884
                   41         42         43         44         45
    41  H    0.000000
    42  H    2.325241   0.000000
    43  H    2.968041   1.728482   0.000000
    44  H    2.553464   4.742675   4.719922   0.000000
    45  H    3.817797   5.059177   4.326560   2.923460   0.000000
 Stoichiometry    C12H22O11
 Framework group  C1[X(C12H22O11)]
 Deg. of freedom   129
 Full point group                 C1      NOp   1
 Largest Abelian subgroup         C1      NOp   1
 Largest concise Abelian subgroup C1      NOp   1
                         Standard orientation:                         
 ---------------------------------------------------------------------
 Center     Atomic      Atomic             Coordinates (Angstroms)
 Number     Number       Type             X           Y           Z
 ---------------------------------------------------------------------
      1          8           0       -5.076385    0.389660   -0.340387
      2          6           0       -3.758359    0.107064    0.151414
      3          6           0       -3.270083   -1.272753   -0.258124
      4          8           0       -4.249787   -2.250186    0.120230
      5          1           0       -5.175390   -1.889051    0.012112
      6          6           0       -1.894043   -1.576439    0.312389
      7          8           0       -1.409546   -2.782118   -0.295482
      8          1           0       -0.412308   -2.713906   -0.330145
      9          6           0       -2.955199    2.617131   -0.010727
     10          8           0       -4.197661    3.332786   -0.056549
     11          1           0       -4.111132    4.325946    0.021555
     12          6           0       -2.752120    1.143416   -0.323265
     13          8           0       -1.438949    0.804074    0.143431
     14          6           0       -0.912744   -0.502872   -0.129019
     15          8           0        0.301434   -0.626649    0.626026
     16          6           0        1.536471   -0.190760    0.038901
     17          6           0        2.025974    1.208264    0.376187
     18          8           0        1.008726    2.155924    0.020038
     19          1           0        0.094775    1.925993    0.353657
     20          6           0        3.437264    1.519262   -0.093307
     21          8           0        4.015351    2.773144    0.297715
     22          1           0        4.863708    2.765571   -0.231756
     23          6           0        2.371187   -2.637783   -0.104740
     24          8           0        1.099669   -3.238589    0.179649
     25          1           0        1.314397   -4.212695    0.247365
     26          6           0        2.622610   -1.208457    0.346408
     27          8           0        3.822792   -0.828358   -0.341408
     28          6           0        4.401329    0.376465    0.181289
     29          8           0        5.485020    0.495947   -0.752100
     30          1           0       -5.665121    0.556077    0.399407
     31          1           0        6.308497    0.613919   -0.272968
     32          1           0        4.716000    0.298614    1.201005
     33          1           0       -3.790616    0.142525    1.220340
     34          1           0       -3.190142   -1.287270   -1.325035
     35          1           0       -2.727294    1.065413   -1.390129
     36          1           0       -2.293915    3.144828   -0.665814
     37          1           0       -2.578395    2.756378    0.981003
     38          1           0       -1.923176   -1.662894    1.378492
     39          1           0       -0.705548   -0.603396   -1.173942
     40          1           0        1.389502   -0.210472   -1.020775
     41          1           0        2.810402   -1.205929    1.399797
     42          1           0        3.124160   -3.252793    0.342133
     43          1           0        2.511342   -2.669273   -1.165053
     44          1           0        2.077324    1.239634    1.444494
     45          1           0        3.363893    1.572454   -1.159463
 ---------------------------------------------------------------------
 Rotational constants (GHZ):      0.4083968      0.1439146      0.1087235
 Standard basis: 6-31+G(2df,p) (6D, 7F)
 There are   846 symmetry adapted basis functions of A   symmetry.
 Integral buffers will be    131072 words long.
 Raffenetti 2 integral format.
 Two-electron integral symmetry is turned on.
   846 basis functions,  1258 primitive gaussians,   915 cartesian basis functions
    91 alpha electrons       91 beta electrons
       nuclear repulsion energy      2281.2959686099 Hartrees.
 NAtoms=   45 NActive=   45 NUniq=   45 SFac= 1.00D+00 NAtFMM=   50 NAOKFM=F Big=F
 One-electron integrals computed using PRISM.
 NBasis=   846 RedAO= T  NBF=   846
 NBsUse=   846 1.00D-06 NBFU=   846
 Harris functional with IExCor=  402 diagonalized for initial guess.
 ExpMin= 4.38D-02 ExpMax= 5.48D+03 ExpMxC= 8.25D+02 IAcc=2 IRadAn=         0 AccDes= 0.00D+00
 HarFok:  IExCor=  402 AccDes= 0.00D+00 IRadAn=         0 IDoV= 1
 ScaDFX=  1.000000  1.000000  1.000000  1.000000
 FoFCou: FMM=F IPFlag=           0 FMFlag=      100000 FMFlg1=           0
         NFxFlg=           0 DoJE=T BraDBF=F KetDBF=T FulRan=T
         Omega=  0.000000  0.000000  1.000000  0.000000  0.000000 ICntrl=     500 IOpCl=  0
         NMat0=    1 NMatS0=    1 NMatT0=    0 NMatD0=    1 NMtDS0=    0 NMtDT0=    0
         I1Cent=           4 NGrid=           0.
 Petite list used in FoFCou.
 Initial guess orbital symmetries:
       Occupied  (A) (A) (A) (A) (A) (A) (A) (A) (A) (A) (A) (A)
                 (A) (A) (A) (A) (A) (A) (A) (A) (A) (A) (A) (A)
                 (A) (A) (A) (A) (A) (A) (A) (A) (A) (A) (A) (A)
                 (A) (A) (A) (A) (A) (A) (A) (A) (A) (A) (A) (A)
                 (A) (A) (A) (A) (A) (A) (A) (A) (A) (A) (A) (A)
                 (A) (A) (A) (A) (A) (A) (A) (A) (A) (A) (A) (A)
                 (A) (A) (A) (A) (A) (A) (A) (A) (A) (A) (A) (A)
                 (A) (A) (A) (A) (A) (A) (A)
       Virtual   (A) (A) (A) (A) (A) (A) (A) (A) (A) (A) (A) (A)
                 (A) (A) (A) (A) (A) (A) (A) (A) (A) (A) (A) (A)
                 (A) (A) (A) (A) (A) (A) (A) (A) (A) (A) (A) (A)
                 (A) (A) (A) (A) (A) (A) (A) (A) (A) (A) (A) (A)
                 (A) (A) (A) (A) (A) (A) (A) (A) (A) (A) (A) (A)
                 (A) (A) (A) (A) (A) (A) (A) (A) (A) (A) (A) (A)
                 (A) (A) (A) (A) (A) (A) (A) (A) (A) (A) (A) (A)
                 (A) (A) (A) (A) (A) (A) (A) (A) (A) (A) (A) (A)
                 (A) (A) (A) (A) (A) (A) (A) (A) (A) (A) (A) (A)
                 (A) (A) (A) (A) (A) (A) (A) (A) (A) (A) (A) (A)
                 (A) (A) (A) (A) (A) (A) (A) (A) (A) (A) (A) (A)
                 (A) (A) (A) (A) (A) (A) (A) (A) (A) (A) (A) (A)
                 (A) (A) (A) (A) (A) (A) (A) (A) (A) (A) (A) (A)
                 (A) (A) (A) (A) (A) (A) (A) (A) (A) (A) (A) (A)
                 (A) (A) (A) (A) (A) (A) (A) (A) (A) (A) (A) (A)
                 (A) (A) (A) (A) (A) (A) (A) (A) (A) (A) (A) (A)
                 (A) (A) (A) (A) (A) (A) (A) (A) (A) (A) (A) (A)
                 (A) (A) (A) (A) (A) (A) (A) (A) (A) (A) (A) (A)
                 (A) (A) (A) (A) (A) (A) (A) (A) (A) (A) (A) (A)
                 (A) (A) (A) (A) (A) (A) (A) (A) (A) (A) (A) (A)
                 (A) (A) (A) (A) (A) (A) (A) (A) (A) (A) (A) (A)
                 (A) (A) (A) (A) (A) (A) (A) (A) (A) (A) (A) (A)
                 (A) (A) (A) (A) (A) (A) (A) (A) (A) (A) (A) (A)
                 (A) (A) (A) (A) (A) (A) (A) (A) (A) (A) (A) (A)
                 (A) (A) (A) (A) (A) (A) (A) (A) (A) (A) (A) (A)
                 (A) (A) (A) (A) (A) (A) (A) (A) (A) (A) (A) (A)
                 (A) (A) (A) (A) (A) (A) (A) (A) (A) (A) (A) (A)
                 (A) (A) (A) (A) (A) (A) (A) (A) (A) (A) (A) (A)
                 (A) (A) (A) (A) (A) (A) (A) (A) (A) (A) (A) (A)
                 (A) (A) (A) (A) (A) (A) (A) (A) (A) (A) (A) (A)
                 (A) (A) (A) (A) (A) (A) (A) (A) (A) (A) (A) (A)
                 (A) (A) (A) (A) (A) (A) (A) (A) (A) (A) (A) (A)
                 (A) (A) (A) (A) (A) (A) (A) (A) (A) (A) (A) (A)
                 (A) (A) (A) (A) (A) (A) (A) (A) (A) (A) (A) (A)
                 (A) (A) (A) (A) (A) (A) (A) (A) (A) (A) (A) (A)
                 (A) (A) (A) (A) (A) (A) (A) (A) (A) (A) (A) (A)
                 (A) (A) (A) (A) (A) (A) (A) (A) (A) (A) (A) (A)
                 (A) (A) (A) (A) (A) (A) (A) (A) (A) (A) (A) (A)
                 (A) (A) (A) (A) (A) (A) (A) (A) (A) (A) (A) (A)
                 (A) (A) (A) (A) (A) (A) (A) (A) (A) (A) (A) (A)
                 (A) (A) (A) (A) (A) (A) (A) (A) (A) (A) (A) (A)
                 (A) (A) (A) (A) (A) (A) (A) (A) (A) (A) (A) (A)
                 (A) (A) (A) (A) (A) (A) (A) (A) (A) (A) (A) (A)
                 (A) (A) (A) (A) (A) (A) (A) (A) (A) (A) (A) (A)
                 (A) (A) (A) (A) (A) (A) (A) (A) (A) (A) (A) (A)
                 (A) (A) (A) (A) (A) (A) (A) (A) (A) (A) (A) (A)
                 (A) (A) (A) (A) (A) (A) (A) (A) (A) (A) (A) (A)
                 (A) (A) (A) (A) (A) (A) (A) (A) (A) (A) (A) (A)
                 (A) (A) (A) (A) (A) (A) (A) (A) (A) (A) (A) (A)
                 (A) (A) (A) (A) (A) (A) (A) (A) (A) (A) (A) (A)
                 (A) (A) (A) (A) (A) (A) (A) (A) (A) (A) (A) (A)
                 (A) (A) (A) (A) (A) (A) (A) (A) (A) (A) (A) (A)
                 (A) (A) (A) (A) (A) (A) (A) (A) (A) (A) (A) (A)
                 (A) (A) (A) (A) (A) (A) (A) (A) (A) (A) (A) (A)
                 (A) (A) (A) (A) (A) (A) (A) (A) (A) (A) (A) (A)
                 (A) (A) (A) (A) (A) (A) (A) (A) (A) (A) (A) (A)
                 (A) (A) (A) (A) (A) (A) (A) (A) (A) (A) (A) (A)
                 (A) (A) (A) (A) (A) (A) (A) (A) (A) (A) (A) (A)
                 (A) (A) (A) (A) (A) (A) (A) (A) (A) (A) (A) (A)
                 (A) (A) (A) (A) (A) (A) (A) (A) (A) (A) (A) (A)
                 (A) (A) (A) (A) (A) (A) (A) (A) (A) (A) (A) (A)
                 (A) (A) (A) (A) (A) (A) (A) (A) (A) (A) (A) (A)
                 (A) (A) (A) (A) (A) (A) (A) (A) (A) (A) (A)
 The electronic state of the initial guess is 1-A.
 Requested convergence on RMS density matrix=1.00D-08 within 128 cycles.
 Requested convergence on MAX density matrix=1.00D-06.
 Requested convergence on             energy=1.00D-06.
 No special actions if energy rises.
 SCF Done:  E(RB3LYP) =  -1298.00028947     A.U. after   14 cycles
             Convg  =    0.1421D-08             -V/T =  2.0066
 Range of M.O.s used for correlation:     1   846
 NBasis=   846 NAE=    91 NBE=    91 NFC=     0 NFV=     0
 NROrb=    846 NOA=    91 NOB=    91 NVA=   755 NVB=   755

 **** Warning!!: The largest alpha MO coefficient is  0.67031809D+02

          Differentiating once with respect to electric field.
                with respect to dipole field.
          Electric field/nuclear overlap derivatives assumed to be zero.
          There are     3 degrees of freedom in the 1st order CPHF.  IDoFFX=0.
      3 vectors produced by pass  0 Test12= 2.29D-12 3.33D-08 XBig12= 1.25D+02 1.25D+00.
 AX will form     3 AO Fock derivatives at one time.
      3 vectors produced by pass  1 Test12= 2.29D-12 3.33D-08 XBig12= 2.30D+01 4.40D-01.
      3 vectors produced by pass  2 Test12= 2.29D-12 3.33D-08 XBig12= 9.93D+00 2.17D-01.
      3 vectors produced by pass  3 Test12= 2.29D-12 3.33D-08 XBig12= 1.06D+00 1.01D-01.
      3 vectors produced by pass  4 Test12= 2.29D-12 3.33D-08 XBig12= 2.75D-01 3.39D-02.
      3 vectors produced by pass  5 Test12= 2.29D-12 3.33D-08 XBig12= 5.64D-02 1.84D-02.
      3 vectors produced by pass  6 Test12= 2.29D-12 3.33D-08 XBig12= 1.82D-02 1.35D-02.
      3 vectors produced by pass  7 Test12= 2.29D-12 3.33D-08 XBig12= 3.17D-03 7.54D-03.
      3 vectors produced by pass  8 Test12= 2.29D-12 3.33D-08 XBig12= 5.87D-04 2.41D-03.
      3 vectors produced by pass  9 Test12= 2.29D-12 3.33D-08 XBig12= 1.50D-04 1.39D-03.
      3 vectors produced by pass 10 Test12= 2.29D-12 3.33D-08 XBig12= 3.80D-05 6.23D-04.
      3 vectors produced by pass 11 Test12= 2.29D-12 3.33D-08 XBig12= 1.02D-05 3.64D-04.
      3 vectors produced by pass 12 Test12= 2.29D-12 3.33D-08 XBig12= 1.66D-06 1.36D-04.
      3 vectors produced by pass 13 Test12= 2.29D-12 3.33D-08 XBig12= 4.73D-07 5.41D-05.
      3 vectors produced by pass 14 Test12= 2.29D-12 3.33D-08 XBig12= 6.02D-08 2.20D-05.
      3 vectors produced by pass 15 Test12= 2.29D-12 3.33D-08 XBig12= 1.32D-08 1.04D-05.
      3 vectors produced by pass 16 Test12= 2.29D-12 3.33D-08 XBig12= 1.70D-09 4.21D-06.
      3 vectors produced by pass 17 Test12= 2.29D-12 3.33D-08 XBig12= 1.90D-10 1.18D-06.
      3 vectors produced by pass 18 Test12= 2.29D-12 3.33D-08 XBig12= 3.08D-11 3.18D-07.
      3 vectors produced by pass 19 Test12= 2.29D-12 3.33D-08 XBig12= 8.90D-12 3.08D-07.
      3 vectors produced by pass 20 Test12= 2.29D-12 3.33D-08 XBig12= 5.27D-12 1.92D-07.
      2 vectors produced by pass 21 Test12= 2.29D-12 3.33D-08 XBig12= 1.16D-12 6.88D-08.
 Inverted reduced A of dimension    65 with in-core refinement.
 End of Minotr Frequency-dependent properties file   721 does not exist.
 End of Minotr Frequency-dependent properties file   722 does not exist.
 Symmetrizing basis deriv contribution to polar:
 IMax=3 JMax=2 DiffMx= 0.00D+00
 G2DrvN: will do     8 centers at a time, making    6 passes doing MaxLOS=3.
 Calling FoFCou, ICntrl=  3107 FMM=F I1Cent=   0 AccDes= 0.00D+00.
 Calling FoFCou, ICntrl=  3107 FMM=F I1Cent=   0 AccDes= 0.00D+00.
 Calling FoFCou, ICntrl=  3107 FMM=F I1Cent=   0 AccDes= 0.00D+00.
 Calling FoFCou, ICntrl=  3107 FMM=F I1Cent=   0 AccDes= 0.00D+00.
 Calling FoFCou, ICntrl=  3107 FMM=F I1Cent=   0 AccDes= 0.00D+00.
 Calling FoFCou, ICntrl=  3107 FMM=F I1Cent=   0 AccDes= 0.00D+00.
 FoFDir/FoFCou used for L=0 through L=3.
 End of G2Drv Frequency-dependent properties file   721 does not exist.
 End of G2Drv Frequency-dependent properties file   722 does not exist.
          IDoAtm=111111111111111111111111111111111111111111111
          Differentiating once with respect to electric field.
                with respect to dipole field.
          Differentiating once with respect to nuclear coordinates.
          There are   138 degrees of freedom in the 1st order CPHF.  IDoFFX=5.
 Will reuse    3 saved solutions.
    135 vectors produced by pass  0 Test12= 6.87D-14 1.00D-09 XBig12= 1.53D-01 6.47D-02.
 AX will form    27 AO Fock derivatives at one time.
    135 vectors produced by pass  1 Test12= 6.87D-14 1.00D-09 XBig12= 2.33D-02 1.38D-02.
    132 vectors produced by pass  2 Test12= 6.87D-14 1.00D-09 XBig12= 1.48D-04 1.18D-03.
    132 vectors produced by pass  3 Test12= 6.87D-14 1.00D-09 XBig12= 7.69D-07 5.94D-05.
    132 vectors produced by pass  4 Test12= 6.87D-14 1.00D-09 XBig12= 1.95D-09 2.61D-06.
    132 vectors produced by pass  5 Test12= 6.87D-14 1.00D-09 XBig12= 5.09D-12 1.09D-07.
     94 vectors produced by pass  6 Test12= 6.87D-14 1.00D-09 XBig12= 2.72D-13 2.83D-08.
      1 vectors produced by pass  7 Test12= 6.87D-14 1.00D-09 XBig12= 9.31D-16 1.41D-09.
 Inverted reduced A of dimension   893 with in-core refinement.
 Isotropic polarizability for W=    0.000000      192.83 Bohr**3.
 End of Minotr Frequency-dependent properties file   721 does not exist.
 End of Minotr Frequency-dependent properties file   722 does not exist.

 **********************************************************************

            Population analysis using the SCF density.

 **********************************************************************

 Orbital symmetries:
       Occupied  (A) (A) (A) (A) (A) (A) (A) (A) (A) (A) (A) (A)
                 (A) (A) (A) (A) (A) (A) (A) (A) (A) (A) (A) (A)
                 (A) (A) (A) (A) (A) (A) (A) (A) (A) (A) (A) (A)
                 (A) (A) (A) (A) (A) (A) (A) (A) (A) (A) (A) (A)
                 (A) (A) (A) (A) (A) (A) (A) (A) (A) (A) (A) (A)
                 (A) (A) (A) (A) (A) (A) (A) (A) (A) (A) (A) (A)
                 (A) (A) (A) (A) (A) (A) (A) (A) (A) (A) (A) (A)
                 (A) (A) (A) (A) (A) (A) (A)
       Virtual   (A) (A) (A) (A) (A) (A) (A) (A) (A) (A) (A) (A)
                 (A) (A) (A) (A) (A) (A) (A) (A) (A) (A) (A) (A)
                 (A) (A) (A) (A) (A) (A) (A) (A) (A) (A) (A) (A)
                 (A) (A) (A) (A) (A) (A) (A) (A) (A) (A) (A) (A)
                 (A) (A) (A) (A) (A) (A) (A) (A) (A) (A) (A) (A)
                 (A) (A) (A) (A) (A) (A) (A) (A) (A) (A) (A) (A)
                 (A) (A) (A) (A) (A) (A) (A) (A) (A) (A) (A) (A)
                 (A) (A) (A) (A) (A) (A) (A) (A) (A) (A) (A) (A)
                 (A) (A) (A) (A) (A) (A) (A) (A) (A) (A) (A) (A)
                 (A) (A) (A) (A) (A) (A) (A) (A) (A) (A) (A) (A)
                 (A) (A) (A) (A) (A) (A) (A) (A) (A) (A) (A) (A)
                 (A) (A) (A) (A) (A) (A) (A) (A) (A) (A) (A) (A)
                 (A) (A) (A) (A) (A) (A) (A) (A) (A) (A) (A) (A)
                 (A) (A) (A) (A) (A) (A) (A) (A) (A) (A) (A) (A)
                 (A) (A) (A) (A) (A) (A) (A) (A) (A) (A) (A) (A)
                 (A) (A) (A) (A) (A) (A) (A) (A) (A) (A) (A) (A)
                 (A) (A) (A) (A) (A) (A) (A) (A) (A) (A) (A) (A)
                 (A) (A) (A) (A) (A) (A) (A) (A) (A) (A) (A) (A)
                 (A) (A) (A) (A) (A) (A) (A) (A) (A) (A) (A) (A)
                 (A) (A) (A) (A) (A) (A) (A) (A) (A) (A) (A) (A)
                 (A) (A) (A) (A) (A) (A) (A) (A) (A) (A) (A) (A)
                 (A) (A) (A) (A) (A) (A) (A) (A) (A) (A) (A) (A)
                 (A) (A) (A) (A) (A) (A) (A) (A) (A) (A) (A) (A)
                 (A) (A) (A) (A) (A) (A) (A) (A) (A) (A) (A) (A)
                 (A) (A) (A) (A) (A) (A) (A) (A) (A) (A) (A) (A)
                 (A) (A) (A) (A) (A) (A) (A) (A) (A) (A) (A) (A)
                 (A) (A) (A) (A) (A) (A) (A) (A) (A) (A) (A) (A)
                 (A) (A) (A) (A) (A) (A) (A) (A) (A) (A) (A) (A)
                 (A) (A) (A) (A) (A) (A) (A) (A) (A) (A) (A) (A)
                 (A) (A) (A) (A) (A) (A) (A) (A) (A) (A) (A) (A)
                 (A) (A) (A) (A) (A) (A) (A) (A) (A) (A) (A) (A)
                 (A) (A) (A) (A) (A) (A) (A) (A) (A) (A) (A) (A)
                 (A) (A) (A) (A) (A) (A) (A) (A) (A) (A) (A) (A)
                 (A) (A) (A) (A) (A) (A) (A) (A) (A) (A) (A) (A)
                 (A) (A) (A) (A) (A) (A) (A) (A) (A) (A) (A) (A)
                 (A) (A) (A) (A) (A) (A) (A) (A) (A) (A) (A) (A)
                 (A) (A) (A) (A) (A) (A) (A) (A) (A) (A) (A) (A)
                 (A) (A) (A) (A) (A) (A) (A) (A) (A) (A) (A) (A)
                 (A) (A) (A) (A) (A) (A) (A) (A) (A) (A) (A) (A)
                 (A) (A) (A) (A) (A) (A) (A) (A) (A) (A) (A) (A)
                 (A) (A) (A) (A) (A) (A) (A) (A) (A) (A) (A) (A)
                 (A) (A) (A) (A) (A) (A) (A) (A) (A) (A) (A) (A)
                 (A) (A) (A) (A) (A) (A) (A) (A) (A) (A) (A) (A)
                 (A) (A) (A) (A) (A) (A) (A) (A) (A) (A) (A) (A)
                 (A) (A) (A) (A) (A) (A) (A) (A) (A) (A) (A) (A)
                 (A) (A) (A) (A) (A) (A) (A) (A) (A) (A) (A) (A)
                 (A) (A) (A) (A) (A) (A) (A) (A) (A) (A) (A) (A)
                 (A) (A) (A) (A) (A) (A) (A) (A) (A) (A) (A) (A)
                 (A) (A) (A) (A) (A) (A) (A) (A) (A) (A) (A) (A)
                 (A) (A) (A) (A) (A) (A) (A) (A) (A) (A) (A) (A)
                 (A) (A) (A) (A) (A) (A) (A) (A) (A) (A) (A) (A)
                 (A) (A) (A) (A) (A) (A) (A) (A) (A) (A) (A) (A)
                 (A) (A) (A) (A) (A) (A) (A) (A) (A) (A) (A) (A)
                 (A) (A) (A) (A) (A) (A) (A) (A) (A) (A) (A) (A)
                 (A) (A) (A) (A) (A) (A) (A) (A) (A) (A) (A) (A)
                 (A) (A) (A) (A) (A) (A) (A) (A) (A) (A) (A) (A)
                 (A) (A) (A) (A) (A) (A) (A) (A) (A) (A) (A) (A)
                 (A) (A) (A) (A) (A) (A) (A) (A) (A) (A) (A) (A)
                 (A) (A) (A) (A) (A) (A) (A) (A) (A) (A) (A) (A)
                 (A) (A) (A) (A) (A) (A) (A) (A) (A) (A) (A) (A)
                 (A) (A) (A) (A) (A) (A) (A) (A) (A) (A) (A) (A)
                 (A) (A) (A) (A) (A) (A) (A) (A) (A) (A) (A) (A)
                 (A) (A) (A) (A) (A) (A) (A) (A) (A) (A) (A)
 The electronic state is 1-A.
 Alpha  occ. eigenvalues --  -19.18668 -19.18493 -19.18349 -19.18054 -19.17997
 Alpha  occ. eigenvalues --  -19.16854 -19.16713 -19.15909 -19.14585 -19.13958
 Alpha  occ. eigenvalues --  -19.12668 -10.31149 -10.30704 -10.25941 -10.25777
 Alpha  occ. eigenvalues --  -10.25611 -10.25183 -10.25132 -10.24926 -10.24796
 Alpha  occ. eigenvalues --  -10.24153 -10.23962 -10.23824  -1.10012  -1.09345
 Alpha  occ. eigenvalues --   -1.05668  -1.04980  -1.03897  -1.03737  -1.02848
 Alpha  occ. eigenvalues --   -1.02069  -1.01435  -1.00644  -0.99649  -0.82050
 Alpha  occ. eigenvalues --   -0.79937  -0.79629  -0.78288  -0.71980  -0.70075
 Alpha  occ. eigenvalues --   -0.67611  -0.64927  -0.63122  -0.62463  -0.61431
 Alpha  occ. eigenvalues --   -0.60134  -0.56822  -0.55884  -0.54982  -0.54814
 Alpha  occ. eigenvalues --   -0.53571  -0.53229  -0.52982  -0.52045  -0.51224
 Alpha  occ. eigenvalues --   -0.50994  -0.49612  -0.48920  -0.48582  -0.46418
 Alpha  occ. eigenvalues --   -0.46172  -0.45350  -0.44922  -0.43872  -0.43387
 Alpha  occ. eigenvalues --   -0.42644  -0.41821  -0.40951  -0.40228  -0.39208
 Alpha  occ. eigenvalues --   -0.38832  -0.38653  -0.38033  -0.35680  -0.35514
 Alpha  occ. eigenvalues --   -0.34968  -0.34883  -0.33832  -0.33591  -0.33133
 Alpha  occ. eigenvalues --   -0.32447  -0.31406  -0.30933  -0.30448  -0.30188
 Alpha  occ. eigenvalues --   -0.29143  -0.28310  -0.28192  -0.27166  -0.26711
 Alpha  occ. eigenvalues --   -0.26373
 Alpha virt. eigenvalues --   -0.02048  -0.01986  -0.01826  -0.00271   0.00005
 Alpha virt. eigenvalues --    0.01102   0.01922   0.02464   0.02832   0.03404
 Alpha virt. eigenvalues --    0.03694   0.04324   0.04769   0.05498   0.05710
 Alpha virt. eigenvalues --    0.05884   0.06465   0.07186   0.07606   0.07863
 Alpha virt. eigenvalues --    0.08605   0.08839   0.08966   0.09446   0.09857
 Alpha virt. eigenvalues --    0.10142   0.11243   0.11388   0.11616   0.12104
 Alpha virt. eigenvalues --    0.12365   0.12470   0.13162   0.13276   0.13491
 Alpha virt. eigenvalues --    0.13810   0.14061   0.14612   0.14987   0.15045
 Alpha virt. eigenvalues --    0.15727   0.15777   0.16395   0.16909   0.17092
 Alpha virt. eigenvalues --    0.17507   0.17608   0.17664   0.18096   0.18512
 Alpha virt. eigenvalues --    0.19052   0.19099   0.19207   0.19682   0.20097
 Alpha virt. eigenvalues --    0.20502   0.20676   0.20747   0.21104   0.21690
 Alpha virt. eigenvalues --    0.21985   0.22094   0.22476   0.22770   0.23174
 Alpha virt. eigenvalues --    0.23415   0.23783   0.23923   0.24174   0.24616
 Alpha virt. eigenvalues --    0.24998   0.25258   0.25713   0.25757   0.26034
 Alpha virt. eigenvalues --    0.26089   0.26646   0.26928   0.27036   0.27293
 Alpha virt. eigenvalues --    0.27497   0.28078   0.28407   0.28467   0.28782
 Alpha virt. eigenvalues --    0.29238   0.29442   0.29924   0.30093   0.30524
 Alpha virt. eigenvalues --    0.31250   0.31372   0.31576   0.32325   0.32425
 Alpha virt. eigenvalues --    0.32527   0.32958   0.33082   0.33216   0.33687
 Alpha virt. eigenvalues --    0.34395   0.34729   0.34954   0.35433   0.35606
 Alpha virt. eigenvalues --    0.35836   0.36164   0.36584   0.37022   0.37102
 Alpha virt. eigenvalues --    0.37810   0.38180   0.38535   0.38757   0.38976
 Alpha virt. eigenvalues --    0.39557   0.39792   0.40352   0.40737   0.41179
 Alpha virt. eigenvalues --    0.41519   0.42311   0.43285   0.43768   0.44107
 Alpha virt. eigenvalues --    0.44748   0.45092   0.45331   0.46250   0.46412
 Alpha virt. eigenvalues --    0.47542   0.48281   0.48951   0.49387   0.49765
 Alpha virt. eigenvalues --    0.50747   0.51677   0.52153   0.56599   0.58099
 Alpha virt. eigenvalues --    0.59331   0.59522   0.60466   0.61323   0.62030
 Alpha virt. eigenvalues --    0.62203   0.62511   0.63710   0.65462   0.65653
 Alpha virt. eigenvalues --    0.65876   0.67009   0.67263   0.68041   0.69467
 Alpha virt. eigenvalues --    0.69919   0.70551   0.71734   0.72391   0.73243
 Alpha virt. eigenvalues --    0.73580   0.74756   0.75233   0.75295   0.76022
 Alpha virt. eigenvalues --    0.77074   0.78050   0.79164   0.80243   0.80852
 Alpha virt. eigenvalues --    0.81775   0.82080   0.83054   0.83439   0.84436
 Alpha virt. eigenvalues --    0.84826   0.86174   0.86832   0.88180   0.89080
 Alpha virt. eigenvalues --    0.89117   0.89596   0.90114   0.90402   0.90936
 Alpha virt. eigenvalues --    0.91671   0.92349   0.92590   0.92939   0.93464
 Alpha virt. eigenvalues --    0.94353   0.94567   0.94860   0.95641   0.96171
 Alpha virt. eigenvalues --    0.96263   0.96541   0.97172   0.97656   0.97945
 Alpha virt. eigenvalues --    0.98282   0.99268   0.99670   1.00369   1.01978
 Alpha virt. eigenvalues --    1.02255   1.02773   1.03621   1.04954   1.05542
 Alpha virt. eigenvalues --    1.05864   1.06351   1.06956   1.07754   1.08288
 Alpha virt. eigenvalues --    1.08371   1.09074   1.09261   1.09484   1.11251
 Alpha virt. eigenvalues --    1.12067   1.12863   1.13008   1.13324   1.13999
 Alpha virt. eigenvalues --    1.14618   1.15097   1.15566   1.15936   1.16927
 Alpha virt. eigenvalues --    1.17483   1.17859   1.18332   1.18840   1.19447
 Alpha virt. eigenvalues --    1.19499   1.19900   1.20220   1.21103   1.21864
 Alpha virt. eigenvalues --    1.22645   1.23106   1.23432   1.23756   1.24105
 Alpha virt. eigenvalues --    1.24690   1.25163   1.25544   1.26357   1.27396
 Alpha virt. eigenvalues --    1.27871   1.28685   1.29126   1.29698   1.30406
 Alpha virt. eigenvalues --    1.31756   1.32441   1.33127   1.33319   1.34215
 Alpha virt. eigenvalues --    1.34640   1.35179   1.35362   1.35824   1.36350
 Alpha virt. eigenvalues --    1.37506   1.37784   1.38556   1.39323   1.39933
 Alpha virt. eigenvalues --    1.40305   1.41559   1.41920   1.42688   1.43272
 Alpha virt. eigenvalues --    1.44548   1.44728   1.45214   1.46167   1.46443
 Alpha virt. eigenvalues --    1.47219   1.48278   1.49041   1.49468   1.50289
 Alpha virt. eigenvalues --    1.51664   1.52026   1.53162   1.54226   1.54562
 Alpha virt. eigenvalues --    1.55417   1.55998   1.57236   1.57996   1.59547
 Alpha virt. eigenvalues --    1.59873   1.60785   1.61576   1.62092   1.62422
 Alpha virt. eigenvalues --    1.63076   1.63992   1.64663   1.65921   1.66494
 Alpha virt. eigenvalues --    1.67933   1.68532   1.69808   1.70572   1.71896
 Alpha virt. eigenvalues --    1.72604   1.72756   1.74072   1.74904   1.75809
 Alpha virt. eigenvalues --    1.76447   1.78490   1.79243   1.80775   1.81423
 Alpha virt. eigenvalues --    1.82218   1.83117   1.84497   1.84634   1.85597
 Alpha virt. eigenvalues --    1.87204   1.87550   1.88511   1.89350   1.89899
 Alpha virt. eigenvalues --    1.91819   1.93133   1.93993   1.94223   1.94668
 Alpha virt. eigenvalues --    1.95706   1.96626   1.97684   1.98678   1.99255
 Alpha virt. eigenvalues --    2.01338   2.02212   2.03742   2.03861   2.04594
 Alpha virt. eigenvalues --    2.06642   2.07772   2.08049   2.10600   2.12194
 Alpha virt. eigenvalues --    2.13462   2.15650   2.15834   2.16687   2.18830
 Alpha virt. eigenvalues --    2.19906   2.22274   2.22927   2.23961   2.24864
 Alpha virt. eigenvalues --    2.25860   2.27299   2.28469   2.28766   2.30214
 Alpha virt. eigenvalues --    2.33650   2.33975   2.34798   2.38255   2.41332
 Alpha virt. eigenvalues --    2.44136   2.45479   2.48034   2.49367   2.50282
 Alpha virt. eigenvalues --    2.51958   2.52227   2.52910   2.53799   2.54990
 Alpha virt. eigenvalues --    2.55414   2.57887   2.58256   2.59127   2.60185
 Alpha virt. eigenvalues --    2.61227   2.62837   2.63549   2.65310   2.66243
 Alpha virt. eigenvalues --    2.67032   2.67721   2.68826   2.69879   2.70501
 Alpha virt. eigenvalues --    2.72336   2.72705   2.74501   2.76294   2.77964
 Alpha virt. eigenvalues --    2.78526   2.80172   2.80863   2.81471   2.82352
 Alpha virt. eigenvalues --    2.84349   2.85150   2.85691   2.87093   2.87417
 Alpha virt. eigenvalues --    2.88139   2.90196   2.91584   2.92445   2.93398
 Alpha virt. eigenvalues --    2.93512   2.94632   2.94866   2.96217   2.99518
 Alpha virt. eigenvalues --    2.99828   3.01033   3.01579   3.02610   3.03478
 Alpha virt. eigenvalues --    3.03883   3.04476   3.05086   3.05772   3.07124
 Alpha virt. eigenvalues --    3.07463   3.08223   3.09399   3.10487   3.11631
 Alpha virt. eigenvalues --    3.12571   3.13283   3.14026   3.16180   3.17556
 Alpha virt. eigenvalues --    3.18289   3.19962   3.21113   3.21580   3.23365
 Alpha virt. eigenvalues --    3.24736   3.25481   3.26286   3.27230   3.27967
 Alpha virt. eigenvalues --    3.28988   3.30157   3.32087   3.32636   3.33306
 Alpha virt. eigenvalues --    3.34812   3.35572   3.37316   3.38453   3.39194
 Alpha virt. eigenvalues --    3.40606   3.41779   3.42251   3.43521   3.43928
 Alpha virt. eigenvalues --    3.44926   3.47049   3.47862   3.51269   3.52611
 Alpha virt. eigenvalues --    3.52972   3.53985   3.56296   3.56867   3.59803
 Alpha virt. eigenvalues --    3.60618   3.63405   3.64456   3.65642   3.67091
 Alpha virt. eigenvalues --    3.69023   3.70438   3.71268   3.73759   3.74342
 Alpha virt. eigenvalues --    3.76129   3.76194   3.77494   3.78458   3.79454
 Alpha virt. eigenvalues --    3.80417   3.82953   3.83197   3.84616   3.85877
 Alpha virt. eigenvalues --    3.86333   3.87892   3.88925   3.89904   3.90079
 Alpha virt. eigenvalues --    3.93060   3.95549   3.97648   4.00705   4.02945
 Alpha virt. eigenvalues --    4.05030   4.07332   4.08563   4.11532   4.14095
 Alpha virt. eigenvalues --    4.15796   4.16124   4.17138   4.19252   4.19912
 Alpha virt. eigenvalues --    4.20504   4.21737   4.22943   4.23225   4.24878
 Alpha virt. eigenvalues --    4.26248   4.27722   4.28830   4.29469   4.30329
 Alpha virt. eigenvalues --    4.30504   4.31533   4.31715   4.33668   4.34506
 Alpha virt. eigenvalues --    4.35265   4.35859   4.37898   4.38337   4.39870
 Alpha virt. eigenvalues --    4.40726   4.41240   4.42077   4.42366   4.43748
 Alpha virt. eigenvalues --    4.44550   4.45068   4.46258   4.46371   4.47188
 Alpha virt. eigenvalues --    4.47628   4.48974   4.49626   4.50589   4.51411
 Alpha virt. eigenvalues --    4.51947   4.52095   4.53636   4.54041   4.54971
 Alpha virt. eigenvalues --    4.55572   4.55779   4.56281   4.57223   4.57617
 Alpha virt. eigenvalues --    4.58776   4.59502   4.60254   4.61000   4.61648
 Alpha virt. eigenvalues --    4.62564   4.63017   4.64172   4.65290   4.65372
 Alpha virt. eigenvalues --    4.65843   4.66417   4.67788   4.68123   4.68786
 Alpha virt. eigenvalues --    4.70093   4.70215   4.71088   4.71648   4.71918
 Alpha virt. eigenvalues --    4.72765   4.73464   4.74240   4.74776   4.75152
 Alpha virt. eigenvalues --    4.76322   4.77008   4.77625   4.78474   4.79188
 Alpha virt. eigenvalues --    4.79757   4.80614   4.81179   4.81938   4.82363
 Alpha virt. eigenvalues --    4.82797   4.83707   4.84423   4.85003   4.85356
 Alpha virt. eigenvalues --    4.85930   4.87625   4.88208   4.89184   4.90087
 Alpha virt. eigenvalues --    4.90741   4.92032   4.92497   4.94326   4.95667
 Alpha virt. eigenvalues --    4.96651   4.97938   4.99042   4.99640   5.01001
 Alpha virt. eigenvalues --    5.01909   5.05270   5.07577   5.08487   5.09835
 Alpha virt. eigenvalues --    5.11530   5.13943   5.14345   5.15762   5.18071
 Alpha virt. eigenvalues --    5.18687   5.19184   5.20362   5.21258   5.22584
 Alpha virt. eigenvalues --    5.23469   5.24523   5.26187   5.28359   5.29009
 Alpha virt. eigenvalues --    5.29389   5.30537   5.32716   5.33663   5.35075
 Alpha virt. eigenvalues --    5.35203   5.36930   5.38090   5.38696   5.39490
 Alpha virt. eigenvalues --    5.40080   5.40375   5.41521   5.43592   5.43925
 Alpha virt. eigenvalues --    5.44292   5.45403   5.46537   5.46967   5.48684
 Alpha virt. eigenvalues --    5.49009   5.49415   5.50468   5.51770   5.52408
 Alpha virt. eigenvalues --    5.52833   5.53687   5.54440   5.55112   5.57629
 Alpha virt. eigenvalues --    5.60066   5.60381   5.61789   5.63733   5.64848
 Alpha virt. eigenvalues --    5.66514   5.68109   5.69096   5.71333   5.73882
 Alpha virt. eigenvalues --    5.76692   5.77116   5.79351   5.80492   5.83128
 Alpha virt. eigenvalues --    5.84258   5.85549   5.88604   5.89747   5.90609
 Alpha virt. eigenvalues --    5.91228   5.91546   5.91668   5.93376   5.94690
 Alpha virt. eigenvalues --    5.95664   5.96182   5.97159   5.98656   6.00708
 Alpha virt. eigenvalues --    6.01460   6.03424   6.04710   6.06289   6.06979
 Alpha virt. eigenvalues --    6.08110   6.08713   6.10370   6.11443   6.12430
 Alpha virt. eigenvalues --    6.12809   6.15280   6.18858   6.20294   6.21330
 Alpha virt. eigenvalues --    6.25702   6.28129   6.30674   6.30862   6.33121
 Alpha virt. eigenvalues --    6.57536   6.68945   6.97714   7.01966   7.08940
 Alpha virt. eigenvalues --    7.13741   7.17721   7.22345   7.27636   7.29497
 Alpha virt. eigenvalues --    7.32127   7.35233   7.46040   7.52721   7.66108
 Alpha virt. eigenvalues --    7.75674   8.03541  12.02297  12.10978  12.21419
 Alpha virt. eigenvalues --   12.26229  12.46062  12.59774  12.80445  12.90004
 Alpha virt. eigenvalues --   12.96232  13.11115  13.21994  13.31937  13.40209
 Alpha virt. eigenvalues --   13.44529  13.51847  13.52739  13.56903  13.60784
 Alpha virt. eigenvalues --   13.67814  13.79715  14.00618  14.10269  14.17585
          Condensed to atoms (all electrons):
              1          2          3          4          5          6
     1  O    8.063507   0.325851  -0.096353  -0.022181   0.023187   0.028150
     2  C    0.325851   7.581412  -0.441362   0.048655  -0.052579  -1.769953
     3  C   -0.096353  -0.441362   6.814820   0.228971  -0.016281   0.477447
     4  O   -0.022181   0.048655   0.228971   8.093023   0.244174  -0.137368
     5  H    0.023187  -0.052579  -0.016281   0.244174   0.411338   0.019599
     6  C    0.028150  -1.769953   0.477447  -0.137368   0.019599   8.783007
     7  O   -0.000339   0.048019  -0.173916   0.012426  -0.000445   0.253921
     8  H    0.000004  -0.004578   0.001700  -0.000376   0.000008  -0.042542
     9  C   -0.032446  -0.330865  -0.211244   0.011142  -0.001990   0.210213
    10  O   -0.003628   0.003225   0.016938  -0.000141  -0.000014  -0.003669
    11  H    0.000961  -0.001912  -0.000810   0.000000   0.000000  -0.000062
    12  C   -0.098110  -0.659738  -0.250093   0.001401   0.017820   0.442535
    13  O    0.001110  -0.060643   0.000534  -0.001488  -0.000191  -0.021320
    14  C   -0.004042   0.930223  -0.240342   0.005832   0.005555  -2.124528
    15  O   -0.000052  -0.022758   0.011787   0.000698   0.000012   0.012816
    16  C    0.000910   0.082437  -0.070846  -0.001815   0.000611  -0.178410
    17  C    0.000376  -0.044234   0.009731   0.000284   0.000013   0.035565
    18  O    0.000016   0.008540  -0.001444  -0.000006   0.000000  -0.004906
    19  H   -0.000013  -0.002850   0.002175   0.000003   0.000000   0.004354
    20  C    0.000037   0.001307  -0.005575  -0.000031   0.000001   0.057823
    21  O    0.000000   0.000009  -0.000001   0.000000   0.000000  -0.000126
    22  H    0.000000  -0.000001   0.000001   0.000000   0.000000  -0.000021
    23  C    0.000028   0.004891  -0.001488   0.000060   0.000004  -0.064848
    24  O    0.000000  -0.000833  -0.006422  -0.000101  -0.000001   0.029973
    25  H    0.000000   0.000149   0.001161   0.000008   0.000000   0.001484
    26  C   -0.000083   0.013554  -0.042998   0.000256   0.000004  -0.047455
    27  O    0.000000  -0.000190   0.000298   0.000000   0.000000   0.002374
    28  C    0.000001  -0.000596   0.001794   0.000001   0.000000  -0.011175
    29  O    0.000000   0.000009   0.000019   0.000000   0.000000  -0.000251
    30  H    0.275424   0.018557  -0.015932   0.000649  -0.002717   0.000614
    31  H    0.000000   0.000000   0.000000   0.000000   0.000000   0.000001
    32  H    0.000000   0.000003   0.000007   0.000000   0.000000  -0.000035
    33  H   -0.013320   0.391928  -0.096032   0.003833  -0.000280  -0.029273
    34  H   -0.002072   0.090330   0.230209  -0.017705  -0.000623  -0.237935
    35  H    0.002181   0.080037  -0.057161   0.001169  -0.000010  -0.026584
    36  H    0.000034   0.002461   0.004347   0.000001   0.000000  -0.003116
    37  H    0.000500  -0.021585  -0.009625   0.000020   0.000000   0.015824
    38  H   -0.000510   0.030524  -0.116140   0.004579  -0.000214   0.308708
    39  H    0.000057  -0.018276  -0.028087   0.000125   0.000002   0.034518
    40  H    0.000000  -0.001754   0.002717   0.000007   0.000000  -0.000799
    41  H    0.000000  -0.000112   0.000896   0.000000   0.000000  -0.002047
    42  H    0.000000  -0.000031  -0.000006   0.000000   0.000000   0.002239
    43  H    0.000000   0.000063   0.000211   0.000000   0.000000  -0.005351
    44  H    0.000000   0.000639   0.000059   0.000000   0.000000   0.003617
    45  H    0.000000   0.000110  -0.000020   0.000000   0.000000   0.000078
              7          8          9         10         11         12
     1  O   -0.000339   0.000004  -0.032446  -0.003628   0.000961  -0.098110
     2  C    0.048019  -0.004578  -0.330865   0.003225  -0.001912  -0.659738
     3  C   -0.173916   0.001700  -0.211244   0.016938  -0.000810  -0.250093
     4  O    0.012426  -0.000376   0.011142  -0.000141   0.000000   0.001401
     5  H   -0.000445   0.000008  -0.001990  -0.000014   0.000000   0.017820
     6  C    0.253921  -0.042542   0.210213  -0.003669  -0.000062   0.442535
     7  O    8.130509   0.248110   0.000847   0.000001   0.000000   0.012894
     8  H    0.248110   0.359088   0.000160   0.000000   0.000000   0.005043
     9  C    0.000847   0.000160   6.952022   0.198332  -0.049665  -0.979152
    10  O    0.000001   0.000000   0.198332   8.134318   0.248680  -0.037658
    11  H    0.000000   0.000000  -0.049665   0.248680   0.414975   0.041820
    12  C    0.012894   0.005043  -0.979152  -0.037658   0.041820   8.316316
    13  O    0.003172   0.002506  -0.045719   0.000596  -0.000464   0.056623
    14  C   -0.000918   0.022147  -0.393075   0.009887  -0.002107  -0.785872
    15  O   -0.006767   0.004787   0.000276   0.000019  -0.000001   0.004888
    16  C    0.001781  -0.008439  -0.105187  -0.000330  -0.000038   0.010685
    17  C    0.001519  -0.002393   0.017715   0.000169  -0.000016  -0.067766
    18  O    0.000071  -0.000045  -0.001671  -0.000050   0.000008  -0.008494
    19  H   -0.000026  -0.000006   0.012513   0.000022  -0.000004  -0.018829
    20  C   -0.000022   0.000708   0.007237  -0.000013   0.000003  -0.010657
    21  O   -0.000002   0.000000   0.000114   0.000000   0.000000  -0.000095
    22  H    0.000000   0.000000   0.000002   0.000000   0.000000  -0.000003
    23  C    0.024015   0.006221  -0.000638   0.000004   0.000000  -0.004810
    24  O   -0.067429  -0.002011  -0.000157   0.000000   0.000000  -0.000021
    25  H    0.006121  -0.001305  -0.000010   0.000000   0.000000  -0.000393
    26  C   -0.010821  -0.005790   0.009672  -0.000016   0.000001   0.018580
    27  O    0.000215  -0.000087   0.000015   0.000000   0.000000   0.000266
    28  C   -0.000193  -0.000127  -0.002006   0.000002   0.000000   0.001585
    29  O    0.000000  -0.000001  -0.000005   0.000000   0.000000   0.000035
    30  H   -0.000008   0.000000   0.008313  -0.001377  -0.000024  -0.020082
    31  H    0.000000   0.000000   0.000000   0.000000   0.000000  -0.000001
    32  H    0.000000   0.000000   0.000001   0.000000   0.000000   0.000029
    33  H    0.001298  -0.000003  -0.020789  -0.000961  -0.000013  -0.073843
    34  H    0.012121  -0.000297   0.014266  -0.000075   0.000000   0.026226
    35  H    0.000067   0.000008   0.049877   0.001445  -0.000178   0.129974
    36  H   -0.000009   0.000000   0.394028  -0.028055  -0.007174  -0.045543
    37  H    0.000007   0.000000   0.644955  -0.051097  -0.002216  -0.255987
    38  H   -0.028233   0.001773   0.009925   0.000017   0.000000   0.048151
    39  H   -0.005302   0.000199   0.013162   0.000029   0.000000   0.049495
    40  H   -0.000261  -0.000666  -0.000503   0.000001   0.000000  -0.001755
    41  H   -0.000044  -0.000047   0.000009   0.000000   0.000000   0.000086
    42  H   -0.000588   0.000273  -0.000002   0.000000   0.000000   0.000090
    43  H    0.000393  -0.000228  -0.000018   0.000000   0.000000  -0.000376
    44  H    0.000005  -0.000004  -0.000871   0.000000   0.000000  -0.000188
    45  H    0.000000   0.000000  -0.000143   0.000000   0.000000   0.000545
             13         14         15         16         17         18
     1  O    0.001110  -0.004042  -0.000052   0.000910   0.000376   0.000016
     2  C   -0.060643   0.930223  -0.022758   0.082437  -0.044234   0.008540
     3  C    0.000534  -0.240342   0.011787  -0.070846   0.009731  -0.001444
     4  O   -0.001488   0.005832   0.000698  -0.001815   0.000284  -0.000006
     5  H   -0.000191   0.005555   0.000012   0.000611   0.000013   0.000000
     6  C   -0.021320  -2.124528   0.012816  -0.178410   0.035565  -0.004906
     7  O    0.003172  -0.000918  -0.006767   0.001781   0.001519   0.000071
     8  H    0.002506   0.022147   0.004787  -0.008439  -0.002393  -0.000045
     9  C   -0.045719  -0.393075   0.000276  -0.105187   0.017715  -0.001671
    10  O    0.000596   0.009887   0.000019  -0.000330   0.000169  -0.000050
    11  H   -0.000464  -0.002107  -0.000001  -0.000038  -0.000016   0.000008
    12  C    0.056623  -0.785872   0.004888   0.010685  -0.067766  -0.008494
    13  O    7.991133   0.246695  -0.013996  -0.004341   0.001001  -0.028888
    14  C    0.246695   8.958874   0.258236  -0.867735   0.032523   0.002359
    15  O   -0.013996   0.258236   7.771755   0.200105  -0.005346  -0.003579
    16  C   -0.004341  -0.867735   0.200105  10.526210  -1.665876  -0.009083
    17  C    0.001001   0.032523  -0.005346  -1.665876   8.304112   0.278568
    18  O   -0.028888   0.002359  -0.003579  -0.009083   0.278568   8.094978
    19  H    0.027441  -0.001046   0.012558  -0.075795   0.036745   0.244314
    20  C   -0.011022  -0.223320  -0.011849  -0.691178  -0.740336  -0.077427
    21  O   -0.000075   0.002227   0.000222   0.067147  -0.158850   0.010415
    22  H    0.000000   0.000138   0.000005  -0.009135   0.050594  -0.000542
    23  C    0.000594  -0.104333  -0.062329   0.038397  -0.147187   0.008142
    24  O   -0.000293   0.067683  -0.027320  -0.020552   0.005014   0.000107
    25  H   -0.000032  -0.015643   0.003087   0.002430  -0.001259  -0.000002
    26  C   -0.005852  -0.315404  -0.068478  -2.341461  -0.429155   0.003858
    27  O    0.000032   0.028253   0.005783   0.133412   0.029956  -0.002029
    28  C   -0.000414   0.043927   0.012522   0.636471   0.353098  -0.012911
    29  O    0.000016   0.001496  -0.000003  -0.004093  -0.016219   0.000124
    30  H   -0.000628  -0.000752  -0.000005   0.000081  -0.000037  -0.000001
    31  H    0.000000  -0.000112  -0.000002  -0.006380   0.009276  -0.000014
    32  H    0.000007   0.001137   0.000559   0.035972  -0.033342  -0.000031
    33  H    0.005195   0.090089  -0.000107  -0.004426   0.001572   0.000020
    34  H    0.006272   0.114397   0.001189  -0.004399   0.000597   0.000047
    35  H   -0.041940   0.105323  -0.002046  -0.007492   0.006319  -0.000559
    36  H    0.000345   0.003398  -0.000126   0.005335  -0.001453  -0.000213
    37  H   -0.004363  -0.010699  -0.000244  -0.008803   0.005339  -0.000948
    38  H    0.007791   0.024232  -0.012387  -0.025330  -0.000163   0.000118
    39  H   -0.031997   0.264788  -0.037002  -0.018033   0.013388  -0.002477
    40  H   -0.004424  -0.066190  -0.027532   0.118706   0.055066  -0.005383
    41  H   -0.000292   0.022688  -0.000165   0.011665  -0.023746   0.000143
    42  H    0.000017   0.009863   0.000946   0.037017   0.005816   0.000012
    43  H   -0.000016  -0.010140   0.001115   0.050934   0.002265   0.000036
    44  H   -0.000362  -0.032337  -0.006829  -0.112278   0.261274  -0.031420
    45  H    0.000102  -0.012667   0.000573   0.034716  -0.191463   0.001840
             19         20         21         22         23         24
     1  O   -0.000013   0.000037   0.000000   0.000000   0.000028   0.000000
     2  C   -0.002850   0.001307   0.000009  -0.000001   0.004891  -0.000833
     3  C    0.002175  -0.005575  -0.000001   0.000001  -0.001488  -0.006422
     4  O    0.000003  -0.000031   0.000000   0.000000   0.000060  -0.000101
     5  H    0.000000   0.000001   0.000000   0.000000   0.000004  -0.000001
     6  C    0.004354   0.057823  -0.000126  -0.000021  -0.064848   0.029973
     7  O   -0.000026  -0.000022  -0.000002   0.000000   0.024015  -0.067429
     8  H   -0.000006   0.000708   0.000000   0.000000   0.006221  -0.002011
     9  C    0.012513   0.007237   0.000114   0.000002  -0.000638  -0.000157
    10  O    0.000022  -0.000013   0.000000   0.000000   0.000004   0.000000
    11  H   -0.000004   0.000003   0.000000   0.000000   0.000000   0.000000
    12  C   -0.018829  -0.010657  -0.000095  -0.000003  -0.004810  -0.000021
    13  O    0.027441  -0.011022  -0.000075   0.000000   0.000594  -0.000293
    14  C   -0.001046  -0.223320   0.002227   0.000138  -0.104333   0.067683
    15  O    0.012558  -0.011849   0.000222   0.000005  -0.062329  -0.027320
    16  C   -0.075795  -0.691178   0.067147  -0.009135   0.038397  -0.020552
    17  C    0.036745  -0.740336  -0.158850   0.050594  -0.147187   0.005014
    18  O    0.244314  -0.077427   0.010415  -0.000542   0.008142   0.000107
    19  H    0.352494   0.013832  -0.000378   0.000010  -0.002917  -0.000010
    20  C    0.013832   7.599602   0.218274  -0.071171   0.182882  -0.004749
    21  O   -0.000378   0.218274   8.090684   0.249854  -0.002557   0.000010
    22  H    0.000010  -0.071171   0.249854   0.422765  -0.000312   0.000000
    23  C   -0.002917   0.182882  -0.002557  -0.000312   6.692971   0.035298
    24  O   -0.000010  -0.004749   0.000010   0.000000   0.035298   8.239162
    25  H    0.000000   0.000698   0.000000   0.000000  -0.026233   0.244102
    26  C    0.000030   0.811712  -0.022325  -0.000667  -1.067437   0.029827
    27  O    0.000159  -0.180910   0.002422  -0.000329  -0.096078   0.002900
    28  C    0.002735  -1.106277   0.028147   0.009907  -0.152089   0.002260
    29  O    0.000003  -0.019143  -0.008641   0.016155   0.015418  -0.000017
    30  H    0.000000   0.000000   0.000000   0.000000   0.000001   0.000000
    31  H    0.000000  -0.031310  -0.000132  -0.001958   0.000565  -0.000001
    32  H    0.000005  -0.068535   0.003503   0.000324  -0.002046   0.000030
    33  H    0.000002  -0.000006   0.000000   0.000000   0.000006   0.000016
    34  H    0.000001  -0.000040   0.000000   0.000000   0.000334   0.000113
    35  H    0.000239   0.000320   0.000000   0.000000   0.000066  -0.000001
    36  H    0.000320  -0.000395   0.000001   0.000000   0.000014   0.000000
    37  H    0.000278   0.000555   0.000000   0.000000  -0.000013   0.000000
    38  H   -0.000019   0.000027   0.000000   0.000000   0.001223  -0.000929
    39  H    0.000254   0.007531  -0.000002   0.000000   0.000671  -0.000975
    40  H    0.000214   0.040925  -0.000653   0.000007   0.003089  -0.000005
    41  H    0.000017  -0.036130   0.000137   0.000002   0.053637   0.002125
    42  H    0.000000  -0.004531   0.000000   0.000000   0.366112  -0.016370
    43  H    0.000000  -0.000359  -0.000002   0.000000   0.623428  -0.056277
    44  H   -0.004429   0.047983  -0.004869  -0.000164   0.017660  -0.000009
    45  H   -0.000090   0.395524  -0.027802  -0.007207   0.008536   0.000019
             25         26         27         28         29         30
     1  O    0.000000  -0.000083   0.000000   0.000001   0.000000   0.275424
     2  C    0.000149   0.013554  -0.000190  -0.000596   0.000009   0.018557
     3  C    0.001161  -0.042998   0.000298   0.001794   0.000019  -0.015932
     4  O    0.000008   0.000256   0.000000   0.000001   0.000000   0.000649
     5  H    0.000000   0.000004   0.000000   0.000000   0.000000  -0.002717
     6  C    0.001484  -0.047455   0.002374  -0.011175  -0.000251   0.000614
     7  O    0.006121  -0.010821   0.000215  -0.000193   0.000000  -0.000008
     8  H   -0.001305  -0.005790  -0.000087  -0.000127  -0.000001   0.000000
     9  C   -0.000010   0.009672   0.000015  -0.002006  -0.000005   0.008313
    10  O    0.000000  -0.000016   0.000000   0.000002   0.000000  -0.001377
    11  H    0.000000   0.000001   0.000000   0.000000   0.000000  -0.000024
    12  C   -0.000393   0.018580   0.000266   0.001585   0.000035  -0.020082
    13  O   -0.000032  -0.005852   0.000032  -0.000414   0.000016  -0.000628
    14  C   -0.015643  -0.315404   0.028253   0.043927   0.001496  -0.000752
    15  O    0.003087  -0.068478   0.005783   0.012522  -0.000003  -0.000005
    16  C    0.002430  -2.341461   0.133412   0.636471  -0.004093   0.000081
    17  C   -0.001259  -0.429155   0.029956   0.353098  -0.016219  -0.000037
    18  O   -0.000002   0.003858  -0.002029  -0.012911   0.000124  -0.000001
    19  H    0.000000   0.000030   0.000159   0.002735   0.000003   0.000000
    20  C    0.000698   0.811712  -0.180910  -1.106277  -0.019143   0.000000
    21  O    0.000000  -0.022325   0.002422   0.028147  -0.008641   0.000000
    22  H    0.000000  -0.000667  -0.000329   0.009907   0.016155   0.000000
    23  C   -0.026233  -1.067437  -0.096078  -0.152089   0.015418   0.000001
    24  O    0.244102   0.029827   0.002900   0.002260  -0.000017   0.000000
    25  H    0.407604   0.023312  -0.000660  -0.000845  -0.000003   0.000000
    26  C    0.023312  10.730600  -0.020064  -0.984832  -0.020195  -0.000002
    27  O   -0.000660  -0.020064   7.908652   0.309977  -0.053067   0.000000
    28  C   -0.000845  -0.984832   0.309977   6.177581   0.276105   0.000000
    29  O   -0.000003  -0.020195  -0.053067   0.276105   8.033786   0.000000
    30  H    0.000000  -0.000002   0.000000   0.000000   0.000000   0.395007
    31  H    0.000000   0.002159   0.002129   0.013318   0.267997   0.000000
    32  H    0.000000   0.002222  -0.037214   0.393247  -0.017083   0.000000
    33  H    0.000000  -0.000207   0.000000   0.000000   0.000000  -0.012995
    34  H    0.000000   0.000056   0.000000  -0.000008   0.000000  -0.000141
    35  H    0.000000  -0.000736   0.000000  -0.000011   0.000000  -0.000178
    36  H    0.000000   0.000200   0.000000   0.000027   0.000000   0.000000
    37  H    0.000000  -0.000065   0.000000  -0.000041   0.000000  -0.000013
    38  H   -0.000002   0.002488   0.000002  -0.000046   0.000000   0.000020
    39  H    0.000008   0.018270   0.000155  -0.000781  -0.000004   0.000001
    40  H   -0.000034   0.131867   0.003516  -0.002902  -0.000536   0.000000
    41  H   -0.000217   0.187748  -0.025974   0.056201  -0.000939   0.000000
    42  H   -0.013256  -0.068846  -0.000238   0.007505  -0.000007   0.000000
    43  H    0.000329  -0.295134  -0.001744   0.002582  -0.000371   0.000000
    44  H    0.000000   0.127160   0.000816  -0.044682   0.000322   0.000000
    45  H    0.000000   0.043286  -0.002055   0.002020  -0.003030   0.000000
             31         32         33         34         35         36
     1  O    0.000000   0.000000  -0.013320  -0.002072   0.002181   0.000034
     2  C    0.000000   0.000003   0.391928   0.090330   0.080037   0.002461
     3  C    0.000000   0.000007  -0.096032   0.230209  -0.057161   0.004347
     4  O    0.000000   0.000000   0.003833  -0.017705   0.001169   0.000001
     5  H    0.000000   0.000000  -0.000280  -0.000623  -0.000010   0.000000
     6  C    0.000001  -0.000035  -0.029273  -0.237935  -0.026584  -0.003116
     7  O    0.000000   0.000000   0.001298   0.012121   0.000067  -0.000009
     8  H    0.000000   0.000000  -0.000003  -0.000297   0.000008   0.000000
     9  C    0.000000   0.000001  -0.020789   0.014266   0.049877   0.394028
    10  O    0.000000   0.000000  -0.000961  -0.000075   0.001445  -0.028055
    11  H    0.000000   0.000000  -0.000013   0.000000  -0.000178  -0.007174
    12  C   -0.000001   0.000029  -0.073843   0.026226   0.129974  -0.045543
    13  O    0.000000   0.000007   0.005195   0.006272  -0.041940   0.000345
    14  C   -0.000112   0.001137   0.090089   0.114397   0.105323   0.003398
    15  O   -0.000002   0.000559  -0.000107   0.001189  -0.002046  -0.000126
    16  C   -0.006380   0.035972  -0.004426  -0.004399  -0.007492   0.005335
    17  C    0.009276  -0.033342   0.001572   0.000597   0.006319  -0.001453
    18  O   -0.000014  -0.000031   0.000020   0.000047  -0.000559  -0.000213
    19  H    0.000000   0.000005   0.000002   0.000001   0.000239   0.000320
    20  C   -0.031310  -0.068535  -0.000006  -0.000040   0.000320  -0.000395
    21  O   -0.000132   0.003503   0.000000   0.000000   0.000000   0.000001
    22  H   -0.001958   0.000324   0.000000   0.000000   0.000000   0.000000
    23  C    0.000565  -0.002046   0.000006   0.000334   0.000066   0.000014
    24  O   -0.000001   0.000030   0.000016   0.000113  -0.000001   0.000000
    25  H    0.000000   0.000000   0.000000   0.000000   0.000000   0.000000
    26  C    0.002159   0.002222  -0.000207   0.000056  -0.000736   0.000200
    27  O    0.002129  -0.037214   0.000000   0.000000   0.000000   0.000000
    28  C    0.013318   0.393247   0.000000  -0.000008  -0.000011   0.000027
    29  O    0.267997  -0.017083   0.000000   0.000000   0.000000   0.000000
    30  H    0.000000   0.000000  -0.012995  -0.000141  -0.000178   0.000000
    31  H    0.407753  -0.008003   0.000000   0.000000   0.000000   0.000000
    32  H   -0.008003   0.576912   0.000000   0.000000   0.000000   0.000000
    33  H    0.000000   0.000000   0.616008   0.006422   0.006850  -0.000095
    34  H    0.000000   0.000000   0.006422   0.623487   0.002493   0.000002
    35  H    0.000000   0.000000   0.006850   0.002493   0.637396  -0.010530
    36  H    0.000000   0.000000  -0.000095   0.000002  -0.010530   0.577615
    37  H    0.000000   0.000000   0.001851  -0.000005   0.007219  -0.048017
    38  H    0.000000   0.000000   0.002454   0.006325  -0.000096   0.000000
    39  H    0.000000   0.000000  -0.000024   0.001868   0.002521  -0.000004
    40  H    0.000003  -0.000040   0.000000  -0.000003  -0.000003  -0.000001
    41  H    0.000024   0.003200   0.000000   0.000000   0.000000   0.000000
    42  H   -0.000001   0.000002   0.000000   0.000000   0.000000   0.000000
    43  H    0.000001  -0.000019   0.000000   0.000000   0.000000   0.000000
    44  H    0.000011   0.001785   0.000000   0.000000   0.000000   0.000000
    45  H    0.000191   0.005140   0.000000   0.000000   0.000000   0.000000
             37         38         39         40         41         42
     1  O    0.000500  -0.000510   0.000057   0.000000   0.000000   0.000000
[...]
 -0.00001308,-0.00000984,0.,0.00000268,0.00000066,0.00000295,0.00000814
 ,0.00002788,0.00003966,-0.00006544,-0.00004096,-0.00018577,0.00008151,
 0.00007032,0.00005864,-0.00020412,-0.00023198,-0.00048881,0.00245142,-
 0.00112056,0.00057213,0.00014785,0.00054631,-0.00009153,0.00040871,0.0
 0008327,0.00000260,0.00001698,-0.00005637,-0.00003488,0.00003144,0.000
 00680,0.00001411,-0.00002134,0.00000564,-0.00000047,0.00000497,-0.0000
 0914,-0.11296361,-0.08732178,-0.09735541,0.00665065,0.00509254,0.00861
 653,0.00189683,0.00122866,-0.00097155,0.00519247,0.01287984,0.00919774
 ,0.00005699,-0.00103813,0.00079800,0.00003493,0.00013213,-0.00000662,-
 0.00006987,0.00001801,0.00014382,0.00000008,0.00000181,0.00000442,0.00
 001326,-0.00005579,-0.00001711,-0.00001577,-0.00003981,0.00002255,0.00
 000005,0.00000004,-0.00000135,0.00000418,0.00000069,-0.00000061,0.0000
 0151,0.00000120,-0.00000002,-0.00000246,0.00000003,-0.00000123,0.00000
 084,-0.00000032,-0.00000139,0.00000112,0.00000832,-0.00000384,0.000047
 57,0.00001562,0.00001497,0.00024648,0.00028154,0.00014084,0.00123226,-
 0.00036149,0.00107308,0.11193090,-0.00000404,0.00004122,-0.00003732,0.
 00000072,-0.00005216,0.00006304,-0.00002305,0.00009634,0.00005442,-0.0
 0000495,0.00004732,-0.00005516,0.00000115,-0.00000317,-0.00000122,0.00
 016953,-0.00044969,-0.00011481,0.00005888,0.00052835,0.00114066,-0.000
 48318,-0.00074658,-0.00131164,-0.00000211,0.00003026,0.00003675,-0.000
 00073,-0.00004218,-0.00006174,-0.00000100,0.00000955,0.00000682,0.0000
 4001,0.00001555,0.00013309,-0.00003755,0.00003840,-0.00031435,0.000304
 73,-0.00001252,0.00057667,-0.00025153,0.00050490,-0.00032575,0.0027718
 8,-0.00488233,0.00430937,-0.00071737,0.00036186,-0.00171202,0.00013943
 ,-0.00135247,-0.00040040,-0.00007165,0.00001966,0.00030752,0.00002259,
 0.00024616,-0.00049110,0.00000375,0.00002901,0.00026719,0.00000158,-0.
 00005974,-0.00001578,-0.08518850,-0.15553446,-0.12907447,0.00652154,0.
 00644778,0.02244867,0.00103063,0.00401267,0.00210492,-0.01391632,-0.02
 281237,-0.02282228,0.00072254,0.00218486,-0.00013403,0.00018332,-0.000
 29880,0.00011957,0.00000215,0.00010365,0.00026131,-0.00000156,-0.00000
 054,0.00000730,-0.00002549,-0.00007945,0.00000597,0.00002675,-0.000052
 21,0.00001858,0.00000019,0.00000112,-0.00000194,0.00000038,-0.00000610
 ,-0.00000769,-0.00001254,-0.00000131,-0.00001210,0.00001409,0.00001617
 ,-0.00000110,-0.00001281,0.00000026,0.00000384,-0.00003824,0.00003673,
 0.00001021,-0.00001359,-0.00002868,-0.00000573,0.00009578,0.00039306,0
 .00028191,0.00022889,0.00145903,-0.00018528,0.08752354,0.16840905,-0.0
 0000536,-0.00007892,-0.00009924,-0.00003073,0.00009848,-0.00000089,0.0
 0008346,-0.00018434,0.00004658,0.00001444,-0.00000091,-0.00007513,-0.0
 0000316,-0.00000131,0.00001798,-0.00042769,0.00066270,0.00016682,-0.00
 008044,-0.00093654,-0.00198052,0.00091963,0.00144614,0.00252411,-0.000
 00839,0.00003577,0.00001795,-0.00000006,-0.00004072,-0.00001917,0.0000
 0044,0.00000704,0.00000037,0.00003912,0.00004411,0.00002450,0.00002372
 ,-0.00026796,0.00002979,-0.00004351,0.00028238,-0.00013427,0.00003093,
 -0.00032603,0.00030226,0.00041528,0.00093113,-0.00043647,-0.00010715,-
 0.00000523,0.00014330,-0.00000319,0.00012058,0.00014868,-0.00000897,0.
 00005564,-0.00010286,0.00000144,-0.00000372,-0.00001310,0.00000236,0.0
 0000797,0.00002107,-0.00000232,-0.00001140,-0.00000123,-0.09186419,-0.
 12228775,-0.17580827,-0.01210004,-0.00643052,-0.04178106,-0.00010838,-
 0.00162102,-0.00084288,-0.00028402,0.00105708,0.00190400,-0.00017780,0
 .00021484,0.00115379,-0.00002252,-0.00013838,0.00015595,0.00000764,0.0
 0000592,0.00002774,-0.00001082,0.00000481,0.00001180,-0.00001162,-0.00
 000925,0.00000829,0.00000101,0.00001028,-0.00002913,0.00000358,-0.0000
 0410,-0.00000281,0.00000845,0.00000906,0.00000885,-0.00000291,0.000000
 95,-0.00000136,-0.00000419,-0.00001280,-0.00000016,0.00000466,-0.00000
 147,-0.00000279,0.00006784,-0.00006896,-0.00002371,0.00001794,0.000015
 80,-0.00000226,-0.00001031,0.00001218,-0.00001775,0.00039955,0.0001604
 4,0.00062376,0.10146704,0.12522586,0.20856482,0.00000905,0.00002842,0.
 00004270,0.00000481,-0.00003289,-0.00000930,-0.00003569,0.00003905,-0.
 00002362,0.00001180,0.00000273,0.00003073,-0.00000377,0.00000041,-0.00
 000624,0.00008389,-0.00021899,-0.00004556,0.00004573,0.00029378,0.0005
 3100,-0.00024532,-0.00040698,-0.00067501,-0.00000301,-0.00002001,-0.00
 001041,0.00000782,0.00002378,0.00001487,-0.00000450,-0.00000472,-0.000
 00025,-0.00003319,-0.00001406,-0.00002027,0.00005787,0.00009525,0.0000
 3527,-0.00022501,-0.00004516,-0.00006928,0.00026319,0.00007514,-0.0000
 5700,0.00025677,-0.00048441,-0.00016592,0.00021707,-0.00001951,0.00013
 246,0.00004944,0.00017809,-0.00002255,-0.00001340,-0.00002524,-0.00000
 445,-0.00002162,-0.00003719,0.00018248,0.00002722,-0.00010646,-0.00006
 364,-0.00000738,0.00002986,-0.00000574,-0.34933585,0.00213641,0.043036
 09,0.00322256,-0.00490732,0.00936648,-0.00044775,0.00032650,0.00064913
 ,-0.01595237,0.00141269,0.00080228,0.00173610,-0.00116322,0.00036189,0
 .00057031,-0.00011946,-0.00020446,0.00001710,0.00010582,-0.00017839,0.
 00000205,-0.00000351,-0.00000574,-0.00000432,0.00003124,-0.00001285,0.
 00007937,-0.00025872,0.00017526,0.00000392,-0.00000025,-0.00000177,0.0
 0000779,0.00000037,0.00000475,0.00000862,0.00000025,0.00000352,0.00000
 073,0.00000545,-0.00000079,0.00000325,-0.00000098,0.00000088,-0.000009
 54,0.00001996,-0.00001909,0.00006645,0.00000528,0.00002105,0.00037051,
 0.00059633,0.00054897,0.00048180,0.00274378,0.00001764,-0.01403763,0.0
 0080760,0.00179714,0.37265040,0.00000303,0.00002644,0.00003081,0.00000
 464,-0.00003199,-0.00000484,-0.00001202,0.00004225,-0.00002543,0.00000
 019,0.00000079,0.00002780,-0.00000033,0.00000063,-0.00000648,0.0000651
 1,-0.00021028,-0.00010888,0.00007561,0.00018368,0.00043148,-0.00023937
 ,-0.00020480,-0.00072871,0.00000338,-0.00001136,-0.00000623,-0.0000011
 6,0.00001305,0.00000472,0.00000058,-0.00000241,0.00000010,-0.00000552,
 -0.00002117,-0.00001341,-0.00005198,0.00010347,-0.00003530,0.00017790,
 -0.00018192,0.00001646,-0.00028783,0.00010987,-0.00036497,0.00111000,0
 .00219026,0.00109502,-0.00005046,-0.00006588,-0.00004215,-0.00016689,-
 0.00015907,-0.00010807,0.00002469,-0.00003870,0.00007623,0.00006771,0.
 00008474,-0.00004754,-0.00004576,0.00006491,-0.00000276,0.00000720,-0.
 00000138,0.00000716,0.00208878,-0.04590783,-0.00723031,-0.01563496,-0.
 00137270,0.01511201,-0.00118177,-0.00007661,0.00039882,0.03641857,-0.0
 0496084,-0.00258800,-0.00078241,0.00226717,-0.00189921,0.00027584,0.00
 020098,-0.00007404,-0.00014490,-0.00006191,0.00009409,0.00000274,-0.00
 000287,-0.00000448,0.00000398,-0.00000164,-0.00002381,-0.00024503,0.00
 002859,-0.00008394,-0.00000034,-0.00000015,0.00000133,-0.00000101,0.00
 000034,0.00000044,-0.00000179,-0.00000098,-0.00000212,0.00000313,0.000
 00435,0.00000059,-0.00000362,0.00000070,0.00000183,-0.00001698,-0.0000
 0075,-0.00000354,-0.00003861,-0.00001109,-0.00005092,-0.00078232,-0.00
 017698,-0.00031543,0.00165176,-0.00558956,0.00163893,-0.02103562,0.001
 49298,0.00200045,-0.00093537,0.05218700,-0.00000325,-0.00002335,-0.000
 00336,-0.00000279,0.00002537,-0.00001364,0.00002717,-0.00001928,-0.000
 01395,-0.00001486,-0.00002393,0.00000777,0.00000208,0.00000159,0.00000
 133,-0.00008522,0.00022763,0.00010633,-0.00043663,-0.00028873,-0.00040
 854,0.00086128,0.00045565,0.00068542,-0.00000175,-0.00000303,-0.000005
 97,-0.00000290,0.00000428,0.00001116,0.00000177,-0.00000144,-0.0000015
 1,0.00001085,-0.00000035,-0.00004000,-0.00005200,-0.00002043,0.0000807
 6,0.00020708,0.00003290,-0.00011973,-0.00014799,-0.00025355,0.00016885
 ,0.00075008,0.00040691,-0.00002928,-0.00010939,-0.00010919,0.00002234,
 -0.00001197,0.00005334,0.00004030,0.00001222,0.00000310,-0.00004070,-0
 .00001099,-0.00005020,0.00003291,0.00000636,0.00001752,-0.00002660,-0.
 00000766,0.00000283,0.00000679,0.04082890,-0.00754298,-0.04545973,0.03
 666735,0.01348621,-0.02467612,0.00104242,-0.00051455,-0.00105020,0.000
 40468,0.00003152,0.00178535,-0.00115688,0.00099336,0.00010435,-0.00028
 678,-0.00013106,0.00002809,0.00012900,-0.00006691,-0.00015581,0.000000
 06,0.00000270,-0.00000085,-0.00000322,0.00003194,0.00002706,0.00006823
 ,0.00006626,-0.00003347,-0.00000345,0.00000149,0.00000284,-0.00001267,
 -0.00000414,-0.00000825,-0.00000317,-0.00000229,0.00000131,-0.00000207
 ,-0.00000640,0.00000113,0.00000115,0.00000093,-0.00000059,-0.00000581,
 0.00001073,0.00004437,-0.00004749,-0.00003520,-0.00003451,-0.00013123,
 -0.00004381,0.00001508,0.00028366,0.00079500,0.00010006,-0.02259618,-0
 .00040202,0.00547532,-0.05614957,-0.00713725,0.06340048,0.00000929,0.0
 0003038,-0.00007016,-0.00004529,-0.00003792,0.00004860,0.00000060,-0.0
 0004756,0.00003035,0.00001823,0.00005933,-0.00003946,-0.00000528,-0.00
 001370,0.00000813,0.00001020,-0.00004281,0.00001908,0.00005577,0.00010
 124,0.00004015,-0.00006930,-0.00005009,-0.00006824,-0.00006610,-0.0000
 0145,0.00013169,0.00003592,-0.00004528,-0.00013078,-0.00002163,0.00001
 884,0.00002197,0.00002079,0.00006675,0.00013330,0.00001126,0.00049415,
 -0.00033219,0.00005784,-0.00048678,-0.00029624,0.00200436,-0.00046715,
 -0.00014057,-0.01583625,0.00367276,0.00072587,-0.34116138,0.00902261,0
 .01156038,-0.00946702,-0.01107891,-0.01363520,0.00013864,-0.00092094,0
 .00085512,-0.01570853,0.00141156,0.00460765,0.00175810,-0.00084826,0.0
 0006262,0.00018452,0.00004277,-0.00020493,0.00053926,0.00027774,0.0001
 6305,0.00005452,-0.00004075,0.00005129,-0.00001672,-0.00000513,0.00000
 131,-0.00083308,-0.00066941,-0.00053853,0.00039934,0.00035045,0.000022
 59,-0.00082815,-0.00103783,-0.00062541,0.00042814,0.00014387,0.0004124
 3,-0.00001109,-0.00000298,0.00000893,-0.00004315,0.00006035,0.00013657
 ,0.00042648,0.00058420,0.00068159,0.00001323,0.00000218,-0.00001259,0.
 00001533,-0.00000127,0.00000271,0.00000543,-0.00001150,0.00001180,0.00
 005891,0.00005413,-0.00000018,-0.00001152,-0.00000691,0.00001021,0.000
 00857,0.00002402,-0.00003740,0.00007123,-0.00001640,0.00027499,0.00025
 345,0.00176938,-0.00034790,0.00094962,0.00062163,0.00070780,-0.0000273
 8,0.00015370,0.00000557,0.00009294,-0.00027388,-0.00002340,0.37596025,
 -0.00000145,0.00002926,-0.00005840,-0.00002736,-0.00004281,0.00003561,
 0.00001958,-0.00000588,-0.00000834,-0.00000586,0.00003834,-0.00002092,
 0.00000341,-0.00001052,0.00000338,-0.00016010,-0.00004725,-0.00004105,
 -0.00005579,0.00008969,0.00006071,0.00006952,-0.00000531,-0.00010511,-
 0.00006168,-0.00000874,0.00011585,0.00002588,-0.00004057,-0.00010843,-
 0.00001639,0.00001659,0.00001442,0.00005300,0.00008554,0.00011703,0.00
 003588,0.00046184,-0.00030652,0.00021305,-0.00015730,0.00001565,-0.002
 00426,0.00245156,-0.00154893,0.03726579,-0.00691230,0.00040892,0.00935
 145,-0.03768623,0.00522999,-0.03237970,-0.01069438,-0.01568660,-0.0003
 7007,0.00044990,0.00134977,-0.01080227,0.00237591,0.00271058,0.0003371
 8,0.00068245,-0.00151075,0.00010723,0.00012601,-0.00020149,-0.00015931
 ,-0.00004889,0.00003003,-0.00001339,0.00002429,0.00002861,-0.00000479,
 0.00002073,-0.00001483,0.00139568,0.00238838,0.00109127,-0.00022805,-0
 .00032799,-0.00035461,0.00043737,-0.00023364,-0.00025101,0.00007631,-0
 .00001568,0.00027764,-0.00000525,-0.00000070,0.00000641,0.00000785,0.0
 0009064,0.00006807,0.00001506,0.00013600,0.00006385,0.00000111,0.00000
 120,-0.00000226,-0.00000186,-0.00000070,-0.00000303,-0.00001345,-0.000
 01782,-0.00000244,0.00004719,0.00005041,0.00000443,-0.00000412,0.00000
 492,0.00000169,-0.00000774,-0.00002563,0.00004287,-0.00025532,-0.00000
 248,-0.00013655,0.00201184,-0.00568840,0.00209296,-0.00083612,-0.00010
 685,-0.00052941,-0.00008499,-0.00009895,0.00003382,-0.00019042,0.00014
 292,0.00001755,-0.00296255,0.05238593,0.00000852,0.00001867,-0.0000265
 7,-0.00003277,-0.00002295,0.00001622,0.00000025,-0.00003526,0.00000266
 ,0.00000883,0.00002542,-0.00000195,-0.00000184,-0.00000790,0.00000416,
 -0.00000443,0.00001243,0.00004729,0.00003751,0.00002685,0.00000603,-0.
 00004102,0.00000716,0.00000579,-0.00009618,-0.00002966,0.00008212,0.00
 004173,-0.00000723,-0.00006892,-0.00001813,0.00000769,0.00001447,0.000
 00057,0.00004224,0.00004316,0.00017646,0.00035612,-0.00023493,-0.00039
 361,-0.00033629,-0.00058105,0.00034208,-0.00156000,0.00139700,-0.01201
 306,0.00428312,0.00149478,0.01299147,0.00548196,-0.03797686,-0.0313232
 0,-0.01591667,-0.01244021,-0.00130471,-0.00015929,0.00116866,0.0388018
 2,0.00066398,-0.00627253,-0.00258263,-0.00043734,0.00244995,-0.0000310
 4,-0.00052983,0.00049302,0.00007693,0.00011264,0.00007257,0.00001094,-
 0.00004193,0.00000580,0.00000293,-0.00001379,0.00000307,0.00054144,-0.
 00029456,-0.00034189,-0.00011611,-0.00054636,-0.00028820,0.00084129,0.
 00083713,0.00160469,-0.00049368,-0.00003449,-0.00020523,-0.00000545,-0
 .00000199,0.00000103,-0.00010020,-0.00012454,-0.00009434,-0.00043376,-
 0.00040958,-0.00036368,0.00001019,0.00000261,-0.00001116,0.00000903,-0
 .00000004,0.00000441,0.00001736,-0.00001237,0.00002010,0.00004805,0.00
 004695,0.00000339,0.00001517,-0.00000803,-0.00000002,0.00001458,0.0000
 2649,-0.00002705,0.00017197,0.00001202,0.00002789,-0.00090866,0.001751
 11,-0.00034801,0.00015987,-0.00006861,0.00011123,0.00001777,0.00008003
 ,-0.00000813,0.00001282,-0.00004702,-0.00003480,-0.00632981,0.00530334
 ,0.05655314,0.00000437,-0.00000362,-0.00000666,-0.00000194,0.00000245,
 0.00000601,-0.00001320,-0.00001083,0.00000908,0.00000985,0.00000311,-0
 .00000760,-0.00000337,0.00000020,0.00000231,0.00000613,0.00001252,0.00
 002207,0.00002375,-0.00001091,-0.00001971,-0.00001361,0.00000705,0.000
 02153,-0.00002218,0.00000143,0.00000655,0.00001679,-0.00000493,-0.0000
 0386,-0.00000974,0.00000103,0.00000012,-0.00002128,0.00000413,0.000003
 85,0.00003014,-0.00001636,-0.00002308,-0.00013044,-0.00003049,0.000021
 08,0.00041065,-0.00006816,0.00012175,-0.00054583,0.00097337,-0.0002302
 2,-0.01473173,-0.00449321,0.00403437,0.00171272,0.00079059,0.00000016,
 0.00016932,0.00007627,-0.00011262,-0.34607644,-0.03541476,-0.00140439,
 -0.01242832,0.01365335,-0.00747617,0.00049903,0.00089643,0.00012925,-0
 .00002439,-0.00001853,-0.00000876,0.00002376,0.00003830,-0.00005336,-0
 .00001338,-0.00000593,-0.00000188,-0.00007440,-0.00011684,0.00015988,0
 .00227866,0.00046267,0.00066979,-0.01283229,-0.00236866,-0.00066829,0.
 00205030,0.00088788,0.00185525,-0.00000228,0.00000141,0.00000129,0.000
 37834,0.00053745,0.00062267,0.00042427,-0.00081113,-0.00065397,0.00000
 469,0.00000118,-0.00000387,0.00000600,0.00000033,-0.00000003,0.0000105
 5,-0.00000446,0.00000502,-0.00000221,0.00000454,-0.00000156,0.00001148
 ,-0.00000006,-0.00000283,0.00000626,0.00000463,-0.00000734,0.00002612,
 -0.00001533,0.00001798,0.00058744,-0.00071379,0.00036781,0.00010170,0.
 00015173,-0.00003749,0.00001168,-0.00001914,0.00000655,0.00003180,-0.0
 0004488,0.00000496,0.00056962,-0.00082208,0.00187068,0.37754160,0.0000
 0227,-0.00000521,0.00001517,0.00000274,0.00000615,-0.00001020,-0.00000
 497,0.00000878,-0.00000426,0.00000257,-0.00001117,0.00000617,-0.000001
 18,0.00000334,-0.00000189,-0.00000309,0.00000713,-0.00000331,0.0000139
 2,-0.00001569,-0.00000528,-0.00001169,0.00000012,0.00000344,0.00000479
 ,-0.00000027,-0.00002630,-0.00000314,0.00001057,0.00002644,0.00000357,
 -0.00000438,-0.00000488,-0.00000820,-0.00001217,-0.00002226,0.00002626
 ,-0.00006571,0.00004950,-0.00002743,0.00009432,0.00002975,0.00020849,-
 0.00000283,-0.00009018,-0.00081526,0.00030499,-0.00018180,-0.00808620,
 0.00145089,0.00155433,0.00090328,0.00034956,0.00053742,-0.00005670,-0.
 00005503,-0.00011899,-0.03677659,-0.03914962,-0.00413087,0.04386298,-0
 .01892057,0.01250010,0.00111550,0.00077925,-0.00142724,-0.00007069,0.0
 0002382,-0.00001067,0.00002131,-0.00001433,-0.00001813,-0.00000432,0.0
 0000236,0.00000378,-0.00030762,-0.00036040,0.00024763,0.00054950,0.001
 83203,0.00016487,-0.02834543,-0.00614348,-0.00370383,0.00068978,0.0014
 3693,0.00222518,0.00000082,0.00000043,-0.00000274,0.00001606,0.0001103
 7,0.00034114,-0.00002697,-0.00324449,-0.00297385,0.00000084,-0.0000004
 2,-0.00000028,0.00000040,0.00000030,0.00000080,0.00000408,0.00000250,0
 .00000239,-0.00000734,-0.00000760,0.00000054,0.00000432,-0.00000207,-0
 .00000104,0.00000220,0.00000085,-0.00000372,0.00001552,-0.00000378,0.0
 0001135,0.00026894,-0.00008139,0.00013454,0.00020165,0.00012784,-0.000
 05214,0.00000896,-0.00001223,-0.00001208,0.00003665,-0.00005222,0.0000
 1125,0.00010739,0.00012651,0.00154776,0.02648205,0.06148601,-0.0000041
 9,-0.00000918,-0.00000072,0.00000669,0.00000995,0.00000014,0.00001106,
 0.00001563,0.00000630,-0.00000486,-0.00000717,-0.00001001,0.00000112,0
 .00000375,-0.00000109,-0.00001321,-0.00001659,-0.00002019,-0.00001491,
 -0.00000477,-0.00000938,0.00001384,-0.00000883,0.00000955,0.00002084,0
 .00001272,-0.00002064,-0.00001238,-0.00000562,0.00001537,0.00000674,-0
 .00000085,-0.00000569,0.00001580,-0.00000774,0.00000910,-0.00000526,-0
 .00015965,0.00003726,0.00009962,0.00018022,0.00014289,-0.00065128,-0.0
 0004361,-0.00038503,0.00128250,-0.00143414,0.00131871,0.03820545,0.006
 45450,-0.00584305,-0.00223029,-0.00021285,0.00330766,-0.00017100,0.000
 20278,0.00013448,0.00436848,-0.00343020,-0.04148795,-0.01577779,0.0111
 0570,-0.00130666,-0.00208012,0.00056466,0.00046648,0.00005626,0.000002
 85,0.00005269,-0.00001392,0.00000027,-0.00000394,-0.00000318,-0.000002
 70,0.00000285,0.00024631,0.00022846,-0.00033570,0.00109932,0.00163749,
 0.00041928,-0.02512780,-0.00865311,-0.00383152,-0.00068760,0.00079452,
 0.00159482,0.00000118,0.00000186,0.00000018,-0.00013015,0.00005564,0.0
 0022435,-0.00049391,-0.00285109,-0.00277081,-0.00000379,-0.00000114,0.
 00000381,-0.00000350,0.00000021,-0.00000118,-0.00000865,0.00000396,-0.
 00000847,-0.00001081,-0.00001121,0.00000078,-0.00000224,0.00000256,-0.
 00000034,-0.00000315,-0.00000620,0.00000804,-0.00003520,0.00000558,-0.
 00004755,-0.00070534,0.00042328,-0.00011850,-0.00007552,-0.00003934,-0
 .00015079,-0.00001061,0.00002426,0.00000547,-0.00001550,0.00001659,0.0
 0000823,0.00209725,0.00176620,-0.00630707,0.00076370,-0.00660762,0.054
 89784\\0.00710817,-0.00931822,-0.00831744,-0.00878676,0.01206858,0.002
 82920,-0.00559141,-0.00241238,0.03129257,-0.00488840,0.00284884,0.0123
 5323,0.00047929,-0.00381309,-0.03296618,0.03009260,-0.02005115,-0.0128
 0192,-0.00269833,0.00825993,-0.00721655,-0.00616697,-0.01233263,0.0241
 2717,-0.02003761,0.03641185,-0.00958263,0.00713733,-0.00047580,0.02166
 652,0.00310337,-0.03761102,-0.01132756,0.01997605,-0.01132409,0.015271
 26,-0.01368587,0.01338254,-0.00085644,-0.03400573,0.02150166,-0.002304
 93,0.00038050,0.01279547,0.01356130,0.02045588,-0.01480375,-0.00357257
 ,-0.03756875,0.01335350,0.04024345,0.00867270,0.00833497,-0.00359609,0
 .00533901,-0.00513971,-0.02915650,0.02031799,0.01207703,0.00507046,0.0
 0450896,-0.01187998,-0.01616690,-0.01565741,0.00622045,0.02545461,0.00
 538222,-0.00326119,0.00392478,-0.01077592,-0.02740233,-0.02190594,0.00
 217398,0.03045267,0.01679112,0.00407825,-0.00208131,0.00431514,-0.0220
 1447,-0.00257855,0.01113612,0.06044745,-0.01673093,0.00005499,-0.02096
 927,0.01561126,0.00004093,-0.00047656,0.00378371,-0.00138516,-0.001185
 92,-0.00214221,-0.00393003,-0.01728304,-0.00395024,-0.00590910,-0.0205
 8338,-0.00103631,0.00102577,0.02130402,-0.00080340,-0.00409459,0.02298
 737,-0.00240969,0.00073462,0.00966484,0.00564638,-0.01714574,-0.020501
 37,-0.00031809,-0.00979944,-0.01852703,-0.00084730,0.00088005,0.019360
 52,0.00026213,-0.00488952,0.02217893,0.00041023,0.00041044,-0.02173948
 ,-0.00058642,-0.00105689,-0.00680530,-0.00722676,-0.01506252,0.0191757
 1,0.00202644,-0.00602348,-0.02678919,-0.00120742,0.00000504,0.02241302
 ,-0.00370367,-0.00212067\\\@


 "A LITTLE BIT GOES A LONG WAY"
 R.S. MULLIKEN AS QUOTED BY K. RUEDENBERG
 Job cpu time:  3 days 23 hours  5 minutes  6.3 seconds.
 File lengths (MBytes):  RWF=   2340 Int=      0 D2E=      0 Chk=     43 Scr=      1
 Normal termination of Gaussian 09 at Fri Feb 12 13:01:01 2016.
Gaussian '09 finished on node030 at Fri Feb 12 13:01:01 EST 2016.
