Gaussian '09 started on node027 at Wed Jan 20 15:58:13 EST 2016.
 Entering Gaussian System, Link 0=/usr/local/gaussian/g09/g09
 Initial command:
 /usr/local/gaussian/g09/l1.exe /home/srmcgrat/thesis/gaussian/cellobiose/280/8000/gaussian3415/Gau-3454.inp -scrdir=/home/srmcgrat/thesis/gaussian/cellobiose/280/8000/gaussian3415/
 Entering Link 1 = /usr/local/gaussian/g09/l1.exe PID=      3456.
  
 Copyright (c) 1988,1990,1992,1993,1995,1998,2003,2009,2010,
            Gaussian, Inc.  All Rights Reserved.
  
 This is part of the Gaussian(R) 09 program.  It is based on
 the Gaussian(R) 03 system (copyright 2003, Gaussian, Inc.),
 the Gaussian(R) 98 system (copyright 1998, Gaussian, Inc.),
 the Gaussian(R) 94 system (copyright 1995, Gaussian, Inc.),
 the Gaussian 92(TM) system (copyright 1992, Gaussian, Inc.),
 the Gaussian 90(TM) system (copyright 1990, Gaussian, Inc.),
 the Gaussian 88(TM) system (copyright 1988, Gaussian, Inc.),
 the Gaussian 86(TM) system (copyright 1986, Carnegie Mellon
 University), and the Gaussian 82(TM) system (copyright 1983,
 Carnegie Mellon University). Gaussian is a federally registered
 trademark of Gaussian, Inc.
  
 This software contains proprietary and confidential information,
 including trade secrets, belonging to Gaussian, Inc.
  
 This software is provided under written license and may be
 used, copied, transmitted, or stored only in accord with that
 written license.
  
 The following legend is applicable only to US Government
 contracts under FAR:
  
                    RESTRICTED RIGHTS LEGEND
  
 Use, reproduction and disclosure by the US Government is
 subject to restrictions as set forth in subparagraphs (a)
 and (c) of the Commercial Computer Software - Restricted
 Rights clause in FAR 52.227-19.
  
 Gaussian, Inc.
 340 Quinnipiac St., Bldg. 40, Wallingford CT 06492
  
  
 ---------------------------------------------------------------
 Warning -- This program may not be used in any manner that
 competes with the business of Gaussian, Inc. or will provide
 assistance to any competitor of Gaussian, Inc.  The licensee
 of this program is prohibited from giving any competitor of
 Gaussian, Inc. access to this program.  By using this program,
 the user acknowledges that Gaussian, Inc. is engaged in the
 business of creating and licensing software in the field of
 computational chemistry and represents and warrants to the
 licensee that it is not a competitor of Gaussian, Inc. and that
 it will not use this program in any manner prohibited above.
 ---------------------------------------------------------------
  

 Cite this work as:
 Gaussian 09, Revision B.01,
 M. J. Frisch, G. W. Trucks, H. B. Schlegel, G. E. Scuseria, 
 M. A. Robb, J. R. Cheeseman, G. Scalmani, V. Barone, B. Mennucci, 
 G. A. Petersson, H. Nakatsuji, M. Caricato, X. Li, H. P. Hratchian, 
 A. F. Izmaylov, J. Bloino, G. Zheng, J. L. Sonnenberg, M. Hada, 
 M. Ehara, K. Toyota, R. Fukuda, J. Hasegawa, M. Ishida, T. Nakajima, 
 Y. Honda, O. Kitao, H. Nakai, T. Vreven, J. A. Montgomery, Jr., 
 J. E. Peralta, F. Ogliaro, M. Bearpark, J. J. Heyd, E. Brothers, 
 K. N. Kudin, V. N. Staroverov, T. Keith, R. Kobayashi, J. Normand, 
 K. Raghavachari, A. Rendell, J. C. Burant, S. S. Iyengar, J. Tomasi, 
 M. Cossi, N. Rega, J. M. Millam, M. Klene, J. E. Knox, J. B. Cross, 
 V. Bakken, C. Adamo, J. Jaramillo, R. Gomperts, R. E. Stratmann, 
 O. Yazyev, A. J. Austin, R. Cammi, C. Pomelli, J. W. Ochterski, 
 R. L. Martin, K. Morokuma, V. G. Zakrzewski, G. A. Voth, 
 P. Salvador, J. J. Dannenberg, S. Dapprich, A. D. Daniels, 
 O. Farkas, J. B. Foresman, J. V. Ortiz, J. Cioslowski, 
 and D. J. Fox, Gaussian, Inc., Wallingford CT, 2010.
 
 ******************************************
 Gaussian 09:  EM64L-G09RevB.01 12-Aug-2010
                20-Jan-2016 
 ******************************************
 ------------------------------------------------
 # freq=raman b3lyp/6-31+g(d,p) geom=connectivity
 ------------------------------------------------
 1/10=4,30=1,38=1,57=2/1,3;
 2/12=2,17=6,18=5,40=1/2;
 3/5=1,6=6,7=111,11=2,16=1,25=1,30=1,71=2,74=-5/1,2,3;
 4//1;
 5/5=2,38=5,98=1/2;
 8/6=4,10=90,11=11/1;
 10/13=10,15=4/2;
 11/6=3,8=1,9=11,15=111,16=1/1,2,10;
 10/6=1/2;
 6/7=2,8=2,9=2,10=2,18=1,28=1/1;
 7/8=1,10=1,25=1/1,2,3,16;
 1/10=4,30=1/3;
 99//99;
 ------------
 280 8000.com
 ------------
 Symbolic Z-matrix:
 Charge =  0 Multiplicity = 1
 O                     7.475     7.579     12.377 
 C                     8.125     7.819     13.634 
 C                     7.592     9.163     14.102 
 O                     8.271     10.207    13.389 
 H                     8.183     9.832     12.466 
 C                     7.803     9.507     15.567 
 O                     6.949     10.574    16.007 
 H                     7.252     10.786    16.937 
 C                     8.136     5.447     14.31 
 O                     7.573     4.556     13.336 
 H                     7.693     3.638     13.716 
 C                     7.509     6.804     14.584 
 O                     7.849     7.101     15.946 
 C                     7.367     8.353     16.455 
 O                     8.187     8.464     17.627 
 C                     7.645     8.253     18.939 
 C                     8.415     7.009     19.353 
 O                     8.15      5.99      18.378 
 H                     8.334     6.443     17.506 
 C                     8.108     6.613     20.788 
 O                     8.784     5.437     21.256 
 H                     8.543     5.213     22.2 
 C                     7.574     10.668    19.504 
 O                     8.022     11.344    18.32 
 H                     8.142     12.329    18.444 
 C                     8.163     9.32      19.889 
 O                     7.724     8.947     21.203 
 C                     8.369     7.778     21.728 
 O                     7.84019   7.47831   23.02239 
 H                     8.13705   7.44862   11.69415 
 H                     6.54628   9.21558   13.88151 
 H                     9.19277   7.77115   13.58419 
 H                     6.44716   6.7622    14.45892 
 H                     8.15676   4.91923   15.24055 
 H                     9.15067   5.62479   14.02062 
 H                     6.31968   8.34976   16.6741 
 H                     8.82861   9.75082   15.75022 
 H                     6.58273   8.12595   18.95753 
 H                     9.23169   9.35922   19.85347 
 H                     7.74097   11.33098   20.32709 
 H                     6.51674   10.53376   19.4087 
 H                     9.42231   7.95129   21.80151 
 H                     7.05938   6.40506   20.83326 
 H                     9.45809   7.24164   19.30064 
 H                     8.56279   7.33575   23.63812 
 

 GradGradGradGradGradGradGradGradGradGradGradGradGradGradGradGradGradGrad
 Berny optimization.
 Initialization pass.
 Trust Radius=3.00D-01 FncErr=1.00D-07 GrdErr=1.00D-07
 Number of steps in this run=      2 maximum allowed number of steps=      2.
 GradGradGradGradGradGradGradGradGradGradGradGradGradGradGradGradGradGrad

                          Input orientation:                          
 ---------------------------------------------------------------------
 Center     Atomic      Atomic             Coordinates (Angstroms)
 Number     Number       Type             X           Y           Z
 ---------------------------------------------------------------------
      1          8           0        7.475000    7.579000   12.377000
      2          6           0        8.125000    7.819000   13.634000
      3          6           0        7.592000    9.163000   14.102000
      4          8           0        8.271000   10.207000   13.389000
      5          1           0        8.183000    9.832000   12.466000
      6          6           0        7.803000    9.507000   15.567000
      7          8           0        6.949000   10.574000   16.007000
      8          1           0        7.252000   10.786000   16.937000
      9          6           0        8.136000    5.447000   14.310000
     10          8           0        7.573000    4.556000   13.336000
     11          1           0        7.693000    3.638000   13.716000
     12          6           0        7.509000    6.804000   14.584000
     13          8           0        7.849000    7.101000   15.946000
     14          6           0        7.367000    8.353000   16.455000
     15          8           0        8.187000    8.464000   17.627000
     16          6           0        7.645000    8.253000   18.939000
     17          6           0        8.415000    7.009000   19.353000
     18          8           0        8.150000    5.990000   18.378000
     19          1           0        8.334000    6.443000   17.506000
     20          6           0        8.108000    6.613000   20.788000
     21          8           0        8.784000    5.437000   21.256000
     22          1           0        8.543000    5.213000   22.200000
     23          6           0        7.574000   10.668000   19.504000
     24          8           0        8.022000   11.344000   18.320000
     25          1           0        8.142000   12.329000   18.444000
     26          6           0        8.163000    9.320000   19.889000
     27          8           0        7.724000    8.947000   21.203000
     28          6           0        8.369000    7.778000   21.728000
     29          8           0        7.840192    7.478307   23.022390
     30          1           0        8.137052    7.448622   11.694147
     31          1           0        6.546284    9.215578   13.881514
     32          1           0        9.192768    7.771155   13.584185
     33          1           0        6.447159    6.762196   14.458916
     34          1           0        8.156760    4.919234   15.240555
     35          1           0        9.150666    5.624792   14.020616
     36          1           0        6.319677    8.349764   16.674097
     37          1           0        8.828614    9.750820   15.750217
     38          1           0        6.582732    8.125947   18.957535
     39          1           0        9.231690    9.359224   19.853470
     40          1           0        7.740965   11.330981   20.327091
     41          1           0        6.516740   10.533765   19.408702
     42          1           0        9.422312    7.951289   21.801514
     43          1           0        7.059376    6.405058   20.833263
     44          1           0        9.458090    7.241638   19.300637
     45          1           0        8.562794    7.335746   23.638119
 ---------------------------------------------------------------------
                    Distance matrix (angstroms):
                    1          2          3          4          5
     1  O    0.000000
     2  C    1.435322   0.000000
     3  C    2.344860   1.519687   0.000000
     4  O    2.926456   2.404971   1.435042   0.000000
     5  H    2.363302   2.328037   1.863689   1.000149   0.000000
     6  C    3.741773   2.586410   1.519566   2.335103   3.141055
     7  O    4.735356   3.821535   2.456297   2.955723   3.822565
     8  H    5.579263   4.524934   3.284350   3.736563   4.665482
     9  C    2.952767   2.466471   3.761364   4.850161   4.757181
    10  O    3.172982   3.322751   4.670285   5.694191   5.381931
    11  H    4.167964   4.204059   5.539388   6.602482   6.337842
    12  C    2.339365   1.520586   2.409169   3.686337   3.756193
    13  O    3.620238   2.436605   2.778170   4.045191   4.436250
    14  C    4.152207   2.969472   2.498666   3.695252   4.331907
    15  O    5.371468   4.045234   3.642561   4.583203   5.339229
    16  C    6.598714   5.344322   4.922142   5.917135   6.684491
    17  C    7.062087   5.783352   5.734984   6.768843   7.446739
    18  O    6.244401   5.084427   5.353828   6.533594   7.050801
    19  H    5.323065   4.114540   4.419975   5.578652   6.075337
    20  C    8.489921   7.254960   7.174354   8.227309   8.923187
    21  O    9.227041   8.012683   8.153751   9.214432   9.845879
    22  H   10.160212   8.963388   9.060050  10.131522  10.780330
    23  C    7.768259   6.548076   5.607758   6.171836   7.113594
    24  O    7.056464   5.864711   4.767933   5.066511   6.048254
    25  H    7.734073   6.593670   5.401761   5.483844   6.478671
    26  C    7.741742   6.432688   5.817221   6.561130   7.440663
    27  O    8.934859   7.663090   7.105511   7.933814   8.793695
    28  C    9.395746   8.097781   7.789598   8.686113   9.488844
    29  O   10.652128   9.398886   9.081473  10.021655  10.821033
    30  H    0.960000   1.974932   3.005650   3.240234   2.505665
    31  H    2.409245   2.122271   1.070000   2.049422   2.249999
    32  H    2.108304   1.070000   2.183535   2.611723   2.552852
    33  H    2.461300   2.147666   2.683637   4.042003   4.050747
    34  H    3.967253   3.315218   4.429990   5.603729   5.642173
    35  H    3.054219   2.452756   3.867167   4.708437   4.588443
    36  H    4.515960   3.575345   2.982590   4.248394   4.834985
    37  H    4.234107   2.950487   2.142747   2.468680   3.348058
    38  H    6.663237   5.550930   5.066588   6.179774   6.900108
    39  H    7.883702   6.502220   5.983853   6.590222   7.476495
    40  H    8.795001   7.568286   6.593488   7.048501   8.014929
    41  H    7.687245   6.580550   5.585362   6.278616   7.174260
    42  H    9.630788   8.270961   8.006298   8.785451   9.603374
    43  H    8.547471   7.413782   7.293821   8.446292   9.111397
    44  H    7.209938   5.849893   5.848055   6.719375   7.419440
    45  H   11.316151  10.025348   9.758016  10.647708  11.453898
                    6          7          8          9         10
     6  C    0.000000
     7  O    1.435759   0.000000
     8  H    1.953546   1.000826   0.000000
     9  C    4.263161   5.529458   6.015605   0.000000
    10  O    5.435316   6.613618   7.202995   1.435105   0.000000
    11  H    6.154954   7.342364   7.852594   1.954883   1.000762
    12  C    2.891182   4.068345   4.632384   1.519755   2.571984
    13  O    2.436102   3.588238   3.862346   2.344052   3.655858
    14  C    1.519986   2.303968   2.482949   3.692861   4.918110
    15  O    2.340706   2.934134   2.596538   4.484125   5.836278
    16  C    3.601092   3.803693   3.252467   5.435288   6.713166
    17  C    4.576936   5.104321   4.631992   5.286732   6.552134
    18  O    4.515686   5.298783   5.087681   4.104104   5.273618
    19  H    3.664666   4.607644   4.511777   3.353451   4.639913
    20  C    5.977215   6.315913   5.742549   6.582160   7.749179
    21  O    7.063426   7.570204   7.043620   6.976168   8.060340
    22  H    7.936166   8.344723   7.773299   7.903955   8.941087
    23  C    4.111001   3.553656   2.589806   7.385954   8.683362
    24  O    3.316857   2.663494   1.678378   7.132160   8.433196
    25  H    4.044222   3.231446   2.333238   8.028195   9.318527
    26  C    4.340997   4.256317   3.419559   6.791620   8.123152
    27  O    5.664304   5.499652   4.669418   7.741653   9.010736
    28  C    6.423995   6.524098   5.766232   7.779111   9.024443
    29  O    7.726566   7.719666   6.951171   8.950947  10.121138
    30  H    4.398579   5.457120   6.277652   3.293809   3.373589
    31  H    2.122528   2.554444   3.507172   4.112539   4.802437
    32  H    2.979290   4.331336   4.908894   2.654291   3.608665
    33  H    3.255780   4.144667   4.793712   2.145717   2.719514
    34  H    4.612950   5.832881   6.173772   1.070000   2.024857
    35  H    4.390791   5.769551   6.224813   1.070000   2.024857
    36  H    2.182912   2.405887   2.621753   4.161012   5.206376
    37  H    1.070000   2.067972   2.228399   4.590948   5.864398
    38  H    3.859027   3.851334   3.406811   5.584709   6.732518
    39  H    4.520710   4.634834   3.802718   6.872852   8.264359
    40  H    5.097962   4.456839   3.468257   8.425121   9.736731
    41  H    4.179400   3.429293   2.591051   7.382001   8.586447
    42  H    6.626581   6.824389   6.034015   8.003052   9.306603
    43  H    6.156992   6.378485   5.866057   6.680565   7.738977
    44  H    4.670250   5.314905   4.797512   5.465812   6.807577
    45  H    8.392532   8.445389   7.650322   9.526979  10.716358
                   11         12         13         14         15
    11  H    0.000000
    12  C    3.287984   0.000000
    13  O    4.121845   1.434870   0.000000
    14  C    5.462566   2.433147   1.434890   0.000000
    15  O    6.231391   3.532015   2.190382   1.434679   0.000000
    16  C    6.969954   4.591745   3.213529   2.501508   1.435141
    17  C    6.607624   4.858623   3.454920   3.362000   2.268939
    18  O    5.241660   3.932927   2.690640   3.145598   2.585739
    19  H    4.758467   3.057618   1.761190   2.384909   2.029949
    20  C    7.683491   6.235776   4.873417   4.727745   3.663927
    21  O    7.828045   6.928918   5.642625   5.793146   4.763274
    22  H    8.670720   7.848815   6.569528   6.651887   5.622105
    23  C    9.106921   6.256287   5.045640   3.833859   2.959141
    24  O    8.982622   5.901904   4.865065   3.585154   2.966795
    25  H    9.903992   6.769484   5.801537   4.512795   3.950663
    26  C    8.403092   5.907707   4.535395   3.655279   2.418668
    27  O    9.178323   6.960592   5.573095   4.798311   3.638054
    28  C    9.043712   7.261199   5.844677   5.398070   4.161961
    29  O   10.068690   8.471765   7.086447   6.642260   5.495644
    30  H    4.336579   3.026754   4.275754   4.906791   6.019322
    31  H    5.696642   2.689984   3.229646   2.835568   4.157582
    32  H    4.398824   2.184055   2.798748   3.451601   4.223264
    33  H    3.444509   1.070000   2.071561   2.713138   3.994990
    34  H    2.044725   2.098333   2.313541   3.726841   4.273336
    35  H    2.482926   2.098333   2.753294   4.068269   4.689964
    36  H    5.730364   2.858738   2.104368   1.070000   2.099517
    37  H    6.541730   3.432957   2.831876   2.141713   2.364294
    38  H    6.989138   4.661901   3.423929   2.632358   2.111464
    39  H    8.530446   6.104437   4.720141   4.004891   2.617245
    40  H   10.143509   7.316451   6.090843   4.899113   3.963460
    41  H    9.018981   6.178469   5.054612   3.768691   3.201274
    42  H    9.325798   7.554438   6.122528   5.742028   4.383541
    43  H    7.662474   6.278105   4.999318   4.801905   3.973776
    44  H    6.876766   5.122220   3.723243   3.702085   2.431234
    45  H   10.624421   9.130734   7.728732   7.352682   6.127620
                   16         17         18         19         20
    16  C    0.000000
    17  C    1.520471   0.000000
    18  O    2.385564   1.434995   0.000000
    19  H    2.409214   1.933475   0.999724   0.000000
    20  C    2.514512   1.519964   2.489577   3.294162   0.000000
    21  O    3.820427   2.495747   2.998441   3.908585   1.434913
    22  H    4.547760   3.368592   3.919931   4.856976   2.035428
    23  C    2.481228   3.757441   4.845961   4.735000   4.286821
    24  O    3.174834   4.473674   5.355844   4.977925   5.336739
    25  H    4.135917   5.403999   6.339349   5.963363   6.178038
    26  C    1.519642   2.385691   3.656801   3.739660   2.852906
    27  O    2.369298   2.766916   4.111685   4.506653   2.401507
    28  C    2.920329   2.496818   3.803604   4.428175   1.519522
    29  O    4.160808   3.743672   4.886860   5.634383   2.411012
    30  H    7.305959   7.676494   6.841172   5.901500   9.132211
    31  H    5.264209   6.188558   5.761479   4.901022   7.543999
    32  H    5.594802   5.870692   5.219247   4.228724   7.376516
    33  H    4.871188   5.280660   4.342255   3.598163   6.545072
    34  H    5.005436   4.620175   3.315139   2.735968   5.800463
    35  H    5.776246   5.558018   4.485700   3.672099   6.918179
    36  H    2.625953   3.655756   3.438293   2.895740   4.810265
    37  H    3.716550   4.546284   4.637837   3.777445   5.978667
    38  H    1.070000   2.182011   2.711911   2.829524   2.822420
    39  H    2.139526   2.537913   3.833893   3.849782   3.110912
    40  H    3.377865   4.481372   5.700206   5.674734   4.754629
    41  H    2.587562   4.003806   4.937174   4.863853   4.450502
    42  H    3.382877   2.810303   4.145585   4.680897   2.132051
    43  H    2.710365   2.096101   2.718464   3.563254   1.070000
    44  H    2.107352   1.070000   2.031983   2.263211   2.104799
    45  H    4.874979   4.300099   5.445208   6.200986   2.975295
                   21         22         23         24         25
    21  O    0.000000
    22  H    0.999696   0.000000
    23  C    5.647740   6.161526   0.000000
    24  O    6.640285   7.274270   1.435108   0.000000
    25  H    7.471223   8.056413   2.050645   1.000000   0.000000
    26  C    4.163174   4.727850   1.520608   2.564804   3.338045
    27  O    3.666948   3.950636   2.423003   3.761130   4.384601
    28  C    2.423900   2.613864   3.732332   4.944818   5.616742
    29  O    2.859693   2.510355   4.756477   6.090083   6.676973
    30  H    9.792558  10.748756   8.466122   7.686946   8.329383
    31  H    8.583011   9.444825   5.897294   5.138879   5.749434
    32  H    8.029453   9.011028   6.786482   6.046806   6.745062
    33  H    7.308716   8.168044   6.479040   6.195242   7.052850
    34  H    6.070181   6.976343   7.180869   7.125922   8.072602
    35  H    7.247103   8.212257   7.614941   7.243475   8.095069
    36  H    5.962459   6.731869   3.867285   3.817375   4.720989
    37  H    6.994618   7.891330   4.062777   3.129318   3.791427
    38  H    4.166409   4.779278   2.782673   3.582431   4.512282
    39  H    4.189434   4.813696   2.140785   2.784640   3.463178
    40  H    6.057211   6.448313   1.070000   2.026712   2.168617
    41  H    5.876222   6.340947   1.070000   2.026712   2.606721
    42  H    2.650788   2.903482   4.009408   5.058884   5.663608
    43  H    2.022417   2.343099   4.494936   5.624614   6.478715
    44  H    2.744916   3.655006   3.915496   4.455713   5.324207
    45  H    3.054286   2.564104   5.401164   6.681388   7.217238
                   26         27         28         29         30
    26  C    0.000000
    27  O    1.434729   0.000000
    28  C    2.408759   1.434647   0.000000
    29  O    3.648859   2.341098   1.430000   0.000000
    30  H    8.405852   9.635042  10.041937  11.332171   0.000000
    31  H    6.222103   7.420466   8.182681   9.394037   3.230673
    32  H    6.573434   7.847690   8.185375   9.539127   2.188791
    33  H    6.242779   7.203219   7.587155   8.705542   3.312230
    34  H    6.401158   7.208393   7.092569   8.197929   4.356053
    35  H    7.004854   8.041087   8.040590   9.283577   3.125096
    36  H    3.830770   4.779098   5.483482   6.585760   5.377250
    37  H    4.214045   5.621311   6.311668   7.682825   4.714878
    38  H    2.188753   2.649290   3.314710   4.303916   7.458651
    39  H    1.070000   2.065016   2.599686   3.939057   8.451224
    40  H    2.100972   2.539857   3.870485   4.702934   9.474034
    41  H    2.100972   2.682313   4.050216   4.913867   8.465098
    42  H    2.667761   2.057650   1.070000   2.053620  10.201149
    43  H    3.256763   2.653281   2.097770   2.560042   9.261417
    44  H    2.518535   3.087769   2.714018   4.065103   7.723126
    45  H    4.260633   3.038013   1.970203   0.960000  11.952091
                   31         32         33         34         35
    31  H    0.000000
    32  H    3.029627   0.000000
    33  H    2.522360   3.053117   0.000000
    34  H    4.785310   3.456924   2.632528   0.000000
    35  H    4.438006   2.190689   2.965593   1.724503   0.000000
    36  H    2.932491   4.258756   2.728306   4.147102   4.741406
    37  H    2.997927   2.956920   4.033691   4.904627   4.485460
    38  H    5.191783   5.984234   4.702741   5.155241   6.101084
    39  H    6.549527   6.467412   6.602983   6.492147   6.926380
    40  H    6.888226   7.761886   7.548723   8.194891   8.620875
    41  H    5.682280   6.979838   6.223340   7.182345   7.750294
    42  H    8.520350   8.222507   8.011194   7.337654   8.125808
    43  H    7.515923   7.678978   6.413631   5.889848   7.168993
    44  H    6.460801   5.747052   5.721699   4.855027   5.530581
    45  H   10.138611  10.083057   9.437301   8.747770   9.786181
                   36         37         38         39         40
    36  H    0.000000
    37  H    3.018489   0.000000
    38  H    2.309411   4.239231   0.000000
    39  H    4.428007   4.141558   3.056248   0.000000
    40  H    4.924640   4.962626   3.672797   2.516825   0.000000
    41  H    3.505247   4.397986   2.450611   2.991375   1.725607
    42  H    6.006291   6.341055   4.022678   2.411118   4.052552
    43  H    4.650559   6.337324   2.589789   3.795529   4.998550
    44  H    4.239846   4.392917   3.027773   2.200239   4.552456
    45  H    7.386299   8.253620   5.143242   4.343438   5.253591
                   41         42         43         44         45
    41  H    0.000000
    42  H    4.564765   0.000000
    43  H    4.401142   2.985265   0.000000
    44  H    4.416030   2.599860   2.966924   0.000000
    45  H    5.683452   2.119147   3.315670   4.429917   0.000000
 Stoichiometry    C12H22O11
 Framework group  C1[X(C12H22O11)]
 Deg. of freedom   129
 Full point group                 C1      NOp   1
 Largest Abelian subgroup         C1      NOp   1
 Largest concise Abelian subgroup C1      NOp   1
                         Standard orientation:                         
 ---------------------------------------------------------------------
 Center     Atomic      Atomic             Coordinates (Angstroms)
 Number     Number       Type             X           Y           Z
 ---------------------------------------------------------------------
      1          8           0        5.014572   -0.279250   -0.211283
      2          6           0        3.721465   -0.120320    0.391017
      3          6           0        3.242807    1.249356   -0.061003
      4          8           0        3.893018    2.254379    0.730516
      5          1           0        4.829205    1.909432    0.660786
      6          6           0        1.760371    1.540961    0.101578
      7          8           0        1.332845    2.660058   -0.689780
      8          1           0        0.383780    2.825734   -0.418707
      9          6           0        3.111549   -2.501501    0.187392
     10          8           0        4.135884   -3.322774   -0.392068
     11          1           0        3.776048   -4.256108   -0.361571
     12          6           0        2.830775   -1.106966   -0.347484
     13          8           0        1.446242   -0.869735   -0.054835
     14          6           0        0.926726    0.403319   -0.465135
     15          8           0       -0.286165    0.422543    0.300914
     16          6           0       -1.564095    0.222897   -0.320911
     17          6           0       -1.980290   -1.086483    0.330347
     18          8           0       -0.965825   -2.058376    0.037950
     19          1           0       -0.116595   -1.600310    0.299548
     20          6           0       -3.387275   -1.491643   -0.077731
     21          8           0       -3.854722   -2.727259    0.482378
     22          1           0       -4.779415   -2.954382    0.177826
     23          6           0       -2.191541    2.621986   -0.236215
     24          8           0       -1.049722    3.289327    0.320958
     25          1           0       -1.206558    4.258847    0.509197
     26          6           0       -2.567156    1.223647    0.228341
     27          8           0       -3.847584    0.854514   -0.303346
     28          6           0       -4.370637   -0.373085    0.223557
     29          8           0       -5.629170   -0.661734   -0.390997
     30          1           0        5.667963   -0.444155    0.472446
     31          1           0        3.512051    1.387952   -1.087258
     32          1           0        3.720906   -0.249460    1.453195
     33          1           0        3.008154   -1.063469   -1.401782
     34          1           0        2.196023   -3.051330    0.121062
     35          1           0        3.346518   -2.395921    1.225921
     36          1           0        0.758690    0.475926   -1.519361
     37          1           0        1.521117    1.700234    1.132252
     38          1           0       -1.527735    0.178033   -1.389352
     39          1           0       -2.584430    1.180879    1.297347
     40          1           0       -3.039752    3.250239   -0.060900
     41          1           0       -2.041569    2.572290   -1.294486
     42          1           0       -4.499748   -0.283639    1.281966
     43          1           0       -3.376026   -1.618824   -1.140086
     44          1           0       -1.984865   -0.934091    1.389429
     45          1           0       -6.274936   -0.874435    0.286753
 ---------------------------------------------------------------------
 Rotational constants (GHZ):      0.4155919      0.1469798      0.1116116
 Standard basis: 6-31+G(d,p) (6D, 7F)
 There are   547 symmetry adapted basis functions of A   symmetry.
 Integral buffers will be    131072 words long.
 Raffenetti 2 integral format.
 Two-electron integral symmetry is turned on.
   547 basis functions,   890 primitive gaussians,   547 cartesian basis functions
    91 alpha electrons       91 beta electrons
       nuclear repulsion energy      2300.3664349563 Hartrees.
 NAtoms=   45 NActive=   45 NUniq=   45 SFac= 1.00D+00 NAtFMM=   50 NAOKFM=F Big=F
 One-electron integrals computed using PRISM.
 NBasis=   547 RedAO= T  NBF=   547
 NBsUse=   547 1.00D-06 NBFU=   547
 Harris functional with IExCor=  402 diagonalized for initial guess.
 ExpMin= 4.38D-02 ExpMax= 5.48D+03 ExpMxC= 8.25D+02 IAcc=2 IRadAn=         0 AccDes= 0.00D+00
 HarFok:  IExCor=  402 AccDes= 0.00D+00 IRadAn=         0 IDoV= 1
 ScaDFX=  1.000000  1.000000  1.000000  1.000000
 FoFCou: FMM=F IPFlag=           0 FMFlag=      100000 FMFlg1=           0
         NFxFlg=           0 DoJE=T BraDBF=F KetDBF=T FulRan=T
         Omega=  0.000000  0.000000  1.000000  0.000000  0.000000 ICntrl=     500 IOpCl=  0
         NMat0=    1 NMatS0=    1 NMatT0=    0 NMatD0=    1 NMtDS0=    0 NMtDT0=    0
         I1Cent=           4 NGrid=           0.
 Petite list used in FoFCou.
 Initial guess orbital symmetries:
       Occupied  (A) (A) (A) (A) (A) (A) (A) (A) (A) (A) (A) (A)
                 (A) (A) (A) (A) (A) (A) (A) (A) (A) (A) (A) (A)
                 (A) (A) (A) (A) (A) (A) (A) (A) (A) (A) (A) (A)
                 (A) (A) (A) (A) (A) (A) (A) (A) (A) (A) (A) (A)
                 (A) (A) (A) (A) (A) (A) (A) (A) (A) (A) (A) (A)
                 (A) (A) (A) (A) (A) (A) (A) (A) (A) (A) (A) (A)
                 (A) (A) (A) (A) (A) (A) (A) (A) (A) (A) (A) (A)
                 (A) (A) (A) (A) (A) (A) (A)
       Virtual   (A) (A) (A) (A) (A) (A) (A) (A) (A) (A) (A) (A)
                 (A) (A) (A) (A) (A) (A) (A) (A) (A) (A) (A) (A)
                 (A) (A) (A) (A) (A) (A) (A) (A) (A) (A) (A) (A)
                 (A) (A) (A) (A) (A) (A) (A) (A) (A) (A) (A) (A)
                 (A) (A) (A) (A) (A) (A) (A) (A) (A) (A) (A) (A)
                 (A) (A) (A) (A) (A) (A) (A) (A) (A) (A) (A) (A)
                 (A) (A) (A) (A) (A) (A) (A) (A) (A) (A) (A) (A)
                 (A) (A) (A) (A) (A) (A) (A) (A) (A) (A) (A) (A)
                 (A) (A) (A) (A) (A) (A) (A) (A) (A) (A) (A) (A)
                 (A) (A) (A) (A) (A) (A) (A) (A) (A) (A) (A) (A)
                 (A) (A) (A) (A) (A) (A) (A) (A) (A) (A) (A) (A)
                 (A) (A) (A) (A) (A) (A) (A) (A) (A) (A) (A) (A)
                 (A) (A) (A) (A) (A) (A) (A) (A) (A) (A) (A) (A)
                 (A) (A) (A) (A) (A) (A) (A) (A) (A) (A) (A) (A)
                 (A) (A) (A) (A) (A) (A) (A) (A) (A) (A) (A) (A)
                 (A) (A) (A) (A) (A) (A) (A) (A) (A) (A) (A) (A)
                 (A) (A) (A) (A) (A) (A) (A) (A) (A) (A) (A) (A)
                 (A) (A) (A) (A) (A) (A) (A) (A) (A) (A) (A) (A)
                 (A) (A) (A) (A) (A) (A) (A) (A) (A) (A) (A) (A)
                 (A) (A) (A) (A) (A) (A) (A) (A) (A) (A) (A) (A)
                 (A) (A) (A) (A) (A) (A) (A) (A) (A) (A) (A) (A)
                 (A) (A) (A) (A) (A) (A) (A) (A) (A) (A) (A) (A)
                 (A) (A) (A) (A) (A) (A) (A) (A) (A) (A) (A) (A)
                 (A) (A) (A) (A) (A) (A) (A) (A) (A) (A) (A) (A)
                 (A) (A) (A) (A) (A) (A) (A) (A) (A) (A) (A) (A)
                 (A) (A) (A) (A) (A) (A) (A) (A) (A) (A) (A) (A)
                 (A) (A) (A) (A) (A) (A) (A) (A) (A) (A) (A) (A)
                 (A) (A) (A) (A) (A) (A) (A) (A) (A) (A) (A) (A)
                 (A) (A) (A) (A) (A) (A) (A) (A) (A) (A) (A) (A)
                 (A) (A) (A) (A) (A) (A) (A) (A) (A) (A) (A) (A)
                 (A) (A) (A) (A) (A) (A) (A) (A) (A) (A) (A) (A)
                 (A) (A) (A) (A) (A) (A) (A) (A) (A) (A) (A) (A)
                 (A) (A) (A) (A) (A) (A) (A) (A) (A) (A) (A) (A)
                 (A) (A) (A) (A) (A) (A) (A) (A) (A) (A) (A) (A)
                 (A) (A) (A) (A) (A) (A) (A) (A) (A) (A) (A) (A)
                 (A) (A) (A) (A) (A) (A) (A) (A) (A) (A) (A) (A)
                 (A) (A) (A) (A) (A) (A) (A) (A) (A) (A) (A) (A)
                 (A) (A) (A) (A) (A) (A) (A) (A) (A) (A) (A) (A)
 The electronic state of the initial guess is 1-A.
 Requested convergence on RMS density matrix=1.00D-08 within 128 cycles.
 Requested convergence on MAX density matrix=1.00D-06.
 Requested convergence on             energy=1.00D-06.
 No special actions if energy rises.
 SCF Done:  E(RB3LYP) =  -1297.92640065     A.U. after   13 cycles
             Convg  =    0.6588D-08             -V/T =  2.0085
 Range of M.O.s used for correlation:     1   547
 NBasis=   547 NAE=    91 NBE=    91 NFC=     0 NFV=     0
 NROrb=    547 NOA=    91 NOB=    91 NVA=   456 NVB=   456

 **** Warning!!: The largest alpha MO coefficient is  0.90382231D+02

          Differentiating once with respect to electric field.
                with respect to dipole field.
          Electric field/nuclear overlap derivatives assumed to be zero.
          There are     3 degrees of freedom in the 1st order CPHF.  IDoFFX=0.
      3 vectors produced by pass  0 Test12= 1.38D-12 3.33D-08 XBig12= 1.19D+02 1.18D+00.
 AX will form     3 AO Fock derivatives at one time.
      3 vectors produced by pass  1 Test12= 1.38D-12 3.33D-08 XBig12= 2.18D+01 4.13D-01.
      3 vectors produced by pass  2 Test12= 1.38D-12 3.33D-08 XBig12= 9.24D+00 2.29D-01.
      3 vectors produced by pass  3 Test12= 1.38D-12 3.33D-08 XBig12= 1.15D+00 1.04D-01.
      3 vectors produced by pass  4 Test12= 1.38D-12 3.33D-08 XBig12= 3.54D-01 5.02D-02.
      3 vectors produced by pass  5 Test12= 1.38D-12 3.33D-08 XBig12= 5.94D-02 2.40D-02.
      3 vectors produced by pass  6 Test12= 1.38D-12 3.33D-08 XBig12= 2.23D-02 2.03D-02.
      3 vectors produced by pass  7 Test12= 1.38D-12 3.33D-08 XBig12= 2.26D-03 7.85D-03.
      3 vectors produced by pass  8 Test12= 1.38D-12 3.33D-08 XBig12= 5.11D-04 2.83D-03.
      3 vectors produced by pass  9 Test12= 1.38D-12 3.33D-08 XBig12= 1.03D-04 1.43D-03.
      3 vectors produced by pass 10 Test12= 1.38D-12 3.33D-08 XBig12= 3.55D-05 6.60D-04.
      3 vectors produced by pass 11 Test12= 1.38D-12 3.33D-08 XBig12= 8.83D-06 3.51D-04.
      3 vectors produced by pass 12 Test12= 1.38D-12 3.33D-08 XBig12= 8.53D-07 9.31D-05.
      3 vectors produced by pass 13 Test12= 1.38D-12 3.33D-08 XBig12= 1.58D-07 2.76D-05.
      3 vectors produced by pass 14 Test12= 1.38D-12 3.33D-08 XBig12= 2.27D-08 9.89D-06.
      3 vectors produced by pass 15 Test12= 1.38D-12 3.33D-08 XBig12= 6.59D-09 6.36D-06.
      3 vectors produced by pass 16 Test12= 1.38D-12 3.33D-08 XBig12= 4.88D-10 1.81D-06.
      3 vectors produced by pass 17 Test12= 1.38D-12 3.33D-08 XBig12= 1.11D-10 7.08D-07.
      3 vectors produced by pass 18 Test12= 1.38D-12 3.33D-08 XBig12= 3.32D-11 4.26D-07.
      3 vectors produced by pass 19 Test12= 1.38D-12 3.33D-08 XBig12= 7.21D-12 2.43D-07.
      2 vectors produced by pass 20 Test12= 1.38D-12 3.33D-08 XBig12= 2.88D-12 1.64D-07.
      2 vectors produced by pass 21 Test12= 1.38D-12 3.33D-08 XBig12= 1.12D-12 9.41D-08.
 Inverted reduced A of dimension    64 with in-core refinement.
 End of Minotr Frequency-dependent properties file   721 does not exist.
 End of Minotr Frequency-dependent properties file   722 does not exist.
 Symmetrizing basis deriv contribution to polar:
 IMax=3 JMax=2 DiffMx= 0.00D+00
 G2DrvN: will do    23 centers at a time, making    2 passes doing MaxLOS=2.
 Calling FoFCou, ICntrl=  3107 FMM=F I1Cent=   0 AccDes= 0.00D+00.
 Calling FoFCou, ICntrl=  3107 FMM=F I1Cent=   0 AccDes= 0.00D+00.
 FoFDir/FoFCou used for L=0 through L=2.
 End of G2Drv Frequency-dependent properties file   721 does not exist.
 End of G2Drv Frequency-dependent properties file   722 does not exist.
          IDoAtm=111111111111111111111111111111111111111111111
          Differentiating once with respect to electric field.
                with respect to dipole field.
          Differentiating once with respect to nuclear coordinates.
          There are   138 degrees of freedom in the 1st order CPHF.  IDoFFX=5.
 Will reuse    3 saved solutions.
    135 vectors produced by pass  0 Test12= 4.15D-14 1.00D-09 XBig12= 1.80D-01 7.79D-02.
 AX will form    68 AO Fock derivatives at one time.
    135 vectors produced by pass  1 Test12= 4.15D-14 1.00D-09 XBig12= 2.86D-02 1.72D-02.
    132 vectors produced by pass  2 Test12= 4.15D-14 1.00D-09 XBig12= 2.51D-04 1.65D-03.
    132 vectors produced by pass  3 Test12= 4.15D-14 1.00D-09 XBig12= 8.83D-07 7.89D-05.
    132 vectors produced by pass  4 Test12= 4.15D-14 1.00D-09 XBig12= 1.13D-09 2.42D-06.
    131 vectors produced by pass  5 Test12= 4.15D-14 1.00D-09 XBig12= 3.13D-12 1.49D-07.
     79 vectors produced by pass  6 Test12= 4.15D-14 1.00D-09 XBig12= 1.13D-13 2.13D-08.
      1 vectors produced by pass  7 Test12= 4.15D-14 1.00D-09 XBig12= 2.36D-16 1.01D-09.
 Inverted reduced A of dimension   877 with in-core refinement.
 Isotropic polarizability for W=    0.000000      186.52 Bohr**3.
 End of Minotr Frequency-dependent properties file   721 does not exist.
 End of Minotr Frequency-dependent properties file   722 does not exist.

 **********************************************************************

            Population analysis using the SCF density.

 **********************************************************************

 Orbital symmetries:
       Occupied  (A) (A) (A) (A) (A) (A) (A) (A) (A) (A) (A) (A)
                 (A) (A) (A) (A) (A) (A) (A) (A) (A) (A) (A) (A)
                 (A) (A) (A) (A) (A) (A) (A) (A) (A) (A) (A) (A)
                 (A) (A) (A) (A) (A) (A) (A) (A) (A) (A) (A) (A)
                 (A) (A) (A) (A) (A) (A) (A) (A) (A) (A) (A) (A)
                 (A) (A) (A) (A) (A) (A) (A) (A) (A) (A) (A) (A)
                 (A) (A) (A) (A) (A) (A) (A) (A) (A) (A) (A) (A)
                 (A) (A) (A) (A) (A) (A) (A)
       Virtual   (A) (A) (A) (A) (A) (A) (A) (A) (A) (A) (A) (A)
                 (A) (A) (A) (A) (A) (A) (A) (A) (A) (A) (A) (A)
                 (A) (A) (A) (A) (A) (A) (A) (A) (A) (A) (A) (A)
                 (A) (A) (A) (A) (A) (A) (A) (A) (A) (A) (A) (A)
                 (A) (A) (A) (A) (A) (A) (A) (A) (A) (A) (A) (A)
                 (A) (A) (A) (A) (A) (A) (A) (A) (A) (A) (A) (A)
                 (A) (A) (A) (A) (A) (A) (A) (A) (A) (A) (A) (A)
                 (A) (A) (A) (A) (A) (A) (A) (A) (A) (A) (A) (A)
                 (A) (A) (A) (A) (A) (A) (A) (A) (A) (A) (A) (A)
                 (A) (A) (A) (A) (A) (A) (A) (A) (A) (A) (A) (A)
                 (A) (A) (A) (A) (A) (A) (A) (A) (A) (A) (A) (A)
                 (A) (A) (A) (A) (A) (A) (A) (A) (A) (A) (A) (A)
                 (A) (A) (A) (A) (A) (A) (A) (A) (A) (A) (A) (A)
                 (A) (A) (A) (A) (A) (A) (A) (A) (A) (A) (A) (A)
                 (A) (A) (A) (A) (A) (A) (A) (A) (A) (A) (A) (A)
                 (A) (A) (A) (A) (A) (A) (A) (A) (A) (A) (A) (A)
                 (A) (A) (A) (A) (A) (A) (A) (A) (A) (A) (A) (A)
                 (A) (A) (A) (A) (A) (A) (A) (A) (A) (A) (A) (A)
                 (A) (A) (A) (A) (A) (A) (A) (A) (A) (A) (A) (A)
                 (A) (A) (A) (A) (A) (A) (A) (A) (A) (A) (A) (A)
                 (A) (A) (A) (A) (A) (A) (A) (A) (A) (A) (A) (A)
                 (A) (A) (A) (A) (A) (A) (A) (A) (A) (A) (A) (A)
                 (A) (A) (A) (A) (A) (A) (A) (A) (A) (A) (A) (A)
                 (A) (A) (A) (A) (A) (A) (A) (A) (A) (A) (A) (A)
                 (A) (A) (A) (A) (A) (A) (A) (A) (A) (A) (A) (A)
                 (A) (A) (A) (A) (A) (A) (A) (A) (A) (A) (A) (A)
                 (A) (A) (A) (A) (A) (A) (A) (A) (A) (A) (A) (A)
                 (A) (A) (A) (A) (A) (A) (A) (A) (A) (A) (A) (A)
                 (A) (A) (A) (A) (A) (A) (A) (A) (A) (A) (A) (A)
                 (A) (A) (A) (A) (A) (A) (A) (A) (A) (A) (A) (A)
                 (A) (A) (A) (A) (A) (A) (A) (A) (A) (A) (A) (A)
                 (A) (A) (A) (A) (A) (A) (A) (A) (A) (A) (A) (A)
                 (A) (A) (A) (A) (A) (A) (A) (A) (A) (A) (A) (A)
                 (A) (A) (A) (A) (A) (A) (A) (A) (A) (A) (A) (A)
                 (A) (A) (A) (A) (A) (A) (A) (A) (A) (A) (A) (A)
                 (A) (A) (A) (A) (A) (A) (A) (A) (A) (A) (A) (A)
                 (A) (A) (A) (A) (A) (A) (A) (A) (A) (A) (A) (A)
                 (A) (A) (A) (A) (A) (A) (A) (A) (A) (A) (A) (A)
 The electronic state is 1-A.
 Alpha  occ. eigenvalues --  -19.20352 -19.19442 -19.19025 -19.18582 -19.18421
 Alpha  occ. eigenvalues --  -19.18387 -19.16808 -19.16609 -19.15921 -19.13833
 Alpha  occ. eigenvalues --  -19.13497 -10.31380 -10.30408 -10.26771 -10.26147
 Alpha  occ. eigenvalues --  -10.25631 -10.25596 -10.25472 -10.24691 -10.23964
 Alpha  occ. eigenvalues --  -10.23892 -10.23855 -10.23811  -1.10182  -1.09265
 Alpha  occ. eigenvalues --   -1.06153  -1.05960  -1.04335  -1.03663  -1.02617
 Alpha  occ. eigenvalues --   -1.02322  -1.02217  -1.00432  -0.99519  -0.82711
 Alpha  occ. eigenvalues --   -0.80196  -0.79388  -0.77678  -0.72159  -0.69797
 Alpha  occ. eigenvalues --   -0.67366  -0.64478  -0.63380  -0.62509  -0.61418
 Alpha  occ. eigenvalues --   -0.60219  -0.56734  -0.56359  -0.55977  -0.54604
 Alpha  occ. eigenvalues --   -0.54077  -0.53636  -0.52511  -0.51774  -0.50772
 Alpha  occ. eigenvalues --   -0.50654  -0.50164  -0.49799  -0.48127  -0.46654
 Alpha  occ. eigenvalues --   -0.46435  -0.44806  -0.44165  -0.43792  -0.43087
 Alpha  occ. eigenvalues --   -0.42686  -0.41830  -0.40950  -0.40506  -0.39192
 Alpha  occ. eigenvalues --   -0.38512  -0.37829  -0.37705  -0.37115  -0.36404
 Alpha  occ. eigenvalues --   -0.35833  -0.34710  -0.34346  -0.34028  -0.33249
 Alpha  occ. eigenvalues --   -0.32767  -0.32067  -0.31100  -0.30286  -0.29825
 Alpha  occ. eigenvalues --   -0.29188  -0.28563  -0.27636  -0.27618  -0.25996
 Alpha  occ. eigenvalues --   -0.25669
 Alpha virt. eigenvalues --   -0.02403  -0.02153  -0.01870  -0.00256   0.00214
 Alpha virt. eigenvalues --    0.00930   0.01771   0.02268   0.03001   0.03558
 Alpha virt. eigenvalues --    0.03857   0.04321   0.04786   0.05436   0.05688
 Alpha virt. eigenvalues --    0.06203   0.06580   0.07620   0.07927   0.08187
 Alpha virt. eigenvalues --    0.08522   0.08634   0.09351   0.09545   0.09906
 Alpha virt. eigenvalues --    0.10381   0.10707   0.10983   0.11703   0.11973
 Alpha virt. eigenvalues --    0.12757   0.13110   0.13357   0.13797   0.14037
 Alpha virt. eigenvalues --    0.14381   0.14548   0.14709   0.15029   0.15511
 Alpha virt. eigenvalues --    0.15715   0.16167   0.16673   0.16965   0.17274
 Alpha virt. eigenvalues --    0.17412   0.17503   0.18024   0.18226   0.18411
 Alpha virt. eigenvalues --    0.18967   0.19186   0.19389   0.19830   0.20177
 Alpha virt. eigenvalues --    0.20436   0.20903   0.21261   0.21545   0.22207
 Alpha virt. eigenvalues --    0.22279   0.22486   0.23061   0.23235   0.23524
 Alpha virt. eigenvalues --    0.23683   0.23897   0.24359   0.24603   0.24842
 Alpha virt. eigenvalues --    0.25109   0.25533   0.25777   0.25835   0.26148
 Alpha virt. eigenvalues --    0.26298   0.26389   0.26610   0.27460   0.27630
 Alpha virt. eigenvalues --    0.28080   0.28235   0.28453   0.28893   0.29167
 Alpha virt. eigenvalues --    0.29453   0.29695   0.30130   0.30263   0.31060
 Alpha virt. eigenvalues --    0.31229   0.31448   0.31663   0.32267   0.32562
 Alpha virt. eigenvalues --    0.32629   0.32894   0.33545   0.33915   0.34134
 Alpha virt. eigenvalues --    0.34670   0.35397   0.35821   0.36018   0.36335
 Alpha virt. eigenvalues --    0.36711   0.36745   0.37092   0.37350   0.37935
 Alpha virt. eigenvalues --    0.38186   0.38500   0.39177   0.39216   0.39705
 Alpha virt. eigenvalues --    0.40275   0.41007   0.41618   0.42155   0.42282
 Alpha virt. eigenvalues --    0.42523   0.42941   0.43276   0.43438   0.43903
 Alpha virt. eigenvalues --    0.44836   0.44922   0.45688   0.46449   0.47070
 Alpha virt. eigenvalues --    0.47360   0.47409   0.48346   0.49588   0.50978
 Alpha virt. eigenvalues --    0.52325   0.52775   0.57830   0.63705   0.64588
 Alpha virt. eigenvalues --    0.65164   0.65566   0.68104   0.68734   0.70294
 Alpha virt. eigenvalues --    0.71514   0.71806   0.73184   0.73963   0.74711
 Alpha virt. eigenvalues --    0.76320   0.76671   0.77609   0.78417   0.79575
 Alpha virt. eigenvalues --    0.80006   0.80894   0.81710   0.83006   0.83576
 Alpha virt. eigenvalues --    0.85172   0.86823   0.87403   0.89366   0.89930
 Alpha virt. eigenvalues --    0.91125   0.92089   0.93145   0.94049   0.95287
 Alpha virt. eigenvalues --    0.96172   0.96585   0.96997   0.98816   0.99918
 Alpha virt. eigenvalues --    1.01289   1.02544   1.03302   1.03508   1.04085
 Alpha virt. eigenvalues --    1.04567   1.04644   1.07044   1.07317   1.08050
 Alpha virt. eigenvalues --    1.08492   1.08619   1.09424   1.09974   1.10657
 Alpha virt. eigenvalues --    1.11334   1.11565   1.12777   1.13948   1.14971
 Alpha virt. eigenvalues --    1.16568   1.17782   1.19677   1.20466   1.22132
 Alpha virt. eigenvalues --    1.22864   1.23707   1.24312   1.25167   1.25683
 Alpha virt. eigenvalues --    1.26416   1.26666   1.27687   1.28389   1.29086
 Alpha virt. eigenvalues --    1.29362   1.29842   1.30408   1.30857   1.31828
 Alpha virt. eigenvalues --    1.32299   1.32952   1.33348   1.34804   1.36123
 Alpha virt. eigenvalues --    1.36235   1.36873   1.37789   1.38383   1.39936
 Alpha virt. eigenvalues --    1.40455   1.40979   1.42201   1.42675   1.43259
 Alpha virt. eigenvalues --    1.44171   1.44813   1.46021   1.47062   1.48073
 Alpha virt. eigenvalues --    1.48595   1.48992   1.50682   1.52379   1.52522
 Alpha virt. eigenvalues --    1.53763   1.55416   1.56142   1.56772   1.57245
 Alpha virt. eigenvalues --    1.58545   1.58729   1.59572   1.60383   1.61418
 Alpha virt. eigenvalues --    1.62131   1.64445   1.64992   1.65310   1.66638
 Alpha virt. eigenvalues --    1.67053   1.67749   1.68917   1.69642   1.70216
 Alpha virt. eigenvalues --    1.70604   1.72137   1.72582   1.73437   1.73608
 Alpha virt. eigenvalues --    1.74691   1.75417   1.76655   1.77435   1.77905
 Alpha virt. eigenvalues --    1.78400   1.79147   1.80073   1.81886   1.82257
 Alpha virt. eigenvalues --    1.83415   1.84311   1.84972   1.86189   1.86249
 Alpha virt. eigenvalues --    1.86697   1.88251   1.89521   1.90134   1.91009
 Alpha virt. eigenvalues --    1.92126   1.92979   1.93341   1.94415   1.95389
 Alpha virt. eigenvalues --    1.96183   1.96902   1.97912   1.99038   1.99130
 Alpha virt. eigenvalues --    2.00187   2.00886   2.01744   2.02463   2.03431
 Alpha virt. eigenvalues --    2.04590   2.04954   2.06310   2.06976   2.07825
 Alpha virt. eigenvalues --    2.08587   2.09023   2.10354   2.10593   2.11246
 Alpha virt. eigenvalues --    2.13423   2.14332   2.15007   2.16113   2.17335
 Alpha virt. eigenvalues --    2.18667   2.19107   2.20013   2.20347   2.21263
 Alpha virt. eigenvalues --    2.23039   2.24139   2.25010   2.27041   2.29196
 Alpha virt. eigenvalues --    2.30901   2.31835   2.33282   2.34000   2.36000
 Alpha virt. eigenvalues --    2.36781   2.37427   2.39008   2.39369   2.41153
 Alpha virt. eigenvalues --    2.41467   2.42268   2.42472   2.44782   2.45133
 Alpha virt. eigenvalues --    2.45679   2.47968   2.48782   2.49423   2.50681
 Alpha virt. eigenvalues --    2.51515   2.52910   2.53766   2.55417   2.55629
 Alpha virt. eigenvalues --    2.56300   2.57886   2.58614   2.59760   2.60726
 Alpha virt. eigenvalues --    2.61488   2.62108   2.62992   2.63891   2.65080
 Alpha virt. eigenvalues --    2.65202   2.66362   2.69080   2.69877   2.70482
 Alpha virt. eigenvalues --    2.71419   2.73531   2.74445   2.74871   2.76700
 Alpha virt. eigenvalues --    2.76793   2.78253   2.79672   2.80475   2.81056
 Alpha virt. eigenvalues --    2.81648   2.82732   2.84008   2.84325   2.84748
 Alpha virt. eigenvalues --    2.86273   2.86700   2.87653   2.88519   2.89330
 Alpha virt. eigenvalues --    2.90540   2.91802   2.93534   2.94446   2.94902
 Alpha virt. eigenvalues --    2.96830   2.97872   2.98353   3.00176   3.00892
 Alpha virt. eigenvalues --    3.01817   3.02713   3.04075   3.05039   3.05892
 Alpha virt. eigenvalues --    3.07730   3.08701   3.10276   3.11331   3.12775
 Alpha virt. eigenvalues --    3.14952   3.15870   3.25044   3.27073   3.28180
 Alpha virt. eigenvalues --    3.34769   3.37705   3.38216   3.39034   3.41616
 Alpha virt. eigenvalues --    3.42522   3.44776   3.45326   3.47382   3.48599
 Alpha virt. eigenvalues --    3.49584   3.50127   3.52111   3.53213   3.54556
 Alpha virt. eigenvalues --    3.56421   3.57634   3.59917   3.60793   3.61837
 Alpha virt. eigenvalues --    3.64055   3.72734   3.73327   4.31861   4.33676
 Alpha virt. eigenvalues --    4.35110   4.37862   4.38449   4.40836   4.48161
 Alpha virt. eigenvalues --    4.48460   4.50577   4.52023   4.53920   4.56877
 Alpha virt. eigenvalues --    4.60624   4.62737   4.65255   4.71038   4.73178
 Alpha virt. eigenvalues --    4.78149   4.83540   4.87924   4.89424   4.92545
 Alpha virt. eigenvalues --    4.99400
          Condensed to atoms (all electrons):
              1          2          3          4          5          6
     1  O    8.321880   0.145365   0.020793  -0.029182   0.033577   0.024461
     2  C    0.145365   9.926904  -2.291683   0.061171  -0.081697  -2.061651
     3  C    0.020793  -2.291683  10.255638   0.007701   0.086810  -1.053737
     4  O   -0.029182   0.061171   0.007701   8.287065   0.169649  -0.042733
     5  H    0.033577  -0.081697   0.086810   0.169649   0.469714  -0.015380
     6  C    0.024461  -2.061651  -1.053737  -0.042733  -0.015380  11.157712
     7  O   -0.001535   0.071161  -0.147565   0.002046  -0.000454   0.264561
     8  H    0.000037  -0.013157   0.037537  -0.000584   0.000025  -0.008696
     9  C    0.071510   0.549645  -0.433831   0.020970  -0.000990   0.042556
    10  O    0.008181  -0.025110   0.014792   0.000015  -0.000028  -0.003653
    11  H   -0.000227  -0.001753  -0.002257   0.000003   0.000000   0.000592
    12  C   -0.259276  -1.967016  -0.146115  -0.039662   0.044045   0.912008
    13  O    0.014400  -0.044198   0.007741   0.000051   0.000568  -0.214599
    14  C   -0.001811   0.832970   0.090924   0.085143  -0.024915  -3.100752
    15  O   -0.000213  -0.041837   0.044895  -0.000755   0.000099   0.080603
    16  C   -0.000753   0.191692  -0.286711  -0.002760   0.000451  -0.036962
    17  C    0.000274  -0.043650   0.077277  -0.000115   0.000088   0.030173
    18  O    0.000045   0.010875  -0.003987   0.000011   0.000000   0.015554
    19  H   -0.000012  -0.013089   0.008538   0.000014   0.000000   0.002966
    20  C    0.000030   0.002034  -0.021372  -0.000088   0.000003   0.066662
    21  O    0.000000  -0.000045  -0.000055   0.000000   0.000000  -0.000655
    22  H    0.000000   0.000001   0.000003   0.000000   0.000000  -0.000031
    23  C    0.000063   0.016893   0.012777   0.000808   0.000004  -0.224584
    24  O    0.000005   0.005987  -0.026595   0.000303  -0.000017  -0.051045
    25  H    0.000000  -0.000041   0.002405   0.000006   0.000000   0.003220
    26  C   -0.000145   0.049210  -0.095217   0.000999  -0.000057  -0.081041
    27  O    0.000000  -0.000150   0.001198   0.000000   0.000000   0.008879
    28  C   -0.000002   0.000004  -0.001509  -0.000011   0.000000  -0.004475
    29  O    0.000000  -0.000004   0.000075   0.000000   0.000000  -0.000197
    30  H    0.226353   0.096219  -0.058129   0.001510  -0.003568   0.003330
    31  H   -0.014471   0.206853   0.158961  -0.034987  -0.006573  -0.161878
    32  H   -0.035361   0.401297  -0.084223   0.000966  -0.001981   0.023768
    33  H    0.005753   0.011686  -0.058803  -0.000181  -0.000026   0.003864
    34  H    0.000450  -0.031088  -0.000460   0.000040   0.000000   0.001290
    35  H    0.001152   0.005731  -0.006419  -0.000071   0.000008   0.004140
    36  H   -0.000030   0.033344  -0.066712  -0.000813   0.000008   0.008720
    37  H   -0.000860   0.092927  -0.216293   0.001418   0.000121   0.385976
    38  H   -0.000002  -0.001524   0.006117   0.000002   0.000000   0.001049
    39  H    0.000000  -0.000458   0.002334   0.000001   0.000000   0.002455
    40  H    0.000000   0.000051  -0.000024   0.000000   0.000000   0.002550
    41  H    0.000000  -0.000320   0.001317   0.000001   0.000000  -0.001554
    42  H    0.000000  -0.000016   0.000021   0.000000   0.000000  -0.000020
    43  H    0.000000   0.000003   0.000212   0.000000   0.000000   0.000702
    44  H    0.000000   0.000539   0.001611   0.000000   0.000000   0.006378
    45  H    0.000000   0.000000   0.000000   0.000000   0.000000   0.000003
              7          8          9         10         11         12
     1  O   -0.001535   0.000037   0.071510   0.008181  -0.000227  -0.259276
     2  C    0.071161  -0.013157   0.549645  -0.025110  -0.001753  -1.967016
     3  C   -0.147565   0.037537  -0.433831   0.014792  -0.002257  -0.146115
     4  O    0.002046  -0.000584   0.020970   0.000015   0.000003  -0.039662
     5  H   -0.000454   0.000025  -0.000990  -0.000028   0.000000   0.044045
     6  C    0.264561  -0.008696   0.042556  -0.003653   0.000592   0.912008
     7  O    8.283401   0.206264  -0.001043   0.000015   0.000001   0.001125
     8  H    0.206264   0.355833   0.000785   0.000000   0.000000   0.002745
     9  C   -0.001043   0.000785   7.968992   0.169154   0.014456  -3.105868
    10  O    0.000015   0.000000   0.169154   8.270787   0.205639  -0.024089
    11  H    0.000001   0.000000   0.014456   0.205639   0.444930   0.010527
    12  C    0.001125   0.002745  -3.105868  -0.024089   0.010527  12.089812
    13  O    0.013874   0.000445   0.100567   0.002187  -0.000902  -0.263522
    14  C   -0.103882   0.017319  -0.260393   0.001724  -0.004924  -1.177568
    15  O   -0.013492   0.013856  -0.022544  -0.000166   0.000008   0.050649
    16  C    0.027852  -0.018995  -0.096743  -0.001462   0.000139   0.085302
    17  C   -0.001949   0.003843  -0.030498  -0.000023  -0.000080  -0.075622
    18  O   -0.000061  -0.000053   0.011025   0.000012   0.000000  -0.034624
    19  H   -0.000048  -0.000009  -0.003611  -0.000071  -0.000003   0.011896
    20  C    0.003830  -0.000111  -0.001816   0.000109   0.000047  -0.002299
    21  O   -0.000005   0.000000   0.000289   0.000000   0.000000  -0.000333
    22  H    0.000000   0.000000  -0.000003   0.000000   0.000000   0.000024
    23  C    0.027576   0.030526   0.001338  -0.000011   0.000000  -0.000568
    24  O   -0.026307  -0.015234   0.000177   0.000000   0.000000  -0.001408
    25  H    0.001509  -0.000511  -0.000009   0.000000   0.000000  -0.000064
    26  C   -0.016441  -0.046239  -0.004152  -0.000016   0.000004   0.009268
    27  O   -0.000045   0.000024  -0.000018   0.000000   0.000000  -0.000376
    28  C   -0.000093  -0.000407  -0.000853   0.000000   0.000000   0.004429
    29  O   -0.000005   0.000000  -0.000003   0.000000   0.000000   0.000041
    30  H   -0.000012   0.000000  -0.019701  -0.001137   0.000013   0.000877
    31  H    0.003717  -0.000026   0.022889   0.000137   0.000000  -0.067164
    32  H   -0.000328   0.000006   0.016177   0.001230  -0.000015  -0.124339
    33  H   -0.000399   0.000002   0.073641   0.003465  -0.000084   0.204003
    34  H   -0.000016   0.000000   0.429629  -0.037126  -0.016477  -0.023335
    35  H    0.000004   0.000000   0.660134  -0.073304   0.002243  -0.308782
    36  H   -0.007188  -0.001476   0.007121   0.000040   0.000000  -0.010559
    37  H   -0.034740  -0.007899   0.007655   0.000005   0.000000   0.001251
    38  H   -0.000849   0.000030  -0.000153   0.000001   0.000000   0.000932
    39  H   -0.000124   0.000049   0.000115   0.000000   0.000000   0.000261
    40  H   -0.000498   0.000352  -0.000005   0.000000   0.000000  -0.000033
    41  H    0.001458   0.001117   0.000025   0.000000   0.000000   0.000253
    42  H    0.000000   0.000000   0.000003   0.000000   0.000000   0.000044
    43  H   -0.000001   0.000000  -0.000066   0.000000   0.000000   0.000505
    44  H   -0.000027   0.000006   0.000097   0.000000   0.000000   0.001737
    45  H    0.000000   0.000000   0.000000   0.000000   0.000000   0.000000
             13         14         15         16         17         18
     1  O    0.014400  -0.001811  -0.000213  -0.000753   0.000274   0.000045
     2  C   -0.044198   0.832970  -0.041837   0.191692  -0.043650   0.010875
     3  C    0.007741   0.090924   0.044895  -0.286711   0.077277  -0.003987
     4  O    0.000051   0.085143  -0.000755  -0.002760  -0.000115   0.000011
     5  H    0.000568  -0.024915   0.000099   0.000451   0.000088   0.000000
     6  C   -0.214599  -3.100752   0.080603  -0.036962   0.030173   0.015554
     7  O    0.013874  -0.103882  -0.013492   0.027852  -0.001949  -0.000061
     8  H    0.000445   0.017319   0.013856  -0.018995   0.003843  -0.000053
     9  C    0.100567  -0.260393  -0.022544  -0.096743  -0.030498   0.011025
    10  O    0.002187   0.001724  -0.000166  -0.001462  -0.000023   0.000012
    11  H   -0.000902  -0.004924   0.000008   0.000139  -0.000080   0.000000
    12  C   -0.263522  -1.177568   0.050649   0.085302  -0.075622  -0.034624
    13  O    8.626619   0.213843  -0.083591   0.151195  -0.124015   0.032452
    14  C    0.213843   9.644893   0.184458  -0.714487   0.228988  -0.057593
    15  O   -0.083591   0.184458   8.471056  -0.188485   0.055308   0.000501
    16  C    0.151195  -0.714487  -0.188485  11.564573  -2.361399  -0.161216
    17  C   -0.124015   0.228988   0.055308  -2.361399   8.800514   0.437941
    18  O    0.032452  -0.057593   0.000501  -0.161216   0.437941   8.216104
    19  H    0.001573  -0.003115   0.036185  -0.120364   0.057664   0.184398
    20  C   -0.012415  -0.317040   0.029147  -1.466561  -0.848821  -0.123591
    21  O   -0.000400   0.005166  -0.000510   0.039789  -0.133912   0.007106
    22  H   -0.000004   0.000154   0.000044  -0.009305   0.041675  -0.000445
    23  C    0.031126   0.218129  -0.011297   0.413853  -0.527808  -0.000500
    24  O   -0.001895   0.071790  -0.019326   0.054747  -0.007963  -0.000027
    25  H    0.000059  -0.004920   0.002458  -0.008106   0.001426   0.000003
    26  C   -0.036027  -0.436659  -0.089829  -2.285473   0.210969   0.044824
    27  O    0.000007   0.015094   0.009981   0.025050  -0.032094   0.001367
    28  C    0.006487  -0.014927   0.004536   0.852775  -0.062293   0.007727
    29  O    0.000018   0.001805   0.000368  -0.003670   0.018763  -0.000309
    30  H   -0.001575   0.002224  -0.000022   0.000240  -0.000051   0.000000
    31  H    0.006464   0.118413  -0.000136   0.007289   0.000067   0.000027
    32  H    0.012271   0.049609  -0.000402  -0.000119   0.000537   0.000072
    33  H   -0.024789   0.051294  -0.002057   0.001321   0.001297   0.000187
    34  H   -0.013274   0.009612  -0.001037  -0.001511   0.001146  -0.000436
    35  H    0.004743  -0.005695  -0.000616  -0.001309  -0.000481   0.000124
    36  H   -0.049261   0.326066  -0.061218   0.022262   0.023223  -0.001405
    37  H    0.012108  -0.026123  -0.010928   0.041976  -0.003457   0.000119
    38  H   -0.000209  -0.006462  -0.050291   0.282708   0.044737  -0.003564
    39  H   -0.000688   0.039797   0.004781  -0.058042   0.046693  -0.000801
    40  H    0.000019  -0.003192   0.001337   0.018118   0.001054   0.000042
    41  H   -0.000054   0.009645   0.002142   0.006557  -0.002266  -0.000030
    42  H    0.000010   0.004215  -0.000068   0.085255   0.008613  -0.000846
    43  H    0.000606   0.000262  -0.000517   0.127770  -0.206662   0.004268
    44  H    0.006154   0.005911  -0.011068   0.024971   0.327838  -0.049160
    45  H    0.000000   0.000060  -0.000007  -0.002660   0.009216  -0.000033
             19         20         21         22         23         24
     1  O   -0.000012   0.000030   0.000000   0.000000   0.000063   0.000005
     2  C   -0.013089   0.002034  -0.000045   0.000001   0.016893   0.005987
     3  C    0.008538  -0.021372  -0.000055   0.000003   0.012777  -0.026595
     4  O    0.000014  -0.000088   0.000000   0.000000   0.000808   0.000303
     5  H    0.000000   0.000003   0.000000   0.000000   0.000004  -0.000017
     6  C    0.002966   0.066662  -0.000655  -0.000031  -0.224584  -0.051045
     7  O   -0.000048   0.003830  -0.000005   0.000000   0.027576  -0.026307
     8  H   -0.000009  -0.000111   0.000000   0.000000   0.030526  -0.015234
     9  C   -0.003611  -0.001816   0.000289  -0.000003   0.001338   0.000177
    10  O   -0.000071   0.000109   0.000000   0.000000  -0.000011   0.000000
    11  H   -0.000003   0.000047   0.000000   0.000000   0.000000   0.000000
    12  C    0.011896  -0.002299  -0.000333   0.000024  -0.000568  -0.001408
    13  O    0.001573  -0.012415  -0.000400  -0.000004   0.031126  -0.001895
    14  C   -0.003115  -0.317040   0.005166   0.000154   0.218129   0.071790
    15  O    0.036185   0.029147  -0.000510   0.000044  -0.011297  -0.019326
    16  C   -0.120364  -1.466561   0.039789  -0.009305   0.413853   0.054747
    17  C    0.057664  -0.848821  -0.133912   0.041675  -0.527808  -0.007963
    18  O    0.184398  -0.123591   0.007106  -0.000445  -0.000500  -0.000027
    19  H    0.360573   0.034548  -0.000563   0.000010  -0.005847   0.000101
    20  C    0.034548   9.376670   0.177231  -0.020268  -0.027420  -0.001667
    21  O   -0.000563   0.177231   8.273877   0.205090   0.005030   0.000023
    22  H    0.000010  -0.020268   0.205090   0.429273  -0.000070   0.000000
    23  C   -0.005847  -0.027420   0.005030  -0.000070   6.788787  -0.039345
    24  O    0.000101  -0.001667   0.000023   0.000000  -0.039345   8.550639
    25  H    0.000000   0.000500   0.000000   0.000000   0.004449   0.221803
    26  C    0.021442   0.805208  -0.006713   0.002700  -1.456571   0.031104
    27  O    0.000176  -0.250043   0.009800   0.000362  -0.038074   0.003204
    28  C   -0.005104  -1.422681  -0.021058  -0.013297  -0.090091   0.002437
    29  O    0.000021  -0.186264   0.007555   0.021225  -0.007267   0.000101
    30  H    0.000000   0.000001   0.000000   0.000000   0.000004   0.000000
    31  H    0.000000   0.000030   0.000000   0.000000   0.000666   0.000114
    32  H    0.000009   0.000014   0.000000   0.000000   0.000078   0.000007
    33  H    0.000137   0.000135   0.000000   0.000000   0.000126   0.000004
    34  H    0.000467  -0.001136  -0.000002   0.000000   0.000006   0.000000
    35  H    0.000093   0.000024   0.000000   0.000000   0.000006   0.000000
    36  H    0.000392   0.009947  -0.000002   0.000000  -0.002559   0.000732
    37  H   -0.000007   0.001443   0.000000   0.000000   0.008912   0.004694
    38  H    0.000239   0.016786  -0.000641   0.000004  -0.025494   0.000084
    39  H    0.000079  -0.054911  -0.000016   0.000005   0.001649   0.005299
    40  H    0.000000   0.002133  -0.000013   0.000000   0.432002  -0.034334
    41  H    0.000003  -0.005973   0.000005   0.000000   0.575102  -0.082574
    42  H    0.000006  -0.180161   0.005397  -0.000558   0.002842   0.000003
    43  H   -0.000101   0.349767  -0.046387  -0.006145   0.015872  -0.000016
    44  H   -0.007649  -0.104485   0.000478  -0.000179   0.025802  -0.000344
    45  H    0.000000  -0.018358  -0.001597  -0.002418   0.000269   0.000000
             25         26         27         28         29         30
     1  O    0.000000  -0.000145   0.000000  -0.000002   0.000000   0.226353
     2  C   -0.000041   0.049210  -0.000150   0.000004  -0.000004   0.096219
     3  C    0.002405  -0.095217   0.001198  -0.001509   0.000075  -0.058129
     4  O    0.000006   0.000999   0.000000  -0.000011   0.000000   0.001510
     5  H    0.000000  -0.000057   0.000000   0.000000   0.000000  -0.003568
     6  C    0.003220  -0.081041   0.008879  -0.004475  -0.000197   0.003330
     7  O    0.001509  -0.016441  -0.000045  -0.000093  -0.000005  -0.000012
     8  H   -0.000511  -0.046239   0.000024  -0.000407   0.000000   0.000000
     9  C   -0.000009  -0.004152  -0.000018  -0.000853  -0.000003  -0.019701
    10  O    0.000000  -0.000016   0.000000   0.000000   0.000000  -0.001137
    11  H    0.000000   0.000004   0.000000   0.000000   0.000000   0.000013
    12  C   -0.000064   0.009268  -0.000376   0.004429   0.000041   0.000877
    13  O    0.000059  -0.036027   0.000007   0.006487   0.000018  -0.001575
    14  C   -0.004920  -0.436659   0.015094  -0.014927   0.001805   0.002224
    15  O    0.002458  -0.089829   0.009981   0.004536   0.000368  -0.000022
    16  C   -0.008106  -2.285473   0.025050   0.852775  -0.003670   0.000240
    17  C    0.001426   0.210969  -0.032094  -0.062293   0.018763  -0.000051
    18  O    0.000003   0.044824   0.001367   0.007727  -0.000309   0.000000
    19  H    0.000000   0.021442   0.000176  -0.005104   0.000021   0.000000
    20  C    0.000500   0.805208  -0.250043  -1.422681  -0.186264   0.000001
    21  O    0.000000  -0.006713   0.009800  -0.021058   0.007555   0.000000
    22  H    0.000000   0.002700   0.000362  -0.013297   0.021225   0.000000
    23  C    0.004449  -1.456571  -0.038074  -0.090091  -0.007267   0.000004
    24  O    0.221803   0.031104   0.003204   0.002437   0.000101   0.000000
    25  H    0.373823   0.006217  -0.000219  -0.001278   0.000001   0.000000
    26  C    0.006217  10.024102   0.172016  -0.796909  -0.055050  -0.000008
    27  O   -0.000219   0.172016   8.336511   0.151917  -0.025194   0.000000
    28  C   -0.001278  -0.796909   0.151917   6.294606   0.386860   0.000000
    29  O    0.000001  -0.055050  -0.025194   0.386860   8.229239   0.000000
    30  H    0.000000  -0.000008   0.000000   0.000000   0.000000   0.399590
    31  H    0.000000   0.000661   0.000000  -0.000003   0.000000   0.000564
    32  H    0.000000   0.000172   0.000000  -0.000005   0.000000  -0.010300
    33  H    0.000000  -0.000010   0.000000  -0.000010   0.000000   0.000094
    34  H    0.000000  -0.000171   0.000000   0.000046   0.000000   0.000000
    35  H    0.000000  -0.000140   0.000000   0.000004   0.000000   0.000054
    36  H    0.000004   0.009614   0.000178  -0.000332  -0.000004   0.000001
    37  H   -0.000043   0.002321  -0.000005   0.000004   0.000000   0.000012
    38  H   -0.000006  -0.014553   0.006952   0.003416  -0.000422   0.000000
    39  H   -0.000114   0.255314  -0.031054   0.031653  -0.000099   0.000000
    40  H   -0.012849  -0.089354  -0.000847   0.002168  -0.000201   0.000000
    41  H    0.001649  -0.237976   0.010416   0.007315   0.000015   0.000000
    42  H    0.000000  -0.064262  -0.060408   0.476230  -0.054540   0.000000
    43  H    0.000000  -0.022701   0.006880   0.009933  -0.003838   0.000000
    44  H    0.000000  -0.010331   0.005694  -0.006595  -0.000059   0.000000
    45  H    0.000000   0.010630   0.000904   0.008332   0.232683   0.000000
             31         32         33         34         35         36
     1  O   -0.014471  -0.035361   0.005753   0.000450   0.001152  -0.000030
     2  C    0.206853   0.401297   0.011686  -0.031088   0.005731   0.033344
     3  C    0.158961  -0.084223  -0.058803  -0.000460  -0.006419  -0.066712
     4  O   -0.034987   0.000966  -0.000181   0.000040  -0.000071  -0.000813
     5  H   -0.006573  -0.001981  -0.000026   0.000000   0.000008   0.000008
     6  C   -0.161878   0.023768   0.003864   0.001290   0.004140   0.008720
     7  O    0.003717  -0.000328  -0.000399  -0.000016   0.000004  -0.007188
     8  H   -0.000026   0.000006   0.000002   0.000000   0.000000  -0.001476
     9  C    0.022889   0.016177   0.073641   0.429629   0.660134   0.007121
    10  O    0.000137   0.001230   0.003465  -0.037126  -0.073304   0.000040
    11  H    0.000000  -0.000015  -0.000084  -0.016477   0.002243   0.000000
    12  C   -0.067164  -0.124339   0.204003  -0.023335  -0.308782  -0.010559
    13  O    0.006464   0.012271  -0.024789  -0.013274   0.004743  -0.049261
    14  C    0.118413   0.049609   0.051294   0.009612  -0.005695   0.326066
    15  O   -0.000136  -0.000402  -0.002057  -0.001037  -0.000616  -0.061218
    16  C    0.007289  -0.000119   0.001321  -0.001511  -0.001309   0.022262
    17  C    0.000067   0.000537   0.001297   0.001146  -0.000481   0.023223
    18  O    0.000027   0.000072   0.000187  -0.000436   0.000124  -0.001405
    19  H    0.000000   0.000009   0.000137   0.000467   0.000093   0.000392
    20  C    0.000030   0.000014   0.000135  -0.001136   0.000024   0.009947
    21  O    0.000000   0.000000   0.000000  -0.000002   0.000000  -0.000002
    22  H    0.000000   0.000000   0.000000   0.000000   0.000000   0.000000
    23  C    0.000666   0.000078   0.000126   0.000006   0.000006  -0.002559
    24  O    0.000114   0.000007   0.000004   0.000000   0.000000   0.000732
    25  H    0.000000   0.000000   0.000000   0.000000   0.000000   0.000004
    26  C    0.000661   0.000172  -0.000010  -0.000171  -0.000140   0.009614
    27  O    0.000000   0.000000   0.000000   0.000000   0.000000   0.000178
    28  C   -0.000003  -0.000005  -0.000010   0.000046   0.000004  -0.000332
    29  O    0.000000   0.000000   0.000000   0.000000   0.000000  -0.000004
    30  H    0.000564  -0.010300   0.000094   0.000000   0.000054   0.000001
    31  H    0.589111   0.004436   0.001082   0.000006  -0.000016   0.000796
    32  H    0.004436   0.585724   0.004351   0.000506   0.004697  -0.000026
    33  H    0.001082   0.004351   0.563687  -0.002006   0.005388   0.002991
    34  H    0.000006   0.000506  -0.002006   0.590288  -0.046743  -0.000051
    35  H   -0.000016   0.004697   0.005388  -0.046743   0.634426  -0.000008
    36  H    0.000796  -0.000026   0.002991  -0.000051  -0.000008   0.597965
    37  H    0.005669   0.001105  -0.000025   0.000001  -0.000009   0.003865
    38  H   -0.000001   0.000000  -0.000004   0.000001   0.000000   0.007174
    39  H    0.000000   0.000000   0.000000   0.000000   0.000000  -0.000017
    40  H    0.000000   0.000000   0.000000   0.000000   0.000000   0.000002
    41  H    0.000000   0.000000   0.000000   0.000000   0.000000   0.000009
    42  H    0.000000   0.000000   0.000000   0.000000   0.000000   0.000000
    43  H    0.000000   0.000000   0.000000   0.000000   0.000000  -0.000010
    44  H    0.000000   0.000000   0.000000   0.000000   0.000000  -0.000028
    45  H    0.000000   0.000000   0.000000   0.000000   0.000000   0.000000
             37         38         39         40         41         42
     1  O   -0.000860  -0.000002   0.000000   0.000000   0.000000   0.000000
     2  C    0.092927  -0.001524  -0.000458   0.000051  -0.000320  -0.000016
     3  C   -0.216293   0.006117   0.002334  -0.000024   0.001317   0.000021
     4  O    0.001418   0.000002   0.000001   0.000000   0.000001   0.000000
     5  H    0.000121   0.000000   0.000000   0.000000   0.000000   0.000000
     6  C    0.385976   0.001049   0.002455   0.002550  -0.001554  -0.000020
     7  O   -0.034740  -0.000849  -0.000124  -0.000498   0.001458   0.000000
     8  H   -0.007899   0.000030   0.000049   0.000352   0.001117   0.000000
     9  C    0.007655  -0.000153   0.000115  -0.000005   0.000025   0.000003
    10  O    0.000005   0.000001   0.000000   0.000000   0.000000   0.000000
    11  H    0.000000   0.000000   0.000000   0.000000   0.000000   0.000000
    12  C    0.001251   0.000932   0.000261  -0.000033   0.000253   0.000044
    13  O    0.012108  -0.000209  -0.000688   0.000019  -0.000054   0.000010
    14  C   -0.026123  -0.006462   0.039797  -0.003192   0.009645   0.004215
    15  O   -0.010928  -0.050291   0.004781   0.001337   0.002142  -0.000068
    16  C    0.041976   0.282708  -0.058042   0.018118   0.006557   0.085255
    17  C   -0.003457   0.044737   0.046693   0.001054  -0.002266   0.008613
    18  O    0.000119  -0.003564  -0.000801   0.000042  -0.000030  -0.000846
    19  H   -0.000007   0.000239   0.000079   0.000000   0.000003   0.000006
    20  C    0.001443   0.016786  -0.054911   0.002133  -0.005973  -0.180161
    21  O    0.000000  -0.000641  -0.000016  -0.000013   0.000005   0.005397
    22  H    0.000000   0.000004   0.000005   0.000000   0.000000  -0.000558
    23  C    0.008912  -0.025494   0.001649   0.432002   0.575102   0.002842
    24  O    0.004694   0.000084   0.005299  -0.034334  -0.082574   0.000003
    25  H   -0.000043  -0.000006  -0.000114  -0.012849   0.001649   0.000000
    26  C    0.002321  -0.014553   0.255314  -0.089354  -0.237976  -0.064262
    27  O   -0.000005   0.006952  -0.031054  -0.000847   0.010416  -0.060408
    28  C    0.000004   0.003416   0.031653   0.002168   0.007315   0.476230
    29  O    0.000000  -0.000422  -0.000099  -0.000201   0.000015  -0.054540
    30  H    0.000012   0.000000   0.000000   0.000000   0.000000   0.000000
    31  H    0.005669  -0.000001   0.000000   0.000000   0.000000   0.000000
    32  H    0.001105   0.000000   0.000000   0.000000   0.000000   0.000000
    33  H   -0.000025  -0.000004   0.000000   0.000000   0.000000   0.000000
    34  H    0.000001   0.000001   0.000000   0.000000   0.000000   0.000000
    35  H   -0.000009   0.000000   0.000000   0.000000   0.000000   0.000000
    36  H    0.003865   0.007174  -0.000017   0.000002   0.000009   0.000000
    37  H    0.570647   0.000006  -0.000031   0.000005  -0.000029   0.000000
    38  H    0.000006   0.569202   0.004410   0.000120   0.003668  -0.000042
    39  H   -0.000031   0.004410   0.599585  -0.004296   0.006032   0.007165
    40  H    0.000005   0.000120  -0.004296   0.584547  -0.037119  -0.000051
    41  H   -0.000029   0.003668   0.006032  -0.037119   0.591238  -0.000001
    42  H    0.000000  -0.000042   0.007165  -0.000051  -0.000001   0.645001
    43  H    0.000000   0.002270   0.000086   0.000001   0.000001   0.006109
    44  H   -0.000018   0.004777   0.002633   0.000002  -0.000004   0.003830
    45  H    0.000000   0.000000   0.000003  -0.000001   0.000000  -0.008221
             43         44         45
     1  O    0.000000   0.000000   0.000000
     2  C    0.000003   0.000539   0.000000
     3  C    0.000212   0.001611   0.000000
     4  O    0.000000   0.000000   0.000000
     5  H    0.000000   0.000000   0.000000
     6  C    0.000702   0.006378   0.000003
     7  O   -0.000001  -0.000027   0.000000
     8  H    0.000000   0.000006   0.000000
     9  C   -0.000066   0.000097   0.000000
    10  O    0.000000   0.000000   0.000000
    11  H    0.000000   0.000000   0.000000
    12  C    0.000505   0.001737   0.000000
    13  O    0.000606   0.006154   0.000000
    14  C    0.000262   0.005911   0.000060
    15  O   -0.000517  -0.011068  -0.000007
    16  C    0.127770   0.024971  -0.002660
    17  C   -0.206662   0.327838   0.009216
    18  O    0.004268  -0.049160  -0.000033
    19  H   -0.000101  -0.007649   0.000000
    20  C    0.349767  -0.104485  -0.018358
    21  O   -0.046387   0.000478  -0.001597
    22  H   -0.006145  -0.000179  -0.002418
    23  C    0.015872   0.025802   0.000269
    24  O   -0.000016  -0.000344   0.000000
    25  H    0.000000   0.000000   0.000000
    26  C   -0.022701  -0.010331   0.010630
    27  O    0.006880   0.005694   0.000904
    28  C    0.009933  -0.006595   0.008332
    29  O   -0.003838  -0.000059   0.232683
    30  H    0.000000   0.000000   0.000000
    31  H    0.000000   0.000000   0.000000
    32  H    0.000000   0.000000   0.000000
    33  H    0.000000   0.000000   0.000000
    34  H    0.000000   0.000000   0.000000
    35  H    0.000000   0.000000   0.000000
    36  H   -0.000010  -0.000028   0.000000
    37  H    0.000000  -0.000018   0.000000
    38  H    0.002270   0.004777   0.000000
    39  H    0.000086   0.002633   0.000003
    40  H    0.000001   0.000002  -0.000001
    41  H    0.000001  -0.000004   0.000000
    42  H    0.006109   0.003830  -0.008221
    43  H    0.611371   0.007464   0.000196
    44  H    0.007464   0.632329   0.000005
    45  H    0.000196   0.000005   0.403356
 Mulliken atomic charges:
              1
     1  O   -0.530446
     2  C   -0.094072
     3  C    0.162017
     4  O   -0.487951
     5  H    0.330519
     6  C    0.009469
     7  O   -0.551286
     8  H    0.442596
     9  C   -0.186650
    10  O   -0.511295
    11  H    0.348117
    12  C    0.200889
    13  O   -0.374166
    14  C    0.034953
    15  O   -0.382000
    16  C   -0.198792
    17  C    0.033833
    18  O   -0.536101
    19  H    0.438065
    20  C    0.191184
    21  O   -0.523933
    22  H    0.352152
    23  C   -0.157191
    24  O   -0.645264
    25  H    0.408630
    26  C    0.189269
    27  O   -0.328084
    28  C    0.191055
    29  O   -0.561648
    30  H    0.363417
    31  H    0.157301
    32  H    0.150067
    33  H    0.153886
    34  H    0.141383
    35  H    0.120624
    36  H    0.147246
    37  H    0.158229
    38  H    0.149534
    39  H    0.140253
    40  H    0.138313
    41  H    0.149931
    42  H    0.124452
    43  H    0.142166
    44  H    0.131691
    45  H    0.367637
 Sum of Mulliken atomic charges =   0.00000
 Mulliken charges with hydrogens summed into heavy atoms:
              1
     1  O   -0.167028
     2  C    0.055995
     3  C    0.319317
     4  O   -0.157432
     6  C    0.167698
     7  O   -0.108690
     9  C    0.075357
    10  O   -0.163178
    12  C    0.354774
    13  O   -0.374166
    14  C    0.182199
    15  O   -0.382000
    16  C   -0.049258
    17  C    0.165524
    18  O   -0.098036
    20  C    0.333351
    21  O   -0.171781
    23  C    0.131054
    24  O   -0.236634
    26  C    0.329522
    27  O   -0.328084
    28  C    0.315507
    29  O   -0.194011
 Sum of Mulliken charges with hydrogens summed into heavy atoms =   0.00000
 APT atomic charges:
              1
     1  O   -0.627564
     2  C    0.371327
     3  C    0.396245
     4  O   -0.608716
     5  H    0.238743
     6  C    0.346753
     7  O   -0.737911
     8  H    0.458208
     9  C    0.477681
    10  O   -0.616167
    11  H    0.247022
    12  C    0.445606
    13  O   -0.887118
    14  C    0.929838
    15  O   -0.860944
    16  C    0.419646
    17  C    0.400462
    18  O   -0.723326
    19  H    0.422142
    20  C    0.395189
    21  O   -0.637184
    22  H    0.256610
    23  C    0.452421
    24  O   -0.671803
    25  H    0.264987
    26  C    0.449103
    27  O   -0.822274
    28  C    0.938586
    29  O   -0.684061
    30  H    0.259237
    31  H   -0.035077
    32  H   -0.026248
    33  H   -0.036512
    34  H   -0.028170
    35  H   -0.060353
    36  H   -0.052750
    37  H   -0.012303
    38  H   -0.021774
    39  H   -0.040598
    40  H   -0.038122
    41  H   -0.026309
    42  H   -0.083221
    43  H   -0.046610
    44  H   -0.058120
    45  H    0.273429
 Sum of APT charges=   0.00000
 APT Atomic charges with hydrogens summed into heavy atoms:
              1
[...]
 0361,0.00000150,0.00000782,0.00000542,0.00005045,0.00002214,-0.0000783
 8,-0.00011511,0.00007591,0.00007699,0.00018321,0.00003565,-0.00011777,
 -0.00051437,0.00022255,0.00048292,0.00016332,-0.00037541,-0.00051562,0
 .00058469,0.00042508,0.00011210,-0.00000173,-0.00006772,0.00001457,-0.
 00005634,-0.00804473,-0.00042219,-0.00172135,0.00241076,-0.00049187,0.
 00126715,-0.00033992,-0.00011224,-0.00004347,0.00054514,-0.00017968,-0
 .00013012,0.00003169,0.00028201,-0.00020164,-0.00004500,-0.00002212,-0
 .00004647,-0.00048402,-0.00085864,0.00233346,-0.01579678,0.01175156,-0
 .00845930,-0.34309968,-0.06147058,-0.02370726,-0.00956497,-0.00541834,
 0.00721758,-0.00000321,0.00000213,0.00000297,0.00000310,0.00000085,-0.
 00000052,0.00000280,-0.00000126,-0.00000334,0.00000088,-0.00000044,-0.
 00000417,-0.00000546,0.00000079,0.00000173,0.00000674,0.00000099,-0.00
 000544,0.00000062,-0.00000694,-0.00000559,0.00000124,-0.00000205,0.000
 00314,0.00010444,-0.00007468,0.00024202,0.00056566,0.00051219,-0.00146
 920,-0.00001608,-0.00003980,0.00002227,0.00011313,-0.00020915,0.000137
 61,0.37134658,0.00000305,0.00001330,0.00000951,-0.00000257,-0.00001480
 ,-0.00000439,-0.00000253,0.00000071,-0.00001337,-0.00000166,0.00000756
 ,0.00000917,0.00000035,-0.00000192,-0.00000010,0.00001420,-0.00003684,
 -0.00001852,0.00000175,0.00005552,0.00007621,-0.00003465,-0.00004033,-
 0.00010488,-0.00000195,-0.00001581,0.00001196,0.00000759,0.00001121,-0
 .00000329,-0.00000543,-0.00000012,0.00000550,-0.00000860,0.00001821,-0
 .00000168,-0.00001844,0.00011993,0.00001866,-0.00008107,-0.00006150,-0
 .00012540,0.00000507,0.00036313,0.00029752,-0.00024826,-0.00067954,0.0
 0024145,-0.00094275,-0.00036811,0.00186150,0.00052727,0.00015260,-0.00
 054915,0.00011172,-0.00016631,0.00006853,-0.02738423,-0.00377084,-0.00
 542526,0.00138342,0.00359371,0.00097745,-0.00038630,-0.00023359,0.0000
 7411,0.00009211,0.00021933,-0.00012378,-0.00012069,-0.00019325,0.00017
 504,0.00000241,0.00003552,0.00003464,0.00355949,0.00182595,-0.00441953
 ,0.03738310,-0.00761842,0.01309815,-0.06167001,-0.05520021,-0.00740784
 ,-0.00653466,0.00221984,0.00430120,-0.00000009,-0.00000251,-0.00000159
 ,0.00000085,-0.00000043,0.00000158,0.00000020,0.00000069,-0.00000014,0
 .00000122,-0.00000257,0.00000119,-0.00000181,0.00000665,-0.00000018,0.
 00000213,0.00000259,-0.00000278,0.00000634,-0.00000216,0.00000555,0.00
 000022,0.00000343,-0.00000713,-0.00001545,-0.00016279,0.00003831,-0.00
 137681,0.00029738,-0.00002893,0.00004334,0.00001104,-0.00000916,-0.000
 16253,0.00005883,-0.00002828,0.05669886,0.06226004,-0.00000178,-0.0000
 0227,-0.00002834,-0.00000665,0.00000273,0.00001521,-0.00000053,-0.0000
 0363,0.00002202,0.00000989,0.00001254,-0.00002308,-0.00000071,-0.00000
 197,0.00000080,-0.00001255,-0.00001609,-0.00000569,0.00000432,0.000009
 63,-0.00003074,0.00000255,-0.00000447,0.00002994,-0.00000382,0.0000133
 9,0.00001392,0.00000055,-0.00001775,-0.00001769,-0.00000186,0.00000426
 ,0.00000378,0.00000774,0.00001148,0.00004636,0.00000163,-0.00003068,-0
 .00008862,0.00006290,0.00004420,0.00010305,0.00006159,0.00002470,-0.00
 032718,0.00003330,-0.00035265,-0.00008447,-0.00150902,0.00003791,0.001
 90596,0.00054730,0.00001194,-0.00021820,0.00002887,-0.00000464,0.00004
 584,-0.02349465,-0.00571982,-0.00007208,0.00189429,0.00119892,0.001058
 84,0.00019478,-0.00035314,-0.00013555,0.00000212,0.00003115,0.00001398
 ,0.00006736,0.00011043,-0.00011128,-0.00000819,-0.00001207,-0.00001041
 ,-0.00259718,-0.00016552,0.00319981,-0.01354071,0.00662289,-0.00251079
 ,-0.03042655,-0.01001410,-0.04829142,0.03990830,0.01126164,-0.01557196
 ,-0.00000092,0.00000129,0.00000332,0.00000140,0.00000037,-0.00000059,0
 .00000051,-0.00000063,-0.00000192,-0.00000097,-0.00000055,-0.00000432,
 -0.00000277,0.00000392,-0.00000029,0.00000295,-0.00000001,-0.00000355,
 0.00000274,-0.00000680,0.00000717,-0.00000058,0.00000134,-0.00000183,0
 .00017065,0.00007964,0.00000909,0.00091322,-0.00007254,-0.00000791,0.0
 0000184,-0.00002802,0.00000670,0.00011689,-0.00007462,-0.00001168,0.02
 492397,0.00056292,0.06123818,0.00000608,-0.00000308,-0.00000802,-0.000
 00637,0.00000164,0.00000459,-0.00001268,-0.00001042,0.00001133,0.00001
 380,0.00000417,-0.00000824,-0.00000466,0.00000017,0.00000079,0.0000029
 5,0.00000856,0.00002399,0.00002600,-0.00000241,-0.00001973,-0.00001287
 ,-0.00000611,0.00000916,-0.00001834,-0.00000007,-0.00000472,0.00002235
 ,-0.00000074,-0.00000032,-0.00001269,0.00000157,0.00000244,-0.00001201
 ,-0.00000079,0.00001865,0.00004415,-0.00003187,-0.00003883,-0.00006541
 ,-0.00004080,0.00011863,0.00054047,0.00012766,0.00002719,-0.00031120,0
 .00077932,-0.00026840,-0.00959888,-0.00467654,0.00151499,0.00125924,0.
 00074928,-0.00005084,0.00011174,0.00010229,-0.00007972,-0.33847659,-0.
 07139525,0.01715793,-0.02009515,0.01359833,-0.00692401,-0.00003131,0.0
 0029707,0.00046624,0.00000845,-0.00003440,-0.00000512,0.00004195,0.000
 03672,-0.00003261,-0.00001518,-0.00000201,-0.00000346,-0.00000634,0.00
 001607,-0.00006086,0.00219195,-0.00036741,0.00036870,-0.00979522,-0.00
 245125,0.00080816,0.00165654,0.00034503,0.00026713,-0.00000261,0.00000
 116,0.00000053,0.00000409,0.00000016,0.00000060,0.00000345,0.00000049,
 -0.00000390,0.00000534,-0.00000291,0.00000521,-0.00001123,-0.00000109,
 0.00000154,0.00000863,0.00000356,-0.00000790,0.00001518,-0.00001519,0.
 00002612,0.00000117,0.00000370,-0.00000460,0.00067633,-0.00051237,0.00
 017302,0.00004156,0.00019326,-0.00002746,0.00000269,-0.00000376,0.0000
 1286,0.00003389,-0.00003519,0.00001255,0.00042345,-0.00052178,-0.00055
 154,0.37041104,0.00000249,-0.00000205,0.00001671,0.00000167,0.00000253
 ,-0.00000824,-0.00000336,0.00000375,-0.00000643,0.00000018,-0.00000886
 ,0.00000851,-0.00000080,0.00000235,-0.00000162,-0.00000147,0.00001269,
 -0.00000422,0.00001847,-0.00001258,-0.00000073,-0.00001378,0.00000014,
 -0.00000684,-0.00000239,-0.00000290,-0.00001505,-0.00000017,0.00001034
 ,0.00001507,0.00000405,-0.00000363,-0.00000480,-0.00000483,-0.00001272
 ,-0.00002553,0.00002693,-0.00003143,0.00005643,-0.00003218,0.00005484,
 -0.00002668,0.00016545,-0.00007456,-0.00000958,-0.00111460,0.00023965,
 0.00025289,-0.00834492,-0.00113433,0.00181522,0.00100055,0.00061345,0.
 00042021,-0.00004622,-0.00003626,-0.00013078,-0.07197453,-0.05389297,0
 .00027239,0.04233088,-0.00981547,0.00655846,0.00059536,0.00125417,-0.0
 0073127,-0.00006618,0.00002903,-0.00004906,0.00002723,-0.00001123,-0.0
 0000618,-0.00000330,0.00000230,0.00000048,-0.00018754,-0.00026892,0.00
 025672,0.00119740,0.00247958,0.00000591,-0.02992130,-0.00801337,-0.000
 35471,0.00202035,0.00163816,0.00188956,0.00000054,-0.00000054,-0.00000
 266,0.00000059,0.00000061,0.00000172,0.00000094,-0.00000064,-0.0000004
 0,0.00000212,0.00000311,0.00000467,0.00000418,-0.00000613,-0.00000064,
 -0.00000062,-0.00000213,0.00000256,0.00002078,-0.00000280,0.00002215,0
 .00000270,0.00000384,-0.00000668,0.00017456,-0.00025107,0.00036334,0.0
 0018993,0.00017447,-0.00007942,0.00000642,-0.00002146,-0.00000183,0.00
 004408,-0.00004051,0.00002663,-0.00038717,-0.00361943,-0.00314059,0.06
 416488,0.07058438,-0.00000605,-0.00001013,-0.00000199,0.00000893,0.000
 01146,0.00000165,0.00000836,0.00001290,0.00000861,-0.00000357,-0.00000
 622,-0.00000828,0.00000215,0.00000282,-0.00000139,0.00000009,-0.000021
 51,0.00000411,-0.00001726,-0.00000424,-0.00000643,0.00001332,-0.000005
 85,0.00000810,0.00001008,0.00001623,-0.00001424,-0.00001399,-0.0000104
 1,0.00000454,0.00000738,-0.00000087,-0.00000797,0.00001103,-0.00002051
 ,0.00000396,0.00002381,-0.00011282,0.00007575,-0.00009637,0.00017748,0
 .00014453,-0.00057466,-0.00020361,-0.00021835,0.00110556,-0.00071242,0
 .00080148,0.03603492,0.01082970,-0.00520880,-0.00196121,-0.00070059,0.
 00306627,-0.00013716,0.00030943,0.00016536,0.01913866,0.00079945,-0.04
 513016,-0.01493674,0.00652923,0.00143946,-0.00118097,-0.00031735,0.000
 40429,0.00003790,0.00001082,0.00005318,-0.00001608,0.00001084,-0.00000
 920,-0.00000525,-0.00000303,-0.00000059,0.00026731,0.00020224,-0.00031
 637,0.00125210,0.00153927,0.00039654,-0.02449520,-0.00964001,-0.000801
 69,0.00072290,0.00123280,0.00259107,0.00000112,0.00000191,0.00000084,-
 0.00000185,-0.00000086,-0.00000064,-0.00000259,-0.00000041,0.00000404,
 -0.00000345,0.00000407,-0.00000465,0.00000618,-0.00000632,-0.00000004,
 -0.00000621,-0.00000325,0.00000778,-0.00004311,0.00000230,-0.00007707,
 -0.00000012,-0.00000903,0.00001346,-0.00051837,0.00045801,-0.00012778,
 -0.00017150,-0.00010290,-0.00015283,-0.00000973,0.00002706,0.00000537,
 -0.00001362,0.00003240,-0.00000423,-0.00092198,-0.00303779,-0.00268335
 ,-0.01453199,-0.00934509,0.05128062,0.00001277,0.00003940,-0.00003719,
 -0.00004014,-0.00004664,0.00001152,-0.00001326,-0.00005428,-0.00000362
 ,0.00002485,0.00005099,0.00000037,-0.00000631,-0.00001329,0.00000350,0
 .00001754,0.00000090,0.00003727,0.00007063,0.00010704,0.00003685,-0.00
 010167,-0.00006961,-0.00009807,-0.00001617,-0.00002980,0.00009407,0.00
 001625,-0.00000889,-0.00005796,-0.00001556,0.00001272,0.00002575,-0.00
 000786,0.00008267,0.00009999,-0.00011140,0.00036182,-0.00036129,0.0004
 1352,-0.00073512,-0.00038166,0.00227176,-0.00065788,0.00188299,-0.0202
 7051,-0.00152891,0.00249096,-0.34004753,-0.05706358,0.02319064,-0.0018
 4707,-0.00944299,-0.00952273,0.00036324,-0.00126748,0.00074990,-0.0089
 4392,-0.00052046,0.00257531,0.00154606,-0.00052719,0.00047465,0.000055
 86,-0.00011214,-0.00001479,0.00076549,0.00044695,-0.00000563,0.0000441
 5,-0.00001718,0.00007601,-0.00000318,0.00002415,-0.00000513,-0.0015298
 2,-0.00263010,-0.00069957,0.00049070,0.00083521,0.00018539,-0.00077674
 ,-0.00132981,-0.00072962,0.00048181,0.00022185,0.00005131,-0.00000522,
 -0.00000553,0.00000176,0.00000842,0.00000228,0.00000655,0.00000506,-0.
 00000088,-0.00000947,-0.00000095,-0.00001051,-0.00000613,-0.00001063,0
 .00004505,0.00000524,0.00001504,0.00000875,-0.00002312,0.00014902,0.00
 001650,0.00032699,0.00000636,0.00002858,-0.00004906,-0.00058724,0.0024
 1993,-0.00096692,0.00195637,0.00036640,0.00042499,0.00000674,0.0001187
 6,-0.00001275,0.00027642,-0.00040909,0.00006821,0.00062191,0.00060262,
 0.00062668,0.00063080,-0.00001502,0.00114260,0.36411345,0.00000498,0.0
 0003726,-0.00008453,-0.00004815,-0.00005300,0.00003243,0.00000582,-0.0
 0001695,0.00001709,0.00001592,0.00006038,-0.00003747,0.00000193,-0.000
 01473,0.00000332,-0.00008411,-0.00011491,-0.00009020,-0.00004780,0.000
 13142,0.00010825,0.00001238,-0.00002673,-0.00011498,-0.00001708,-0.000
 00973,0.00012576,0.00001735,-0.00004179,-0.00008414,-0.00002096,0.0000
 1974,0.00002935,0.00002831,0.00014152,0.00019176,-0.00000699,0.0004651
 4,-0.00046504,0.00025351,-0.00024003,-0.00015322,-0.00050389,0.0013576
 7,-0.00178494,0.02918413,0.00031504,-0.00132822,-0.06204726,-0.0507321
 7,0.01084897,-0.02996758,-0.01713899,-0.01469635,-0.00000496,-0.000341
 47,0.00170947,-0.01233461,-0.00022428,0.00264179,0.00025221,0.00081393
 ,-0.00121349,0.00015968,0.00006724,-0.00014568,0.00060208,0.00016457,-
 0.00002080,-0.00009833,-0.00004175,0.00014840,-0.00000150,0.00002167,0
 .00000375,0.00299993,-0.00013620,0.00009144,-0.00043352,-0.00018650,-0
 .00028155,0.00025247,-0.00027930,-0.00056132,0.00025981,-0.00004208,0.
 00017802,-0.00000575,-0.00000010,0.00000518,0.00000267,0.00000052,-0.0
 0000043,0.00000156,0.00000309,-0.00000647,-0.00000441,-0.00002168,-0.0
 0002168,-0.00003590,0.00005574,0.00001574,0.00001959,0.00001625,-0.000
 03916,-0.00018211,-0.00001027,0.00002354,-0.00001485,-0.00000711,0.000
 01534,0.00164571,-0.00398650,0.00191711,0.00018545,-0.00109178,-0.0004
 7239,-0.00011510,0.00002591,0.00000081,-0.00024490,-0.00020992,-0.0000
 3900,0.00024201,0.00034570,0.00015341,-0.00065946,0.00010748,0.0019053
 0,0.07072985,0.07074841,0.00001366,0.00002368,-0.00003053,-0.00004627,
 -0.00002784,0.00000400,-0.00000300,-0.00003843,0.00001090,0.00001969,0
 .00002668,-0.00000424,-0.00000515,-0.00000630,0.00000319,-0.00004744,0
 .00000483,0.00003598,0.00004919,0.00003582,-0.00001600,-0.00003755,-0.
 00001076,0.00000752,-0.00002791,-0.00003377,0.00008047,0.00002714,-0.0
 0000239,-0.00004002,-0.00001519,0.00000853,0.00002344,0.00001572,0.000
 08813,0.00006502,0.00014769,0.00025942,-0.00032182,-0.00033907,-0.0003
 0907,-0.00029223,-0.00100208,-0.00008904,0.00070910,-0.01048354,0.0013
 1621,0.00098803,0.02492409,0.01025170,-0.04268113,-0.02637406,-0.01950
 326,-0.00837446,-0.00126890,-0.00089583,0.00137124,0.03577666,0.007512
 19,-0.00601008,-0.00174523,-0.00106034,0.00203405,-0.00008712,-0.00027
 168,0.00025047,-0.00000202,0.00004389,-0.00008731,0.00001769,-0.000007
 42,0.00000100,0.00000215,-0.00000290,0.00000076,0.00085121,-0.00146202
 ,-0.00013440,-0.00030481,-0.00037652,-0.00004048,0.00165130,0.00145616
 ,0.00151374,-0.00063483,-0.00011891,-0.00000523,-0.00000408,-0.0000023
 2,-0.00000159,0.00000764,0.00000191,0.00000724,0.00000720,-0.00000166,
 -0.00001180,0.00000802,-0.00001096,0.00000720,-0.00002892,0.00003275,0
 .00001166,0.00002095,0.00001318,-0.00003734,0.00017395,0.00001584,-0.0
 0005784,0.00001940,0.00003872,-0.00002800,-0.00059850,0.00130190,-0.00
 057642,0.00041674,-0.00058620,0.00024660,0.00005252,0.00003453,0.00000
 218,0.00006470,-0.00003802,-0.00000900,-0.00065871,-0.00044481,-0.0003
 7869,0.00122961,0.00150589,-0.00610369,-0.02171934,0.00140140,0.057949
 06,-0.00000111,0.00000284,0.00002343,0.00000892,-0.00000276,-0.0000096
 3,0.00000099,0.00000528,-0.00001845,-0.00001030,-0.00000976,0.00001933
 ,0.00000220,0.00000151,-0.00000090,0.00001883,0.00000448,-0.00000034,-
 0.00000191,0.00000179,0.00003476,-0.00001174,-0.00000403,-0.00003911,0
 .00000625,-0.00000936,-0.00000984,-0.00000276,0.00001435,0.00001279,0.
 00000309,-0.00000341,-0.00000202,-0.00000765,-0.00001478,-0.00003827,0
 .00000264,0.00002186,0.00008859,-0.00005048,-0.00001939,-0.00008390,0.
 00002685,0.00001172,0.00019262,-0.00011469,-0.00004006,-0.00014496,0.0
 0043742,0.00061961,0.00004832,-0.00010408,-0.00001737,0.00041980,0.000
 02068,0.00007668,-0.00000565,-0.00128642,-0.00159932,0.00199574,-0.000
 55071,0.00064450,-0.00035989,0.00062226,-0.00011835,0.00011565,-0.0001
 3257,0.00014206,0.00015013,-0.00001580,-0.00015190,0.00009312,0.000026
 39,0.00000417,0.00002605,0.00090453,-0.00052668,0.00028879,-0.00077162
 ,-0.00089809,0.00244446,0.00817916,-0.00304506,0.02149760,-0.33590302,
 0.05854537,-0.27397719,0.00000246,-0.00000147,-0.00000246,-0.00000122,
 -0.00000049,0.00000079,-0.00000109,0.00000051,0.00000144,0.00000095,0.
 00000080,0.00000503,0.00000254,-0.00000347,-0.00000115,-0.00000317,-0.
 00000096,0.00000297,0.00000083,0.00000200,0.00000303,0.00000065,0.0000
 0094,-0.00000174,-0.00000063,-0.00000939,0.00001938,-0.00002928,0.0000
 3426,-0.00010187,-0.00000556,-0.00000862,-0.00000686,0.00000973,0.0000
 0156,-0.00000985,0.00089326,-0.00092505,0.00257260,0.00030544,0.000117
 64,-0.00012538,-0.00002905,0.00000187,-0.00006321,0.32755877,0.0000009
 4,-0.00001054,0.00000800,0.00000200,0.00000357,-0.00000717,0.00000204,
 0.00000628,-0.00000897,-0.00000424,-0.00001901,0.00001118,-0.00000079,
 0.00000521,-0.00000072,0.00000159,0.00002717,0.00001328,0.00000465,-0.
 00003222,-0.00000703,0.00000174,0.00001805,0.00000773,0.00000325,0.000
 00791,-0.00000403,-0.00000270,-0.00000666,0.00000499,0.00000113,0.0000
 0246,-0.00000644,-0.00000234,0.00000912,-0.00000845,0.00000186,-0.0000
 0945,0.00002361,-0.00004948,0.00001846,-0.00004973,0.00002655,-0.00001
 115,0.00017064,-0.00016954,-0.00016474,0.00003238,0.00049550,-0.000814
 40,0.00004717,0.00005138,-0.00005919,-0.00036484,-0.00000734,-0.000070
 16,-0.00005680,-0.00077956,0.00252700,-0.00455876,0.00093988,-0.000542
 93,0.00173341,-0.00060299,-0.00208020,-0.00162949,-0.00030913,0.000277
 66,0.00034167,0.00000555,-0.00024495,0.00003892,0.00003583,-0.00000343
 ,0.00007274,0.00076057,-0.00102824,0.00009086,-0.00076243,-0.00401943,
 0.00608163,0.00913937,-0.00277791,-0.00086690,0.04366177,-0.00406155,0
 .05885026,0.00000011,0.00000473,-0.00000235,-0.00000133,-0.00000028,0.
 00000044,0.00000044,0.00000117,0.00000039,0.00000079,0.00000044,0.0000
 0054,-0.00000089,-0.00000207,0.00000342,-0.00000120,0.00000008,-0.0000
 0021,0.00000292,0.00000154,0.00000325,0.00000267,0.00000139,-0.0000007
 5,-0.00001078,0.00001380,-0.00000070,-0.00012230,-0.00002839,0.0001431
 5,-0.00001926,-0.00007107,-0.00000689,0.00001290,0.00000803,-0.0000148
 3,0.00022322,0.00056858,-0.00017812,0.00033977,0.00004912,0.00015951,-
 0.00002606,0.00006926,-0.00007295,-0.05284605,0.01243692,0.00001245,0.
 00000658,0.00008676,0.00000588,-0.00001026,-0.00004785,0.00000090,0.00
 001700,-0.00005780,-0.00001614,-0.00004019,0.00006378,-0.00000068,0.00
 001038,-0.00000602,0.00000617,0.00003942,0.00000454,0.00001661,-0.0000
 3062,0.00007384,-0.00002646,0.00001160,-0.00007580,-0.00000792,-0.0000
 4048,-0.00004778,0.00001466,0.00005585,0.00005538,-0.00000150,-0.00001
 413,-0.00001254,-0.00002898,-0.00003451,-0.00011813,0.00000880,0.00006
 678,0.00021709,-0.00010782,-0.00006677,-0.00027311,0.00007011,-0.00006
 546,0.00041122,0.00001062,0.00006722,-0.00008404,0.00002277,-0.0009653
 5,-0.00024108,0.00013506,0.00012339,0.00006423,-0.00003548,-0.00002752
 ,-0.00017841,0.00148266,0.00154311,-0.00525598,0.00051045,0.00064269,0
 .00147832,-0.00037431,-0.00195135,-0.00007356,0.00012888,0.00014847,-0
 .00019151,-0.00003064,-0.00013655,0.00016242,0.00000232,0.00004109,0.0
 0000076,-0.00034565,0.00039287,-0.00034315,0.00279239,-0.00145648,-0.0
 0165231,-0.03197785,0.00361608,-0.02244656,-0.21867025,0.05756715,-0.2
 3293981,0.00000116,-0.00000263,-0.00001461,-0.00000071,-0.00000099,0.0
 0000433,0.00000145,0.00000126,0.00000175,0.00000695,0.00000013,0.00001
 321,0.00000127,-0.00001197,0.00000317,-0.00000047,0.00000252,0.0000020
 3,0.00000545,0.00000967,0.00001271,0.00000696,0.00000484,-0.00000884,-
 0.00001032,0.00000214,0.00001368,0.00002622,0.00007128,-0.00003189,-0.
 00001289,0.00000132,0.00000455,0.00000006,-0.00001932,0.00001736,0.000
 94676,-0.00011216,0.00289767,0.00037032,0.00046352,0.00039870,0.000114
 52,0.00007342,-0.00008053,0.24494624,-0.05999304,0.25819378\\-0.011086
 47,-0.00464174,0.00796956,0.05568007,-0.00856269,-0.01839486,-0.030279
 24,-0.03574686,-0.00859717,0.00768054,0.01836432,0.03887007,-0.0063528
 2,-0.02453030,-0.01689376,0.04093646,0.00680735,-0.00936725,-0.0088757
 4,-0.00447273,-0.00034271,0.00230099,-0.00408632,0.02044006,-0.0024336
 0,0.02230986,-0.00463717,0.00664349,0.01828159,-0.01016865,0.00616004,
 -0.02928932,0.01498306,-0.02080510,0.01891539,0.00525065,0.00978228,0.
 00134686,0.01360943,-0.06351814,0.01403521,-0.00765686,0.02611068,-0.0
 2542651,0.00228248,-0.05185294,0.01481793,-0.00061520,0.01026239,0.038
 23558,0.00673630,-0.00494667,-0.00678700,-0.00531965,0.00513025,0.0188
 5526,-0.01769268,0.00875032,0.01862253,-0.01046577,-0.00865151,0.00292
 304,-0.01093801,0.00050742,-0.01333526,0.02999630,0.00596262,-0.023918
 84,-0.02005288,-0.01711750,-0.01215295,0.00103925,0.00568623,0.0333640
 6,-0.00221867,0.01955939,-0.00234403,0.01804121,0.00395018,-0.01212516
 ,-0.01211180,0.01525335,0.00120043,0.00166788,0.00389352,-0.00635874,0
 .01978552,-0.00168805,0.00500990,0.00507810,0.01970803,0.00278029,0.00
 375748,-0.01541678,0.00027591,-0.00018684,0.01863946,-0.00166025,0.003
 76639,-0.00141112,0.00479227,-0.01808985,-0.02007275,-0.00256874,0.002
 82688,0.01689939,0.00196339,-0.00209389,-0.01726699,0.00017813,-0.0018
 6131,0.01619748,-0.00045929,0.00046308,-0.01932470,-0.00078016,0.00234
 705,-0.00027099,-0.00965608,-0.01651084,0.01938397,0.00145112,-0.00014
 647,-0.02060595,-0.00515337,-0.00226111,0.02195567,0.00138758,-0.00198
 976,-0.02061115,-0.00712922,0.00235633,-0.00444599,-0.00473245,-0.0026
 5391\\\@


 Just remember, when you're over the hill, you begin to pick up speed.
 -- Charles Schulz
 Job cpu time:  0 days 13 hours  8 minutes 59.5 seconds.
 File lengths (MBytes):  RWF=   1326 Int=      0 D2E=      0 Chk=     19 Scr=      1
 Normal termination of Gaussian 09 at Thu Jan 21 05:08:00 2016.
Gaussian '09 finished on node027 at Thu Jan 21 05:08:00 EST 2016.
