Gaussian '09 started on node020 at Mon Feb 29 14:22:26 EST 2016.
 Entering Gaussian System, Link 0=/usr/local/gaussian/g09/g09
 Initial command:
 /usr/local/gaussian/g09/l1.exe /home/srmcgrat/thesis/gaussian/cellobiose/290/8000/2/gdp/gaussian29599/Gau-29635.inp -scrdir=/home/srmcgrat/thesis/gaussian/cellobiose/290/8000/2/gdp/gaussian29599/
 Entering Link 1 = /usr/local/gaussian/g09/l1.exe PID=     29637.
  
 Copyright (c) 1988,1990,1992,1993,1995,1998,2003,2009,2010,
            Gaussian, Inc.  All Rights Reserved.
  
 This is part of the Gaussian(R) 09 program.  It is based on
 the Gaussian(R) 03 system (copyright 2003, Gaussian, Inc.),
 the Gaussian(R) 98 system (copyright 1998, Gaussian, Inc.),
 the Gaussian(R) 94 system (copyright 1995, Gaussian, Inc.),
 the Gaussian 92(TM) system (copyright 1992, Gaussian, Inc.),
 the Gaussian 90(TM) system (copyright 1990, Gaussian, Inc.),
 the Gaussian 88(TM) system (copyright 1988, Gaussian, Inc.),
 the Gaussian 86(TM) system (copyright 1986, Carnegie Mellon
 University), and the Gaussian 82(TM) system (copyright 1983,
 Carnegie Mellon University). Gaussian is a federally registered
 trademark of Gaussian, Inc.
  
 This software contains proprietary and confidential information,
 including trade secrets, belonging to Gaussian, Inc.
  
 This software is provided under written license and may be
 used, copied, transmitted, or stored only in accord with that
 written license.
  
 The following legend is applicable only to US Government
 contracts under FAR:
  
                    RESTRICTED RIGHTS LEGEND
  
 Use, reproduction and disclosure by the US Government is
 subject to restrictions as set forth in subparagraphs (a)
 and (c) of the Commercial Computer Software - Restricted
 Rights clause in FAR 52.227-19.
  
 Gaussian, Inc.
 340 Quinnipiac St., Bldg. 40, Wallingford CT 06492
  
  
 ---------------------------------------------------------------
 Warning -- This program may not be used in any manner that
 competes with the business of Gaussian, Inc. or will provide
 assistance to any competitor of Gaussian, Inc.  The licensee
 of this program is prohibited from giving any competitor of
 Gaussian, Inc. access to this program.  By using this program,
 the user acknowledges that Gaussian, Inc. is engaged in the
 business of creating and licensing software in the field of
 computational chemistry and represents and warrants to the
 licensee that it is not a competitor of Gaussian, Inc. and that
 it will not use this program in any manner prohibited above.
 ---------------------------------------------------------------
  

 Cite this work as:
 Gaussian 09, Revision B.01,
 M. J. Frisch, G. W. Trucks, H. B. Schlegel, G. E. Scuseria, 
 M. A. Robb, J. R. Cheeseman, G. Scalmani, V. Barone, B. Mennucci, 
 G. A. Petersson, H. Nakatsuji, M. Caricato, X. Li, H. P. Hratchian, 
 A. F. Izmaylov, J. Bloino, G. Zheng, J. L. Sonnenberg, M. Hada, 
 M. Ehara, K. Toyota, R. Fukuda, J. Hasegawa, M. Ishida, T. Nakajima, 
 Y. Honda, O. Kitao, H. Nakai, T. Vreven, J. A. Montgomery, Jr., 
 J. E. Peralta, F. Ogliaro, M. Bearpark, J. J. Heyd, E. Brothers, 
 K. N. Kudin, V. N. Staroverov, T. Keith, R. Kobayashi, J. Normand, 
 K. Raghavachari, A. Rendell, J. C. Burant, S. S. Iyengar, J. Tomasi, 
 M. Cossi, N. Rega, J. M. Millam, M. Klene, J. E. Knox, J. B. Cross, 
 V. Bakken, C. Adamo, J. Jaramillo, R. Gomperts, R. E. Stratmann, 
 O. Yazyev, A. J. Austin, R. Cammi, C. Pomelli, J. W. Ochterski, 
 R. L. Martin, K. Morokuma, V. G. Zakrzewski, G. A. Voth, 
 P. Salvador, J. J. Dannenberg, S. Dapprich, A. D. Daniels, 
 O. Farkas, J. B. Foresman, J. V. Ortiz, J. Cioslowski, 
 and D. J. Fox, Gaussian, Inc., Wallingford CT, 2010.
 
 ******************************************
 Gaussian 09:  EM64L-G09RevB.01 12-Aug-2010
                29-Feb-2016 
 ******************************************
 ------------------------------------------------
 # freq=raman b3lyp/6-31+g(d,p) geom=connectivity
 ------------------------------------------------
 1/10=4,30=1,38=1,57=2/1,3;
 2/12=2,17=6,18=5,40=1/2;
 3/5=1,6=6,7=111,11=2,16=1,25=1,30=1,71=2,74=-5/1,2,3;
 4//1;
 5/5=2,38=5,98=1/2;
 8/6=4,10=90,11=11/1;
 10/13=10,15=4/2;
 11/6=3,8=1,9=11,15=111,16=1/1,2,10;
 10/6=1/2;
 6/7=2,8=2,9=2,10=2,18=1,28=1/1;
 7/8=1,10=1,25=1/1,2,3,16;
 1/10=4,30=1/3;
 99//99;
 ------------
 290 8000.com
 ------------
 Symbolic Z-matrix:
 Charge =  0 Multiplicity = 1
 O                     7.484     7.572     22.875 
 C                     8.071     7.951     24.128 
 C                     7.571     9.313     24.579 
 O                     8.025     10.271    23.612 
 H                     7.933     9.991     22.656 
 C                     8.034     9.753     25.959 
 O                     7.538     11.013    26.432 
 H                     7.928     11.107    27.348 
 C                     7.93      5.459     24.941 
 O                     7.549     4.805     23.722 
 H                     7.765     3.836     23.837 
 C                     7.763     6.943     25.224 
 O                     8.388     7.431     26.42 
 C                     7.83      8.634     26.967 
 O                     8.702     8.858     28.084 
 C                     8.066     8.445     29.302 
 C                     8.636     7.135     29.821 
 O                     8.455     6.164     28.781 
 H                     8.977     6.509     28.001 
 C                     8.079     6.607     31.133 
 O                     8.817     5.485     31.637 
 H                     8.409     5.055     32.443 
 C                     7.765     10.885    30.234 
 O                     8.403     11.551    29.135 
 H                     8.068     12.49     29.063 
 C                     8.2       9.443     30.441 
 O                     7.485     8.933     31.575 
 C                     8.09      7.755     32.129 
 O                     7.407     7.402     33.34 
 H                     8.17894   7.38025   22.24105 
 H                     7.40852   4.94935   25.72408 
 H                     8.97055   5.24888   25.07516 
 H                     6.71388   7.05503   25.40204 
 H                     9.13241   8.00308   24.0031 
 H                     6.50111   9.30099   24.56923 
 H                     9.09352   9.87819   25.8775 
 H                     6.80738   8.51747   27.25953 
 H                     8.05055   7.20265   34.02389 
 H                     7.97539   11.43278   31.12874 
 H                     6.70788   10.8983   30.06902 
 H                     9.23597   9.46879   30.70746 
 H                     7.02449   8.3022    29.1026 
 H                     9.68853   7.27408   29.9542 
 H                     7.06534   6.30322   30.97456 
 H                     9.1077    7.98093   32.37015 
 

 GradGradGradGradGradGradGradGradGradGradGradGradGradGradGradGradGradGrad
 Berny optimization.
 Initialization pass.
 Trust Radius=3.00D-01 FncErr=1.00D-07 GrdErr=1.00D-07
 Number of steps in this run=      2 maximum allowed number of steps=      2.
 GradGradGradGradGradGradGradGradGradGradGradGradGradGradGradGradGradGrad

                          Input orientation:                          
 ---------------------------------------------------------------------
 Center     Atomic      Atomic             Coordinates (Angstroms)
 Number     Number       Type             X           Y           Z
 ---------------------------------------------------------------------
      1          8           0        7.484000    7.572000   22.875000
      2          6           0        8.071000    7.951000   24.128000
      3          6           0        7.571000    9.313000   24.579000
      4          8           0        8.025000   10.271000   23.612000
      5          1           0        7.933000    9.991000   22.656000
      6          6           0        8.034000    9.753000   25.959000
      7          8           0        7.538000   11.013000   26.432000
      8          1           0        7.928000   11.107000   27.348000
      9          6           0        7.930000    5.459000   24.941000
     10          8           0        7.549000    4.805000   23.722000
     11          1           0        7.765000    3.836000   23.837000
     12          6           0        7.763000    6.943000   25.224000
     13          8           0        8.388000    7.431000   26.420000
     14          6           0        7.830000    8.634000   26.967000
     15          8           0        8.702000    8.858000   28.084000
     16          6           0        8.066000    8.445000   29.302000
     17          6           0        8.636000    7.135000   29.821000
     18          8           0        8.455000    6.164000   28.781000
     19          1           0        8.977000    6.509000   28.001000
     20          6           0        8.079000    6.607000   31.133000
     21          8           0        8.817000    5.485000   31.637000
     22          1           0        8.409000    5.055000   32.443000
     23          6           0        7.765000   10.885000   30.234000
     24          8           0        8.403000   11.551000   29.135000
     25          1           0        8.068000   12.490000   29.063000
     26          6           0        8.200000    9.443000   30.441000
     27          8           0        7.485000    8.933000   31.575000
     28          6           0        8.090000    7.755000   32.129000
     29          8           0        7.407000    7.402000   33.340000
     30          1           0        8.178936    7.380246   22.241049
     31          1           0        7.408516    4.949347   25.724076
     32          1           0        8.970552    5.248877   25.075160
     33          1           0        6.713881    7.055026   25.402044
     34          1           0        9.132408    8.003082   24.003098
     35          1           0        6.501112    9.300991   24.569230
     36          1           0        9.093521    9.878191   25.877504
     37          1           0        6.807381    8.517472   27.259526
     38          1           0        8.050546    7.202649   34.023891
     39          1           0        7.975392   11.432784   31.128744
     40          1           0        6.707880   10.898296   30.069016
     41          1           0        9.235969    9.468790   30.707464
     42          1           0        7.024487    8.302200   29.102605
     43          1           0        9.688528    7.274084   29.954195
     44          1           0        7.065336    6.303219   30.974565
     45          1           0        9.107695    7.980927   32.370149
 ---------------------------------------------------------------------
                    Distance matrix (angstroms):
                    1          2          3          4          5
     1  O    0.000000
     2  C    1.434649   0.000000
     3  C    2.437676   1.519357   0.000000
     4  O    2.849641   2.377135   1.434911   0.000000
     5  H    2.470045   2.519410   2.070907   1.000400   0.000000
     6  C    3.817108   2.569267   1.520648   2.403500   3.313103
     7  O    4.949308   3.868895   2.514895   2.956372   3.931753
     8  H    5.718487   4.511007   3.318621   3.829622   4.822898
     9  C    2.988652   2.625055   3.887575   4.993056   5.075456
    10  O    2.894464   3.214753   4.588790   5.487789   5.308334
    11  H    3.868088   4.136610   5.530437   6.444180   6.269530
    12  C    2.447710   1.520574   2.463694   3.707124   3.989214
    13  O    3.661164   2.371530   2.756573   4.010266   4.574748
    14  C    4.241701   2.929930   2.496130   3.738157   4.520706
    15  O    5.501909   4.107401   3.710958   4.738532   5.598056
    16  C    6.512080   5.197532   4.827544   5.975957   6.824743
    17  C    7.054430   5.778869   5.775506   6.982800   7.745203
    18  O    6.148670   4.999123   5.324891   6.615959   7.241135
    19  H    5.443794   4.230878   4.642126   5.858521   6.463999
    20  C    8.335455   7.132771   7.108827   8.366197   9.128653
    21  O    9.105224   7.938687   8.125359   9.377296  10.086816
    22  H    9.936676   8.811372   8.981943  10.263560  10.971602
    23  C    8.075259   6.781241   5.872635   6.655485   7.632401
    24  O    7.474263   6.175781   5.143734   5.681973   6.680714
    25  H    7.925852   6.704980   5.517843   5.885509   6.878436
    26  C    7.826727   6.488195   5.897083   6.881239   7.808829
    27  O    8.805812   7.534290   7.006840   8.092664   8.992699
    28  C    9.275626   8.003423   7.726527   8.881091   9.734581
    29  O   10.466664   9.252202   8.968497  10.161056  11.005792
    30  H    0.960000   1.974334   3.093726   3.203071   2.654940
    31  H    3.873144   3.463563   4.514318   5.758551   5.925069
    32  H    3.528093   3.001296   4.326895   5.315696   5.423705
    33  H    2.691895   2.065849   2.551569   3.907145   4.200828
    34  H    2.043449   1.070000   2.117910   2.553969   2.684226
    35  H    2.612641   2.117004   1.070000   2.044368   2.487341
    36  H    4.113892   2.796494   2.079333   2.535457   3.426021
    37  H    4.536056   3.424044   2.898482   4.226335   4.962938
    38  H   11.169385   9.924168   9.689660  10.854626  11.705455
    39  H    9.125317   7.819360   6.896098   7.606159   8.594646
    40  H    7.963697   6.770548   5.779136   6.619770   7.568151
    41  H    8.247102   6.852020   6.352516   7.242623   8.172913
    42  H    6.287082   5.095608   4.667268   5.918103   6.725783
    43  H    7.420492   6.084338   6.126486   7.209180   7.982930
    44  H    8.209022   7.113508   7.086447   8.418528   9.140629
    45  H    9.641653   8.307145   8.052196   9.117118   9.989244
                    6          7          8          9         10
     6  C    0.000000
     7  O    1.434345   0.000000
     8  H    1.942646   0.999996   0.000000
     9  C    4.414247   5.763997   6.139508   0.000000
    10  O    5.451798   6.773735   7.280571   1.434865   0.000000
    11  H    6.291751   7.635109   8.075960   1.969815   0.999421
    12  C    2.917150   4.251446   4.677339   1.519945   2.621611
    13  O    2.393642   3.681490   3.819131   2.507187   3.857331
    14  C    1.519816   2.455836   2.504095   3.767665   5.026950
    15  O    2.400599   2.954323   2.489734   4.693361   6.064921
    16  C    3.589922   3.887198   3.305057   5.287061   6.682312
    17  C    4.704399   5.265910   4.732206   5.207861   6.618782
    18  O    4.584959   5.465482   5.173439   3.939321   5.316126
    19  H    3.947474   4.981817   4.761136   3.400340   4.822099
    20  C    6.055544   6.465672   5.882094   6.299283   7.645327
    21  O    7.146230   7.699782   7.126902   6.754544   8.044716
    22  H    8.015865   8.508145   7.925723   7.528125   8.766866
    23  C    4.430509   3.810921   2.899112   7.581857   8.911745
    24  O    3.668234   2.888577   1.901612   7.411196   8.691283
    25  H    4.138495   3.063428   2.207604   8.151373   9.373093
    26  C    4.495774   4.356056   3.522716   6.796702   8.190226
    27  O    5.702040   5.547942   4.773893   7.501777   8.872096
    28  C    6.485680   6.585976   5.841242   7.547487   8.925964
    29  O    7.771711   7.795957   7.064172   8.636665   9.963458
    30  H    4.412950   5.583169   6.327133   3.323085   3.036763
    31  H    4.849897   6.106211   6.389342   1.070000   2.012183
    32  H    4.684595   6.092482   6.369484   1.070000   2.012183
    33  H    3.054829   4.171995   4.656106   2.058836   2.929605
    34  H    2.845042   4.183456   4.719457   2.966109   3.579655
    35  H    2.117904   2.734232   3.608219   4.115923   4.693591
    36  H    1.070000   2.003722   2.242938   4.664769   5.724422
    37  H    2.173130   2.728785   2.822990   3.998761   5.181364
    38  H    8.458548   8.509894   7.734759   9.249527  10.589109
    39  H    5.436117   4.735709   3.795051   8.600950   9.948326
    40  H    4.467945   3.732310   2.989344   7.574699   8.838572
    41  H    4.906466   4.852553   3.959863   7.143954   8.567001
    42  H    3.606409   3.839826   3.429559   5.120810   6.438667
    43  H    4.984383   5.568673   4.958120   5.614186   7.036634
    44  H    6.164024   6.560514   6.080500   6.153394   7.421475
    45  H    6.737648   6.849746   6.032080   7.933432   9.343796
                   11         12         13         14         15
    11  H    0.000000
    12  C    3.402532   0.000000
    13  O    4.470352   1.434986   0.000000
    14  C    5.729043   2.429407   1.434497   0.000000
    15  O    6.643453   3.567709   2.214457   1.434660   0.000000
    16  C    7.155397   4.356363   3.072101   2.354494   1.434778
    17  C    6.888418   4.683097   3.422853   3.322943   2.447500
    18  O    5.508069   3.706475   2.680317   3.127638   2.793645
    19  H    5.094386   3.061679   1.922646   2.626859   2.366498
    20  C    7.810804   5.926975   4.794458   4.639643   3.840772
    21  O    8.041511   6.660574   5.584626   5.718328   4.900425
    22  H    8.715729   7.489714   6.474747   6.567424   5.792196
    23  C    9.518929   6.374909   5.183130   3.967936   3.099871
    24  O    9.380676   6.077762   4.934151   3.679326   2.906243
    25  H   10.114079   6.752789   5.716759   4.395292   3.814685
    26  C    8.674128   5.801557   4.500214   3.586092   2.479854
    27  O    9.270084   6.661275   5.444762   4.630560   3.697809
    28  C    9.177225   6.960266   5.725946   5.242755   4.237119
    29  O   10.156354   8.136761   6.989249   6.504758   5.605577
    30  H    3.908975   3.043384   4.184485   4.901864   6.049581
    31  H    2.219837   2.085759   2.757227   3.911417   4.745515
    32  H    2.232178   2.085759   2.628616   4.042150   4.706486
    33  H    3.730461   1.070000   1.995060   2.487563   3.794235
    34  H    4.388846   2.118881   2.592844   3.298339   4.191646
    35  H    5.656827   2.753399   3.237678   2.821369   4.170582
    36  H    6.514346   3.288267   2.603998   2.081226   2.462256
    37  H    5.877661   2.745093   2.093700   1.070000   2.094110
    38  H   10.732596   8.808416   7.614800   7.203966   6.200555
    39  H   10.532091   7.420868   6.193286   5.017415   4.053140
    40  H    9.477951   6.342856   5.306625   4.001087   3.475574
    41  H    9.005295   6.214308   4.822238   4.082241   2.746042
    42  H    6.944199   4.175692   3.132814   2.306458   2.039735
    43  H    7.276020   5.117814   3.769155   3.771847   2.641904
    44  H    7.584295   5.827954   4.874976   4.698705   4.190578
    45  H    9.581121   7.345267   6.018692   5.590441   4.393736
                   16         17         18         19         20
    16  C    0.000000
    17  C    1.519987   0.000000
    18  O    2.371861   1.434295   0.000000
    19  H    2.504120   1.954625   0.999954   0.000000
    20  C    2.594412   1.519992   2.422711   3.259667   0.000000
    21  O    3.844194   2.460308   2.957841   3.780830   1.434414
    22  H    4.634181   3.354521   3.826518   4.708302   2.057597
    23  C    2.629225   3.871913   4.987499   5.060100   4.382702
    24  O    3.128689   4.475035   5.398869   5.199730   5.342295
    25  H    4.052055   5.438126   6.344097   6.142189   6.236562
    26  C    1.520290   2.429271   3.684083   3.894314   2.921712
    27  O    2.396296   2.762991   4.051506   4.568951   2.440999
    28  C    2.910087   2.451404   3.724730   4.402235   1.519882
    29  O    4.222271   3.736990   4.838949   5.636246   2.440176
    30  H    7.141672   7.597678   6.657809   5.879882   8.926068
    31  H    5.045138   4.802976   3.451854   3.174436   5.696826
    32  H    5.375834   5.117849   3.851817   3.185670   6.271905
    33  H    4.355446   4.819554   3.904198   3.489186   5.908310
    34  H    5.423180   5.903217   5.164248   4.270791   7.341268
    35  H    5.057737   6.068801   5.603338   5.069741   7.268452
    36  H    3.851884   4.825514   4.757438   3.984252   6.272973
    37  H    2.400223   3.437473   3.250901   3.048112   4.502301
    38  H    4.882615   4.244011   5.360064   6.133081   2.951755
    39  H    3.503150   4.540655   5.788093   5.918586   4.826898
    40  H    2.907141   4.235748   5.208164   5.356447   4.628959
    41  H    2.095782   2.567558   3.904204   4.019001   3.116007
    42  H    1.070000   2.115520   2.592624   2.870785   2.847491
    43  H    2.104519   1.070000   2.032305   2.215084   2.103607
    44  H    2.895864   2.118858   2.600438   3.541030   1.070000
    45  H    3.273230   2.726949   4.075442   4.612279   2.115757
                   21         22         23         24         25
    21  O    0.000000
    22  H    1.000500   0.000000
    23  C    5.677597   6.267640   0.000000
    24  O    6.574782   7.289782   1.434713   0.000000
    25  H    7.500433   8.174344   2.009745   0.999565   0.000000
    26  C    4.180535   4.827653   1.520341   2.488073   3.346717
    27  O    3.696860   4.079961   2.384740   3.694624   4.393436
    28  C    2.433823   2.736852   3.673357   4.844752   5.641016
    29  O    2.926294   2.704999   4.680458   5.990680   6.679625
    30  H    9.606403  10.466112   8.737386   8.060518   8.524137
    31  H    6.101919   6.793826   7.463141   7.497015   8.273136
    32  H    6.567882   7.391752   7.735171   7.518056   8.315728
    33  H    6.764818   7.513227   6.254706   6.082916   6.691426
    34  H    8.044668   8.969195   6.999957   6.281415   6.846021
    35  H    8.359336   9.146842   6.016321   5.433781   5.728777
    36  H    7.249027   8.175420   4.664514   3.726445   4.245071
    37  H    5.691812   6.436015   3.920423   3.907134   4.541218
    38  H    3.038918   2.690744   5.291930   6.552376   7.250298
    39  H    6.028496   6.526210   1.070000   2.042508   2.322408
    40  H    6.017536   6.532513   1.070000   2.042508   2.322825
    41  H    4.112196   4.814302   2.096084   2.738992   3.632647
    42  H    4.192002   4.859982   2.915351   3.529313   4.316035
    43  H    2.606188   3.571509   4.100849   4.540448   5.534087
    44  H    2.043680   2.349422   4.693686   5.719489   6.552532
    45  H    2.617568   3.009075   3.847025   4.869107   5.687701
                   26         27         28         29         30
    26  C    0.000000
    27  O    1.434322   0.000000
    28  C    2.389726   1.435488   0.000000
    29  O    3.633006   2.337792   1.434440   0.000000
    30  H    8.455448   9.487636   9.895450  11.125784   0.000000
    31  H    6.562678   7.078747   7.025608   8.001113   4.316746
    32  H    6.853952   7.617582   7.537419   8.682639   3.633397
    33  H    5.770792   6.498215   6.901855   7.975710   3.499150
    34  H    6.662532   7.804640   8.196246   9.513994   2.098059
    35  H    6.114251   7.084085   7.878120   9.019601   3.453228
    36  H    4.670468   5.995181   6.678039   8.041438   4.505552
    37  H    3.594129   4.388068   5.092961   6.210956   5.325370
    38  H    4.228311   3.051397   1.974148   0.960000  11.784880
    39  H    2.117235   2.586223   3.813102   4.632488   9.770140
    40  H    2.117235   2.595052   4.004261   4.838615   8.707339
    41  H    1.070000   2.026224   2.504214   3.814052   8.784049
    42  H    2.115315   2.592821   3.254814   4.348816   7.018810
    43  H    2.675236   3.199147   2.741595   4.084777   7.860201
    44  H    3.380885   2.729907   2.119039   2.630463   8.869859
    45  H    2.585185   2.042509   1.070000   2.041600  10.189312
                   31         32         33         34         35
    31  H    0.000000
    32  H    1.717780   0.000000
    33  H    2.240559   2.908882   0.000000
    34  H    3.906261   2.959926   2.950447   0.000000
    35  H    4.592805   4.772182   2.404830   2.988108   0.000000
    36  H    5.211170   4.699939   3.722770   2.651592   2.960629
    37  H    3.930711   4.487146   2.365952   4.034188   2.818758
    38  H    8.624182   9.205619   8.726094  10.110758   9.807874
    39  H    8.459714   8.710737   7.317874   7.992270   7.053033
    40  H    7.399959   7.872371   6.045774   7.145345   5.730775
    41  H    6.971306   7.042795   6.350957   6.863494   6.722017
    42  H    4.775307   5.415742   3.917405   5.526099   4.671508
    43  H    5.338236   5.331223   5.442296   6.021318   6.577676
    44  H    5.433082   6.288439   5.633979   7.467508   7.094597
    45  H    7.499865   7.791006   7.425774   8.367117   8.330137
                   36         37         38         39         40
    36  H    0.000000
    37  H    2.997996   0.000000
    38  H    8.637705   7.002203   0.000000
    39  H    5.589499   4.983387   5.126555   0.000000
    40  H    4.929571   3.683946   5.576881   1.736459   0.000000
    41  H    4.849373   4.323346   4.187996   2.371457   2.973607
    42  H    4.143179   1.868265   5.145957   3.848379   2.788173
    43  H    4.873892   4.136213   4.387540   4.648568   4.693864
    44  H    6.547824   4.332548   3.328364   5.211950   4.697077
    45  H    6.764189   5.630079   2.111432   3.839077   4.423276
                   41         42         43         44         45
    41  H    0.000000
    42  H    2.971053   0.000000
    43  H    2.364097   2.979823   0.000000
    44  H    3.847575   2.738947   2.977393   0.000000
    45  H    2.234885   3.888421   2.583375   2.988912   0.000000
 Stoichiometry    C12H22O11
 Framework group  C1[X(C12H22O11)]
 Deg. of freedom   129
 Full point group                 C1      NOp   1
 Largest Abelian subgroup         C1      NOp   1
 Largest concise Abelian subgroup C1      NOp   1
                         Standard orientation:                         
 ---------------------------------------------------------------------
 Center     Atomic      Atomic             Coordinates (Angstroms)
 Number     Number       Type             X           Y           Z
 ---------------------------------------------------------------------
      1          8           0       -4.985463   -0.470580    0.377476
      2          6           0       -3.705784   -0.134670   -0.177325
      3          6           0       -3.245072    1.234226    0.294175
      4          8           0       -4.176645    2.194902   -0.223746
      5          1           0       -5.140633    1.936124   -0.156208
      6          6           0       -1.841521    1.632759   -0.134292
      7          8           0       -1.360725    2.899183    0.337249
      8          1           0       -0.430215    2.963093   -0.023387
      9          6           0       -2.947992   -2.635595    0.071757
     10          8           0       -4.192134   -3.253692    0.430791
     11          1           0       -4.089170   -4.231237    0.250109
     12          6           0       -2.641311   -1.152519    0.200862
     13          8           0       -1.415110   -0.707857   -0.397379
     14          6           0       -0.863633    0.502243    0.140501
     15          8           0        0.286817    0.676498   -0.698753
     16          6           0        1.473840    0.261661   -0.007756
     17          6           0        1.985801   -1.075838   -0.517022
     18          8           0        0.921039   -2.020628   -0.341359
     19          1           0        0.166411   -1.678263   -0.901031
     20          6           0        3.267159   -1.609949    0.102028
     21          8           0        3.773637   -2.764799   -0.581599
     22          1           0        4.556451   -3.196324   -0.132167
     23          6           0        2.443505    2.692213    0.247179
     24          8           0        1.380507    3.357562   -0.449777
     25          1           0        1.315836    4.308213   -0.147768
     26          6           0        2.636454    1.233105   -0.133885
     27          8           0        3.734901    0.725506    0.636203
     28          6           0        4.285668   -0.481893    0.088966
     29          8           0        5.465285   -0.835102    0.824742
     30          1           0       -5.598949   -0.672999   -0.332638
     31          1           0       -2.193560   -3.142570    0.636300
     32          1           0       -2.782503   -2.882153   -0.956213
     33          1           0       -2.497092   -1.009590    1.251420
     34          1           0       -3.793206   -0.115012   -1.243566
     35          1           0       -3.291707    1.257427    1.362907
     36          1           0       -1.884176    1.724718   -1.199480
     37          1           0       -0.608677    0.413757    1.175908
     38          1           0        6.166694   -1.068259    0.212156
     39          1           0        3.355684    3.215864    0.050660
     40          1           0        2.242720    2.743208    1.296934
     41          1           0        2.938694    1.219948   -1.160227
     42          1           0        1.236090    0.156809    1.030213
     43          1           0        2.157706   -0.973812   -1.568183
     44          1           0        3.068077   -1.877352    1.118769
     45          1           0        4.565983   -0.293980   -0.926422
 ---------------------------------------------------------------------
 Rotational constants (GHZ):      0.3954680      0.1478791      0.1110307
 Standard basis: 6-31+G(d,p) (6D, 7F)
 There are   547 symmetry adapted basis functions of A   symmetry.
 Integral buffers will be    131072 words long.
 Raffenetti 2 integral format.
 Two-electron integral symmetry is turned on.
   547 basis functions,   890 primitive gaussians,   547 cartesian basis functions
    91 alpha electrons       91 beta electrons
       nuclear repulsion energy      2286.1347926831 Hartrees.
 NAtoms=   45 NActive=   45 NUniq=   45 SFac= 1.00D+00 NAtFMM=   50 NAOKFM=F Big=F
 One-electron integrals computed using PRISM.
 NBasis=   547 RedAO= T  NBF=   547
 NBsUse=   547 1.00D-06 NBFU=   547
 Harris functional with IExCor=  402 diagonalized for initial guess.
 ExpMin= 4.38D-02 ExpMax= 5.48D+03 ExpMxC= 8.25D+02 IAcc=2 IRadAn=         0 AccDes= 0.00D+00
 HarFok:  IExCor=  402 AccDes= 0.00D+00 IRadAn=         0 IDoV= 1
 ScaDFX=  1.000000  1.000000  1.000000  1.000000
 FoFCou: FMM=F IPFlag=           0 FMFlag=      100000 FMFlg1=           0
         NFxFlg=           0 DoJE=T BraDBF=F KetDBF=T FulRan=T
         Omega=  0.000000  0.000000  1.000000  0.000000  0.000000 ICntrl=     500 IOpCl=  0
         NMat0=    1 NMatS0=    1 NMatT0=    0 NMatD0=    1 NMtDS0=    0 NMtDT0=    0
         I1Cent=           4 NGrid=           0.
 Petite list used in FoFCou.
 Initial guess orbital symmetries:
       Occupied  (A) (A) (A) (A) (A) (A) (A) (A) (A) (A) (A) (A)
                 (A) (A) (A) (A) (A) (A) (A) (A) (A) (A) (A) (A)
                 (A) (A) (A) (A) (A) (A) (A) (A) (A) (A) (A) (A)
                 (A) (A) (A) (A) (A) (A) (A) (A) (A) (A) (A) (A)
                 (A) (A) (A) (A) (A) (A) (A) (A) (A) (A) (A) (A)
                 (A) (A) (A) (A) (A) (A) (A) (A) (A) (A) (A) (A)
                 (A) (A) (A) (A) (A) (A) (A) (A) (A) (A) (A) (A)
                 (A) (A) (A) (A) (A) (A) (A)
       Virtual   (A) (A) (A) (A) (A) (A) (A) (A) (A) (A) (A) (A)
                 (A) (A) (A) (A) (A) (A) (A) (A) (A) (A) (A) (A)
                 (A) (A) (A) (A) (A) (A) (A) (A) (A) (A) (A) (A)
                 (A) (A) (A) (A) (A) (A) (A) (A) (A) (A) (A) (A)
                 (A) (A) (A) (A) (A) (A) (A) (A) (A) (A) (A) (A)
                 (A) (A) (A) (A) (A) (A) (A) (A) (A) (A) (A) (A)
                 (A) (A) (A) (A) (A) (A) (A) (A) (A) (A) (A) (A)
                 (A) (A) (A) (A) (A) (A) (A) (A) (A) (A) (A) (A)
                 (A) (A) (A) (A) (A) (A) (A) (A) (A) (A) (A) (A)
                 (A) (A) (A) (A) (A) (A) (A) (A) (A) (A) (A) (A)
                 (A) (A) (A) (A) (A) (A) (A) (A) (A) (A) (A) (A)
                 (A) (A) (A) (A) (A) (A) (A) (A) (A) (A) (A) (A)
                 (A) (A) (A) (A) (A) (A) (A) (A) (A) (A) (A) (A)
                 (A) (A) (A) (A) (A) (A) (A) (A) (A) (A) (A) (A)
                 (A) (A) (A) (A) (A) (A) (A) (A) (A) (A) (A) (A)
                 (A) (A) (A) (A) (A) (A) (A) (A) (A) (A) (A) (A)
                 (A) (A) (A) (A) (A) (A) (A) (A) (A) (A) (A) (A)
                 (A) (A) (A) (A) (A) (A) (A) (A) (A) (A) (A) (A)
                 (A) (A) (A) (A) (A) (A) (A) (A) (A) (A) (A) (A)
                 (A) (A) (A) (A) (A) (A) (A) (A) (A) (A) (A) (A)
                 (A) (A) (A) (A) (A) (A) (A) (A) (A) (A) (A) (A)
                 (A) (A) (A) (A) (A) (A) (A) (A) (A) (A) (A) (A)
                 (A) (A) (A) (A) (A) (A) (A) (A) (A) (A) (A) (A)
                 (A) (A) (A) (A) (A) (A) (A) (A) (A) (A) (A) (A)
                 (A) (A) (A) (A) (A) (A) (A) (A) (A) (A) (A) (A)
                 (A) (A) (A) (A) (A) (A) (A) (A) (A) (A) (A) (A)
                 (A) (A) (A) (A) (A) (A) (A) (A) (A) (A) (A) (A)
                 (A) (A) (A) (A) (A) (A) (A) (A) (A) (A) (A) (A)
                 (A) (A) (A) (A) (A) (A) (A) (A) (A) (A) (A) (A)
                 (A) (A) (A) (A) (A) (A) (A) (A) (A) (A) (A) (A)
                 (A) (A) (A) (A) (A) (A) (A) (A) (A) (A) (A) (A)
                 (A) (A) (A) (A) (A) (A) (A) (A) (A) (A) (A) (A)
                 (A) (A) (A) (A) (A) (A) (A) (A) (A) (A) (A) (A)
                 (A) (A) (A) (A) (A) (A) (A) (A) (A) (A) (A) (A)
                 (A) (A) (A) (A) (A) (A) (A) (A) (A) (A) (A) (A)
                 (A) (A) (A) (A) (A) (A) (A) (A) (A) (A) (A) (A)
                 (A) (A) (A) (A) (A) (A) (A) (A) (A) (A) (A) (A)
                 (A) (A) (A) (A) (A) (A) (A) (A) (A) (A) (A) (A)
 The electronic state of the initial guess is 1-A.
 Requested convergence on RMS density matrix=1.00D-08 within 128 cycles.
 Requested convergence on MAX density matrix=1.00D-06.
 Requested convergence on             energy=1.00D-06.
 No special actions if energy rises.
 SCF Done:  E(RB3LYP) =  -1297.92964961     A.U. after   14 cycles
             Convg  =    0.2767D-08             -V/T =  2.0088
 Range of M.O.s used for correlation:     1   547
 NBasis=   547 NAE=    91 NBE=    91 NFC=     0 NFV=     0
 NROrb=    547 NOA=    91 NOB=    91 NVA=   456 NVB=   456

 **** Warning!!: The largest alpha MO coefficient is  0.85112329D+02

          Differentiating once with respect to electric field.
                with respect to dipole field.
          Electric field/nuclear overlap derivatives assumed to be zero.
          There are     3 degrees of freedom in the 1st order CPHF.  IDoFFX=0.
      3 vectors produced by pass  0 Test12= 1.38D-12 3.33D-08 XBig12= 1.19D+02 1.22D+00.
 AX will form     3 AO Fock derivatives at one time.
      3 vectors produced by pass  1 Test12= 1.38D-12 3.33D-08 XBig12= 2.40D+01 4.84D-01.
      3 vectors produced by pass  2 Test12= 1.38D-12 3.33D-08 XBig12= 1.04D+01 2.01D-01.
      3 vectors produced by pass  3 Test12= 1.38D-12 3.33D-08 XBig12= 8.97D-01 9.29D-02.
      3 vectors produced by pass  4 Test12= 1.38D-12 3.33D-08 XBig12= 2.59D-01 3.59D-02.
      3 vectors produced by pass  5 Test12= 1.38D-12 3.33D-08 XBig12= 4.79D-02 1.54D-02.
      3 vectors produced by pass  6 Test12= 1.38D-12 3.33D-08 XBig12= 1.42D-02 9.82D-03.
      3 vectors produced by pass  7 Test12= 1.38D-12 3.33D-08 XBig12= 2.04D-03 5.26D-03.
      3 vectors produced by pass  8 Test12= 1.38D-12 3.33D-08 XBig12= 3.64D-04 2.07D-03.
      3 vectors produced by pass  9 Test12= 1.38D-12 3.33D-08 XBig12= 8.14D-05 1.06D-03.
      3 vectors produced by pass 10 Test12= 1.38D-12 3.33D-08 XBig12= 2.05D-05 4.63D-04.
      3 vectors produced by pass 11 Test12= 1.38D-12 3.33D-08 XBig12= 5.18D-06 3.13D-04.
      3 vectors produced by pass 12 Test12= 1.38D-12 3.33D-08 XBig12= 6.65D-07 9.17D-05.
      3 vectors produced by pass 13 Test12= 1.38D-12 3.33D-08 XBig12= 1.55D-07 4.66D-05.
      3 vectors produced by pass 14 Test12= 1.38D-12 3.33D-08 XBig12= 1.75D-08 1.14D-05.
      3 vectors produced by pass 15 Test12= 1.38D-12 3.33D-08 XBig12= 4.09D-09 5.36D-06.
      3 vectors produced by pass 16 Test12= 1.38D-12 3.33D-08 XBig12= 6.02D-10 2.99D-06.
      3 vectors produced by pass 17 Test12= 1.38D-12 3.33D-08 XBig12= 8.90D-11 7.21D-07.
      3 vectors produced by pass 18 Test12= 1.38D-12 3.33D-08 XBig12= 4.46D-11 4.68D-07.
      3 vectors produced by pass 19 Test12= 1.38D-12 3.33D-08 XBig12= 1.18D-11 2.46D-07.
      2 vectors produced by pass 20 Test12= 1.38D-12 3.33D-08 XBig12= 7.38D-12 2.25D-07.
      2 vectors produced by pass 21 Test12= 1.38D-12 3.33D-08 XBig12= 2.08D-12 8.22D-08.
      1 vectors produced by pass 22 Test12= 1.38D-12 3.33D-08 XBig12= 3.34D-13 4.08D-08.
 Inverted reduced A of dimension    65 with in-core refinement.
 End of Minotr Frequency-dependent properties file   721 does not exist.
 End of Minotr Frequency-dependent properties file   722 does not exist.
 Symmetrizing basis deriv contribution to polar:
 IMax=3 JMax=2 DiffMx= 0.00D+00
 G2DrvN: will do    23 centers at a time, making    2 passes doing MaxLOS=2.
 Calling FoFCou, ICntrl=  3107 FMM=F I1Cent=   0 AccDes= 0.00D+00.
 Calling FoFCou, ICntrl=  3107 FMM=F I1Cent=   0 AccDes= 0.00D+00.
 FoFDir/FoFCou used for L=0 through L=2.
 End of G2Drv Frequency-dependent properties file   721 does not exist.
 End of G2Drv Frequency-dependent properties file   722 does not exist.
          IDoAtm=111111111111111111111111111111111111111111111
          Differentiating once with respect to electric field.
                with respect to dipole field.
          Differentiating once with respect to nuclear coordinates.
          There are   138 degrees of freedom in the 1st order CPHF.  IDoFFX=5.
 Will reuse    3 saved solutions.
    135 vectors produced by pass  0 Test12= 4.15D-14 1.00D-09 XBig12= 2.47D-01 7.49D-02.
 AX will form    68 AO Fock derivatives at one time.
    135 vectors produced by pass  1 Test12= 4.15D-14 1.00D-09 XBig12= 3.96D-02 1.53D-02.
    132 vectors produced by pass  2 Test12= 4.15D-14 1.00D-09 XBig12= 2.85D-04 1.81D-03.
    132 vectors produced by pass  3 Test12= 4.15D-14 1.00D-09 XBig12= 9.24D-07 8.20D-05.
    132 vectors produced by pass  4 Test12= 4.15D-14 1.00D-09 XBig12= 1.71D-09 3.65D-06.
    132 vectors produced by pass  5 Test12= 4.15D-14 1.00D-09 XBig12= 5.29D-12 1.63D-07.
     79 vectors produced by pass  6 Test12= 4.15D-14 1.00D-09 XBig12= 2.17D-13 2.94D-08.
 Inverted reduced A of dimension   877 with in-core refinement.
 Isotropic polarizability for W=    0.000000      187.36 Bohr**3.
 End of Minotr Frequency-dependent properties file   721 does not exist.
 End of Minotr Frequency-dependent properties file   722 does not exist.

 **********************************************************************

            Population analysis using the SCF density.

 **********************************************************************

 Orbital symmetries:
       Occupied  (A) (A) (A) (A) (A) (A) (A) (A) (A) (A) (A) (A)
                 (A) (A) (A) (A) (A) (A) (A) (A) (A) (A) (A) (A)
                 (A) (A) (A) (A) (A) (A) (A) (A) (A) (A) (A) (A)
                 (A) (A) (A) (A) (A) (A) (A) (A) (A) (A) (A) (A)
                 (A) (A) (A) (A) (A) (A) (A) (A) (A) (A) (A) (A)
                 (A) (A) (A) (A) (A) (A) (A) (A) (A) (A) (A) (A)
                 (A) (A) (A) (A) (A) (A) (A) (A) (A) (A) (A) (A)
                 (A) (A) (A) (A) (A) (A) (A)
       Virtual   (A) (A) (A) (A) (A) (A) (A) (A) (A) (A) (A) (A)
                 (A) (A) (A) (A) (A) (A) (A) (A) (A) (A) (A) (A)
                 (A) (A) (A) (A) (A) (A) (A) (A) (A) (A) (A) (A)
                 (A) (A) (A) (A) (A) (A) (A) (A) (A) (A) (A) (A)
                 (A) (A) (A) (A) (A) (A) (A) (A) (A) (A) (A) (A)
                 (A) (A) (A) (A) (A) (A) (A) (A) (A) (A) (A) (A)
                 (A) (A) (A) (A) (A) (A) (A) (A) (A) (A) (A) (A)
                 (A) (A) (A) (A) (A) (A) (A) (A) (A) (A) (A) (A)
                 (A) (A) (A) (A) (A) (A) (A) (A) (A) (A) (A) (A)
                 (A) (A) (A) (A) (A) (A) (A) (A) (A) (A) (A) (A)
                 (A) (A) (A) (A) (A) (A) (A) (A) (A) (A) (A) (A)
                 (A) (A) (A) (A) (A) (A) (A) (A) (A) (A) (A) (A)
                 (A) (A) (A) (A) (A) (A) (A) (A) (A) (A) (A) (A)
                 (A) (A) (A) (A) (A) (A) (A) (A) (A) (A) (A) (A)
                 (A) (A) (A) (A) (A) (A) (A) (A) (A) (A) (A) (A)
                 (A) (A) (A) (A) (A) (A) (A) (A) (A) (A) (A) (A)
                 (A) (A) (A) (A) (A) (A) (A) (A) (A) (A) (A) (A)
                 (A) (A) (A) (A) (A) (A) (A) (A) (A) (A) (A) (A)
                 (A) (A) (A) (A) (A) (A) (A) (A) (A) (A) (A) (A)
                 (A) (A) (A) (A) (A) (A) (A) (A) (A) (A) (A) (A)
                 (A) (A) (A) (A) (A) (A) (A) (A) (A) (A) (A) (A)
                 (A) (A) (A) (A) (A) (A) (A) (A) (A) (A) (A) (A)
                 (A) (A) (A) (A) (A) (A) (A) (A) (A) (A) (A) (A)
                 (A) (A) (A) (A) (A) (A) (A) (A) (A) (A) (A) (A)
                 (A) (A) (A) (A) (A) (A) (A) (A) (A) (A) (A) (A)
                 (A) (A) (A) (A) (A) (A) (A) (A) (A) (A) (A) (A)
                 (A) (A) (A) (A) (A) (A) (A) (A) (A) (A) (A) (A)
                 (A) (A) (A) (A) (A) (A) (A) (A) (A) (A) (A) (A)
                 (A) (A) (A) (A) (A) (A) (A) (A) (A) (A) (A) (A)
                 (A) (A) (A) (A) (A) (A) (A) (A) (A) (A) (A) (A)
                 (A) (A) (A) (A) (A) (A) (A) (A) (A) (A) (A) (A)
                 (A) (A) (A) (A) (A) (A) (A) (A) (A) (A) (A) (A)
                 (A) (A) (A) (A) (A) (A) (A) (A) (A) (A) (A) (A)
                 (A) (A) (A) (A) (A) (A) (A) (A) (A) (A) (A) (A)
                 (A) (A) (A) (A) (A) (A) (A) (A) (A) (A) (A) (A)
                 (A) (A) (A) (A) (A) (A) (A) (A) (A) (A) (A) (A)
                 (A) (A) (A) (A) (A) (A) (A) (A) (A) (A) (A) (A)
                 (A) (A) (A) (A) (A) (A) (A) (A) (A) (A) (A) (A)
 The electronic state is 1-A.
 Alpha  occ. eigenvalues --  -19.19599 -19.19379 -19.19039 -19.18956 -19.18889
 Alpha  occ. eigenvalues --  -19.17520 -19.17284 -19.17114 -19.15385 -19.15113
 Alpha  occ. eigenvalues --  -19.14732 -10.31231 -10.31147 -10.26578 -10.25891
 Alpha  occ. eigenvalues --  -10.25817 -10.25725 -10.25589 -10.25133 -10.24853
 Alpha  occ. eigenvalues --  -10.24737 -10.24579 -10.24475  -1.10460  -1.09073
 Alpha  occ. eigenvalues --   -1.05312  -1.04962  -1.03985  -1.03787  -1.03037
 Alpha  occ. eigenvalues --   -1.02744  -1.01929  -1.00954  -1.00339  -0.82027
 Alpha  occ. eigenvalues --   -0.80016  -0.79648  -0.78426  -0.72364  -0.70561
 Alpha  occ. eigenvalues --   -0.67148  -0.65300  -0.63365  -0.62574  -0.61866
 Alpha  occ. eigenvalues --   -0.60096  -0.56567  -0.55687  -0.55042  -0.54712
 Alpha  occ. eigenvalues --   -0.53604  -0.53422  -0.53265  -0.52327  -0.51422
 Alpha  occ. eigenvalues --   -0.50759  -0.50402  -0.49323  -0.48864  -0.46615
 Alpha  occ. eigenvalues --   -0.46429  -0.45229  -0.44558  -0.43848  -0.43799
 Alpha  occ. eigenvalues --   -0.42892  -0.42062  -0.41285  -0.40202  -0.39237
 Alpha  occ. eigenvalues --   -0.38300  -0.37827  -0.37281  -0.36406  -0.35777
 Alpha  occ. eigenvalues --   -0.35022  -0.34700  -0.34268  -0.33684  -0.33415
 Alpha  occ. eigenvalues --   -0.32704  -0.31764  -0.31273  -0.30755  -0.29921
 Alpha  occ. eigenvalues --   -0.29615  -0.28450  -0.28248  -0.27466  -0.26597
 Alpha  occ. eigenvalues --   -0.26128
 Alpha virt. eigenvalues --   -0.02098  -0.01967  -0.01785  -0.00360   0.00151
 Alpha virt. eigenvalues --    0.00794   0.01772   0.02455   0.02945   0.03263
 Alpha virt. eigenvalues --    0.03683   0.04362   0.04704   0.05146   0.05750
 Alpha virt. eigenvalues --    0.06031   0.06534   0.07414   0.07641   0.08074
 Alpha virt. eigenvalues --    0.08448   0.08951   0.09284   0.09417   0.09877
 Alpha virt. eigenvalues --    0.10295   0.11216   0.11703   0.11833   0.11868
 Alpha virt. eigenvalues --    0.12598   0.12962   0.13236   0.13465   0.13543
 Alpha virt. eigenvalues --    0.13839   0.14253   0.14637   0.15007   0.15078
 Alpha virt. eigenvalues --    0.15859   0.16323   0.16558   0.17064   0.17145
 Alpha virt. eigenvalues --    0.17423   0.17649   0.17818   0.18209   0.18560
 Alpha virt. eigenvalues --    0.18825   0.19121   0.19514   0.19774   0.20101
 Alpha virt. eigenvalues --    0.20650   0.21183   0.21427   0.21576   0.21690
 Alpha virt. eigenvalues --    0.21831   0.22356   0.22836   0.23038   0.23286
 Alpha virt. eigenvalues --    0.23335   0.24035   0.24297   0.24774   0.24866
 Alpha virt. eigenvalues --    0.25024   0.25348   0.25703   0.25888   0.26055
 Alpha virt. eigenvalues --    0.26260   0.26376   0.26516   0.26922   0.27404
 Alpha virt. eigenvalues --    0.27543   0.28246   0.28391   0.28900   0.29176
 Alpha virt. eigenvalues --    0.29427   0.29675   0.30141   0.30408   0.30682
 Alpha virt. eigenvalues --    0.31381   0.31728   0.31839   0.32247   0.32516
 Alpha virt. eigenvalues --    0.32590   0.32670   0.33424   0.33625   0.33825
 Alpha virt. eigenvalues --    0.34591   0.34875   0.35015   0.35189   0.35746
 Alpha virt. eigenvalues --    0.36147   0.36589   0.36934   0.37298   0.37563
 Alpha virt. eigenvalues --    0.37635   0.38074   0.38713   0.39297   0.39455
 Alpha virt. eigenvalues --    0.39905   0.40172   0.40940   0.41056   0.41444
 Alpha virt. eigenvalues --    0.41668   0.42894   0.42975   0.43286   0.43521
 Alpha virt. eigenvalues --    0.44361   0.44674   0.45418   0.46122   0.47388
 Alpha virt. eigenvalues --    0.47830   0.48772   0.49487   0.49817   0.50746
 Alpha virt. eigenvalues --    0.51253   0.51401   0.53606   0.62722   0.63692
 Alpha virt. eigenvalues --    0.66040   0.66846   0.67356   0.69367   0.70086
 Alpha virt. eigenvalues --    0.70703   0.71809   0.72590   0.73791   0.74390
 Alpha virt. eigenvalues --    0.74719   0.75581   0.76310   0.77742   0.79359
 Alpha virt. eigenvalues --    0.79733   0.80388   0.81639   0.82700   0.83662
 Alpha virt. eigenvalues --    0.84497   0.85211   0.87698   0.88106   0.88772
 Alpha virt. eigenvalues --    0.89947   0.92070   0.92374   0.93750   0.94650
 Alpha virt. eigenvalues --    0.95742   0.96852   0.97441   0.98557   1.00113
 Alpha virt. eigenvalues --    1.02144   1.02457   1.02846   1.03229   1.04380
 Alpha virt. eigenvalues --    1.05184   1.05596   1.05799   1.06979   1.07966
 Alpha virt. eigenvalues --    1.08201   1.08441   1.09393   1.09509   1.10746
 Alpha virt. eigenvalues --    1.11114   1.12293   1.12375   1.12914   1.14030
 Alpha virt. eigenvalues --    1.16239   1.16827   1.19106   1.20529   1.21047
 Alpha virt. eigenvalues --    1.22099   1.23007   1.24067   1.24194   1.24762
 Alpha virt. eigenvalues --    1.25162   1.26062   1.26510   1.27663   1.28470
 Alpha virt. eigenvalues --    1.28856   1.29581   1.30137   1.30664   1.31722
 Alpha virt. eigenvalues --    1.32037   1.32389   1.32872   1.33390   1.34444
 Alpha virt. eigenvalues --    1.35838   1.36007   1.37173   1.38042   1.38633
 Alpha virt. eigenvalues --    1.38984   1.39896   1.41270   1.41771   1.43965
 Alpha virt. eigenvalues --    1.44797   1.45255   1.46616   1.47152   1.47553
 Alpha virt. eigenvalues --    1.48286   1.51018   1.51583   1.52548   1.52911
 Alpha virt. eigenvalues --    1.54178   1.55248   1.56850   1.56961   1.57827
 Alpha virt. eigenvalues --    1.58295   1.59664   1.60414   1.60817   1.61590
 Alpha virt. eigenvalues --    1.62580   1.63183   1.64299   1.64671   1.65013
 Alpha virt. eigenvalues --    1.66204   1.67436   1.67628   1.69076   1.69299
 Alpha virt. eigenvalues --    1.70224   1.70998   1.71435   1.72454   1.73515
 Alpha virt. eigenvalues --    1.74085   1.74292   1.75599   1.76796   1.77496
 Alpha virt. eigenvalues --    1.78303   1.78708   1.79440   1.80427   1.80524
 Alpha virt. eigenvalues --    1.81624   1.83236   1.84875   1.85019   1.86512
 Alpha virt. eigenvalues --    1.87068   1.89085   1.89612   1.91660   1.92261
 Alpha virt. eigenvalues --    1.92911   1.93420   1.94190   1.95263   1.95554
 Alpha virt. eigenvalues --    1.96117   1.96499   1.96607   1.98048   1.98538
 Alpha virt. eigenvalues --    1.98607   1.99622   2.00532   2.01797   2.02059
 Alpha virt. eigenvalues --    2.03006   2.03454   2.04481   2.05802   2.07218
 Alpha virt. eigenvalues --    2.08800   2.08860   2.09395   2.10219   2.11505
 Alpha virt. eigenvalues --    2.12959   2.13187   2.13715   2.14255   2.15430
 Alpha virt. eigenvalues --    2.16984   2.17658   2.18564   2.20047   2.21324
 Alpha virt. eigenvalues --    2.21620   2.23598   2.24145   2.25381   2.25881
 Alpha virt. eigenvalues --    2.29185   2.30700   2.32486   2.33667   2.34982
 Alpha virt. eigenvalues --    2.35557   2.35919   2.36533   2.37126   2.39711
 Alpha virt. eigenvalues --    2.41296   2.41933   2.42644   2.43107   2.44269
 Alpha virt. eigenvalues --    2.45552   2.46084   2.46943   2.47609   2.48367
 Alpha virt. eigenvalues --    2.48870   2.50333   2.51379   2.54102   2.55494
 Alpha virt. eigenvalues --    2.55987   2.57488   2.59032   2.59204   2.60395
 Alpha virt. eigenvalues --    2.61854   2.62272   2.62765   2.62897   2.63956
 Alpha virt. eigenvalues --    2.64482   2.65602   2.67350   2.68065   2.68858
 Alpha virt. eigenvalues --    2.70754   2.71226   2.72507   2.73817   2.75030
 Alpha virt. eigenvalues --    2.76099   2.76309   2.78413   2.79397   2.80339
 Alpha virt. eigenvalues --    2.81021   2.83024   2.83264   2.84626   2.85487
 Alpha virt. eigenvalues --    2.86356   2.87139   2.88727   2.88958   2.89834
 Alpha virt. eigenvalues --    2.90337   2.91204   2.91974   2.93552   2.94333
 Alpha virt. eigenvalues --    2.94831   2.95731   2.97630   2.98053   2.99144
 Alpha virt. eigenvalues --    3.00396   3.02369   3.03296   3.04749   3.06110
 Alpha virt. eigenvalues --    3.07135   3.09296   3.10148   3.12236   3.14687
 Alpha virt. eigenvalues --    3.16858   3.19041   3.25012   3.26654   3.29407
 Alpha virt. eigenvalues --    3.30224   3.36226   3.37773   3.38610   3.40644
 Alpha virt. eigenvalues --    3.42961   3.45017   3.45541   3.46344   3.47314
 Alpha virt. eigenvalues --    3.49268   3.50453   3.52732   3.53127   3.54380
 Alpha virt. eigenvalues --    3.55740   3.56317   3.59076   3.61653   3.64073
 Alpha virt. eigenvalues --    3.66025   3.66947   3.69154   4.29067   4.31882
 Alpha virt. eigenvalues --    4.33802   4.35101   4.36969   4.41524   4.42947
 Alpha virt. eigenvalues --    4.44482   4.47190   4.49626   4.53234   4.54033
 Alpha virt. eigenvalues --    4.57129   4.60361   4.61875   4.63760   4.69946
 Alpha virt. eigenvalues --    4.73350   4.82282   4.85484   4.87072   4.89280
 Alpha virt. eigenvalues --    4.92367
          Condensed to atoms (all electrons):
              1          2          3          4          5          6
     1  O    8.282871   0.275560  -0.093109  -0.014510   0.027655   0.050445
     2  C    0.275560   9.649598  -1.260580   0.012250  -0.064660  -3.068184
     3  C   -0.093109  -1.260580   8.900436   0.196713   0.027847   0.149459
     4  O   -0.014510   0.012250   0.196713   8.250363   0.201098  -0.123735
     5  H    0.027655  -0.064660   0.027847   0.201098   0.423331   0.007647
     6  C    0.050445  -3.068184   0.149459  -0.123735   0.007647  13.551516
     7  O   -0.000675   0.044517  -0.202124   0.006981  -0.000675   0.387878
     8  H    0.000020  -0.013916   0.039251  -0.000544   0.000010   0.036997
     9  C   -0.052782  -0.407201   0.092045   0.000849  -0.004687   0.423442
    10  O   -0.025634  -0.013440  -0.000251   0.000192  -0.000014  -0.007263
    11  H    0.001347   0.007047  -0.000931  -0.000001   0.000000  -0.000515
    12  C   -0.157850  -1.507992  -0.690904   0.011510   0.023350   0.788998
    13  O    0.007306  -0.037059  -0.036889   0.000597   0.000192  -0.107153
    14  C    0.039351   1.546253  -0.576719   0.021957   0.006822  -4.116323
    15  O    0.000322  -0.051428   0.040307  -0.000744   0.000055   0.161302
    16  C    0.002478   0.296476  -0.476544  -0.001231   0.001294  -1.080412
    17  C    0.001290  -0.016750  -0.032207   0.001133   0.000096   0.098357
    18  O    0.000026   0.009366  -0.001339  -0.000031   0.000000   0.014649
    19  H   -0.000014  -0.002125   0.003547   0.000004   0.000000   0.004427
    20  C    0.000085   0.002500  -0.001999  -0.000089   0.000000   0.072598
    21  O    0.000000  -0.000068  -0.000016   0.000000   0.000000  -0.000607
    22  H    0.000000   0.000003   0.000001   0.000000   0.000000  -0.000063
    23  C    0.000130   0.027509  -0.032416   0.000394  -0.000003  -0.395535
    24  O    0.000000   0.000827  -0.012050  -0.000018  -0.000002  -0.008749
    25  H    0.000000   0.000170   0.001804   0.000001   0.000000  -0.001047
    26  C   -0.000349   0.027498  -0.080323   0.001232   0.000016  -0.396851
    27  O    0.000000  -0.000216   0.001000   0.000001   0.000000   0.001770
    28  C   -0.000003  -0.002114   0.000624  -0.000005   0.000000   0.024278
    29  O    0.000000   0.000013   0.000040   0.000000   0.000000  -0.000691
    30  H    0.231918   0.088749  -0.034716   0.000180  -0.002843   0.001607
    31  H   -0.001016   0.008684  -0.013155   0.000037   0.000000   0.000637
    32  H    0.002721  -0.052435   0.011728  -0.000029   0.000000   0.009211
    33  H    0.005751   0.007362  -0.022835   0.000420  -0.000022  -0.083840
    34  H   -0.049424   0.442086  -0.074420  -0.000705  -0.001568  -0.048528
    35  H   -0.006941   0.145230   0.268431  -0.041969  -0.003081  -0.339578
    36  H   -0.000661   0.093757  -0.234741   0.007001  -0.000047   0.258431
    37  H    0.000135   0.041621  -0.055444  -0.000273   0.000004  -0.109637
    38  H    0.000000   0.000000   0.000000   0.000000   0.000000   0.000000
    39  H    0.000000   0.000005  -0.000160   0.000000   0.000000  -0.001157
    40  H    0.000000  -0.000009   0.000675   0.000000   0.000000  -0.000612
    41  H    0.000000  -0.000123   0.000870   0.000000   0.000000   0.002360
    42  H   -0.000003  -0.000618   0.003331  -0.000004   0.000000   0.021739
    43  H    0.000000   0.000374   0.000478   0.000000   0.000000   0.004390
    44  H    0.000000   0.000079   0.000092   0.000000   0.000000  -0.000097
    45  H    0.000000  -0.000006   0.000027   0.000000   0.000000   0.000011
              7          8          9         10         11         12
     1  O   -0.000675   0.000020  -0.052782  -0.025634   0.001347  -0.157850
     2  C    0.044517  -0.013916  -0.407201  -0.013440   0.007047  -1.507992
     3  C   -0.202124   0.039251   0.092045  -0.000251  -0.000931  -0.690904
     4  O    0.006981  -0.000544   0.000849   0.000192  -0.000001   0.011510
     5  H   -0.000675   0.000010  -0.004687  -0.000014   0.000000   0.023350
     6  C    0.387878   0.036997   0.423442  -0.007263  -0.000515   0.788998
     7  O    8.224686   0.195571   0.002190   0.000013   0.000000   0.024486
     8  H    0.195571   0.366115   0.000262   0.000000   0.000000   0.001515
     9  C    0.002190   0.000262   7.680125   0.066296  -0.023637  -1.710988
    10  O    0.000013   0.000000   0.066296   8.329364   0.194941   0.087293
    11  H    0.000000   0.000000  -0.023637   0.194941   0.443207   0.038884
    12  C    0.024486   0.001515  -1.710988   0.087293   0.038884  10.867230
    13  O    0.009438   0.000146   0.002817   0.000263  -0.000416  -0.066053
    14  C   -0.147427  -0.051295  -0.782892   0.009080  -0.004701  -1.534454
    15  O   -0.006667   0.020785  -0.010316   0.000058   0.000007   0.031175
    16  C   -0.002284  -0.015452  -0.267324  -0.002400   0.000500   0.132092
    17  C    0.005099   0.003997  -0.022271  -0.000475  -0.000260  -0.359631
    18  O   -0.000106  -0.000048   0.000084   0.000000   0.000018  -0.010707
    19  H   -0.000016  -0.000004   0.001337   0.000013  -0.000001   0.000191
    20  C    0.001869   0.000490   0.007871   0.000058  -0.000004  -0.032900
    21  O   -0.000003   0.000000   0.000407   0.000000   0.000000  -0.000291
    22  H    0.000000   0.000000  -0.000012   0.000000   0.000000   0.000080
    23  C    0.004104  -0.006391  -0.008144  -0.000021   0.000000  -0.028263
    24  O   -0.015528   0.015192   0.000044   0.000000   0.000000   0.002818
    25  H    0.001750  -0.004296  -0.000022   0.000000   0.000000  -0.000539
    26  C    0.018045   0.002199   0.003177   0.000042   0.000009   0.200037
    27  O    0.000045   0.000008  -0.000101   0.000000   0.000000   0.000450
    28  C   -0.000229   0.000286  -0.003559  -0.000001   0.000000   0.002294
    29  O   -0.000002  -0.000001  -0.000051   0.000000   0.000000   0.000240
    30  H   -0.000005   0.000000   0.011085   0.001899  -0.000030  -0.046070
    31  H   -0.000002   0.000000   0.479896  -0.056872  -0.006711  -0.089907
    32  H   -0.000005   0.000000   0.581796  -0.060789  -0.007544  -0.216192
    33  H    0.000124   0.000004  -0.054460   0.002550  -0.000165   0.246399
    34  H    0.000010   0.000004  -0.040188  -0.000800   0.000001  -0.098452
    35  H    0.008069  -0.000150   0.015493   0.000032   0.000000  -0.031906
    36  H   -0.047455  -0.007572   0.012916   0.000017   0.000000   0.018600
    37  H    0.005860  -0.000641   0.004419   0.000035   0.000000  -0.005207
    38  H    0.000000   0.000000   0.000000   0.000000   0.000000   0.000001
    39  H   -0.000367   0.000207  -0.000004   0.000000   0.000000  -0.000076
    40  H    0.000647   0.000335   0.000002   0.000000   0.000000   0.000409
    41  H    0.000027  -0.000001   0.000064   0.000000   0.000000   0.000848
    42  H   -0.000224   0.000058  -0.000017   0.000003   0.000000   0.005822
    43  H   -0.000004   0.000004   0.000204   0.000000   0.000000   0.002176
    44  H    0.000000   0.000000  -0.000200   0.000000   0.000000   0.001006
    45  H    0.000000   0.000000  -0.000004   0.000000   0.000000   0.000050
             13         14         15         16         17         18
     1  O    0.007306   0.039351   0.000322   0.002478   0.001290   0.000026
     2  C   -0.037059   1.546253  -0.051428   0.296476  -0.016750   0.009366
     3  C   -0.036889  -0.576719   0.040307  -0.476544  -0.032207  -0.001339
     4  O    0.000597   0.021957  -0.000744  -0.001231   0.001133  -0.000031
     5  H    0.000192   0.006822   0.000055   0.001294   0.000096   0.000000
     6  C   -0.107153  -4.116323   0.161302  -1.080412   0.098357   0.014649
     7  O    0.009438  -0.147427  -0.006667  -0.002284   0.005099  -0.000106
     8  H    0.000146  -0.051295   0.020785  -0.015452   0.003997  -0.000048
     9  C    0.002817  -0.782892  -0.010316  -0.267324  -0.022271   0.000084
    10  O    0.000263   0.009080   0.000058  -0.002400  -0.000475   0.000000
    11  H   -0.000416  -0.004701   0.000007   0.000500  -0.000260   0.000018
    12  C   -0.066053  -1.534454   0.031175   0.132092  -0.359631  -0.010707
    13  O    8.470360   0.220108  -0.014023   0.081626  -0.059369   0.006024
    14  C    0.220108  13.159799   0.020187  -0.870734  -0.368936  -0.087702
    15  O   -0.014023   0.020187   8.251960   0.026318  -0.016740   0.003837
    16  C    0.081626  -0.870734   0.026318  16.601110  -3.229061  -0.244199
    17  C   -0.059369  -0.368936  -0.016740  -3.229061   9.541518   0.489561
    18  O    0.006024  -0.087702   0.003837  -0.244199   0.489561   8.133005
    19  H    0.002906   0.001655   0.021946  -0.096768   0.055144   0.212237
    20  C   -0.016499  -0.207147   0.031735  -1.273740  -0.311080  -0.097045
    21  O   -0.000281  -0.002501   0.000201  -0.002719  -0.105151   0.005179
    22  H    0.000000  -0.000840   0.000023  -0.010420   0.012948  -0.000679
    23  C    0.020175  -0.352017  -0.041773  -0.040591  -0.325727   0.001269
    24  O   -0.002611   0.139748  -0.044520  -0.061789  -0.024548   0.000337
    25  H    0.000039  -0.013219   0.001582   0.006938  -0.001103   0.000000
    26  C    0.026613  -1.493769  -0.011232  -4.960827   0.261821   0.077433
    27  O    0.000371  -0.013128   0.010991  -0.117163  -0.018763   0.000466
    28  C   -0.001091   0.115718   0.022060   0.763396   0.412288  -0.001858
    29  O    0.000046  -0.004940   0.000136  -0.021378   0.020063  -0.000261
    30  H   -0.000880  -0.003394  -0.000013   0.000315  -0.000090   0.000001
    31  H    0.002442  -0.005459  -0.000145   0.004152  -0.000475  -0.000798
    32  H    0.003653   0.017777  -0.000181  -0.007902   0.003581  -0.000109
    33  H   -0.058572   0.168914  -0.001057   0.005053   0.006734   0.000424
    34  H    0.006934   0.105305  -0.000534   0.001367   0.001535   0.000061
    35  H    0.006905   0.183817  -0.000924   0.012245   0.001527   0.000041
    36  H    0.015114   0.067945  -0.012843   0.038402   0.006252   0.000034
    37  H   -0.053803   0.325627  -0.062530   0.045411   0.042008  -0.000451
    38  H    0.000000   0.000130   0.000000  -0.004320   0.003054  -0.000046
    39  H   -0.000013   0.002737  -0.001001  -0.000975  -0.009303   0.000032
    40  H    0.000099   0.003826   0.003661   0.009282   0.014300  -0.000014
    41  H   -0.000190   0.068538   0.003085   0.126720  -0.009662  -0.000334
    42  H   -0.001618   0.044737  -0.068323   0.317607   0.016743  -0.003765
    43  H    0.001943   0.051266  -0.008508   0.018066   0.313441  -0.046552
    44  H    0.000353   0.005984  -0.001039   0.101954  -0.165072   0.002788
    45  H    0.000009   0.008194   0.000053   0.147311  -0.021789  -0.000853
             19         20         21         22         23         24
     1  O   -0.000014   0.000085   0.000000   0.000000   0.000130   0.000000
     2  C   -0.002125   0.002500  -0.000068   0.000003   0.027509   0.000827
     3  C    0.003547  -0.001999  -0.000016   0.000001  -0.032416  -0.012050
     4  O    0.000004  -0.000089   0.000000   0.000000   0.000394  -0.000018
     5  H    0.000000   0.000000   0.000000   0.000000  -0.000003  -0.000002
     6  C    0.004427   0.072598  -0.000607  -0.000063  -0.395535  -0.008749
     7  O   -0.000016   0.001869  -0.000003   0.000000   0.004104  -0.015528
     8  H   -0.000004   0.000490   0.000000   0.000000  -0.006391   0.015192
     9  C    0.001337   0.007871   0.000407  -0.000012  -0.008144   0.000044
    10  O    0.000013   0.000058   0.000000   0.000000  -0.000021   0.000000
    11  H   -0.000001  -0.000004   0.000000   0.000000   0.000000   0.000000
    12  C    0.000191  -0.032900  -0.000291   0.000080  -0.028263   0.002818
    13  O    0.002906  -0.016499  -0.000281   0.000000   0.020175  -0.002611
    14  C    0.001655  -0.207147  -0.002501  -0.000840  -0.352017   0.139748
    15  O    0.021946   0.031735   0.000201   0.000023  -0.041773  -0.044520
    16  C   -0.096768  -1.273740  -0.002719  -0.010420  -0.040591  -0.061789
    17  C    0.055144  -0.311080  -0.105151   0.012948  -0.325727  -0.024548
    18  O    0.212237  -0.097045   0.005179  -0.000679   0.001269   0.000337
    19  H    0.383403   0.032769  -0.000584   0.000018  -0.003116   0.000044
    20  C    0.032769   8.010494   0.185450   0.021186   0.126628  -0.010179
    21  O   -0.000584   0.185450   8.262443   0.212286   0.007103   0.000051
    22  H    0.000018   0.021186   0.212286   0.420066   0.000214   0.000000
    23  C   -0.003116   0.126628   0.007103   0.000214   7.319396  -0.181584
    24  O    0.000044  -0.010179   0.000051   0.000000  -0.181584   8.469854
    25  H    0.000000   0.000945   0.000000   0.000000   0.029301   0.205930
    26  C    0.002325   0.490156   0.045412   0.005904  -0.722676   0.225941
    27  O    0.000157  -0.143699   0.010675  -0.000218  -0.100076   0.001080
    28  C   -0.001965  -1.066888  -0.058196  -0.022462  -0.401103   0.012642
    29  O    0.000031  -0.169372   0.018872   0.011751  -0.009265   0.000121
    30  H    0.000000   0.000002   0.000000   0.000000   0.000005   0.000000
    31  H    0.000140  -0.000638  -0.000001   0.000000  -0.000010   0.000000
    32  H    0.000017   0.000425   0.000002   0.000000   0.000003   0.000000
    33  H    0.000231   0.001040   0.000001   0.000000   0.000683   0.000004
    34  H    0.000003   0.000036   0.000000   0.000000   0.000117   0.000005
    35  H   -0.000001  -0.000014   0.000000   0.000000   0.000664   0.000065
    36  H    0.000004   0.000446   0.000000   0.000000   0.006315   0.001331
    37  H    0.000542   0.012869   0.000015   0.000000   0.014092   0.000605
    38  H    0.000000  -0.020120  -0.002473  -0.001046  -0.000162   0.000000
    39  H    0.000000  -0.000133   0.000001   0.000000   0.443668  -0.049340
    40  H    0.000001  -0.004071  -0.000003   0.000000   0.503376  -0.071171
    41  H    0.000048  -0.045035  -0.000015   0.000005  -0.030048   0.005042
    42  H   -0.000062   0.024683  -0.000641   0.000004   0.009208   0.000157
    43  H   -0.008765  -0.035509  -0.001822  -0.000059   0.021306   0.000008
    44  H    0.000037   0.390612  -0.043608  -0.006861   0.012313  -0.000005
    45  H    0.000014  -0.153008   0.005151  -0.000434  -0.007028  -0.000021
             25         26         27         28         29         30
     1  O    0.000000  -0.000349   0.000000  -0.000003   0.000000   0.231918
     2  C    0.000170   0.027498  -0.000216  -0.002114   0.000013   0.088749
     3  C    0.001804  -0.080323   0.001000   0.000624   0.000040  -0.034716
     4  O    0.000001   0.001232   0.000001  -0.000005   0.000000   0.000180
     5  H    0.000000   0.000016   0.000000   0.000000   0.000000  -0.002843
     6  C   -0.001047  -0.396851   0.001770   0.024278  -0.000691   0.001607
     7  O    0.001750   0.018045   0.000045  -0.000229  -0.000002  -0.000005
     8  H   -0.004296   0.002199   0.000008   0.000286  -0.000001   0.000000
     9  C   -0.000022   0.003177  -0.000101  -0.003559  -0.000051   0.011085
    10  O    0.000000   0.000042   0.000000  -0.000001   0.000000   0.001899
    11  H    0.000000   0.000009   0.000000   0.000000   0.000000  -0.000030
    12  C   -0.000539   0.200037   0.000450   0.002294   0.000240  -0.046070
    13  O    0.000039   0.026613   0.000371  -0.001091   0.000046  -0.000880
    14  C   -0.013219  -1.493769  -0.013128   0.115718  -0.004940  -0.003394
    15  O    0.001582  -0.011232   0.010991   0.022060   0.000136  -0.000013
    16  C    0.006938  -4.960827  -0.117163   0.763396  -0.021378   0.000315
    17  C   -0.001103   0.261821  -0.018763   0.412288   0.020063  -0.000090
    18  O    0.000000   0.077433   0.000466  -0.001858  -0.000261   0.000001
    19  H    0.000000   0.002325   0.000157  -0.001965   0.000031   0.000000
    20  C    0.000945   0.490156  -0.143699  -1.066888  -0.169372   0.000002
    21  O    0.000000   0.045412   0.010675  -0.058196   0.018872   0.000000
    22  H    0.000000   0.005904  -0.000218  -0.022462   0.011751   0.000000
    23  C    0.029301  -0.722676  -0.100076  -0.401103  -0.009265   0.000005
    24  O    0.205930   0.225941   0.001080   0.012642   0.000121   0.000000
    25  H    0.411430  -0.009418  -0.000377  -0.003230   0.000002   0.000000
    26  C   -0.009418  13.635843   0.407862  -1.220967  -0.037454  -0.000013
    27  O   -0.000377   0.407862   8.312184   0.098150  -0.029599   0.000000
    28  C   -0.003230  -1.220967   0.098150   6.325993   0.375904   0.000000
    29  O    0.000002  -0.037454  -0.029599   0.375904   8.234795   0.000000
    30  H    0.000000  -0.000013   0.000000   0.000000   0.000000   0.397560
    31  H    0.000000   0.000163   0.000001   0.000071   0.000000   0.000001
    32  H    0.000000  -0.000136   0.000000  -0.000053   0.000000  -0.000086
    33  H    0.000000  -0.001279  -0.000002  -0.000142   0.000000  -0.000083
    34  H    0.000000   0.000067   0.000000  -0.000008   0.000000  -0.011075
    35  H    0.000000   0.000996   0.000000  -0.000017   0.000000   0.000161
    36  H   -0.000016   0.004184   0.000001  -0.000151   0.000000   0.000019
    37  H    0.000015   0.015711  -0.000072  -0.003285   0.000000   0.000002
    38  H    0.000000   0.015074   0.003179   0.013464   0.233520   0.000000
    39  H   -0.006163  -0.049137  -0.002558   0.002733  -0.000182   0.000000
    40  H   -0.004614  -0.186100   0.006751   0.012865  -0.000075   0.000000
    41  H   -0.000158   0.098450  -0.049374   0.057041  -0.000564   0.000000
    42  H    0.000004  -0.141321   0.000680   0.000557  -0.000489   0.000000
    43  H    0.000000  -0.060830   0.001479  -0.028920  -0.000401   0.000000
    44  H    0.000000  -0.002837   0.002664  -0.049404  -0.002498   0.000000
    45  H    0.000000  -0.115457  -0.064168   0.478213  -0.055348   0.000000
             31         32         33         34         35         36
     1  O   -0.001016   0.002721   0.005751  -0.049424  -0.006941  -0.000661
     2  C    0.008684  -0.052435   0.007362   0.442086   0.145230   0.093757
     3  C   -0.013155   0.011728  -0.022835  -0.074420   0.268431  -0.234741
     4  O    0.000037  -0.000029   0.000420  -0.000705  -0.041969   0.007001
     5  H    0.000000   0.000000  -0.000022  -0.001568  -0.003081  -0.000047
     6  C    0.000637   0.009211  -0.083840  -0.048528  -0.339578   0.258431
     7  O   -0.000002  -0.000005   0.000124   0.000010   0.008069  -0.047455
     8  H    0.000000   0.000000   0.000004   0.000004  -0.000150  -0.007572
     9  C    0.479896   0.581796  -0.054460  -0.040188   0.015493   0.012916
    10  O   -0.056872  -0.060789   0.002550  -0.000800   0.000032   0.000017
    11  H   -0.006711  -0.007544  -0.000165   0.000001   0.000000   0.000000
    12  C   -0.089907  -0.216192   0.246399  -0.098452  -0.031906   0.018600
    13  O    0.002442   0.003653  -0.058572   0.006934   0.006905   0.015114
    14  C   -0.005459   0.017777   0.168914   0.105305   0.183817   0.067945
    15  O   -0.000145  -0.000181  -0.001057  -0.000534  -0.000924  -0.012843
    16  C    0.004152  -0.007902   0.005053   0.001367   0.012245   0.038402
    17  C   -0.000475   0.003581   0.006734   0.001535   0.001527   0.006252
    18  O   -0.000798  -0.000109   0.000424   0.000061   0.000041   0.000034
    19  H    0.000140   0.000017   0.000231   0.000003  -0.000001   0.000004
    20  C   -0.000638   0.000425   0.001040   0.000036  -0.000014   0.000446
    21  O   -0.000001   0.000002   0.000001   0.000000   0.000000   0.000000
    22  H    0.000000   0.000000   0.000000   0.000000   0.000000   0.000000
    23  C   -0.000010   0.000003   0.000683   0.000117   0.000664   0.006315
    24  O    0.000000   0.000000   0.000004   0.000005   0.000065   0.001331
    25  H    0.000000   0.000000   0.000000   0.000000   0.000000  -0.000016
    26  C    0.000163  -0.000136  -0.001279   0.000067   0.000996   0.004184
    27  O    0.000001   0.000000  -0.000002   0.000000   0.000000   0.000001
    28  C    0.000071  -0.000053  -0.000142  -0.000008  -0.000017  -0.000151
    29  O    0.000000   0.000000   0.000000   0.000000   0.000000   0.000000
    30  H    0.000001  -0.000086  -0.000083  -0.011075   0.000161   0.000019
    31  H    0.602018  -0.054105  -0.015393  -0.000147   0.000004   0.000001
    32  H   -0.054105   0.628499   0.008656   0.002672   0.000000  -0.000002
    33  H   -0.015393   0.008656   0.645404   0.007256   0.004690   0.000160
    34  H   -0.000147   0.002672   0.007256   0.612168   0.005925   0.002924
    35  H    0.000004   0.000000   0.004690   0.005925   0.623062   0.007685
    36  H    0.000001  -0.000002   0.000160   0.002924   0.007685   0.606743
    37  H   -0.000014   0.000007   0.006700  -0.000012   0.002449   0.005798
    38  H    0.000000   0.000000   0.000000   0.000000   0.000000   0.000000
    39  H    0.000000   0.000000   0.000000   0.000000   0.000000   0.000000
    40  H    0.000000   0.000000   0.000000   0.000000   0.000000  -0.000006
    41  H    0.000000   0.000000   0.000000   0.000000   0.000000  -0.000005
    42  H    0.000001   0.000000  -0.000058   0.000000  -0.000006  -0.000007
    43  H    0.000000   0.000000   0.000000   0.000000   0.000000  -0.000006
    44  H    0.000000   0.000000   0.000000   0.000000   0.000000   0.000000
    45  H    0.000000   0.000000   0.000000   0.000000   0.000000   0.000000
             37         38         39         40         41         42
     1  O    0.000135   0.000000   0.000000   0.000000   0.000000  -0.000003
     2  C    0.041621   0.000000   0.000005  -0.000009  -0.000123  -0.000618
     3  C   -0.055444   0.000000  -0.000160   0.000675   0.000870   0.003331
     4  O   -0.000273   0.000000   0.000000   0.000000   0.000000  -0.000004
     5  H    0.000004   0.000000   0.000000   0.000000   0.000000   0.000000
     6  C   -0.109637   0.000000  -0.001157  -0.000612   0.002360   0.021739
     7  O    0.005860   0.000000  -0.000367   0.000647   0.000027  -0.000224
     8  H   -0.000641   0.000000   0.000207   0.000335  -0.000001   0.000058
     9  C    0.004419   0.000000  -0.000004   0.000002   0.000064  -0.000017
    10  O    0.000035   0.000000   0.000000   0.000000   0.000000   0.000003
    11  H    0.000000   0.000000   0.000000   0.000000   0.000000   0.000000
    12  C   -0.005207   0.000001  -0.000076   0.000409   0.000848   0.005822
    13  O   -0.053803   0.000000  -0.000013   0.000099  -0.000190  -0.001618
    14  C    0.325627   0.000130   0.002737   0.003826   0.068538   0.044737
    15  O   -0.062530   0.000000  -0.001001   0.003661   0.003085  -0.068323
    16  C    0.045411  -0.004320  -0.000975   0.009282   0.126720   0.317607
    17  C    0.042008   0.003054  -0.009303   0.014300  -0.009662   0.016743
    18  O   -0.000451  -0.000046   0.000032  -0.000014  -0.000334  -0.003765
    19  H    0.000542   0.000000   0.000000   0.000001   0.000048  -0.000062
    20  C    0.012869  -0.020120  -0.000133  -0.004071  -0.045035   0.024683
    21  O    0.000015  -0.002473   0.000001  -0.000003  -0.000015  -0.000641
    22  H    0.000000  -0.001046   0.000000   0.000000   0.000005   0.000004
    23  C    0.014092  -0.000162   0.443668   0.503376  -0.030048   0.009208
    24  O    0.000605   0.000000  -0.049340  -0.071171   0.005042   0.000157
    25  H    0.000015   0.000000  -0.006163  -0.004614  -0.000158   0.000004
    26  C    0.015711   0.015074  -0.049137  -0.186100   0.098450  -0.141321
    27  O   -0.000072   0.003179  -0.002558   0.006751  -0.049374   0.000680
    28  C   -0.003285   0.013464   0.002733   0.012865   0.057041   0.000557
    29  O    0.000000   0.233520  -0.000182  -0.000075  -0.000564  -0.000489
    30  H    0.000002   0.000000   0.000000   0.000000   0.000000   0.000000
    31  H   -0.000014   0.000000   0.000000   0.000000   0.000000   0.000001
    32  H    0.000007   0.000000   0.000000   0.000000   0.000000   0.000000
    33  H    0.006700   0.000000   0.000000   0.000000   0.000000  -0.000058
    34  H   -0.000012   0.000000   0.000000   0.000000   0.000000   0.000000
    35  H    0.002449   0.000000   0.000000   0.000000   0.000000  -0.000006
    36  H    0.005798   0.000000   0.000000  -0.000006  -0.000005  -0.000007
    37  H    0.629350   0.000000   0.000002  -0.000036  -0.000027   0.013244
    38  H    0.000000   0.402237  -0.000001   0.000000   0.000003   0.000001
    39  H    0.000002  -0.000001   0.584827  -0.047390  -0.010120  -0.000077
    40  H   -0.000036   0.000000  -0.047390   0.601942   0.006882   0.003218
    41  H   -0.000027   0.000003  -0.010120   0.006882   0.624483   0.006959
    42  H    0.013244   0.000001  -0.000077   0.003218   0.006959   0.621760
    43  H   -0.000047   0.000011   0.000007   0.000002   0.003852   0.006354
    44  H   -0.000030   0.000090   0.000002  -0.000002   0.000070   0.002181
    45  H    0.000000  -0.008776  -0.000018   0.000000   0.009382   0.000042
             43         44         45
     1  O    0.000000   0.000000   0.000000
     2  C    0.000374   0.000079  -0.000006
     3  C    0.000478   0.000092   0.000027
     4  O    0.000000   0.000000   0.000000
     5  H    0.000000   0.000000   0.000000
     6  C    0.004390  -0.000097   0.000011
     7  O   -0.000004   0.000000   0.000000
     8  H    0.000004   0.000000   0.000000
     9  C    0.000204  -0.000200  -0.000004
    10  O    0.000000   0.000000   0.000000
    11  H    0.000000   0.000000   0.000000
    12  C    0.002176   0.001006   0.000050
    13  O    0.001943   0.000353   0.000009
    14  C    0.051266   0.005984   0.008194
    15  O   -0.008508  -0.001039   0.000053
    16  C    0.018066   0.101954   0.147311
    17  C    0.313441  -0.165072  -0.021789
    18  O   -0.046552   0.002788  -0.000853
    19  H   -0.008765   0.000037   0.000014
    20  C   -0.035509   0.390612  -0.153008
    21  O   -0.001822  -0.043608   0.005151
    22  H   -0.000059  -0.006861  -0.000434
    23  C    0.021306   0.012313  -0.007028
    24  O    0.000008  -0.000005  -0.000021
    25  H    0.000000   0.000000   0.000000
    26  C   -0.060830  -0.002837  -0.115457
    27  O    0.001479   0.002664  -0.064168
    28  C   -0.028920  -0.049404   0.478213
    29  O   -0.000401  -0.002498  -0.055348
    30  H    0.000000   0.000000   0.000000
    31  H    0.000000   0.000000   0.000000
    32  H    0.000000   0.000000   0.000000
    33  H    0.000000   0.000000   0.000000
    34  H    0.000000   0.000000   0.000000
    35  H    0.000000   0.000000   0.000000
    36  H   -0.000006   0.000000   0.000000
    37  H   -0.000047  -0.000030   0.000000
    38  H    0.000011   0.000090  -0.008776
    39  H    0.000007   0.000002  -0.000018
    40  H    0.000002  -0.000002   0.000000
    41  H    0.003852   0.000070   0.009382
    42  H    0.006354   0.002181   0.000042
    43  H    0.613000   0.006476   0.003055
    44  H    0.006476   0.589718   0.006034
    45  H    0.003055   0.006034   0.649553
 Mulliken atomic charges:
              1
     1  O   -0.526439
     2  C   -0.228611
     3  C    0.195166
     4  O   -0.529024
     5  H    0.358184
     6  C   -0.181569
     7  O   -0.517615
     8  H    0.416852
     9  C    0.002036
    10  O   -0.524192
    11  H    0.358955
    12  C    0.100427
    13  O   -0.429958
    14  C    0.302121
    15  O   -0.297246
    16  C    0.048122
    17  C   -0.214023
    18  O   -0.459975
    19  H    0.390230
    20  C    0.174221
    21  O   -0.534271
    22  H    0.358605
    23  C    0.137976
    24  O   -0.599732
    25  H    0.384288
    26  C   -0.075236
    27  O   -0.320449
    28  C    0.147071
    29  O   -0.562961
    30  H    0.365796
    31  H    0.146600
    32  H    0.128821
    33  H    0.119349
    34  H    0.137387
    35  H    0.137096
    36  H    0.149432
    37  H    0.124992
    38  H    0.366182
    39  H    0.143954
    40  H    0.145829
    41  H    0.130927
    42  H    0.118142
    43  H    0.143530
    44  H    0.149202
    45  H    0.119810
 Sum of Mulliken atomic charges =   0.00000
 Mulliken charges with hydrogens summed into heavy atoms:
              1
     1  O   -0.160643
     2  C   -0.091224
     3  C    0.332262
     4  O   -0.170840
     6  C   -0.032138
     7  O   -0.100763
     9  C    0.277457
    10  O   -0.165237
    12  C    0.219776
    13  O   -0.429958
    14  C    0.427113
    15  O   -0.297246
    16  C    0.166264
    17  C   -0.070493
    18  O   -0.069746
    20  C    0.323424
    21  O   -0.175666
    23  C    0.427758
    24  O   -0.215445
    26  C    0.055692
    27  O   -0.320449
    28  C    0.266881
    29  O   -0.196779
 Sum of Mulliken charges with hydrogens summed into heavy atoms =   0.00000
 APT atomic charges:
              1
     1  O   -0.637811
     2  C    0.430516
     3  C    0.423968
     4  O   -0.661811
     5  H    0.267803
     6  C    0.378188
     7  O   -0.701740
     8  H    0.408473
     9  C    0.462868
    10  O   -0.598537
    11  H    0.252736
    12  C    0.448125
    13  O   -0.834014
    14  C    0.896534
    15  O   -0.837629
    16  C    0.441042
    17  C    0.364837
    18  O   -0.685708
    19  H    0.357987
    20  C    0.401630
    21  O   -0.635432
    22  H    0.263166
    23  C    0.460271
    24  O   -0.660759
    25  H    0.268372
    26  C    0.452456
    27  O   -0.799812
    28  C    0.923613
    29  O   -0.683814
    30  H    0.262611
    31  H   -0.053546
    32  H   -0.064667
    33  H   -0.060130
    34  H   -0.049211
    35  H   -0.056509
    36  H   -0.031423
    37  H   -0.049187
    38  H    0.271572
    39  H   -0.048781
    40  H   -0.037219
    41  H   -0.056303
    42  H   -0.027334
    43  H   -0.050524
    44  H   -0.034607
    45  H   -0.080263
 Sum of APT charges=   0.00000
 APT Atomic charges with hydrogens summed into heavy atoms:
              1
[...]
 18,-0.00062492,-0.00005712,0.00065237,-0.00014360,0.00032691,0.3658467
 7,0.00000875,-0.00002630,0.00003903,-0.00000678,0.00005487,-0.00002920
 ,0.00002677,0.00001717,0.00001040,0.00001139,-0.00003009,-0.00001339,-
 0.00000672,0.00000994,-0.00000668,0.00001062,0.00009468,0.00001068,0.0
 0020779,-0.00006070,-0.00017494,-0.00028352,-0.00009723,0.00012956,0.0
 0002775,-0.00002723,-0.00001954,-0.00000717,0.00002839,0.00003937,0.00
 000730,-0.00000513,-0.00000389,-0.00002940,0.00003143,-0.00000722,0.00
 037377,0.00003800,0.00030435,-0.00201460,0.00145680,-0.00129978,-0.011
 90731,-0.00137645,0.00511729,-0.03712781,-0.05000921,-0.00975580,0.032
 23543,0.00123811,0.00876869,-0.00207810,0.00322294,0.00077410,0.000219
 43,-0.00002001,-0.00008189,0.00068643,0.00147878,-0.00091871,-0.000310
 26,-0.00029564,-0.00005509,-0.00012375,-0.00006287,0.00003810,-0.00107
 653,0.00164292,0.00081428,0.00028896,-0.00006906,0.00001175,-0.0000263
 3,-0.00007388,-0.00001614,-0.02714862,-0.00388535,-0.00899222,0.001283
 27,0.00109700,0.00258566,0.00030018,-0.00042730,0.00001301,0.00000729,
 0.00010935,0.00011420,0.00000172,0.00000119,-0.00000407,-0.00000349,-0
 .00002180,0.00000036,-0.00000855,-0.00000309,0.00000340,-0.00000795,0.
 00003053,-0.00000272,0.00000122,-0.00000804,0.00000208,0.00001214,0.00
 000654,0.00001869,0.00008413,0.00004105,-0.00008855,0.00051850,0.00066
 864,0.00023212,-0.00001690,-0.00000908,0.00000622,0.00036089,0.0002048
 0,0.00007859,0.00077641,-0.00027795,0.00010680,-0.00037188,-0.00253121
 ,-0.00392645,0.04353090,0.05313673,-0.00000091,-0.00001686,-0.00000865
 ,-0.00000406,0.00002328,0.00000394,0.00002502,0.00005676,0.00003155,-0
 .00002331,-0.00001757,-0.00001876,-0.00000394,0.00000437,-0.00000493,0
 .00027107,0.00007682,-0.00054015,-0.00018785,-0.00001586,0.00007851,0.
 00014732,-0.00011525,-0.00007223,-0.00003749,0.00002064,-0.00003037,0.
 00000147,-0.00000976,0.00001178,-0.00000067,-0.00000341,-0.00000358,0.
 00000964,-0.00008613,-0.00018527,-0.00090534,-0.00045971,-0.00007582,0
 .01046777,0.00279018,-0.00180388,0.03211123,0.00929507,-0.01362799,-0.
 07088676,-0.01028582,-0.05283227,-0.01226171,-0.00146502,-0.00196203,0
 .00179597,-0.00077486,0.00057819,0.00005771,0.00017716,-0.00006131,-0.
 00067739,-0.00054368,0.00052915,0.00028385,0.00002744,0.00004417,0.000
 02105,-0.00001503,-0.00003208,-0.00005668,0.00105616,0.00059633,0.0001
 3785,-0.00003769,0.00012150,-0.00003092,-0.00000011,0.00003264,-0.0240
 0176,-0.00438809,-0.00645781,0.00053176,0.00045215,0.00226119,-0.00057
 696,0.00038808,-0.00038437,0.00008109,0.00002363,-0.00012091,-0.000000
 11,0.00000238,-0.00000076,-0.00000248,-0.00001433,0.00000061,-0.000000
 76,0.00000889,-0.00000021,-0.00005125,-0.00002829,-0.00007105,-0.00000
 613,0.00000347,0.00001419,-0.00004634,-0.00001094,-0.00005857,-0.00033
 573,-0.00004214,-0.00004589,-0.00058223,0.00053844,-0.00307515,0.00000
 946,-0.00001959,0.00000283,0.00016269,0.00013954,0.00004493,0.00053297
 ,-0.00045167,0.00015044,-0.00008454,-0.00264498,-0.00347414,0.06412084
 ,0.00437039,0.08074518,0.00000021,0.00001984,-0.00005255,-0.00001586,-
 0.00002866,0.00004487,-0.00001049,-0.00004361,0.00003051,0.00001653,0.
 00005060,-0.00003178,-0.00000419,-0.00001081,0.00000648,0.00013171,-0.
 00005036,0.00002744,0.00003614,0.00011452,0.00004559,-0.00006062,-0.00
 004573,-0.00008188,-0.00001588,-0.00000164,0.00008992,0.00000228,-0.00
 003084,-0.00008763,-0.00000992,0.00001365,0.00001661,0.00000531,0.0000
 3063,0.00012621,-0.00007126,0.00028247,-0.00019106,0.00011263,-0.00043
 167,-0.00023049,0.00198923,-0.00015325,0.00032374,-0.01724596,-0.00011
 152,-0.00132200,-0.34799751,-0.03306596,-0.02993488,0.00120604,-0.0056
 3702,-0.00772984,0.00095204,-0.00092707,0.00019603,-0.01608103,-0.0017
 7073,0.00022689,0.00186767,0.00046137,-0.00033206,0.00029411,0.0001164
 1,-0.00013047,0.00054738,0.00028892,0.00025633,0.00004497,-0.00002591,
 0.00007542,-0.00000624,-0.00000053,-0.00002079,-0.00099090,-0.00142194
 ,-0.00107053,0.00059793,0.00065236,0.00029741,-0.00125350,-0.00139737,
 -0.00121753,0.00056259,0.00028284,0.00026910,-0.00000607,-0.00000440,0
 .00000903,0.00003052,0.00003556,-0.00000605,-0.00000615,-0.00000154,0.
 00000458,0.00000682,-0.00001010,0.00000659,0.00000614,0.00000290,-0.00
 000927,0.00001002,0.00000102,0.00000131,-0.00000276,0.00002775,-0.0000
 4693,0.00016751,0.00001099,0.00026433,-0.00005135,-0.00002334,0.000120
 07,-0.00002709,0.00013028,-0.00000346,0.00011700,-0.00030056,0.0000170
 8,0.00111717,0.00045695,0.00088458,-0.00010055,0.00208522,-0.00059528,
 0.37339833,-0.00000675,0.00003241,-0.00006672,-0.00002205,-0.00004997,
 0.00005288,0.00002041,-0.00000655,-0.00001631,-0.00000300,0.00005021,-
 0.00002575,0.00000439,-0.00001179,0.00000594,-0.00020386,-0.00008997,-
 0.00008229,-0.00004719,0.00006814,0.00006877,0.00004618,-0.00000207,-0
 .00005447,-0.00005472,-0.00002629,0.00016044,0.00000298,-0.00004096,-0
 .00014112,-0.00001464,0.00002116,0.00002312,0.00005045,0.00006180,0.00
 014064,-0.00011415,0.00060968,-0.00027458,0.00046438,-0.00014863,-0.00
 012652,-0.00167663,0.00181949,-0.00170519,0.03346585,-0.00088561,0.003
 92997,-0.03242322,-0.04365796,0.00098676,-0.02817489,-0.01247851,-0.01
 780443,-0.00009528,0.00022619,0.00160393,-0.01358068,-0.00026371,0.001
 05115,0.00021530,0.00096555,-0.00114358,0.00020677,0.00007559,-0.00025
 473,-0.00011138,-0.00002005,-0.00000922,-0.00004883,-0.00002561,0.0000
 4152,0.00000080,0.00001293,-0.00000148,0.00182226,0.00201824,0.0016213
 2,-0.00021938,-0.00021707,-0.00043951,0.00030237,-0.00061912,-0.000520
 42,0.00020103,0.00003004,0.00028895,-0.00000553,-0.00000439,0.00000880
 ,0.00006492,0.00006863,-0.00000428,-0.00000444,0.00000566,0.00000271,-
 0.00001134,-0.00002736,0.00000058,0.00000128,0.00000328,-0.00000437,-0
 .00000192,0.00000187,-0.00000293,-0.00001768,-0.00002942,0.00004535,-0
 .00032593,-0.00004321,0.00000114,-0.00002104,0.00007073,0.00006633,-0.
 00006953,-0.00005837,0.00001432,-0.00017180,0.00008813,-0.00003637,-0.
 00062258,-0.00025026,-0.00051239,0.00182079,-0.00502811,0.00190977,0.0
 4004750,0.05788271,0.00000302,0.00002577,-0.00004663,-0.00002680,-0.00
 003107,0.00004859,-0.00000271,-0.00006003,0.00002068,0.00001431,0.0000
 4585,-0.00001295,-0.00000302,-0.00001161,0.00000812,0.00003721,0.00000
 646,0.00007324,0.00003133,0.00007104,0.00001229,-0.00004810,-0.0000004
 4,-0.00001893,-0.00007422,-0.00003456,0.00014657,0.00001609,-0.0000273
 9,-0.00012446,-0.00001458,0.00001649,0.00002250,-0.00000369,0.00003576
 ,0.00011145,0.00012678,0.00047724,-0.00032457,-0.00037898,-0.00064276,
 -0.00049270,0.00044373,-0.00111100,0.00165884,-0.01299614,0.00220546,-
 0.00002485,-0.02827890,0.00204078,-0.04459297,-0.02781725,-0.01771262,
 -0.01567054,-0.00171823,-0.00092393,0.00128734,0.03296903,0.00539738,0
 .00161530,-0.00164450,-0.00155552,0.00199201,-0.00007898,-0.00037659,0
 .00032993,0.00015123,0.00014517,0.00011990,0.00002295,-0.00002343,0.00
 001540,0.00000100,-0.00001023,-0.00000982,0.00057847,-0.00077387,-0.00
 043653,-0.00011069,-0.00035719,-0.00026223,0.00114646,0.00107818,0.001
 43649,-0.00048691,-0.00010796,-0.00022670,-0.00000634,-0.00000610,0.00
 000566,0.00006468,0.00006691,-0.00000746,0.00000577,-0.00000496,0.0000
 0065,0.00001591,-0.00001602,0.00002015,0.00000852,0.00000307,-0.000014
 52,0.00000947,0.00000364,0.00000318,0.00001130,0.00003228,-0.00003644,
 0.00021018,0.00003711,-0.00000967,-0.00001700,-0.00008194,-0.00007931,
 0.00001654,0.00008112,0.00000028,0.00003895,-0.00010154,-0.00002583,0.
 00038900,-0.00024053,0.00041539,-0.00085525,0.00159666,-0.00044695,0.0
 3701115,0.00933822,0.05896012,0.00000243,0.00000378,-0.00001671,-0.000
 00340,-0.00000615,0.00001601,-0.00001111,-0.00002216,0.00001115,0.0000
 1054,0.00001657,-0.00001088,-0.00000314,-0.00000362,0.00000392,0.00003
 016,0.00000257,0.00002931,0.00001572,0.00001754,0.00000240,-0.00001530
 ,-0.00000304,-0.00000602,-0.00002523,-0.00000299,0.00003723,0.00001555
 ,-0.00000769,-0.00002909,-0.00001179,0.00000348,0.00000813,-0.00002240
 ,0.00001075,0.00002051,0.00000337,0.00004778,-0.00005296,-0.00012937,-
 0.00013214,-0.00001449,0.00041625,-0.00003900,0.00022525,-0.00072134,0
 .00084729,-0.00027006,-0.01315251,-0.00701307,-0.00053936,0.00160567,0
 .00068092,-0.00087659,0.00031059,0.00008543,-0.00009607,-0.32213491,-0
 .09384657,-0.04031625,-0.02026667,0.00911176,-0.00929122,0.00026500,0.
 00014880,0.00042030,0.00002018,-0.00001872,-0.00000735,0.00002941,0.00
 002698,-0.00000477,-0.00000710,-0.00000599,-0.00000581,-0.00000505,0.0
 0003166,-0.00002822,0.00136107,-0.00115515,0.00031962,-0.00122069,-0.0
 0025459,0.00066305,0.00109955,0.00007523,-0.00044787,-0.00000269,-0.00
 000044,0.00000385,0.00000391,0.00001382,-0.00000365,0.00001020,-0.0000
 0016,-0.00000468,0.00001201,-0.00000869,0.00000389,0.00000417,0.000002
 12,-0.00000491,0.00000629,0.00000065,0.00000156,0.00000474,0.00000772,
 -0.00001051,0.00003380,-0.00000997,0.00003225,0.00015257,0.00019924,0.
 00021732,0.00000274,-0.00000518,0.00001104,0.00001955,-0.00002403,0.00
 000318,0.00002966,0.00013368,0.00003144,0.00054736,-0.00046284,0.00027
 799,-0.00000401,-0.00093674,0.00166995,0.35115711,0.00000395,-0.000001
 79,0.00001391,0.00000311,0.00000180,-0.00001007,-0.00001142,0.,-0.0000
 0310,0.00000522,-0.00000757,0.00000852,-0.00000212,0.00000211,-0.00000
 134,0.00001403,0.00000747,0.00000563,0.00001592,-0.00000402,0.00000623
 ,-0.00001159,0.00000201,-0.00001777,0.00000525,0.00000172,-0.00002103,
 0.00000157,0.00000802,0.00002231,0.00000275,-0.00000310,-0.00000540,-0
 .00002180,-0.00000054,-0.00001842,0.00002927,-0.00002649,0.00003853,-0
 .00009233,0.00000427,-0.00002077,0.00026815,0.00000634,0.00010651,-0.0
 0079816,0.00050751,-0.00048176,-0.01117384,-0.00277087,-0.00147460,0.0
 0142879,0.00061354,0.00001575,0.00005020,-0.00009566,-0.00017804,-0.09
 698695,-0.07159383,-0.01537471,0.03901215,-0.00418794,0.01124946,0.000
 48822,0.00169823,-0.00055058,-0.00000703,0.00005994,-0.00006943,0.0000
 2154,-0.00000603,0.00001248,-0.00000715,0.00000367,-0.00000773,-0.0002
 7649,-0.00020399,0.00015732,0.00131526,0.00200697,0.00075508,-0.027732
 94,-0.00895352,-0.00471846,0.00176972,0.00174707,0.00183900,0.00000057
 ,0.00000053,-0.00000271,-0.00000815,-0.00000499,0.00000131,0.00000306,
 -0.00000237,-0.00000165,0.00000756,0.00000095,0.00000276,0.00000161,-0
 .00000034,-0.00000102,0.00000219,0.00000059,0.00000141,0.00000316,0.00
 000515,-0.00000680,0.00002515,-0.00000312,0.00002409,0.00008132,-0.000
 01436,0.00040094,0.00000334,-0.00002012,0.00000020,0.00003509,-0.00005
 544,0.00002467,0.00024388,0.00018617,-0.00001303,0.00023088,-0.0000772
 4,0.00008427,-0.00028577,-0.00042357,0.00190627,0.09194571,0.08496776,
 -0.00000170,-0.00001472,0.00000297,0.00000066,0.00001534,-0.00000831,0
 .00000923,0.00002763,0.00000854,-0.00000176,-0.00001592,-0.00001135,0.
 00000049,0.00000586,-0.00000368,-0.00003196,-0.00002317,-0.00004104,-0
 .00000755,-0.00001435,-0.00001593,0.00000718,-0.00001104,0.00001338,0.
 00000852,0.00001716,-0.00004496,-0.00000444,-0.00000069,0.00003365,0.0
 0000493,-0.00000392,-0.00001006,0.00002786,-0.00000421,-0.00000850,0.0
 0003979,-0.00019070,0.00004876,0.00007563,0.00030735,0.00018145,-0.000
 56440,-0.00009481,-0.00052931,0.00091277,-0.00113936,0.00110699,0.0312
 2199,0.01159244,0.00256141,-0.00204174,-0.00038500,0.00291734,-0.00012
 368,0.00025348,0.00031414,-0.03866801,-0.01542819,-0.04995806,-0.01566
 987,0.00548399,-0.00195845,-0.00099408,-0.00032902,0.00050733,0.000056
 30,-0.00000210,0.00003820,-0.00000668,0.00001612,-0.00000112,-0.000005
 92,-0.00000200,-0.00000048,0.00030391,0.00022204,-0.00027136,0.0014663
 1,0.00110000,0.00066645,-0.02537914,-0.01150680,-0.00503257,0.00071341
 ,0.00147926,0.00291912,0.00000064,0.00000397,-0.00000199,-0.00001329,-
 0.00001740,0.00000299,0.00000120,0.00000015,0.00000067,-0.00000788,0.0
 0000655,-0.00000574,-0.00000231,-0.00000127,0.00000377,-0.00000330,-0.
 00000205,-0.00000023,-0.00000181,-0.00000789,0.00001060,-0.00003401,0.
 00000198,-0.00004663,-0.00012605,0.00016087,0.00042147,-0.00001006,0.0
 0002763,0.00000761,-0.00000648,0.00000964,0.00000049,-0.00006570,-0.00
 002125,-0.00019058,-0.00045417,0.00018122,-0.00002094,0.00211547,0.001
 93882,-0.00514613,0.04753573,0.00954408,0.05451219,0.00000200,-0.00000
 697,-0.00002308,-0.00000767,0.00000659,0.00001530,-0.00000333,-0.00000
 460,0.00002310,0.00001106,0.00000835,-0.00002818,-0.00000352,-0.000000
 04,0.00000286,-0.00002441,0.00000531,0.00000405,0.00001808,-0.00000393
 ,-0.00004658,-0.00000927,-0.00000698,0.00004657,-0.00001298,0.00001425
 ,0.00000349,0.00000774,-0.00001272,-0.00000939,-0.00000582,0.00000171,
 0.00000142,0.00000347,0.00000366,0.00002209,0.00002127,-0.00006654,-0.
 00006980,0.00004068,0.00007276,0.00012870,0.00008958,-0.00007637,-0.00
 038667,0.00009929,0.00052271,0.00014111,-0.00047878,-0.00047201,0.0002
 6125,0.00042918,0.00004479,0.00008266,-0.00006695,0.00000885,-0.000117
 81,-0.00281604,0.00072016,-0.00178210,0.00196494,-0.00066934,0.0013744
 1,-0.00018523,-0.00003857,-0.00009313,0.00077618,-0.00025658,0.0000508
 6,0.00005748,0.00029997,-0.00013596,-0.00000751,-0.00000562,-0.0000461
 7,-0.00021438,-0.00157237,0.00235056,-0.01700081,0.01130429,-0.0107592
 0,-0.31788353,-0.07222810,-0.06925929,-0.01624089,-0.00808519,0.007774
 15,-0.00000361,0.00000157,0.00000380,-0.00000183,0.00000066,-0.0000010
 6,0.00000723,-0.00000181,-0.00000253,0.00000460,-0.00000150,-0.0000015
 8,0.00000389,0.00000019,-0.00000301,0.00000371,0.00000031,-0.00000005,
 0.00000493,-0.00000236,-0.00000149,0.00000575,-0.00000265,0.00000018,0
 .00056639,0.00020568,0.00067559,-0.00005074,0.00001849,0.00000222,0.00
 010343,-0.00031966,0.00011342,0.00123416,0.00061044,-0.00117969,0.0000
 2245,-0.00004773,0.00031384,0.00074106,0.00024754,-0.00043075,0.000567
 12,0.00039711,-0.00027604,0.34823165,0.00000174,0.00001328,0.00000461,
 -0.00000064,-0.00001333,0.00000189,-0.00000475,-0.00000217,-0.00000897
 ,-0.00000032,0.00000930,0.00000604,0.00000034,-0.00000253,0.00000053,0
 .00000917,-0.00003404,-0.00001205,-0.00000342,0.00004024,0.00005580,-0
 .00000573,-0.00001714,-0.00006991,-0.00000463,-0.00001363,0.00002201,0
 .00000535,0.00000583,-0.00001441,-0.00000479,0.00000049,0.00000578,-0.
 00001651,0.00000489,0.00000218,-0.00001937,0.00011723,0.00000482,-0.00
 005576,-0.00008239,-0.00009727,-0.00002483,0.00028120,0.00024361,-0.00
 038302,-0.00051244,0.00004782,-0.00124657,-0.00026536,0.00122898,0.000
 64388,0.00009655,-0.00034726,0.00009769,-0.00008053,0.00000332,-0.0258
 9088,-0.00560932,-0.01028962,0.00071322,0.00345368,0.00139175,-0.00024
 198,-0.00017141,-0.00001780,0.00033071,0.00005258,-0.00011181,-0.00018
 171,-0.00011963,0.00011647,0.00000100,0.00003430,-0.00000655,0.0052841
 8,0.00229031,-0.00323676,0.03545950,-0.00746000,0.01843130,-0.07318995
 ,-0.06151156,-0.02091982,-0.00901093,0.00094167,0.00449359,-0.00000009
 ,-0.00000317,0.00000006,0.00000757,0.00000820,-0.00000208,-0.00000103,
 0.00000077,0.00000020,0.00000248,-0.00000376,0.00000215,0.00000098,0.0
 0000110,-0.00000104,0.00000182,0.00000028,0.00000086,-0.00000142,0.000
 00357,-0.00000223,0.00000406,-0.00000228,-0.00000106,-0.00113269,0.000
 68665,-0.00015322,0.00000769,-0.00003853,-0.00000964,-0.00021379,0.000
 00275,-0.00001016,-0.00149163,0.00015246,-0.00036414,-0.00004518,-0.00
 018688,-0.00000213,0.00066856,0.00029612,-0.00039961,0.00054545,-0.003
 37491,-0.00317971,0.06938626,0.07101157,-0.00000216,-0.00000234,-0.000
 02591,-0.00000326,0.00000113,0.00002022,0.00000206,-0.00000571,0.00002
 033,0.00000574,0.00001272,-0.00002460,-0.00000096,-0.00000179,0.000002
 64,-0.00001089,-0.00001075,-0.00000205,0.00000654,0.00001086,-0.000023
 56,-0.00000654,-0.00000829,0.00002366,-0.00000647,0.00001055,0.0000179
 1,0.00000192,-0.00001547,-0.00002220,-0.00000320,0.00000385,0.00000437
 ,0.00000348,0.00000943,0.00003272,-0.00000067,-0.00001746,-0.00006076,
 0.00003620,0.00003231,0.00007510,0.00004328,0.00005637,-0.00028481,0.0
 0033535,-0.00018801,-0.00011156,-0.00161941,-0.00024516,0.00112015,0.0
 0053036,0.00006905,-0.00002274,0.00004634,0.00002779,0.00000462,-0.025
 17687,-0.00835893,-0.00465258,0.00190904,0.00144794,0.00158832,0.00017
 542,-0.00019385,-0.00016770,0.00009475,0.00008413,-0.00003591,0.000076
 38,0.00015735,-0.00011396,0.00000059,-0.00001129,-0.00001642,-0.003884
 41,-0.00032720,0.00238702,-0.01364036,0.00796668,-0.00480038,-0.074700
 25,-0.02327707,-0.06432809,0.03983258,0.01284562,-0.00895999,-0.000001
 83,0.00000062,0.00000447,0.00000296,0.00000519,-0.00000171,0.00000181,
 -0.00000078,-0.00000143,0.00000132,-0.00000282,0.00000030,0.00000171,0
 .00000055,-0.00000265,0.00000194,-0.00000029,-0.00000038,0.00000134,-0
 .00000038,-0.00000258,0.00000400,-0.00000480,0.00000853,0.00223196,-0.
 00019394,0.00323692,0.00000724,-0.00001795,-0.00001271,0.00014273,-0.0
 0009023,0.00001222,0.00103175,0.00032670,0.00001228,0.00014642,0.00002
 926,0.00016896,0.00062772,-0.00007475,-0.00029387,0.00049240,-0.003242
 31,-0.00297206,0.07126193,0.01319345,0.07819985\\0.00796673,-0.0130978
 2,-0.00772953,-0.00294547,0.01658025,-0.00363311,-0.00019030,-0.019391
 72,0.03147037,-0.00495682,-0.01054382,0.01682385,0.00562834,0.00206307
 ,-0.03479114,-0.01249095,-0.00909022,-0.00431306,0.00412910,0.01477023
 ,-0.00974350,0.00671082,-0.00051095,0.01675741,-0.02662542,0.02397841,
 -0.01792284,0.00264796,0.00395570,0.00893487,0.00618585,-0.03121184,0.
 00056302,0.03623709,-0.02021455,0.02377267,-0.00692626,0.02461207,0.01
 087119,-0.04907643,0.00304875,0.00955087,0.02945054,-0.00084096,-0.003
 32577,0.00250074,-0.00725674,-0.02157804,-0.00639492,0.03071096,0.0284
 6041,-0.01592822,-0.00258503,0.00532339,0.01872356,0.01178233,-0.01635
 630,0.00773919,-0.00043586,-0.00901487,-0.00342944,0.00449580,-0.01106
 834,-0.00324286,-0.02042790,0.02767738,0.00827992,-0.00435467,0.008111
 20,0.00097755,-0.01823422,0.00946157,-0.00872330,0.02821767,-0.0077579
 6,-0.00903526,-0.00607862,0.00222021,0.00724423,0.00500094,-0.00564809
 ,0.01245455,-0.00147403,-0.01301446,0.00423493,-0.00529814,0.02205814,
 -0.00216155,0.00433312,0.00072564,0.00677558,0.00534799,-0.01863004,-0
 .02267805,0.00368795,-0.00651844,0.02478153,-0.00198496,-0.00100273,-0
 .01987250,-0.00293630,0.00047126,0.02284535,0.00181493,0.00165195,-0.0
 2188715,0.00266492,0.00170380,0.01635044,0.00431678,-0.00520263,-0.004
 41539,-0.00359490,-0.00254159,-0.00248612,-0.00591029,-0.01720055,0.02
 061450,0.00034753,0.00044728,-0.02313308,-0.00276829,-0.00386209,0.017
 39761,0.00253546,-0.00004575,-0.02237579,-0.00403921,-0.00465493,0.019
 80970,0.00344564,0.00322906,-0.02071052,-0.00542946,-0.00472980\\\@


 A ROPE OVER THE TOP OF A FENCE HAS THE SAME LENGTH ON EACH SIDE.
 WEIGHS 1/3 POUND PER FOOT.  ON ONE END HANGS A MONKEY HOLDING A
 BANANA, AND ON THE OTHER END A WEIGHT EQUAL TO THE WEIGHT
 OF THE MONKEY.  THE BANANA WEIGHS TWO OUNCES PER INCH.
 THE ROPE IS AS LONG AS THE AGE OF THE MONKEY, 
 AND THE WEIGHT OF THE MONKEY (IN OUNCES) IS AS MUCH
 AS THE AGE OF THE MONKEY'S MOTHER.  THE COMBINED AGES OF MONKEY
 AND MOTHER ARE THIRTY YEARS.  HALF THE WEIGHT OF THE MONKEY,
  PLUS THE WEIGHT OF THE BANANA, IS ONE FOURTH AS MUCH AS THE WEIGHT
 OF THE WEIGHT AND THE ROPE.
 THE MONKEY'S MOTHER IS HALF AS OLD AS THE MONKEY WILL BE
 WHEN IT IS 3 TIMES AS OLD AS ITS MOTHER WAS WHEN
 SHE WAS HALF AS OLD AS THE MONKEY WILL BE WHEN IT IS
 AS OLD AS ITS MOTHER WILL BE WHEN SHE IS 4 TIMES AS
 OLD AS THE MONKEY WAS WHEN IT WAS TWICE AS OLD AS 
 ITS MOTHER WAS WHEN SHE WAS ONE THIRD AS OLD AS THE
 MONKEY WAS WHEN IT WAS AS OLD AS ITS MOTHER WAS WHEN 
 SHE WAS 3 TIMES AS OLD AS THE MONKEY WAS WHEN IT WAS AS OLD AS ITS
 MOTHER WAS WHEN SHE WAS 3 TIMES AS OLD AS THE MONKEY 
 WAS WHEN IT WAS ONE FOURTH WAS OLD AS IT IS NOW.

 HOW LONG IS THE BANANA?
 Job cpu time:  0 days 13 hours  1 minutes 26.4 seconds.
 File lengths (MBytes):  RWF=   1326 Int=      0 D2E=      0 Chk=     19 Scr=      1
 Normal termination of Gaussian 09 at Tue Mar  1 03:25:15 2016.
Gaussian '09 finished on node020 at Tue Mar  1 03:25:16 EST 2016.
