Gaussian '09 started on node007 at Mon Feb  1 16:09:56 EST 2016.
 Entering Gaussian System, Link 0=/usr/local/gaussian/g09/g09
 Initial command:
 /usr/local/gaussian/g09/l1.exe /home/srmcgrat/thesis/gaussian/cellobiose/280/5000/1/2dfp/gaussian31945/Gau-31981.inp -scrdir=/home/srmcgrat/thesis/gaussian/cellobiose/280/5000/1/2dfp/gaussian31945/
 Entering Link 1 = /usr/local/gaussian/g09/l1.exe PID=     31983.
  
 Copyright (c) 1988,1990,1992,1993,1995,1998,2003,2009,2010,
            Gaussian, Inc.  All Rights Reserved.
  
 This is part of the Gaussian(R) 09 program.  It is based on
 the Gaussian(R) 03 system (copyright 2003, Gaussian, Inc.),
 the Gaussian(R) 98 system (copyright 1998, Gaussian, Inc.),
 the Gaussian(R) 94 system (copyright 1995, Gaussian, Inc.),
 the Gaussian 92(TM) system (copyright 1992, Gaussian, Inc.),
 the Gaussian 90(TM) system (copyright 1990, Gaussian, Inc.),
 the Gaussian 88(TM) system (copyright 1988, Gaussian, Inc.),
 the Gaussian 86(TM) system (copyright 1986, Carnegie Mellon
 University), and the Gaussian 82(TM) system (copyright 1983,
 Carnegie Mellon University). Gaussian is a federally registered
 trademark of Gaussian, Inc.
  
 This software contains proprietary and confidential information,
 including trade secrets, belonging to Gaussian, Inc.
  
 This software is provided under written license and may be
 used, copied, transmitted, or stored only in accord with that
 written license.
  
 The following legend is applicable only to US Government
 contracts under FAR:
  
                    RESTRICTED RIGHTS LEGEND
  
 Use, reproduction and disclosure by the US Government is
 subject to restrictions as set forth in subparagraphs (a)
 and (c) of the Commercial Computer Software - Restricted
 Rights clause in FAR 52.227-19.
  
 Gaussian, Inc.
 340 Quinnipiac St., Bldg. 40, Wallingford CT 06492
  
  
 ---------------------------------------------------------------
 Warning -- This program may not be used in any manner that
 competes with the business of Gaussian, Inc. or will provide
 assistance to any competitor of Gaussian, Inc.  The licensee
 of this program is prohibited from giving any competitor of
 Gaussian, Inc. access to this program.  By using this program,
 the user acknowledges that Gaussian, Inc. is engaged in the
 business of creating and licensing software in the field of
 computational chemistry and represents and warrants to the
 licensee that it is not a competitor of Gaussian, Inc. and that
 it will not use this program in any manner prohibited above.
 ---------------------------------------------------------------
  

 Cite this work as:
 Gaussian 09, Revision B.01,
 M. J. Frisch, G. W. Trucks, H. B. Schlegel, G. E. Scuseria, 
 M. A. Robb, J. R. Cheeseman, G. Scalmani, V. Barone, B. Mennucci, 
 G. A. Petersson, H. Nakatsuji, M. Caricato, X. Li, H. P. Hratchian, 
 A. F. Izmaylov, J. Bloino, G. Zheng, J. L. Sonnenberg, M. Hada, 
 M. Ehara, K. Toyota, R. Fukuda, J. Hasegawa, M. Ishida, T. Nakajima, 
 Y. Honda, O. Kitao, H. Nakai, T. Vreven, J. A. Montgomery, Jr., 
 J. E. Peralta, F. Ogliaro, M. Bearpark, J. J. Heyd, E. Brothers, 
 K. N. Kudin, V. N. Staroverov, T. Keith, R. Kobayashi, J. Normand, 
 K. Raghavachari, A. Rendell, J. C. Burant, S. S. Iyengar, J. Tomasi, 
 M. Cossi, N. Rega, J. M. Millam, M. Klene, J. E. Knox, J. B. Cross, 
 V. Bakken, C. Adamo, J. Jaramillo, R. Gomperts, R. E. Stratmann, 
 O. Yazyev, A. J. Austin, R. Cammi, C. Pomelli, J. W. Ochterski, 
 R. L. Martin, K. Morokuma, V. G. Zakrzewski, G. A. Voth, 
 P. Salvador, J. J. Dannenberg, S. Dapprich, A. D. Daniels, 
 O. Farkas, J. B. Foresman, J. V. Ortiz, J. Cioslowski, 
 and D. J. Fox, Gaussian, Inc., Wallingford CT, 2010.
 
 ******************************************
 Gaussian 09:  EM64L-G09RevB.01 12-Aug-2010
                 1-Feb-2016 
 ******************************************
 --------------------------------------------------
 # freq=raman b3lyp/6-31+g(2df,p) geom=connectivity
 --------------------------------------------------
 1/10=4,30=1,38=1,57=2/1,3;
 2/12=2,17=6,18=5,40=1/2;
 3/5=1,6=6,7=114,11=2,16=1,25=1,30=1,71=2,74=-5/1,2,3;
 4//1;
 5/5=2,38=5,98=1/2;
 8/6=4,10=90,11=11/1;
 10/13=10,15=4/2;
 11/6=3,8=1,9=11,15=111,16=1/1,2,10;
 10/6=1/2;
 6/7=2,8=2,9=2,10=2,18=1,28=1/1;
 7/8=1,10=1,25=1/1,2,3,16;
 1/10=4,30=1/3;
 99//99;
 ------------
 280 5000.com
 ------------
 Symbolic Z-matrix:
 Charge =  0 Multiplicity = 1
 O                     7.63      7.47      12.175 
 C                     8.112     7.746     13.498 
 C                     7.673     9.139     13.92 
 O                     8.187     10.174    13.07 
 H                     8.166     9.907     12.106 
 C                     8.054     9.5       15.346 
 O                     7.52      10.768    15.756 
 H                     7.825     10.951    16.691 
 C                     8.428     5.398     14.342 
 O                     7.984     4.644     13.205 
 H                     8.248     3.685     13.308 
 C                     7.789     6.753     14.602 
 O                     8.195     7.19      15.907 
 C                     7.673     8.444     16.371 
 O                     8.532     8.729     17.484 
 C                     8.141     8.34      18.809 
 C                     8.922     7.173     19.39 
 O                     8.881     5.984     18.587 
 H                     8.895     6.31      17.641 
 C                     8.375     6.739     20.741 
 O                     9.14      5.655     21.288 
 H                     8.84      5.389     22.204 
 C                     7.842     10.787    19.415 
 O                     8.222     11.464    18.208 
 H                     7.904     12.402    18.34 
 C                     8.43      9.443     19.813 
 O                     7.806     9.103     21.06 
 C                     8.434     7.955     21.65 
 O                     7.77401   7.64656   22.88052 
 H                     8.37501   7.34636   11.58231 
 H                     6.60543   9.17013   13.85507 
 H                     9.17921   7.77329   13.42578 
 H                     9.12017   9.58734   15.36959 
 H                     6.72775   6.61735   14.61797 
 H                     8.27106   4.79441   15.21146 
 H                     9.4815    5.55239   14.23613 
 H                     6.63214   8.42317   16.61814 
 H                     8.04486   11.46086   20.22102 
 H                     9.48671   9.5377    19.95195 
 H                     7.09577   8.11141   18.82047 
 H                     9.94259   7.47052   19.51157 
 H                     7.35652   6.43113   20.62782 
 H                     9.45859   8.18642   21.85387 
 H                     6.78088   10.6564   19.37186 
 H                     8.42926   7.47598   23.56108 
 

 GradGradGradGradGradGradGradGradGradGradGradGradGradGradGradGradGradGrad
 Berny optimization.
 Initialization pass.
 Trust Radius=3.00D-01 FncErr=1.00D-07 GrdErr=1.00D-07
 Number of steps in this run=      2 maximum allowed number of steps=      2.
 GradGradGradGradGradGradGradGradGradGradGradGradGradGradGradGradGradGrad

                          Input orientation:                          
 ---------------------------------------------------------------------
 Center     Atomic      Atomic             Coordinates (Angstroms)
 Number     Number       Type             X           Y           Z
 ---------------------------------------------------------------------
      1          8           0        7.630000    7.470000   12.175000
      2          6           0        8.112000    7.746000   13.498000
      3          6           0        7.673000    9.139000   13.920000
      4          8           0        8.187000   10.174000   13.070000
      5          1           0        8.166000    9.907000   12.106000
      6          6           0        8.054000    9.500000   15.346000
      7          8           0        7.520000   10.768000   15.756000
      8          1           0        7.825000   10.951000   16.691000
      9          6           0        8.428000    5.398000   14.342000
     10          8           0        7.984000    4.644000   13.205000
     11          1           0        8.248000    3.685000   13.308000
     12          6           0        7.789000    6.753000   14.602000
     13          8           0        8.195000    7.190000   15.907000
     14          6           0        7.673000    8.444000   16.371000
     15          8           0        8.532000    8.729000   17.484000
     16          6           0        8.141000    8.340000   18.809000
     17          6           0        8.922000    7.173000   19.390000
     18          8           0        8.881000    5.984000   18.587000
     19          1           0        8.895000    6.310000   17.641000
     20          6           0        8.375000    6.739000   20.741000
     21          8           0        9.140000    5.655000   21.288000
     22          1           0        8.840000    5.389000   22.204000
     23          6           0        7.842000   10.787000   19.415000
     24          8           0        8.222000   11.464000   18.208000
     25          1           0        7.904000   12.402000   18.340000
     26          6           0        8.430000    9.443000   19.813000
     27          8           0        7.806000    9.103000   21.060000
     28          6           0        8.434000    7.955000   21.650000
     29          8           0        7.774012    7.646564   22.880521
     30          1           0        8.375007    7.346356   11.582314
     31          1           0        6.605425    9.170126   13.855071
     32          1           0        9.179211    7.773293   13.425783
     33          1           0        9.120168    9.587345   15.369588
     34          1           0        6.727754    6.617347   14.617975
     35          1           0        8.271062    4.794413   15.211456
     36          1           0        9.481497    5.552386   14.236131
     37          1           0        6.632140    8.423172   16.618136
     38          1           0        8.044865   11.460855   20.221018
     39          1           0        9.486705    9.537696   19.951947
     40          1           0        7.095767    8.111406   18.820468
     41          1           0        9.942589    7.470521   19.511567
     42          1           0        7.356519    6.431126   20.627823
     43          1           0        9.458588    8.186422   21.853870
     44          1           0        6.780877   10.656399   19.371861
     45          1           0        8.429256    7.475979   23.561077
 ---------------------------------------------------------------------
                    Distance matrix (angstroms):
                    1          2          3          4          5
     1  O    0.000000
     2  C    1.434862   0.000000
     3  C    2.415043   1.520281   0.000000
     4  O    2.902222   2.466575   1.434546   0.000000
     5  H    2.496202   2.571089   2.030633   1.000513   0.000000
     6  C    3.788920   2.548526   1.519526   2.377423   3.267383
     7  O    4.869545   3.818575   2.459257   2.830604   3.805409
     8  H    5.705229   4.533171   3.314346   3.721077   4.714705
     9  C    3.102560   2.515014   3.839686   4.948357   5.039784
    10  O    3.028612   3.118435   4.562124   5.535371   5.379600
    11  H    3.998980   4.067716   5.518268   6.493650   6.337571
    12  C    2.535685   1.519603   2.484266   3.769439   4.039785
    13  O    3.784897   2.473723   2.831829   4.117389   4.672315
    14  C    4.307777   2.988989   2.547631   3.762140   4.535818
    15  O    5.530295   4.126849   3.688913   4.657300   5.517656
    16  C    6.710289   5.344193   4.975917   6.025097   6.883772
    17  C    7.335782   5.974955   5.945255   7.034815   7.816837
    18  O    6.699772   5.440030   5.761439   6.962401   7.609502
    19  H    5.729134   4.454170   4.831394   6.027089   6.641240
    20  C    8.629354   7.317395   7.264905   8.407069   9.200170
    21  O    9.413878   8.131000   8.281170   9.426828  10.165496
    22  H   10.313850   9.048750   9.167827  10.332114  11.083150
    23  C    7.966494   6.658188   5.739294   6.383872   7.368912
    24  O    7.259448   6.001643   4.908561   5.297581   6.297761
    25  H    7.899805   6.720607   5.498812   5.728610   6.719853
    26  C    7.929172   6.546767   5.949194   6.786859   7.725467
    27  O    9.035535   7.688883   7.141329   8.070459   8.997229
    28  C    9.521411   8.161034   7.857091   8.865741   9.745259
    29  O   10.707946   9.389134   9.084521  10.139271  11.016058
    30  H    0.960000   1.974523   3.028393   3.200645   2.621990
    31  H    2.600542   2.103664   1.070000   2.031127   2.457158
    32  H    2.014075   1.070000   2.092386   2.621919   2.705759
    33  H    4.112072   2.812435   2.096810   2.550112   3.415204
    34  H    2.740290   2.108160   2.781976   4.144322   4.381824
    35  H    4.097535   3.416591   4.571758   5.790756   5.982762
    36  H    3.369503   2.689294   4.029194   4.939120   5.023013
    37  H    4.652496   3.519062   2.979218   4.251148   4.991377
    38  H    8.990965   7.681382   6.725483   7.267273   8.263332
    39  H    8.258549   6.837647   6.311329   7.032447   7.964894
    40  H    6.697690   5.430923   5.040212   6.205882   7.032328
    41  H    7.692418   6.292054   6.261029   7.203102   7.995945
    42  H    8.520814   7.289309   7.240693   8.474638   9.238962
    43  H    9.876108   8.475130   8.187919   9.095261   9.982592
    44  H    7.916373   6.689137   5.728977   6.474824   7.434575
    45  H   11.414097  10.071697   9.812641  10.835161  11.713153
                    6          7          8          9         10
     6  C    0.000000
     7  O    1.435646   0.000000
     8  H    1.991700   1.000369   0.000000
     9  C    4.239610   5.626789   6.059473   0.000000
    10  O    5.307496   6.650284   7.208032   1.434720   0.000000
    11  H    6.164844   7.529381   8.026106   2.008961   0.999993
    12  C    2.858281   4.186204   4.689181   1.520508   2.537226
    13  O    2.381324   3.644243   3.859621   2.390560   3.718527
    14  C    1.520172   2.408861   2.531907   3.736975   4.955833
    15  O    2.322492   2.857910   2.462921   4.580234   5.941159
    16  C    3.653155   3.949890   3.376848   5.356475   6.714900
    17  C    4.745765   5.300527   4.770880   5.373729   6.747585
    18  O    4.852862   5.723071   5.420428   4.309133   5.618375
    19  H    4.018757   5.031661   4.856571   3.454451   4.825305
    20  C    6.068953   6.466382   5.869067   6.538218   7.831552
    21  O    7.160362   7.705206   7.135072   6.987125   8.227597
    22  H    8.034319   8.500161   7.896787   7.872793   9.070268
    23  C    4.272947   3.673190   2.728985   7.424288   8.736173
    24  O    3.475135   2.643771   1.649869   7.196162   8.461622
    25  H    4.172306   3.081309   2.197918   8.081745   9.303827
    26  C    4.483159   4.363826   3.519513   6.803960   8.178935
    27  O    5.733141   5.566546   4.743799   7.697105   9.034124
    28  C    6.501680   6.594513   5.825683   7.742425   9.082029
    29  O    7.764189   7.782461   7.016557   8.853818  10.132877
    30  H    4.348167   5.464279   6.276515   3.378574   3.176275
    31  H    2.104770   2.646352   3.563898   4.217560   4.775864
    32  H    2.816887   4.141397   4.753247   2.654390   3.357044
    33  H    1.070000   2.025784   2.298510   4.368712   5.514796
    34  H    3.255555   4.376148   4.927670   2.110404   2.732902
    35  H    4.712512   6.045193   6.347565   1.070000   2.032460
    36  H    4.342029   5.775821   6.157549   1.070000   2.032460
    37  H    2.190793   2.651376   2.796094   4.190176   5.268696
    38  H    5.254602   4.548837   3.573419   8.453866   9.782522
    39  H    4.823776   4.794533   3.923323   7.051911   8.469219
    40  H    3.862426   4.077798   3.623495   5.403156   6.659230
    41  H    5.003749   5.553971   4.955151   5.771806   7.183181
    42  H    6.148343   6.524558   6.012263   6.459643   7.660669
    43  H    6.786068   6.899760   6.080027   8.078713   9.461824
    44  H    4.377860   3.692318   2.892058   7.460783   8.696357
    45  H    8.469060   8.519588   7.722620   9.450364  10.745543
                   11         12         13         14         15
    11  H    0.000000
    12  C    3.361211   0.000000
    13  O    4.363787   1.434862   0.000000
    14  C    5.688644   2.449959   1.435373   0.000000
    15  O    6.554507   3.572471   2.229130   1.434530   0.000000
    16  C    7.207043   4.510135   3.122022   2.484690   1.435210
    17  C    7.043518   4.938120   3.558104   3.505682   2.491199
    18  O    5.792576   4.202862   3.017852   3.524418   2.978831
    19  H    5.107262   3.264201   2.066678   2.767696   2.451118
    20  C    8.036948   6.166921   4.858329   4.743072   3.820052
    21  O    8.267827   6.908936   5.674893   5.840163   4.928444
    22  H    9.077053   7.794582   6.581173   6.687212   5.790411
    23  C    9.375430   6.280202   5.036773   3.845016   2.905207
    24  O    9.193667   5.948466   4.854112   3.577201   2.846138
    25  H   10.071020   6.774738   5.759263   4.426747   3.823356
    26  C    8.689230   5.899280   4.515315   3.663115   2.438122
    27  O    9.468030   6.872303   5.510381   4.736950   3.668069
    28  C    9.373178   7.178797   5.798655   5.355939   4.238424
    29  O   10.370719   8.326620   7.001120   6.558962   5.555957
    30  H    4.049648   3.132727   4.331254   4.962776   6.063518
    31  H    5.751865   2.793072   3.264669   2.827875   4.132240
    32  H    4.194659   2.087384   2.732277   3.375326   4.219169
    33  H    6.312566   3.224083   2.625264   2.098657   2.356573
    34  H    3.553286   1.070000   2.035271   2.702452   3.991050
    35  H    2.203287   2.107103   2.495677   3.875784   4.551211
    36  H    2.422823   2.107103   2.669955   4.023650   4.641237
    37  H    6.001523   2.862272   2.113991   1.070000   2.110147
    38  H   10.406489   7.335035   6.072355   4.905338   3.897640
    39  H    8.940384   6.265674   4.851987   4.160394   2.766986
    40  H    7.162961   4.485679   3.247399   2.538447   2.056778
    41  H    7.462309   5.408940   4.015678   3.995230   2.772104
    42  H    7.868656   6.049891   4.854391   4.719360   4.067629
    43  H    9.734486   7.578380   6.160744   5.772047   4.499857
    44  H    9.355387   6.245351   5.101071   3.833505   3.216414
    45  H   10.932976   9.010976   7.662999   7.294258   6.205762
                   16         17         18         19         20
    16  C    0.000000
    17  C    1.519675   0.000000
    18  O    2.479439   1.435344   0.000000
    19  H    2.460415   1.950512   1.000694   0.000000
    20  C    2.520036   1.520778   2.337900   3.172450   0.000000
    21  O    3.788491   2.440134   2.733262   3.713443   1.435092
    22  H    4.552255   3.332863   3.665842   4.655345   2.044283
    23  C    2.538591   3.772005   4.983364   4.929444   4.292863
    24  O    3.182316   4.505530   5.532479   5.228588   5.363313
    25  H    4.095848   5.429665   6.496635   6.211533   6.168972
    26  C    1.519258   2.360909   3.697453   3.840508   2.859340
    27  O    2.400291   2.785544   4.123047   4.547123   2.452349
    28  C    2.881901   2.440752   3.669689   4.357824   1.519348
    29  O    4.146423   3.704845   4.735384   5.522282   2.400502
    30  H    7.298430   7.828743   7.153857   6.168638   9.178802
    31  H    5.252477   6.323802   6.141726   5.268371   7.513840
    32  H    5.511630   5.999866   5.470709   4.471024   7.431616
    33  H    3.787373   4.693831   4.836635   3.993871   6.125391
    34  H    4.746524   5.281637   4.559688   3.732305   6.341897
    35  H    5.052764   4.851971   3.630625   2.930697   5.862430
    36  H    5.520766   5.431556   4.413270   3.537102   6.704156
    37  H    2.661477   3.806523   3.857895   3.260718   4.782468
    38  H    3.426773   4.454847   5.776251   5.823275   4.761857
    39  H    2.133478   2.495288   3.854700   4.013554   3.113068
    40  H    1.070000   2.130751   2.787009   2.805967   2.684842
    41  H    2.120217   1.070000   2.047325   2.437883   2.122254
    42  H    2.750878   2.129158   2.586295   3.361950   1.070000
    43  H    3.321273   2.717647   3.982048   4.646166   2.123128
    44  H    2.744531   4.088863   5.182455   5.133866   4.445423
    45  H    4.838581   4.210995   5.212631   6.051755   2.915290
                   21         22         23         24         25
    21  O    0.000000
    22  H    0.999906   0.000000
    23  C    5.615190   6.157348   0.000000
    24  O    6.638795   7.297641   1.435123   0.000000
    25  H    7.465950   8.061561   1.941055   0.999196   0.000000
    26  C    4.126581   4.724394   1.520028   2.589156   3.346952
    27  O    3.704085   4.021404   2.354395   3.725759   4.276845
    28  C    2.432998   2.656334   3.655942   4.919897   5.568915
    29  O    2.892814   2.586620   4.677264   6.050287   6.576276
    30  H    9.881611  10.810535   8.571645   7.802443   8.452674
    31  H    8.603989   9.433709   5.920829   5.179108   5.678547
    32  H    8.142675   9.102583   6.836760   6.116140   6.870271
    33  H    7.105725   8.025820   4.408883   3.519251   4.269040
    34  H    7.157812   7.969830   6.452829   6.213783   6.978483
    35  H    6.198391   7.040802   7.332460   7.311981   8.233948
    36  H    7.060879   7.995321   7.543860   7.232514   8.139254
    37  H    5.979947   6.729244   3.856669   3.781793   4.518132
    38  H    6.003809   6.436760   1.070000   2.020799   2.108038
    39  H    4.120749   4.764625   2.134040   2.889892   3.647954
    40  H    4.037515   4.679971   2.840623   3.589347   4.392413
    41  H    2.663828   3.577377   3.926937   4.539559   5.463324
    42  H    2.054023   2.402307   4.547556   5.651055   6.417570
    43  H    2.613390   2.886315   3.914645   5.056089   5.703956
    44  H    5.852439   6.325068   1.070000   2.020799   2.318031
    45  H    2.997999   2.523063   5.338323   6.678526   7.197307
                   26         27         28         29         30
    26  C    0.000000
    27  O    1.435265   0.000000
    28  C    2.364049   1.435405   0.000000
    29  O    3.614857   2.331636   1.430000   0.000000
    30  H    8.493711   9.655884  10.086240  11.318163   0.000000
    31  H    6.237023   7.304580   8.098218   9.227437   3.409249
    32  H    6.644229   7.869886   8.259909   9.559431   2.056063
    33  H    4.499009   5.860241   6.525255   7.873557   4.463265
    34  H    6.153880   6.988617   7.358666   8.391878   3.529891
    35  H    6.542846   7.279126   7.174309   8.197340   4.437779
    36  H    6.880697   7.872696   7.863540   9.056852   3.389011
    37  H    3.805195   4.644381   5.365216   6.412836   5.436600
    38  H    2.094409   2.514046   3.805842   4.657804   9.574200
    39  H    1.070000   2.059494   2.548823   3.884102   8.722878
    40  H    2.130362   2.550136   3.133940   4.142478   7.390036
    41  H    2.503890   3.102845   2.661476   4.010433   8.083674
    42  H    3.299649   2.743669   2.127911   2.593500   9.148562
    43  H    2.608089   2.049730   1.070000   2.045301  10.362660
    44  H    2.094409   2.512715   3.901319   4.728226   8.612472
    45  H    4.232878   3.048120   1.970203   0.960000  11.979587
                   31         32         33         34         35
    31  H    0.000000
    32  H    2.959697   0.000000
    33  H    2.965091   2.659445   0.000000
    34  H    2.667146   2.960941   3.887088   0.000000
    35  H    4.874525   3.589859   4.870131   2.461119   0.000000
    36  H    4.637353   2.383373   4.206682   2.977088   1.729432
    37  H    2.862374   4.135340   3.017359   2.696440   4.222879
    38  H    6.916987   7.814095   5.310621   7.522529   8.341962
    39  H    6.753427   6.767458   4.597263   6.677687   6.815334
    40  H    5.100637   5.792900   4.264408   4.475332   5.040707
    41  H    6.783898   6.140944   4.723697   5.916952   5.333527
    42  H    7.344143   7.549371   6.381318   6.045519   5.731688
    43  H    8.549210   8.442830   6.642517   7.891617   7.552324
    44  H    5.716185   7.029947   4.757453   6.238285   7.341151
    45  H   10.020133  10.167351   8.487386   9.143929   8.771089
                   36         37         38         39         40
    36  H    0.000000
    37  H    4.694060   0.000000
    38  H    8.531870   4.919763   0.000000
    39  H    6.968018   4.528245   2.418645   0.000000
    40  H    5.766840   2.272095   3.752484   3.005185   0.000000
    41  H    5.632236   4.498729   4.475204   2.162170   2.998792
    42  H    6.792750   4.535478   5.092886   3.826916   2.481504
    43  H    8.060311   5.954643   3.922592   2.333247   3.845787
    44  H    7.727874   3.548581   1.722174   2.984879   2.623010
    45  H    9.579251   7.234033   5.213731   4.288904   4.965414
                   41         42         43         44         45
    41  H    0.000000
    42  H    3.002354   0.000000
    43  H    2.496628   3.000492   0.000000
    44  H    4.490631   4.445417   4.408093   0.000000
    45  H    4.323047   3.293397   2.116320   5.511965   0.000000
 Stoichiometry    C12H22O11
 Framework group  C1[X(C12H22O11)]
 Deg. of freedom   129
 Full point group                 C1      NOp   1
 Largest Abelian subgroup         C1      NOp   1
 Largest concise Abelian subgroup C1      NOp   1
                         Standard orientation:                         
 ---------------------------------------------------------------------
 Center     Atomic      Atomic             Coordinates (Angstroms)
 Number     Number       Type             X           Y           Z
 ---------------------------------------------------------------------
      1          8           0       -5.139455   -0.365373    0.326793
      2          6           0       -3.783398   -0.193342   -0.109493
      3          6           0       -3.323981    1.222267    0.200734
      4          8           0       -4.101798    2.226482   -0.465952
      5          1           0       -5.076285    1.999782   -0.468869
      6          6           0       -1.866506    1.485840   -0.138757
      7          8           0       -1.429196    2.788056    0.278463
      8          1           0       -0.473131    2.901532    0.006800
      9          6           0       -3.026971   -2.591842   -0.127220
     10          8           0       -4.216197   -3.249824    0.332368
     11          1           0       -4.141718   -4.235029    0.178066
     12          6           0       -2.740805   -1.186149    0.376847
     13          8           0       -1.399537   -0.845249   -0.002121
     14          6           0       -0.908352    0.439726    0.407603
     15          8           0        0.257328    0.587611   -0.415315
     16          6           0        1.543157    0.193878    0.086129
     17          6           0        2.111358   -1.072118   -0.533397
     18          8           0        1.256678   -2.218578   -0.409455
     19          1           0        0.327523   -1.860696   -0.509355
     20          6           0        3.413415   -1.494572    0.129133
     21          8           0        3.950480   -2.675102   -0.485197
     22          1           0        4.838048   -2.941166   -0.109370
     23          6           0        2.238699    2.634355    0.154980
     24          8           0        1.082512    3.310936   -0.359849
     25          1           0        1.238923    4.272315   -0.136964
     26          6           0        2.607035    1.220394   -0.263978
     27          8           0        3.805546    0.903596    0.459345
     28          6           0        4.375928   -0.327233   -0.009816
     29          8           0        5.557568   -0.608145    0.744980
     30          1           0       -5.699086   -0.546897   -0.431799
     31          1           0       -3.440599    1.371676    1.253814
     32          1           0       -3.801122   -0.279525   -1.175870
     33          1           0       -1.786090    1.455822   -1.205309
     34          1           0       -2.783587   -1.206141    1.445805
     35          1           0       -2.193310   -3.207053    0.140035
     36          1           0       -3.073464   -2.549019   -1.195351
     37          1           0       -0.714499    0.522889    1.456605
     38          1           0        3.082189    3.251381   -0.074591
     39          1           0        2.802406    1.194370   -1.315668
     40          1           0        1.492659    0.079990    1.148851
     41          1           0        2.296353   -0.892084   -1.571792
     42          1           0        3.236449   -1.685436    1.166993
     43          1           0        4.640389   -0.216388   -1.040676
     44          1           0        2.137156    2.621590    1.220074
     45          1           0        6.261907   -0.874413    0.149490
 ---------------------------------------------------------------------
 Rotational constants (GHZ):      0.4086523      0.1432909      0.1089135
 Standard basis: 6-31+G(2df,p) (6D, 7F)
 There are   846 symmetry adapted basis functions of A   symmetry.
 Integral buffers will be    131072 words long.
 Raffenetti 2 integral format.
 Two-electron integral symmetry is turned on.
   846 basis functions,  1258 primitive gaussians,   915 cartesian basis functions
    91 alpha electrons       91 beta electrons
       nuclear repulsion energy      2280.2202420101 Hartrees.
 NAtoms=   45 NActive=   45 NUniq=   45 SFac= 1.00D+00 NAtFMM=   50 NAOKFM=F Big=F
 One-electron integrals computed using PRISM.
 NBasis=   846 RedAO= T  NBF=   846
 NBsUse=   846 1.00D-06 NBFU=   846
 Harris functional with IExCor=  402 diagonalized for initial guess.
 ExpMin= 4.38D-02 ExpMax= 5.48D+03 ExpMxC= 8.25D+02 IAcc=2 IRadAn=         0 AccDes= 0.00D+00
 HarFok:  IExCor=  402 AccDes= 0.00D+00 IRadAn=         0 IDoV= 1
 ScaDFX=  1.000000  1.000000  1.000000  1.000000
 FoFCou: FMM=F IPFlag=           0 FMFlag=      100000 FMFlg1=           0
         NFxFlg=           0 DoJE=T BraDBF=F KetDBF=T FulRan=T
         Omega=  0.000000  0.000000  1.000000  0.000000  0.000000 ICntrl=     500 IOpCl=  0
         NMat0=    1 NMatS0=    1 NMatT0=    0 NMatD0=    1 NMtDS0=    0 NMtDT0=    0
         I1Cent=           4 NGrid=           0.
 Petite list used in FoFCou.
 Initial guess orbital symmetries:
       Occupied  (A) (A) (A) (A) (A) (A) (A) (A) (A) (A) (A) (A)
                 (A) (A) (A) (A) (A) (A) (A) (A) (A) (A) (A) (A)
                 (A) (A) (A) (A) (A) (A) (A) (A) (A) (A) (A) (A)
                 (A) (A) (A) (A) (A) (A) (A) (A) (A) (A) (A) (A)
                 (A) (A) (A) (A) (A) (A) (A) (A) (A) (A) (A) (A)
                 (A) (A) (A) (A) (A) (A) (A) (A) (A) (A) (A) (A)
                 (A) (A) (A) (A) (A) (A) (A) (A) (A) (A) (A) (A)
                 (A) (A) (A) (A) (A) (A) (A)
       Virtual   (A) (A) (A) (A) (A) (A) (A) (A) (A) (A) (A) (A)
                 (A) (A) (A) (A) (A) (A) (A) (A) (A) (A) (A) (A)
                 (A) (A) (A) (A) (A) (A) (A) (A) (A) (A) (A) (A)
                 (A) (A) (A) (A) (A) (A) (A) (A) (A) (A) (A) (A)
                 (A) (A) (A) (A) (A) (A) (A) (A) (A) (A) (A) (A)
                 (A) (A) (A) (A) (A) (A) (A) (A) (A) (A) (A) (A)
                 (A) (A) (A) (A) (A) (A) (A) (A) (A) (A) (A) (A)
                 (A) (A) (A) (A) (A) (A) (A) (A) (A) (A) (A) (A)
                 (A) (A) (A) (A) (A) (A) (A) (A) (A) (A) (A) (A)
                 (A) (A) (A) (A) (A) (A) (A) (A) (A) (A) (A) (A)
                 (A) (A) (A) (A) (A) (A) (A) (A) (A) (A) (A) (A)
                 (A) (A) (A) (A) (A) (A) (A) (A) (A) (A) (A) (A)
                 (A) (A) (A) (A) (A) (A) (A) (A) (A) (A) (A) (A)
                 (A) (A) (A) (A) (A) (A) (A) (A) (A) (A) (A) (A)
                 (A) (A) (A) (A) (A) (A) (A) (A) (A) (A) (A) (A)
                 (A) (A) (A) (A) (A) (A) (A) (A) (A) (A) (A) (A)
                 (A) (A) (A) (A) (A) (A) (A) (A) (A) (A) (A) (A)
                 (A) (A) (A) (A) (A) (A) (A) (A) (A) (A) (A) (A)
                 (A) (A) (A) (A) (A) (A) (A) (A) (A) (A) (A) (A)
                 (A) (A) (A) (A) (A) (A) (A) (A) (A) (A) (A) (A)
                 (A) (A) (A) (A) (A) (A) (A) (A) (A) (A) (A) (A)
                 (A) (A) (A) (A) (A) (A) (A) (A) (A) (A) (A) (A)
                 (A) (A) (A) (A) (A) (A) (A) (A) (A) (A) (A) (A)
                 (A) (A) (A) (A) (A) (A) (A) (A) (A) (A) (A) (A)
                 (A) (A) (A) (A) (A) (A) (A) (A) (A) (A) (A) (A)
                 (A) (A) (A) (A) (A) (A) (A) (A) (A) (A) (A) (A)
                 (A) (A) (A) (A) (A) (A) (A) (A) (A) (A) (A) (A)
                 (A) (A) (A) (A) (A) (A) (A) (A) (A) (A) (A) (A)
                 (A) (A) (A) (A) (A) (A) (A) (A) (A) (A) (A) (A)
                 (A) (A) (A) (A) (A) (A) (A) (A) (A) (A) (A) (A)
                 (A) (A) (A) (A) (A) (A) (A) (A) (A) (A) (A) (A)
                 (A) (A) (A) (A) (A) (A) (A) (A) (A) (A) (A) (A)
                 (A) (A) (A) (A) (A) (A) (A) (A) (A) (A) (A) (A)
                 (A) (A) (A) (A) (A) (A) (A) (A) (A) (A) (A) (A)
                 (A) (A) (A) (A) (A) (A) (A) (A) (A) (A) (A) (A)
                 (A) (A) (A) (A) (A) (A) (A) (A) (A) (A) (A) (A)
                 (A) (A) (A) (A) (A) (A) (A) (A) (A) (A) (A) (A)
                 (A) (A) (A) (A) (A) (A) (A) (A) (A) (A) (A) (A)
                 (A) (A) (A) (A) (A) (A) (A) (A) (A) (A) (A) (A)
                 (A) (A) (A) (A) (A) (A) (A) (A) (A) (A) (A) (A)
                 (A) (A) (A) (A) (A) (A) (A) (A) (A) (A) (A) (A)
                 (A) (A) (A) (A) (A) (A) (A) (A) (A) (A) (A) (A)
                 (A) (A) (A) (A) (A) (A) (A) (A) (A) (A) (A) (A)
                 (A) (A) (A) (A) (A) (A) (A) (A) (A) (A) (A) (A)
                 (A) (A) (A) (A) (A) (A) (A) (A) (A) (A) (A) (A)
                 (A) (A) (A) (A) (A) (A) (A) (A) (A) (A) (A) (A)
                 (A) (A) (A) (A) (A) (A) (A) (A) (A) (A) (A) (A)
                 (A) (A) (A) (A) (A) (A) (A) (A) (A) (A) (A) (A)
                 (A) (A) (A) (A) (A) (A) (A) (A) (A) (A) (A) (A)
                 (A) (A) (A) (A) (A) (A) (A) (A) (A) (A) (A) (A)
                 (A) (A) (A) (A) (A) (A) (A) (A) (A) (A) (A) (A)
                 (A) (A) (A) (A) (A) (A) (A) (A) (A) (A) (A) (A)
                 (A) (A) (A) (A) (A) (A) (A) (A) (A) (A) (A) (A)
                 (A) (A) (A) (A) (A) (A) (A) (A) (A) (A) (A) (A)
                 (A) (A) (A) (A) (A) (A) (A) (A) (A) (A) (A) (A)
                 (A) (A) (A) (A) (A) (A) (A) (A) (A) (A) (A) (A)
                 (A) (A) (A) (A) (A) (A) (A) (A) (A) (A) (A) (A)
                 (A) (A) (A) (A) (A) (A) (A) (A) (A) (A) (A) (A)
                 (A) (A) (A) (A) (A) (A) (A) (A) (A) (A) (A) (A)
                 (A) (A) (A) (A) (A) (A) (A) (A) (A) (A) (A) (A)
                 (A) (A) (A) (A) (A) (A) (A) (A) (A) (A) (A) (A)
                 (A) (A) (A) (A) (A) (A) (A) (A) (A) (A) (A) (A)
                 (A) (A) (A) (A) (A) (A) (A) (A) (A) (A) (A)
 The electronic state of the initial guess is 1-A.
 Requested convergence on RMS density matrix=1.00D-08 within 128 cycles.
 Requested convergence on MAX density matrix=1.00D-06.
 Requested convergence on             energy=1.00D-06.
 No special actions if energy rises.
 SCF Done:  E(RB3LYP) =  -1298.01882673     A.U. after   13 cycles
             Convg  =    0.4502D-08             -V/T =  2.0066
 Range of M.O.s used for correlation:     1   846
 NBasis=   846 NAE=    91 NBE=    91 NFC=     0 NFV=     0
 NROrb=    846 NOA=    91 NOB=    91 NVA=   755 NVB=   755

 **** Warning!!: The largest alpha MO coefficient is  0.60914874D+02

          Differentiating once with respect to electric field.
                with respect to dipole field.
          Electric field/nuclear overlap derivatives assumed to be zero.
          There are     3 degrees of freedom in the 1st order CPHF.  IDoFFX=0.
      3 vectors produced by pass  0 Test12= 2.29D-12 3.33D-08 XBig12= 1.23D+02 1.08D+00.
 AX will form     3 AO Fock derivatives at one time.
      3 vectors produced by pass  1 Test12= 2.29D-12 3.33D-08 XBig12= 2.29D+01 4.34D-01.
      3 vectors produced by pass  2 Test12= 2.29D-12 3.33D-08 XBig12= 9.69D+00 1.84D-01.
      3 vectors produced by pass  3 Test12= 2.29D-12 3.33D-08 XBig12= 1.14D+00 8.30D-02.
      3 vectors produced by pass  4 Test12= 2.29D-12 3.33D-08 XBig12= 3.54D-01 4.18D-02.
      3 vectors produced by pass  5 Test12= 2.29D-12 3.33D-08 XBig12= 6.11D-02 1.49D-02.
      3 vectors produced by pass  6 Test12= 2.29D-12 3.33D-08 XBig12= 2.30D-02 1.47D-02.
      3 vectors produced by pass  7 Test12= 2.29D-12 3.33D-08 XBig12= 2.87D-03 6.64D-03.
      3 vectors produced by pass  8 Test12= 2.29D-12 3.33D-08 XBig12= 5.81D-04 2.32D-03.
      3 vectors produced by pass  9 Test12= 2.29D-12 3.33D-08 XBig12= 1.61D-04 1.46D-03.
      3 vectors produced by pass 10 Test12= 2.29D-12 3.33D-08 XBig12= 4.82D-05 7.52D-04.
      3 vectors produced by pass 11 Test12= 2.29D-12 3.33D-08 XBig12= 9.64D-06 3.97D-04.
      3 vectors produced by pass 12 Test12= 2.29D-12 3.33D-08 XBig12= 1.23D-06 9.89D-05.
      3 vectors produced by pass 13 Test12= 2.29D-12 3.33D-08 XBig12= 3.66D-07 4.33D-05.
      3 vectors produced by pass 14 Test12= 2.29D-12 3.33D-08 XBig12= 5.54D-08 2.06D-05.
      3 vectors produced by pass 15 Test12= 2.29D-12 3.33D-08 XBig12= 1.17D-08 1.10D-05.
      3 vectors produced by pass 16 Test12= 2.29D-12 3.33D-08 XBig12= 2.14D-09 4.22D-06.
      3 vectors produced by pass 17 Test12= 2.29D-12 3.33D-08 XBig12= 1.56D-10 1.00D-06.
      3 vectors produced by pass 18 Test12= 2.29D-12 3.33D-08 XBig12= 1.50D-11 2.21D-07.
      3 vectors produced by pass 19 Test12= 2.29D-12 3.33D-08 XBig12= 7.14D-12 1.73D-07.
      3 vectors produced by pass 20 Test12= 2.29D-12 3.33D-08 XBig12= 5.00D-12 1.61D-07.
      3 vectors produced by pass 21 Test12= 2.29D-12 3.33D-08 XBig12= 1.22D-12 9.33D-08.
 Inverted reduced A of dimension    66 with in-core refinement.
 End of Minotr Frequency-dependent properties file   721 does not exist.
 End of Minotr Frequency-dependent properties file   722 does not exist.
 Symmetrizing basis deriv contribution to polar:
 IMax=3 JMax=2 DiffMx= 0.00D+00
 G2DrvN: will do     8 centers at a time, making    6 passes doing MaxLOS=3.
 Calling FoFCou, ICntrl=  3107 FMM=F I1Cent=   0 AccDes= 0.00D+00.
 Calling FoFCou, ICntrl=  3107 FMM=F I1Cent=   0 AccDes= 0.00D+00.
 Calling FoFCou, ICntrl=  3107 FMM=F I1Cent=   0 AccDes= 0.00D+00.
 Calling FoFCou, ICntrl=  3107 FMM=F I1Cent=   0 AccDes= 0.00D+00.
 Calling FoFCou, ICntrl=  3107 FMM=F I1Cent=   0 AccDes= 0.00D+00.
 Calling FoFCou, ICntrl=  3107 FMM=F I1Cent=   0 AccDes= 0.00D+00.
 FoFDir/FoFCou used for L=0 through L=3.
 End of G2Drv Frequency-dependent properties file   721 does not exist.
 End of G2Drv Frequency-dependent properties file   722 does not exist.
          IDoAtm=111111111111111111111111111111111111111111111
          Differentiating once with respect to electric field.
                with respect to dipole field.
          Differentiating once with respect to nuclear coordinates.
          There are   138 degrees of freedom in the 1st order CPHF.  IDoFFX=5.
 Will reuse    3 saved solutions.
    135 vectors produced by pass  0 Test12= 6.87D-14 1.00D-09 XBig12= 1.56D-01 6.49D-02.
 AX will form    27 AO Fock derivatives at one time.
    135 vectors produced by pass  1 Test12= 6.87D-14 1.00D-09 XBig12= 2.40D-02 1.20D-02.
    132 vectors produced by pass  2 Test12= 6.87D-14 1.00D-09 XBig12= 1.33D-04 1.24D-03.
    132 vectors produced by pass  3 Test12= 6.87D-14 1.00D-09 XBig12= 7.35D-07 7.39D-05.
    132 vectors produced by pass  4 Test12= 6.87D-14 1.00D-09 XBig12= 1.83D-09 2.93D-06.
    132 vectors produced by pass  5 Test12= 6.87D-14 1.00D-09 XBig12= 4.14D-12 1.10D-07.
     94 vectors produced by pass  6 Test12= 6.87D-14 1.00D-09 XBig12= 1.85D-13 3.24D-08.
      2 vectors produced by pass  7 Test12= 6.87D-14 1.00D-09 XBig12= 1.11D-15 1.97D-09.
 Inverted reduced A of dimension   894 with in-core refinement.
 Isotropic polarizability for W=    0.000000      192.11 Bohr**3.
 End of Minotr Frequency-dependent properties file   721 does not exist.
 End of Minotr Frequency-dependent properties file   722 does not exist.

 **********************************************************************

            Population analysis using the SCF density.

 **********************************************************************

 Orbital symmetries:
       Occupied  (A) (A) (A) (A) (A) (A) (A) (A) (A) (A) (A) (A)
                 (A) (A) (A) (A) (A) (A) (A) (A) (A) (A) (A) (A)
                 (A) (A) (A) (A) (A) (A) (A) (A) (A) (A) (A) (A)
                 (A) (A) (A) (A) (A) (A) (A) (A) (A) (A) (A) (A)
                 (A) (A) (A) (A) (A) (A) (A) (A) (A) (A) (A) (A)
                 (A) (A) (A) (A) (A) (A) (A) (A) (A) (A) (A) (A)
                 (A) (A) (A) (A) (A) (A) (A) (A) (A) (A) (A) (A)
                 (A) (A) (A) (A) (A) (A) (A)
       Virtual   (A) (A) (A) (A) (A) (A) (A) (A) (A) (A) (A) (A)
                 (A) (A) (A) (A) (A) (A) (A) (A) (A) (A) (A) (A)
                 (A) (A) (A) (A) (A) (A) (A) (A) (A) (A) (A) (A)
                 (A) (A) (A) (A) (A) (A) (A) (A) (A) (A) (A) (A)
                 (A) (A) (A) (A) (A) (A) (A) (A) (A) (A) (A) (A)
                 (A) (A) (A) (A) (A) (A) (A) (A) (A) (A) (A) (A)
                 (A) (A) (A) (A) (A) (A) (A) (A) (A) (A) (A) (A)
                 (A) (A) (A) (A) (A) (A) (A) (A) (A) (A) (A) (A)
                 (A) (A) (A) (A) (A) (A) (A) (A) (A) (A) (A) (A)
                 (A) (A) (A) (A) (A) (A) (A) (A) (A) (A) (A) (A)
                 (A) (A) (A) (A) (A) (A) (A) (A) (A) (A) (A) (A)
                 (A) (A) (A) (A) (A) (A) (A) (A) (A) (A) (A) (A)
                 (A) (A) (A) (A) (A) (A) (A) (A) (A) (A) (A) (A)
                 (A) (A) (A) (A) (A) (A) (A) (A) (A) (A) (A) (A)
                 (A) (A) (A) (A) (A) (A) (A) (A) (A) (A) (A) (A)
                 (A) (A) (A) (A) (A) (A) (A) (A) (A) (A) (A) (A)
                 (A) (A) (A) (A) (A) (A) (A) (A) (A) (A) (A) (A)
                 (A) (A) (A) (A) (A) (A) (A) (A) (A) (A) (A) (A)
                 (A) (A) (A) (A) (A) (A) (A) (A) (A) (A) (A) (A)
                 (A) (A) (A) (A) (A) (A) (A) (A) (A) (A) (A) (A)
                 (A) (A) (A) (A) (A) (A) (A) (A) (A) (A) (A) (A)
                 (A) (A) (A) (A) (A) (A) (A) (A) (A) (A) (A) (A)
                 (A) (A) (A) (A) (A) (A) (A) (A) (A) (A) (A) (A)
                 (A) (A) (A) (A) (A) (A) (A) (A) (A) (A) (A) (A)
                 (A) (A) (A) (A) (A) (A) (A) (A) (A) (A) (A) (A)
                 (A) (A) (A) (A) (A) (A) (A) (A) (A) (A) (A) (A)
                 (A) (A) (A) (A) (A) (A) (A) (A) (A) (A) (A) (A)
                 (A) (A) (A) (A) (A) (A) (A) (A) (A) (A) (A) (A)
                 (A) (A) (A) (A) (A) (A) (A) (A) (A) (A) (A) (A)
                 (A) (A) (A) (A) (A) (A) (A) (A) (A) (A) (A) (A)
                 (A) (A) (A) (A) (A) (A) (A) (A) (A) (A) (A) (A)
                 (A) (A) (A) (A) (A) (A) (A) (A) (A) (A) (A) (A)
                 (A) (A) (A) (A) (A) (A) (A) (A) (A) (A) (A) (A)
                 (A) (A) (A) (A) (A) (A) (A) (A) (A) (A) (A) (A)
                 (A) (A) (A) (A) (A) (A) (A) (A) (A) (A) (A) (A)
                 (A) (A) (A) (A) (A) (A) (A) (A) (A) (A) (A) (A)
                 (A) (A) (A) (A) (A) (A) (A) (A) (A) (A) (A) (A)
                 (A) (A) (A) (A) (A) (A) (A) (A) (A) (A) (A) (A)
                 (A) (A) (A) (A) (A) (A) (A) (A) (A) (A) (A) (A)
                 (A) (A) (A) (A) (A) (A) (A) (A) (A) (A) (A) (A)
                 (A) (A) (A) (A) (A) (A) (A) (A) (A) (A) (A) (A)
                 (A) (A) (A) (A) (A) (A) (A) (A) (A) (A) (A) (A)
                 (A) (A) (A) (A) (A) (A) (A) (A) (A) (A) (A) (A)
                 (A) (A) (A) (A) (A) (A) (A) (A) (A) (A) (A) (A)
                 (A) (A) (A) (A) (A) (A) (A) (A) (A) (A) (A) (A)
                 (A) (A) (A) (A) (A) (A) (A) (A) (A) (A) (A) (A)
                 (A) (A) (A) (A) (A) (A) (A) (A) (A) (A) (A) (A)
                 (A) (A) (A) (A) (A) (A) (A) (A) (A) (A) (A) (A)
                 (A) (A) (A) (A) (A) (A) (A) (A) (A) (A) (A) (A)
                 (A) (A) (A) (A) (A) (A) (A) (A) (A) (A) (A) (A)
                 (A) (A) (A) (A) (A) (A) (A) (A) (A) (A) (A) (A)
                 (A) (A) (A) (A) (A) (A) (A) (A) (A) (A) (A) (A)
                 (A) (A) (A) (A) (A) (A) (A) (A) (A) (A) (A) (A)
                 (A) (A) (A) (A) (A) (A) (A) (A) (A) (A) (A) (A)
                 (A) (A) (A) (A) (A) (A) (A) (A) (A) (A) (A) (A)
                 (A) (A) (A) (A) (A) (A) (A) (A) (A) (A) (A) (A)
                 (A) (A) (A) (A) (A) (A) (A) (A) (A) (A) (A) (A)
                 (A) (A) (A) (A) (A) (A) (A) (A) (A) (A) (A) (A)
                 (A) (A) (A) (A) (A) (A) (A) (A) (A) (A) (A) (A)
                 (A) (A) (A) (A) (A) (A) (A) (A) (A) (A) (A) (A)
                 (A) (A) (A) (A) (A) (A) (A) (A) (A) (A) (A) (A)
                 (A) (A) (A) (A) (A) (A) (A) (A) (A) (A) (A) (A)
                 (A) (A) (A) (A) (A) (A) (A) (A) (A) (A) (A)
 The electronic state is 1-A.
 Alpha  occ. eigenvalues --  -19.19204 -19.18601 -19.18269 -19.18213 -19.18094
 Alpha  occ. eigenvalues --  -19.16820 -19.16410 -19.16176 -19.14708 -19.14204
 Alpha  occ. eigenvalues --  -19.12305 -10.30588 -10.30484 -10.26527 -10.25802
 Alpha  occ. eigenvalues --  -10.25558 -10.25409 -10.24847 -10.24735 -10.24296
 Alpha  occ. eigenvalues --  -10.24009 -10.23632 -10.23334  -1.09856  -1.09168
 Alpha  occ. eigenvalues --   -1.05993  -1.04858  -1.04102  -1.03652  -1.02851
 Alpha  occ. eigenvalues --   -1.02380  -1.01365  -1.00628  -0.99088  -0.82665
 Alpha  occ. eigenvalues --   -0.80122  -0.79529  -0.78031  -0.72072  -0.69723
 Alpha  occ. eigenvalues --   -0.67141  -0.64783  -0.63007  -0.62520  -0.61826
 Alpha  occ. eigenvalues --   -0.59805  -0.56466  -0.55792  -0.55076  -0.54872
 Alpha  occ. eigenvalues --   -0.54053  -0.53529  -0.52930  -0.51591  -0.50781
 Alpha  occ. eigenvalues --   -0.50544  -0.50185  -0.49484  -0.48556  -0.46640
 Alpha  occ. eigenvalues --   -0.46069  -0.45191  -0.44135  -0.43675  -0.43349
 Alpha  occ. eigenvalues --   -0.42436  -0.41508  -0.40870  -0.40436  -0.39735
 Alpha  occ. eigenvalues --   -0.38356  -0.38027  -0.37832  -0.35999  -0.35384
 Alpha  occ. eigenvalues --   -0.35091  -0.34632  -0.34369  -0.34336  -0.33403
 Alpha  occ. eigenvalues --   -0.32802  -0.31420  -0.31238  -0.30400  -0.29613
 Alpha  occ. eigenvalues --   -0.29264  -0.28723  -0.28623  -0.27010  -0.26615
 Alpha  occ. eigenvalues --   -0.26024
 Alpha virt. eigenvalues --   -0.02182  -0.02037  -0.01803  -0.00305   0.00105
 Alpha virt. eigenvalues --    0.00938   0.01697   0.02365   0.03068   0.03478
 Alpha virt. eigenvalues --    0.03757   0.04383   0.04491   0.05196   0.05715
 Alpha virt. eigenvalues --    0.06168   0.06408   0.07388   0.07794   0.07938
 Alpha virt. eigenvalues --    0.08728   0.08829   0.09181   0.09560   0.09989
 Alpha virt. eigenvalues --    0.10214   0.10796   0.11318   0.11728   0.11839
 Alpha virt. eigenvalues --    0.12519   0.12874   0.13024   0.13636   0.13756
 Alpha virt. eigenvalues --    0.14168   0.14432   0.14795   0.14930   0.15570
 Alpha virt. eigenvalues --    0.15863   0.16085   0.16429   0.16641   0.17149
 Alpha virt. eigenvalues --    0.17364   0.17564   0.17752   0.18021   0.18597
 Alpha virt. eigenvalues --    0.18625   0.19067   0.19245   0.19601   0.19990
 Alpha virt. eigenvalues --    0.20328   0.20775   0.21068   0.21306   0.21824
 Alpha virt. eigenvalues --    0.22119   0.22232   0.22374   0.23024   0.23165
 Alpha virt. eigenvalues --    0.23557   0.23792   0.24013   0.24321   0.24533
 Alpha virt. eigenvalues --    0.24817   0.24855   0.25253   0.25505   0.25874
 Alpha virt. eigenvalues --    0.26328   0.26563   0.26880   0.26966   0.27354
 Alpha virt. eigenvalues --    0.27710   0.27837   0.28151   0.28334   0.28525
 Alpha virt. eigenvalues --    0.29004   0.29158   0.29908   0.30152   0.30808
 Alpha virt. eigenvalues --    0.31033   0.31161   0.31638   0.31862   0.32202
 Alpha virt. eigenvalues --    0.32455   0.32511   0.33008   0.33933   0.34064
 Alpha virt. eigenvalues --    0.34189   0.34543   0.34983   0.35247   0.35398
 Alpha virt. eigenvalues --    0.36200   0.36404   0.36848   0.37194   0.37509
 Alpha virt. eigenvalues --    0.37643   0.37877   0.38815   0.38984   0.39436
 Alpha virt. eigenvalues --    0.39674   0.40099   0.40717   0.40977   0.41346
 Alpha virt. eigenvalues --    0.41677   0.42161   0.42933   0.43207   0.43936
 Alpha virt. eigenvalues --    0.44194   0.45075   0.45416   0.45909   0.46133
 Alpha virt. eigenvalues --    0.46734   0.47734   0.48549   0.49078   0.49549
 Alpha virt. eigenvalues --    0.50729   0.51314   0.54496   0.56440   0.58158
 Alpha virt. eigenvalues --    0.58399   0.59606   0.60216   0.60847   0.61971
 Alpha virt. eigenvalues --    0.62161   0.63246   0.64050   0.65421   0.65676
 Alpha virt. eigenvalues --    0.66202   0.67080   0.67337   0.69267   0.69840
 Alpha virt. eigenvalues --    0.70195   0.70908   0.71480   0.72394   0.73012
 Alpha virt. eigenvalues --    0.73879   0.74805   0.75605   0.75822   0.76406
 Alpha virt. eigenvalues --    0.77042   0.78029   0.78537   0.80503   0.80669
 Alpha virt. eigenvalues --    0.81513   0.82048   0.83640   0.84058   0.84495
 Alpha virt. eigenvalues --    0.85783   0.86401   0.87341   0.87872   0.88287
 Alpha virt. eigenvalues --    0.89071   0.89833   0.89903   0.90628   0.90954
 Alpha virt. eigenvalues --    0.91695   0.92332   0.93014   0.93066   0.93148
 Alpha virt. eigenvalues --    0.94164   0.94459   0.94722   0.95050   0.95271
 Alpha virt. eigenvalues --    0.96105   0.96841   0.97340   0.97715   0.97955
 Alpha virt. eigenvalues --    0.98697   0.99312   0.99884   1.01121   1.01335
 Alpha virt. eigenvalues --    1.02991   1.03614   1.04144   1.05011   1.05212
 Alpha virt. eigenvalues --    1.06547   1.06673   1.07540   1.08428   1.08778
 Alpha virt. eigenvalues --    1.08991   1.09485   1.09715   1.10098   1.10813
 Alpha virt. eigenvalues --    1.11355   1.11648   1.12601   1.12935   1.13737
 Alpha virt. eigenvalues --    1.14056   1.14651   1.14854   1.15859   1.16212
 Alpha virt. eigenvalues --    1.16873   1.17155   1.17728   1.19176   1.19604
 Alpha virt. eigenvalues --    1.19853   1.20248   1.21040   1.21678   1.21974
 Alpha virt. eigenvalues --    1.23078   1.23294   1.23562   1.24133   1.24708
 Alpha virt. eigenvalues --    1.25467   1.25842   1.26602   1.26800   1.27085
 Alpha virt. eigenvalues --    1.27883   1.28788   1.29578   1.30749   1.30864
 Alpha virt. eigenvalues --    1.31075   1.31811   1.33384   1.33452   1.34378
 Alpha virt. eigenvalues --    1.34616   1.35259   1.35609   1.36736   1.37335
 Alpha virt. eigenvalues --    1.37519   1.37742   1.38475   1.38940   1.39504
 Alpha virt. eigenvalues --    1.40493   1.41394   1.41979   1.42506   1.43365
 Alpha virt. eigenvalues --    1.44167   1.45442   1.46228   1.46603   1.47282
 Alpha virt. eigenvalues --    1.47957   1.48585   1.49131   1.50040   1.51323
 Alpha virt. eigenvalues --    1.51816   1.52605   1.53749   1.54474   1.54955
 Alpha virt. eigenvalues --    1.56327   1.57529   1.57901   1.59091   1.59344
 Alpha virt. eigenvalues --    1.59640   1.60996   1.61588   1.62090   1.62599
 Alpha virt. eigenvalues --    1.63109   1.63340   1.65673   1.66319   1.67178
 Alpha virt. eigenvalues --    1.67686   1.69232   1.69996   1.70158   1.70883
 Alpha virt. eigenvalues --    1.71422   1.72371   1.73316   1.74144   1.75362
 Alpha virt. eigenvalues --    1.77628   1.77829   1.78444   1.80078   1.81154
 Alpha virt. eigenvalues --    1.82579   1.82892   1.83550   1.84684   1.86339
 Alpha virt. eigenvalues --    1.86719   1.87191   1.88569   1.89390   1.90584
 Alpha virt. eigenvalues --    1.91781   1.92714   1.93384   1.93998   1.94476
 Alpha virt. eigenvalues --    1.94970   1.96949   1.97815   1.99388   1.99559
 Alpha virt. eigenvalues --    2.01250   2.01801   2.03898   2.04317   2.04744
 Alpha virt. eigenvalues --    2.06727   2.07744   2.10147   2.11492   2.12989
 Alpha virt. eigenvalues --    2.14538   2.15348   2.16178   2.16961   2.19058
 Alpha virt. eigenvalues --    2.20721   2.20896   2.22517   2.24576   2.26390
 Alpha virt. eigenvalues --    2.27205   2.27759   2.29270   2.30562   2.32440
 Alpha virt. eigenvalues --    2.32770   2.35509   2.37277   2.42235   2.42500
 Alpha virt. eigenvalues --    2.45183   2.45938   2.48022   2.48250   2.49754
 Alpha virt. eigenvalues --    2.51340   2.52551   2.53561   2.54320   2.55376
 Alpha virt. eigenvalues --    2.55522   2.56406   2.57868   2.59111   2.59729
 Alpha virt. eigenvalues --    2.61448   2.63388   2.64362   2.64587   2.65742
 Alpha virt. eigenvalues --    2.66911   2.67062   2.68259   2.68942   2.71877
 Alpha virt. eigenvalues --    2.72488   2.73708   2.74269   2.76466   2.77594
 Alpha virt. eigenvalues --    2.79408   2.80064   2.80761   2.81912   2.83487
 Alpha virt. eigenvalues --    2.84324   2.85140   2.87117   2.87612   2.88208
 Alpha virt. eigenvalues --    2.89545   2.90228   2.90886   2.92000   2.92763
 Alpha virt. eigenvalues --    2.93745   2.94849   2.95527   2.97514   2.97586
 Alpha virt. eigenvalues --    2.98690   2.99742   3.00323   3.01443   3.03562
 Alpha virt. eigenvalues --    3.04179   3.04551   3.05411   3.05960   3.07104
 Alpha virt. eigenvalues --    3.07765   3.08336   3.09123   3.10110   3.11456
 Alpha virt. eigenvalues --    3.12736   3.13982   3.14375   3.15654   3.16381
 Alpha virt. eigenvalues --    3.18387   3.19855   3.20893   3.21703   3.22640
 Alpha virt. eigenvalues --    3.24937   3.25777   3.26344   3.26723   3.28511
 Alpha virt. eigenvalues --    3.28868   3.30171   3.31093   3.32234   3.32972
 Alpha virt. eigenvalues --    3.34418   3.35385   3.37839   3.39167   3.39693
 Alpha virt. eigenvalues --    3.41222   3.41520   3.42892   3.43998   3.44718
 Alpha virt. eigenvalues --    3.46368   3.47476   3.48672   3.50461   3.52517
 Alpha virt. eigenvalues --    3.55043   3.55981   3.57226   3.58309   3.59363
 Alpha virt. eigenvalues --    3.62786   3.64012   3.64220   3.65448   3.67265
 Alpha virt. eigenvalues --    3.69105   3.70197   3.71083   3.71793   3.72836
 Alpha virt. eigenvalues --    3.76342   3.77104   3.77720   3.79496   3.80174
 Alpha virt. eigenvalues --    3.80812   3.82263   3.83935   3.84531   3.84772
 Alpha virt. eigenvalues --    3.86623   3.87395   3.88880   3.89736   3.91984
 Alpha virt. eigenvalues --    3.94517   3.95302   3.97297   4.02042   4.03757
 Alpha virt. eigenvalues --    4.05091   4.05939   4.07450   4.09944   4.15535
 Alpha virt. eigenvalues --    4.15805   4.16298   4.16785   4.17387   4.19624
 Alpha virt. eigenvalues --    4.21345   4.22798   4.23396   4.24719   4.25338
 Alpha virt. eigenvalues --    4.26903   4.27592   4.28045   4.29166   4.30490
 Alpha virt. eigenvalues --    4.30750   4.31891   4.32174   4.33406   4.34117
 Alpha virt. eigenvalues --    4.35982   4.36663   4.37638   4.38148   4.39179
 Alpha virt. eigenvalues --    4.39606   4.40726   4.41635   4.42050   4.43615
 Alpha virt. eigenvalues --    4.45065   4.45317   4.46344   4.47629   4.48295
 Alpha virt. eigenvalues --    4.48953   4.49215   4.49734   4.50555   4.51018
 Alpha virt. eigenvalues --    4.51485   4.53355   4.53489   4.55064   4.55429
 Alpha virt. eigenvalues --    4.56290   4.56705   4.57276   4.57546   4.58083
 Alpha virt. eigenvalues --    4.58672   4.60204   4.60543   4.61288   4.62274
 Alpha virt. eigenvalues --    4.62644   4.63208   4.63794   4.64008   4.65010
 Alpha virt. eigenvalues --    4.65822   4.66349   4.66954   4.67330   4.68428
 Alpha virt. eigenvalues --    4.68546   4.69142   4.70377   4.71325   4.72386
 Alpha virt. eigenvalues --    4.73177   4.73489   4.74088   4.74794   4.75552
 Alpha virt. eigenvalues --    4.75866   4.76459   4.78196   4.79018   4.79595
 Alpha virt. eigenvalues --    4.79600   4.80389   4.81760   4.82465   4.82606
 Alpha virt. eigenvalues --    4.83225   4.84191   4.84993   4.85230   4.85821
 Alpha virt. eigenvalues --    4.86719   4.88105   4.88890   4.88929   4.90128
 Alpha virt. eigenvalues --    4.90842   4.91484   4.93544   4.93800   4.96178
 Alpha virt. eigenvalues --    4.96690   4.97871   4.98519   4.99533   5.01445
 Alpha virt. eigenvalues --    5.02249   5.04459   5.06516   5.08515   5.09664
 Alpha virt. eigenvalues --    5.12579   5.13337   5.15553   5.16782   5.18916
 Alpha virt. eigenvalues --    5.19060   5.20565   5.20770   5.22057   5.22756
 Alpha virt. eigenvalues --    5.23391   5.23932   5.25543   5.26910   5.29215
 Alpha virt. eigenvalues --    5.29977   5.31930   5.32906   5.33549   5.33918
 Alpha virt. eigenvalues --    5.35542   5.36600   5.37499   5.38631   5.40258
 Alpha virt. eigenvalues --    5.40867   5.41618   5.42306   5.42980   5.43403
 Alpha virt. eigenvalues --    5.43861   5.44825   5.45025   5.46597   5.47383
 Alpha virt. eigenvalues --    5.48101   5.48503   5.50267   5.50468   5.51601
 Alpha virt. eigenvalues --    5.51764   5.53953   5.54584   5.56231   5.56598
 Alpha virt. eigenvalues --    5.59723   5.60347   5.61817   5.62941   5.65154
 Alpha virt. eigenvalues --    5.66603   5.69805   5.70404   5.73332   5.75867
 Alpha virt. eigenvalues --    5.76382   5.78781   5.80216   5.81227   5.83578
 Alpha virt. eigenvalues --    5.84131   5.87972   5.88885   5.90090   5.90562
 Alpha virt. eigenvalues --    5.90874   5.91588   5.93384   5.93455   5.94810
 Alpha virt. eigenvalues --    5.96064   5.97158   5.98518   5.99244   6.00006
 Alpha virt. eigenvalues --    6.01835   6.03645   6.04368   6.05159   6.06072
 Alpha virt. eigenvalues --    6.06845   6.07836   6.09579   6.10332   6.11460
 Alpha virt. eigenvalues --    6.14494   6.16314   6.19800   6.21133   6.22039
 Alpha virt. eigenvalues --    6.23582   6.26018   6.26198   6.30091   6.41151
 Alpha virt. eigenvalues --    6.48491   6.62604   6.99418   7.03315   7.10612
 Alpha virt. eigenvalues --    7.14716   7.16037   7.25439   7.27351   7.28680
 Alpha virt. eigenvalues --    7.32025   7.35006   7.43424   7.54254   7.69744
 Alpha virt. eigenvalues --    7.87682   8.17321  12.00603  12.17034  12.25268
 Alpha virt. eigenvalues --   12.27830  12.48242  12.55469  12.83418  12.91358
 Alpha virt. eigenvalues --   12.96074  13.09957  13.29591  13.37463  13.43023
 Alpha virt. eigenvalues --   13.45455  13.47247  13.59335  13.60959  13.64025
 Alpha virt. eigenvalues --   13.64545  13.76778  13.90825  14.10336  14.34817
          Condensed to atoms (all electrons):
              1          2          3          4          5          6
     1  O    8.044516   0.381633  -0.152901  -0.010853   0.017702   0.024480
     2  C    0.381633   7.529824  -0.796686   0.051282  -0.027188  -1.582318
     3  C   -0.152901  -0.796686   7.591592   0.178315  -0.007336  -0.210731
     4  O   -0.010853   0.051282   0.178315   8.102877   0.234141  -0.101430
     5  H    0.017702  -0.027188  -0.007336   0.234141   0.425708   0.006395
     6  C    0.024480  -1.582318  -0.210731  -0.101430   0.006395   8.847850
     7  O   -0.000283   0.029702  -0.144822   0.003405  -0.000105   0.307612
     8  H    0.000004  -0.002583   0.018814  -0.000060   0.000012  -0.015013
     9  C   -0.011553   0.007131  -0.181603   0.007439  -0.001606   0.102197
    10  O   -0.011044  -0.000738   0.020364  -0.000201  -0.000018  -0.002237
    11  H    0.000801  -0.007590  -0.002175   0.000002   0.000000  -0.000203
    12  C   -0.089931  -0.666741  -0.062373  -0.001252   0.009486   0.268100
    13  O    0.001473  -0.082011  -0.060633  -0.002126   0.000039   0.002851
    14  C   -0.004810   0.816834  -0.101964   0.032881   0.001867  -1.907453
    15  O   -0.000312  -0.015324   0.038363  -0.000008  -0.000025  -0.038926
    16  C    0.000892   0.010739  -0.148181  -0.003639   0.000453  -0.001436
    17  C    0.000105  -0.016378   0.037364   0.000268   0.000028   0.039209
    18  O    0.000011   0.005470  -0.002329  -0.000010   0.000000   0.010147
    19  H   -0.000004  -0.002844   0.004364   0.000002   0.000000   0.000772
    20  C    0.000021   0.001576  -0.006490  -0.000070   0.000000   0.057685
    21  O    0.000000  -0.000032   0.000021   0.000000   0.000000  -0.000285
    22  H    0.000000   0.000001   0.000001   0.000000   0.000000  -0.000011
    23  C    0.000016   0.009944  -0.017184  -0.000106   0.000004  -0.027027
    24  O    0.000001  -0.000890   0.000043  -0.000156  -0.000003   0.000233
    25  H    0.000000   0.000103   0.001171   0.000004   0.000000   0.000766
    26  C    0.000002  -0.000996  -0.011618   0.000883  -0.000003  -0.037697
    27  O    0.000000  -0.000215   0.000707   0.000000   0.000000   0.003472
    28  C    0.000001  -0.001609   0.001220   0.000006   0.000000  -0.011956
    29  O    0.000000   0.000010   0.000020   0.000000   0.000000  -0.000264
    30  H    0.273036   0.002745  -0.016140   0.000413  -0.002267   0.002207
    31  H   -0.003514   0.071291   0.288292  -0.023996  -0.001453  -0.228795
    32  H   -0.021259   0.428141  -0.126216   0.003146  -0.000764  -0.003739
    33  H   -0.000178   0.027556  -0.119377   0.004307  -0.000174   0.343130
    34  H    0.001641   0.117065  -0.085618   0.000360  -0.000006  -0.016262
    35  H   -0.000233  -0.020735   0.005467  -0.000004   0.000000  -0.000611
    36  H    0.001237   0.029439  -0.009593   0.000046  -0.000001   0.006152
    37  H    0.000048  -0.009273  -0.029984  -0.000020   0.000004   0.061127
    38  H    0.000000  -0.000018   0.000013   0.000000   0.000000   0.002273
    39  H    0.000000  -0.000088   0.000943   0.000000   0.000000   0.002292
    40  H   -0.000001  -0.000826   0.003212   0.000003   0.000000   0.014882
    41  H    0.000000   0.000625  -0.000092   0.000000   0.000000   0.006202
    42  H    0.000000   0.000091   0.000052   0.000000   0.000000  -0.000049
    43  H    0.000000  -0.000002   0.000020   0.000000   0.000000  -0.000199
    44  H    0.000000   0.000155  -0.000320   0.000000   0.000000  -0.005504
    45  H    0.000000   0.000000   0.000000   0.000000   0.000000   0.000003
              7          8          9         10         11         12
     1  O   -0.000283   0.000004  -0.011553  -0.011044   0.000801  -0.089931
     2  C    0.029702  -0.002583   0.007131  -0.000738  -0.007590  -0.666741
     3  C   -0.144822   0.018814  -0.181603   0.020364  -0.002175  -0.062373
     4  O    0.003405  -0.000060   0.007439  -0.000201   0.000002  -0.001252
     5  H   -0.000105   0.000012  -0.001606  -0.000018   0.000000   0.009486
     6  C    0.307612  -0.015013   0.102197  -0.002237  -0.000203   0.268100
     7  O    8.161157   0.258107   0.000432  -0.000001   0.000000   0.009815
     8  H    0.258107   0.327941  -0.000063   0.000000   0.000000  -0.002254
     9  C    0.000432  -0.000063   6.350300   0.118170  -0.023656  -0.793026
    10  O   -0.000001   0.000000   0.118170   8.130423   0.236935   0.025604
    11  H    0.000000   0.000000  -0.023656   0.236935   0.430055   0.030527
    12  C    0.009815  -0.002254  -0.793026   0.025604   0.030527   8.296107
    13  O    0.003686   0.000250  -0.021813   0.000543  -0.000701   0.092258
    14  C   -0.052293  -0.037928  -0.284353   0.004870  -0.001697  -0.962818
    15  O    0.000985   0.008000  -0.013331   0.000063   0.000000   0.006288
    16  C    0.001960   0.019458  -0.052583  -0.000559  -0.000009   0.114409
    17  C   -0.001250   0.002526  -0.018061  -0.000049   0.000015  -0.092651
    18  O   -0.000057  -0.000002   0.002995  -0.000089   0.000003  -0.012123
    19  H   -0.000053  -0.000002   0.004706  -0.000006  -0.000001  -0.009624
    20  C    0.001100   0.000735   0.004213   0.000047   0.000003  -0.011501
    21  O   -0.000002   0.000000   0.000136   0.000000   0.000000  -0.000069
    22  H    0.000000   0.000000  -0.000001   0.000000   0.000000   0.000005
    23  C    0.010083   0.014978  -0.002209  -0.000004   0.000000  -0.010658
    24  O   -0.034759  -0.024400   0.000169   0.000000   0.000000   0.001252
    25  H    0.002694  -0.002178  -0.000012   0.000000   0.000000  -0.000225
    26  C   -0.008235  -0.025342   0.010879   0.000010   0.000004   0.031939
    27  O   -0.000051  -0.000025   0.000007   0.000000   0.000000  -0.000029
    28  C   -0.000129  -0.000335   0.000125  -0.000001   0.000000   0.003746
    29  O   -0.000001   0.000000  -0.000011   0.000000   0.000000   0.000037
    30  H   -0.000021   0.000000   0.001305  -0.000371  -0.000023   0.000097
    31  H    0.008470  -0.000108   0.004316  -0.000049   0.000000   0.010707
    32  H    0.000920   0.000002  -0.024954  -0.001402  -0.000024  -0.112368
    33  H   -0.026648  -0.003816   0.012191   0.000015   0.000000   0.052762
    34  H    0.000105   0.000001   0.079348   0.000596  -0.000192   0.054078
    35  H   -0.000012   0.000000   0.407471  -0.022023  -0.010021  -0.025311
    36  H    0.000007   0.000000   0.567336  -0.048636  -0.000693  -0.245027
    37  H    0.000756   0.000033   0.012934   0.000023   0.000000   0.050392
    38  H   -0.000563   0.000256   0.000000   0.000000   0.000000   0.000001
    39  H   -0.000129  -0.000017   0.000012   0.000000   0.000000  -0.000182
    40  H   -0.000966  -0.000041  -0.000053   0.000000   0.000000  -0.002079
    41  H   -0.000015  -0.000001  -0.000282   0.000000   0.000000  -0.000248
    42  H    0.000001   0.000000  -0.000052   0.000000   0.000000   0.000321
    43  H    0.000000   0.000000   0.000002   0.000000   0.000000   0.000023
    44  H    0.000972   0.000030  -0.000019   0.000000   0.000000  -0.000188
    45  H    0.000000   0.000000   0.000000   0.000000   0.000000   0.000000
             13         14         15         16         17         18
     1  O    0.001473  -0.004810  -0.000312   0.000892   0.000105   0.000011
     2  C   -0.082011   0.816834  -0.015324   0.010739  -0.016378   0.005470
     3  C   -0.060633  -0.101964   0.038363  -0.148181   0.037364  -0.002329
     4  O   -0.002126   0.032881  -0.000008  -0.003639   0.000268  -0.000010
     5  H    0.000039   0.001867  -0.000025   0.000453   0.000028   0.000000
     6  C    0.002851  -1.907453  -0.038926  -0.001436   0.039209   0.010147
     7  O    0.003686  -0.052293   0.000985   0.001960  -0.001250  -0.000057
     8  H    0.000250  -0.037928   0.008000   0.019458   0.002526  -0.000002
     9  C   -0.021813  -0.284353  -0.013331  -0.052583  -0.018061   0.002995
    10  O    0.000543   0.004870   0.000063  -0.000559  -0.000049  -0.000089
    11  H   -0.000701  -0.001697   0.000000  -0.000009   0.000015   0.000003
    12  C    0.092258  -0.962818   0.006288   0.114409  -0.092651  -0.012123
    13  O    7.939198   0.181960  -0.026054   0.051503  -0.008240  -0.014864
    14  C    0.181960   8.659651   0.296790  -0.637586  -0.057183  -0.012624
    15  O   -0.026054   0.296790   7.815481   0.036561   0.040612  -0.009584
    16  C    0.051503  -0.637586   0.036561  11.128543  -2.468738   0.044089
    17  C   -0.008240  -0.057183   0.040612  -2.468738   8.332876   0.211411
    18  O   -0.014864  -0.012624  -0.009584   0.044089   0.211411   8.103654
    19  H    0.018240   0.000285   0.019108  -0.103537   0.058163   0.235815
    20  C   -0.018798  -0.110387   0.015255  -1.188967   0.362170  -0.105168
    21  O   -0.000263   0.003844   0.000010   0.055801  -0.103690  -0.000258
    22  H   -0.000001  -0.000413   0.000003  -0.009781   0.013365   0.000235
    23  C    0.005688  -0.069019  -0.023551   0.620540  -0.446291   0.018599
    24  O   -0.001424   0.070742  -0.024043  -0.034259  -0.001697  -0.000007
    25  H   -0.000013  -0.008295   0.002663  -0.009371  -0.000249   0.000000
    26  C   -0.013398  -0.142608  -0.090424  -2.204614   0.187373  -0.021275
    27  O    0.000292   0.016370   0.002865   0.052613   0.001319  -0.000847
    28  C    0.001171   0.026258   0.003915   0.627394  -0.097502   0.009182
    29  O    0.000028  -0.001424  -0.000073  -0.023945  -0.017887   0.000665
    30  H   -0.000557  -0.001554  -0.000001   0.000040  -0.000020   0.000000
    31  H    0.005095   0.102705   0.000453   0.001831   0.000000   0.000006
    32  H    0.005448   0.098789  -0.000194  -0.000850   0.000946   0.000013
    33  H    0.011435  -0.044426  -0.010694  -0.003469  -0.003623   0.000091
    34  H   -0.026041   0.125469  -0.002506  -0.007615   0.004507  -0.000177
    35  H   -0.001638  -0.005305  -0.000286   0.001586   0.000119  -0.000155
    36  H   -0.005213   0.005471  -0.000685  -0.003768   0.001896  -0.000143
    37  H   -0.031981   0.206167  -0.027248  -0.001468   0.013827  -0.000644
    38  H    0.000013   0.001799  -0.000297   0.018400   0.004586   0.000017
    39  H   -0.000295   0.011765   0.000948   0.010278  -0.028396   0.001057
    40  H   -0.005689  -0.049655  -0.006163   0.096544   0.036121   0.000718
    41  H    0.000095  -0.022392  -0.004380  -0.061626   0.225542  -0.015587
    42  H    0.000077  -0.005457   0.001014   0.092882  -0.201921   0.011371
    43  H    0.000010   0.001829   0.000778   0.028484  -0.028014   0.001014
    44  H    0.000104  -0.006665   0.003398   0.059594  -0.002169   0.000050
    45  H    0.000000  -0.000027  -0.000003   0.002865   0.006191  -0.000027
             19         20         21         22         23         24
     1  O   -0.000004   0.000021   0.000000   0.000000   0.000016   0.000001
     2  C   -0.002844   0.001576  -0.000032   0.000001   0.009944  -0.000890
     3  C    0.004364  -0.006490   0.000021   0.000001  -0.017184   0.000043
     4  O    0.000002  -0.000070   0.000000   0.000000  -0.000106  -0.000156
     5  H    0.000000   0.000000   0.000000   0.000000   0.000004  -0.000003
     6  C    0.000772   0.057685  -0.000285  -0.000011  -0.027027   0.000233
     7  O   -0.000053   0.001100  -0.000002   0.000000   0.010083  -0.034759
     8  H   -0.000002   0.000735   0.000000   0.000000   0.014978  -0.024400
     9  C    0.004706   0.004213   0.000136  -0.000001  -0.002209   0.000169
    10  O   -0.000006   0.000047   0.000000   0.000000  -0.000004   0.000000
    11  H   -0.000001   0.000003   0.000000   0.000000   0.000000   0.000000
    12  C   -0.009624  -0.011501  -0.000069   0.000005  -0.010658   0.001252
    13  O    0.018240  -0.018798  -0.000263  -0.000001   0.005688  -0.001424
    14  C    0.000285  -0.110387   0.003844  -0.000413  -0.069019   0.070742
    15  O    0.019108   0.015255   0.000010   0.000003  -0.023551  -0.024043
    16  C   -0.103537  -1.188967   0.055801  -0.009781   0.620540  -0.034259
    17  C    0.058163   0.362170  -0.103690   0.013365  -0.446291  -0.001697
    18  O    0.235815  -0.105168  -0.000258   0.000235   0.018599  -0.000007
    19  H    0.375124   0.006309  -0.000171   0.000017  -0.004435   0.000028
    20  C    0.006309   6.862005   0.158147  -0.015199   0.002153  -0.004087
    21  O   -0.000171   0.158147   8.091611   0.243256   0.001542   0.000010
    22  H    0.000017  -0.015199   0.243256   0.422029   0.000213   0.000000
    23  C   -0.004435   0.002153   0.001542   0.000213   6.673587   0.020264
    24  O    0.000028  -0.004087   0.000010   0.000000   0.020264   8.250473
    25  H    0.000000   0.000765   0.000000   0.000000  -0.023660   0.252765
    26  C    0.015350   0.512353  -0.024011   0.007899  -1.233543   0.078212
    27  O    0.000105  -0.089887   0.002959  -0.000208  -0.081966   0.002717
    28  C    0.001251  -0.673276   0.040957  -0.012795  -0.093353   0.005740
    29  O    0.000006  -0.039095   0.005236   0.012607   0.005795   0.000005
    30  H    0.000000   0.000000   0.000000   0.000000   0.000001   0.000000
    31  H    0.000000  -0.000052   0.000000   0.000000   0.000306   0.000054
    32  H   -0.000001   0.000006   0.000000   0.000000   0.000094   0.000013
    33  H   -0.000028   0.000427   0.000001   0.000000   0.001701   0.000132
    34  H    0.000099   0.000217   0.000000   0.000000   0.000081   0.000000
    35  H    0.000485  -0.000677   0.000000   0.000000  -0.000029   0.000000
    36  H    0.000095   0.000154   0.000000   0.000000  -0.000009   0.000000
    37  H    0.000128   0.008027   0.000001   0.000000   0.000471  -0.000092
    38  H    0.000000  -0.001755  -0.000004   0.000000   0.397207  -0.022568
    39  H    0.000023  -0.024319   0.000142   0.000004   0.081986   0.000993
    40  H    0.000172   0.055124  -0.000256   0.000004  -0.033840   0.000535
    41  H   -0.001875   0.027053   0.000415  -0.000204   0.024323  -0.000154
    42  H   -0.000135   0.321439  -0.018275  -0.003828   0.010995   0.000005
    43  H    0.000003  -0.107042   0.003484  -0.000129   0.003059   0.000035
    44  H   -0.000001   0.000156   0.000001   0.000000   0.598517  -0.057351
    45  H    0.000000  -0.041528   0.000025  -0.001536  -0.000849   0.000000
             25         26         27         28         29         30
     1  O    0.000000   0.000002   0.000000   0.000001   0.000000   0.273036
     2  C    0.000103  -0.000996  -0.000215  -0.001609   0.000010   0.002745
     3  C    0.001171  -0.011618   0.000707   0.001220   0.000020  -0.016140
     4  O    0.000004   0.000883   0.000000   0.000006   0.000000   0.000413
     5  H    0.000000  -0.000003   0.000000   0.000000   0.000000  -0.002267
     6  C    0.000766  -0.037697   0.003472  -0.011956  -0.000264   0.002207
     7  O    0.002694  -0.008235  -0.000051  -0.000129  -0.000001  -0.000021
     8  H   -0.002178  -0.025342  -0.000025  -0.000335   0.000000   0.000000
     9  C   -0.000012   0.010879   0.000007   0.000125  -0.000011   0.001305
    10  O    0.000000   0.000010   0.000000  -0.000001   0.000000  -0.000371
    11  H    0.000000   0.000004   0.000000   0.000000   0.000000  -0.000023
    12  C   -0.000225   0.031939  -0.000029   0.003746   0.000037   0.000097
    13  O   -0.000013  -0.013398   0.000292   0.001171   0.000028  -0.000557
    14  C   -0.008295  -0.142608   0.016370   0.026258  -0.001424  -0.001554
    15  O    0.002663  -0.090424   0.002865   0.003915  -0.000073  -0.000001
    16  C   -0.009371  -2.204614   0.052613   0.627394  -0.023945   0.000040
    17  C   -0.000249   0.187373   0.001319  -0.097502  -0.017887  -0.000020
    18  O    0.000000  -0.021275  -0.000847   0.009182   0.000665   0.000000
    19  H    0.000000   0.015350   0.000105   0.001251   0.000006   0.000000
    20  C    0.000765   0.512353  -0.089887  -0.673276  -0.039095   0.000000
    21  O    0.000000  -0.024011   0.002959   0.040957   0.005236   0.000000
    22  H    0.000000   0.007899  -0.000208  -0.012795   0.012607   0.000000
    23  C   -0.023660  -1.233543  -0.081966  -0.093353   0.005795   0.000001
    24  O    0.252765   0.078212   0.002717   0.005740   0.000005   0.000000
    25  H    0.407052   0.027515  -0.000605  -0.001306  -0.000001   0.000000
    26  C    0.027515   9.471238   0.119179  -0.706068  -0.000366  -0.000004
    27  O   -0.000605   0.119179   7.864752   0.235666  -0.014882   0.000000
    28  C   -0.001306  -0.706068   0.235666   5.934651   0.271496   0.000000
    29  O   -0.000001  -0.000366  -0.014882   0.271496   8.037663   0.000000
    30  H    0.000000  -0.000004   0.000000   0.000000   0.000000   0.402197
    31  H    0.000000   0.000567   0.000000  -0.000003   0.000000  -0.000008
    32  H    0.000000  -0.000019   0.000000  -0.000005   0.000000  -0.013317
    33  H   -0.000007   0.004817  -0.000002   0.000040   0.000000   0.000019
    34  H    0.000000  -0.000533   0.000000  -0.000037   0.000000  -0.000178
    35  H    0.000000   0.000101   0.000000   0.000053   0.000000   0.000005
    36  H    0.000000  -0.000035   0.000000  -0.000012   0.000000  -0.000162
    37  H    0.000013   0.015638   0.000158  -0.000941  -0.000003   0.000001
    38  H   -0.010039  -0.064197  -0.002190   0.003225  -0.000057   0.000000
    39  H   -0.000149   0.153469  -0.021959   0.054903  -0.000384   0.000000
    40  H   -0.000003   0.143034   0.003771  -0.001303  -0.000558   0.000000
    41  H    0.000000   0.090244   0.002278  -0.039514   0.000366   0.000000
    42  H    0.000000   0.008560  -0.000757   0.034250   0.001817   0.000000
    43  H    0.000000   0.002096  -0.040234   0.418703  -0.020026   0.000000
    44  H   -0.001609  -0.294906   0.003194   0.004835  -0.000097   0.000000
    45  H    0.000000   0.001003   0.003545   0.015983   0.269471   0.000000
             31         32         33         34         35         36
     1  O   -0.003514  -0.021259  -0.000178   0.001641  -0.000233   0.001237
     2  C    0.071291   0.428141   0.027556   0.117065  -0.020735   0.029439
     3  C    0.288292  -0.126216  -0.119377  -0.085618   0.005467  -0.009593
     4  O   -0.023996   0.003146   0.004307   0.000360  -0.000004   0.000046
     5  H   -0.001453  -0.000764  -0.000174  -0.000006   0.000000  -0.000001
     6  C   -0.228795  -0.003739   0.343130  -0.016262  -0.000611   0.006152
     7  O    0.008470   0.000920  -0.026648   0.000105  -0.000012   0.000007
     8  H   -0.000108   0.000002  -0.003816   0.000001   0.000000   0.000000
     9  C    0.004316  -0.024954   0.012191   0.079348   0.407471   0.567336
    10  O   -0.000049  -0.001402   0.000015   0.000596  -0.022023  -0.048636
    11  H    0.000000  -0.000024   0.000000  -0.000192  -0.010021  -0.000693
    12  C    0.010707  -0.112368   0.052762   0.054078  -0.025311  -0.245027
    13  O    0.005095   0.005448   0.011435  -0.026041  -0.001638  -0.005213
    14  C    0.102705   0.098789  -0.044426   0.125469  -0.005305   0.005471
    15  O    0.000453  -0.000194  -0.010694  -0.002506  -0.000286  -0.000685
    16  C    0.001831  -0.000850  -0.003469  -0.007615   0.001586  -0.003768
    17  C    0.000000   0.000946  -0.003623   0.004507   0.000119   0.001896
    18  O    0.000006   0.000013   0.000091  -0.000177  -0.000155  -0.000143
    19  H    0.000000  -0.000001  -0.000028   0.000099   0.000485   0.000095
    20  C   -0.000052   0.000006   0.000427   0.000217  -0.000677   0.000154
    21  O    0.000000   0.000000   0.000001   0.000000   0.000000   0.000000
    22  H    0.000000   0.000000   0.000000   0.000000   0.000000   0.000000
    23  C    0.000306   0.000094   0.001701   0.000081  -0.000029  -0.000009
    24  O    0.000054   0.000013   0.000132   0.000000   0.000000   0.000000
    25  H    0.000000   0.000000  -0.000007   0.000000   0.000000   0.000000
    26  C    0.000567  -0.000019   0.004817  -0.000533   0.000101  -0.000035
    27  O    0.000000   0.000000  -0.000002   0.000000   0.000000   0.000000
    28  C   -0.000003  -0.000005   0.000040  -0.000037   0.000053  -0.000012
    29  O    0.000000   0.000000   0.000000   0.000000   0.000000   0.000000
    30  H   -0.000008  -0.013317   0.000019  -0.000178   0.000005  -0.000162
    31  H    0.618595   0.006626   0.006933   0.001743   0.000006  -0.000003
    32  H    0.006626   0.627213   0.002040   0.007253   0.000078   0.004883
    33  H    0.006933   0.002040   0.601998  -0.000087   0.000001  -0.000032
    34  H    0.001743   0.007253  -0.000087   0.626930  -0.004697   0.006491
    35  H    0.000006   0.000078   0.000001  -0.004697   0.575362  -0.047435
    36  H   -0.000003   0.004883  -0.000032   0.006491  -0.047435   0.595858
    37  H    0.001423  -0.000021   0.004852   0.001709  -0.000026  -0.000010
    38  H    0.000000   0.000000   0.000000   0.000000   0.000000   0.000000
    39  H    0.000000   0.000000  -0.000006   0.000000   0.000000   0.000000
    40  H   -0.000001   0.000000   0.000001  -0.000006  -0.000001   0.000000
    41  H    0.000000   0.000000  -0.000005   0.000000   0.000000   0.000000
    42  H    0.000000   0.000000   0.000000   0.000000   0.000000   0.000000
    43  H    0.000000   0.000000   0.000000   0.000000   0.000000   0.000000
    44  H    0.000000   0.000000  -0.000001   0.000000   0.000000   0.000000
    45  H    0.000000   0.000000   0.000000   0.000000   0.000000   0.000000
             37         38         39         40         41         42
     1  O    0.000048   0.000000   0.000000  -0.000001   0.000000   0.000000
[...]
 0098692,-0.00059592,-0.01263696,-0.00733863,-0.00052212,0.00183313,0.0
 0060684,-0.00108533,0.00015807,0.00007842,-0.00006174,-0.32076757,-0.0
 9537379,-0.02698397,-0.02054962,0.00905313,-0.00965404,-0.00015655,0.0
 0023580,0.00048033,0.00001151,-0.00002042,0.00000752,0.00002932,0.0000
 3313,-0.00001187,-0.00001010,-0.00000726,-0.00000251,0.00003809,0.0000
 9763,-0.00020430,0.00136416,-0.00126822,0.00040185,-0.00250718,-0.0004
 1074,0.00117253,0.00122024,0.00019256,-0.00039831,-0.00000386,0.000001
 28,0.00000427,0.00000484,0.00000014,-0.00000086,0.00000491,0.00000092,
 -0.00000403,0.00000136,0.00000588,-0.00000807,0.00000630,-0.00000344,0
 .00000278,-0.00000713,0.00000819,-0.00000171,0.00000856,0.00000299,-0.
 00000832,0.00002467,-0.00001531,0.00001890,0.00000027,0.00000765,0.000
 01604,0.00002589,0.00019132,0.00003513,0.00091980,-0.00039963,0.000060
 14,-0.00002035,-0.00053667,0.00188437,0.35040807,0.00000178,-0.0000023
 1,0.00000605,0.00000018,0.00000116,-0.00000457,-0.00000654,0.00000302,
 0.00000067,0.00000436,-0.00000384,0.00000161,-0.00000132,0.00000152,-0
 .00000076,0.00001038,-0.00000454,0.00000439,0.00001527,0.00000374,0.00
 000513,-0.00001506,-0.00000857,-0.00001885,-0.00000071,0.00000647,-0.0
 0001678,-0.00000003,0.00000167,0.00001316,0.00000290,-0.00000126,-0.00
 000497,-0.00000460,-0.00000175,-0.00000176,0.00003030,-0.00002607,0.00
 000905,-0.00007495,0.00003374,0.00001915,0.00029539,-0.00000191,-0.000
 02148,-0.00126046,0.00020277,-0.00009572,-0.00821722,-0.00299518,-0.00
 087527,0.00118915,0.00071602,-0.00028656,0.00007428,-0.00001469,-0.000
 04131,-0.09691877,-0.07074074,-0.01147524,0.03659267,-0.00290230,0.010
 03098,0.00050346,0.00125122,-0.00054624,-0.00005145,0.00003245,-0.0000
 3276,0.00003242,-0.00001764,-0.00000024,-0.00000985,0.00000201,0.00000
 231,-0.00016899,-0.00020814,0.00000345,0.00134140,0.00223640,0.0004519
 3,-0.02865375,-0.00966579,-0.00353233,0.00168043,0.00193256,0.00196094
 ,0.00000025,0.00000050,-0.00000148,0.00000234,-0.00000012,0.00000104,0
 .00000160,-0.00000010,-0.00000073,0.00000294,0.00000380,-0.00000773,0.
 00000212,0.00000268,0.00000179,0.00000011,-0.00000534,0.00000146,0.000
 00100,-0.00000245,0.00000125,0.00002337,-0.00000441,0.00001573,0.00000
 734,-0.00001205,0.00000126,0.00019323,0.00017236,-0.00002050,0.0002470
 0,-0.00017944,0.00049515,-0.00027371,-0.00012952,0.00162465,0.09314532
 ,0.08397472,-0.00000192,-0.00000959,-0.00000025,0.00000305,0.00000972,
 -0.00000229,0.00000651,0.00001300,0.00000674,-0.00000181,-0.00000920,-
 0.00000708,0.00000055,0.00000326,-0.00000118,-0.00000792,-0.00000702,-
 0.00001159,-0.00001032,-0.00001269,-0.00001320,0.00001087,-0.00000206,
 0.00001673,0.00000573,0.00001558,-0.00002571,-0.00000507,-0.00000650,0
 .00001461,0.00000407,-0.00000062,-0.00000756,0.00001310,-0.00000383,-0
 .00000194,0.00000520,-0.00011505,0.00001882,0.00004630,0.00017654,0.00
 011666,-0.00055621,-0.00019042,-0.00028927,0.00169062,-0.00093493,0.00
 139839,0.03051258,0.01245865,-0.00027857,-0.00168000,0.00032694,0.0028
 8147,-0.00015932,0.00020906,0.00024318,-0.02652533,-0.01214334,-0.0453
 3091,-0.01735306,0.00513374,-0.00191524,-0.00090430,-0.00036813,0.0003
 1659,0.00005260,0.00001036,0.00008043,-0.00000819,0.00000606,-0.000008
 65,-0.00000633,-0.00000423,-0.00000025,0.00038148,0.00020233,-0.000451
 82,0.00135208,0.00080279,0.00082540,-0.02266588,-0.01069011,-0.0037310
 3,0.00047712,0.00139811,0.00261242,0.00000059,0.00000221,-0.00000051,-
 0.00000198,0.,-0.00000167,-0.00000242,-0.00000035,0.00000233,-0.000000
 97,-0.00000613,0.00001289,-0.00000678,0.00000231,-0.00000779,0.0000005
 3,-0.00001143,0.00000291,-0.00000365,-0.00000153,0.00000449,-0.0000342
 4,-0.00000002,-0.00004628,-0.00001488,0.00003497,0.00000558,-0.0001583
 3,-0.00006781,-0.00015716,-0.00055789,0.00024138,-0.00009579,0.0019399
 2,0.00127525,-0.00518319,0.03478050,0.00505333,0.05109888,0.00000299,-
 0.00000871,-0.00002373,-0.00000785,0.00000981,0.00001436,-0.00000255,-
 0.00000663,0.00002405,0.00001280,0.00000736,-0.00002671,-0.00000373,0.
 00000008,0.00000183,-0.00002808,0.00001341,0.00000709,0.00001392,-0.00
 002602,-0.00007422,0.00000299,0.00001795,0.00009343,-0.00001419,0.0000
 1325,0.00000100,0.00000901,-0.00001369,-0.00000763,-0.00000436,0.00000
 148,0.00000009,0.00000459,0.00000181,0.00002906,0.00003045,-0.00007915
 ,-0.00006746,0.00004104,0.00008609,0.00013347,0.00004513,-0.00012999,-
 0.00040282,0.00022602,0.00064347,0.00011722,-0.00048344,-0.00054257,0.
 00036962,0.00037317,0.00022128,0.00016256,-0.00001763,0.00001104,-0.00
 009161,-0.00477003,0.00022471,-0.00157200,0.00218824,-0.00046094,0.001
 38007,-0.00027552,-0.00012252,-0.00004068,0.00062033,-0.00016498,-0.00
 001882,0.00002320,0.00027235,-0.00020060,-0.00001134,-0.00002206,-0.00
 003438,-0.00064084,-0.00097458,0.00217299,-0.01637456,0.01087920,-0.01
 066904,-0.31900759,-0.07440434,-0.05879999,-0.01511676,-0.00779246,0.0
 0782903,-0.00000370,0.00000197,0.00000322,0.00000329,0.00000048,0.0000
 0001,0.00000411,-0.00000035,-0.00000263,0.00000484,-0.00000220,-0.0000
 0082,0.00000210,-0.00000064,-0.00000175,-0.00000369,-0.00000119,0.0000
 0026,0.00000547,0.00000060,-0.00000385,0.00000481,-0.00000725,-0.00000
 430,-0.00003627,-0.00000624,0.00000496,0.00087522,0.00040981,-0.001249
 47,0.00009807,-0.00005145,0.00028259,0.00080605,0.00029912,-0.00018995
 ,0.00061330,0.00010553,-0.00049534,0.34996811,0.00000137,0.00001249,0.
 00000691,-0.00000048,-0.00001343,-0.00000094,-0.00000463,-0.00000019,-
 0.00000933,-0.00000073,0.00000793,0.00000789,0.00000027,-0.00000213,-0
 .00000011,0.00001301,-0.00004297,-0.00001079,0.00000229,0.00005791,0.0
 0007871,-0.00001888,-0.00004011,-0.00011766,-0.00000072,-0.00001411,0.
 00001587,0.00000415,0.00000875,-0.00000816,-0.00000444,-0.00000032,0.0
 0000515,-0.00001012,0.00000673,0.00000174,-0.00001517,0.00010385,0.000
 01701,-0.00006657,-0.00007862,-0.00008824,-0.00000506,0.00026926,0.000
 23629,-0.00019982,-0.00046812,0.00026791,-0.00122270,-0.00025948,0.001
 31304,0.00066729,0.00006725,-0.00038827,0.00016858,-0.00003154,0.00000
 743,-0.02707551,-0.00658371,-0.00927961,0.00081332,0.00354233,0.001171
 99,-0.00037808,-0.00034122,0.00009096,0.00035627,0.00013973,-0.0001381
 1,-0.00019155,-0.00018021,0.00019512,0.00000008,0.00004171,0.00000749,
 0.00400897,0.00166838,-0.00366145,0.03530121,-0.00593308,0.01721377,-0
 .07559026,-0.06141335,-0.01851219,-0.00666793,0.00129607,0.00411151,0.
 00000010,-0.00000253,-0.00000040,0.00000139,-0.00000012,0.00000084,0.0
 0000066,0.00000072,-0.00000068,-0.00000157,0.00000329,-0.00000280,0.00
 000322,-0.00000220,0.00000237,0.00000065,0.00000825,-0.00000201,0.0000
 0151,0.00000176,-0.00000121,0.00000347,-0.00000121,0.00000024,0.000025
 40,-0.00002248,-0.00001592,-0.00121549,0.00012951,-0.00021601,0.000000
 30,-0.00019810,0.00008052,0.00065427,0.00038682,-0.00035931,0.00041567
 ,-0.00362558,-0.00296161,0.07149364,0.07079769,-0.00000004,-0.00000441
 ,-0.00002989,-0.00000581,0.00000424,0.00001941,0.00000207,-0.00000542,
 0.00002408,0.00000751,0.00001284,-0.00002789,-0.00000145,-0.00000147,0
 .00000209,-0.00001827,-0.00001372,-0.00000350,0.00000490,0.00000298,-0
 .00004103,0.00000012,0.00000111,0.00004945,-0.00000688,0.00001306,0.00
 001584,0.00000163,-0.00001876,-0.00002032,-0.00000217,0.00000369,0.000
 00291,0.00001120,0.00001420,0.00004201,0.00000871,-0.00004145,-0.00007
 855,0.00005565,0.00006077,0.00011354,0.00000484,0.00001880,-0.00031812
 ,0.00023801,-0.00024009,-0.00013183,-0.00170086,-0.00016277,0.00084321
 ,0.00062902,0.00005672,-0.00005461,0.00001721,0.00005006,0.00004728,-0
 .02281664,-0.00758311,-0.00323740,0.00172098,0.00144332,0.00141407,0.0
 0022525,-0.00025281,-0.00006747,-0.00001473,0.00003511,0.00001628,0.00
 008107,0.00014860,-0.00014242,-0.00000856,-0.00002234,-0.00001048,-0.0
 0326054,-0.00036405,0.00290054,-0.01547000,0.00751958,-0.00530428,-0.0
 6422490,-0.02104111,-0.05779404,0.03969107,0.01261787,-0.01050166,-0.0
 0000294,0.00000145,0.00000459,0.00000105,0.00000019,-0.00000100,0.0000
 0199,-0.00000010,-0.00000212,0.00000100,-0.00000049,-0.00000169,-0.000
 00149,-0.00000144,-0.00000296,-0.00000109,0.00000433,-0.00000128,0.000
 00222,0.00000003,-0.00000257,0.00000406,-0.00000790,0.00000253,0.00000
 127,-0.00001096,-0.00000954,0.00081043,0.00023772,-0.00010083,0.000213
 59,0.00007027,0.00012079,0.00053649,-0.00004426,-0.00044940,0.00035398
 ,-0.00314594,-0.00247724,0.06043023,0.01092501,0.07186088,0.00000636,0
 .00002522,0.00001598,0.00000228,-0.00003059,0.00000918,-0.00004215,0.0
 0004207,0.00000966,0.00002136,0.00002383,-0.00000742,-0.00000409,0.000
 00204,-0.00000166,0.00008164,-0.00026414,0.00005636,0.00027396,0.00054
 008,0.00054781,-0.00045275,-0.00064762,-0.00091954,-0.00000805,-0.0000
 0276,-0.00000756,0.00001136,0.00000667,0.00000221,-0.00000499,-0.00000
 164,0.00000047,-0.00001567,-0.00000188,0.00003473,0.00011171,0.0000161
 9,-0.00004700,-0.00043196,0.00011525,0.00012902,0.00046224,-0.00009671
 ,0.00023342,0.00047267,-0.00111461,-0.00029391,0.00019392,0.00000239,-
 0.00002519,0.00010462,0.00015781,0.00002942,-0.00003898,0.00000209,-0.
 00002352,-0.00003247,-0.00002938,0.00005365,0.00004506,-0.00004868,0.0
 0000232,-0.00000936,0.00000061,-0.00000670,-0.34739862,-0.03336490,-0.
 02535435,-0.00598139,-0.00848004,0.01188712,-0.00034760,0.00010187,0.0
 0064951,-0.02007427,-0.00025336,-0.00293948,0.00176266,-0.00067983,0.0
 0017218,0.00041026,0.00008680,-0.00013528,0.00003220,0.00012248,-0.000
 09616,-0.00000057,-0.00000281,-0.00000131,0.00001455,0.00000089,0.0000
 0714,0.00000535,-0.00000059,-0.00000334,0.00000370,0.00000443,-0.00004
 007,0.00000669,0.00000412,0.00000136,-0.00000269,0.00000413,-0.0000008
 8,0.00000610,-0.00000082,-0.00000183,0.00013994,0.00005237,0.00004311,
 -0.00608488,-0.00007166,-0.00125616,0.00016728,0.00299525,-0.00059037,
 0.00046836,0.00088860,0.00044241,0.00025999,-0.00017053,0.00010941,0.0
 0002789,0.00004364,-0.00001705,0.00016603,-0.00022914,0.00018072,0.375
 67272,0.00000315,0.00002792,0.00004380,0.00000764,-0.00003449,-0.00001
 190,-0.00002249,0.00004659,-0.00003231,0.00000091,0.00000045,0.0000350
 3,-0.00000038,0.00000352,-0.00000473,0.00006086,-0.00018776,-0.0000684
 2,0.00015058,0.00023593,0.00049026,-0.00031244,-0.00026151,-0.00101018
 ,0.00000335,-0.00002080,-0.00000662,0.00000191,0.00002209,0.00000969,-
 0.00000090,-0.00000368,0.00000090,-0.00001537,-0.00002692,-0.00003822,
 -0.00006378,0.00012305,0.00000485,0.00018257,-0.00019269,-0.00014194,-
 0.00046525,0.00026224,-0.00035904,0.00097215,0.00238334,0.00046954,0.0
 0050825,0.00020520,0.00039134,-0.00028367,-0.00010470,-0.00019881,0.00
 004519,-0.00005701,0.00005022,0.00004141,0.00009532,-0.00001313,-0.000
 04569,0.00000385,-0.00002748,-0.00000064,0.00001428,0.00000007,-0.0337
 0559,-0.04917178,-0.00915182,-0.01851372,-0.00517191,0.01380743,-0.001
 32899,-0.00004156,0.00018725,0.03572426,-0.00123630,0.00438132,-0.0009
 5202,0.00182124,-0.00177510,0.00034293,0.00011702,-0.00010519,-0.00016
 947,-0.00006736,0.00006478,0.00000300,-0.00000396,-0.00000556,0.000003
 61,0.00000134,0.00000178,0.00000010,-0.00000039,0.00000120,-0.00000916
 ,-0.00001625,-0.00000723,0.00000343,-0.00000081,0.00000089,0.00000242,
 0.00000494,-0.00000082,-0.00000093,0.00000051,0.00000270,-0.00003956,-
 0.00002311,-0.00005267,-0.02304293,-0.00127126,-0.00303216,0.00181321,
 -0.00518188,0.00232648,-0.00048378,-0.00041519,-0.00014154,-0.00038647
 ,-0.00018024,-0.00012581,-0.00003448,-0.00005162,0.00001868,-0.0002595
 3,-0.00004109,-0.00004295,0.04025482,0.05837530,0.,-0.00000425,0.00003
 301,0.00000500,0.00000276,-0.00002462,0.00000842,0.00000362,-0.0000493
 2,-0.00002202,-0.00003422,0.00004340,0.00000197,0.00000308,-0.00000176
 ,-0.00000813,0.00005371,-0.00001745,-0.00048148,-0.00023573,-0.0000632
 2,0.00098563,0.00050654,0.00064181,0.00000406,-0.00002002,-0.00000957,
 0.00000018,0.00002220,0.00002041,0.00000047,-0.00000357,-0.00000143,-0
 .00001391,-0.00001696,-0.00007267,-0.00006453,0.00008507,0.00012608,0.
 00017141,-0.00012758,-0.00024613,-0.00024816,0.00005617,0.00031403,0.0
 0076975,-0.00004871,-0.00002648,-0.00004085,-0.00007587,0.00003798,-0.
 00000191,0.00012169,0.00002287,0.00001387,-0.00001904,-0.00002418,0.00
 000320,-0.00006373,0.00009991,0.00001709,-0.00000232,-0.00004858,-0.00
 000683,0.00000380,0.00000132,-0.02894773,-0.00935061,-0.04200858,0.040
 18538,0.01764250,-0.01523666,0.00076622,-0.00078526,0.00015221,-0.0051
 9321,-0.00019059,0.00137978,-0.00013020,0.00010335,0.00064850,-0.00023
 993,-0.00016565,-0.00006258,0.00010249,-0.00000564,-0.00009475,0.00000
 312,0.00000066,-0.00000503,-0.00001002,-0.00000377,-0.00000518,-0.0000
 0322,0.00000223,0.00000257,-0.00002636,0.00004286,0.00003928,0.0000042
 0,-0.00000206,0.00000611,0.00000017,-0.00000446,0.00000159,-0.00000142
 ,0.00000210,0.00000086,-0.00006046,-0.00006907,-0.00003920,-0.02524964
 ,-0.00296614,-0.00000480,0.00029612,0.00140291,-0.00002926,0.00005440,
 0.00001806,0.00020780,0.00005841,-0.00003243,-0.00000659,0.00000648,0.
 00002298,-0.00000166,0.00013413,0.00003417,-0.00002012,0.01716092,-0.0
 0590104,0.05429845,-0.00000195,0.00000261,0.00001153,0.00000565,-0.000
 00187,-0.00000575,-0.00000014,0.00000287,-0.00001008,-0.00000533,-0.00
 000427,0.00001204,0.00000184,0.00000026,-0.00000080,0.00001526,-0.0000
 0291,-0.00000095,-0.00000298,0.00000840,0.00002877,-0.00000351,-0.0000
 0768,-0.00003852,0.00000717,-0.00000428,-0.00000428,-0.00000399,0.0000
 0687,0.00000658,0.00000290,-0.00000100,-0.00000040,-0.00000483,-0.0000
 0774,-0.00001736,0.00000014,0.00002112,0.00003942,-0.00003404,-0.00002
 460,-0.00004560,0.00002046,0.00002668,0.00012431,-0.00009399,-0.000055
 47,-0.00013304,0.00027690,0.00063876,0.00010934,-0.00012763,0.00006099
 ,0.00037157,-0.00001849,0.00006981,0.00003537,-0.00115903,-0.00166037,
 0.00214835,-0.00080891,0.00058934,-0.00064351,0.00075342,0.00030792,0.
 00038411,-0.00017910,0.00011060,0.00020087,0.00002559,-0.00014647,0.00
 006016,0.00000327,-0.00000360,0.00002753,0.00090695,-0.00056900,0.0004
 8329,-0.00123004,-0.00080797,0.00286700,0.00903311,-0.00426913,0.02321
 861,-0.27991402,0.06219003,-0.26898043,0.00000230,-0.00000085,-0.00000
 129,-0.00000103,-0.00000022,0.00000032,-0.00000180,0.00000009,0.000000
 85,-0.00000122,0.00000137,0.00000005,0.00000016,0.00000085,0.00000250,
 0.00000034,-0.00000152,0.,-0.00000224,-0.00000081,0.00000129,0.0000008
 2,0.00000152,0.00000231,0.00000354,-0.00000979,-0.00000688,-0.00002033
 ,0.00002951,-0.00011334,0.00000157,-0.00000815,0.00002058,-0.00002827,
 -0.00002202,-0.00002531,0.00018128,0.00010722,-0.00010424,0.00065687,-
 0.00103826,0.00230013,-0.00000040,0.00001148,-0.00000310,0.27174374,0.
 00000057,-0.00000874,0.00001138,0.00000258,0.00000351,-0.00001062,-0.0
 0000113,0.00000644,-0.00001076,-0.00000275,-0.00001778,0.00001474,-0.0
 0000039,0.00000469,-0.00000150,0.00000326,0.00002794,0.00001163,0.0000
 0211,-0.00003297,-0.00000714,0.00000272,0.00001621,0.00000660,0.000002
 01,0.00000500,-0.00001025,-0.00000170,-0.00000221,0.00001146,0.0000019
 7,0.00000140,-0.00000673,-0.00000310,0.00000434,-0.00001069,0.00000644
 ,-0.00000938,0.00003381,-0.00005705,0.00000946,-0.00004196,0.00004061,
 -0.00001051,0.00015149,-0.00015692,-0.00016189,0.00004631,0.00055098,-
 0.00053194,0.00014634,0.00004655,-0.00016838,-0.00032587,0.00002909,-0
 .00008070,-0.00006008,-0.00033361,0.00232723,-0.00405527,0.00065001,-0
 .00057413,0.00177578,0.00014754,-0.00214341,-0.00159146,-0.00033540,0.
 00024395,0.00034293,0.00004501,-0.00023220,0.00000381,0.00001319,-0.00
 000572,0.00007073,0.00085203,-0.00095105,0.00022701,-0.00167017,-0.003
 85229,0.00591762,0.00961953,-0.00351962,0.00055277,0.04571695,-0.00930
 203,0.07158017,0.00000104,0.00000374,-0.00000296,-0.00000055,-0.000000
 16,0.00000071,-0.00000011,0.00000051,0.00000073,0.00000296,0.00000040,
 -0.00000112,0.00000088,0.00000083,0.00000102,-0.00000179,-0.00000401,0
 .00000368,-0.00000004,0.00000020,-0.00000036,0.00000383,0.00000183,0.0
 0000328,-0.00001705,-0.00006844,-0.00000814,-0.00016371,-0.00004214,0.
 00011974,-0.00001975,0.00000567,-0.00000725,-0.00004199,0.00004726,-0.
 00008563,0.00024457,0.00002654,0.00015231,0.00036305,0.00074545,-0.000
 23640,-0.00000197,0.00002012,-0.00000172,-0.05554031,0.01821698,0.0000
 0684,0.00000966,0.00008825,0.00000788,-0.00001021,-0.00005695,-0.00000
 827,0.00002094,-0.00006249,-0.00001007,-0.00004050,0.00007360,-0.00000
 070,0.00000760,-0.00000847,0.00001052,0.00004316,0.00000319,0.00001309
 ,-0.00003022,0.00007940,-0.00001594,0.00001236,-0.00009098,-0.00000190
 ,-0.00003827,-0.00005646,0.00001085,0.00005670,0.00006776,0.00000029,-
 0.00001309,-0.00001212,-0.00003734,-0.00004695,-0.00010843,0.00000985,
 0.00007094,0.00020111,-0.00011905,-0.00010180,-0.00026412,0.00009622,-
 0.00007034,0.00040656,-0.00002955,0.00012939,-0.00011611,0.00010270,-0
 .00070378,-0.00023905,0.00007046,0.00010188,0.00015857,-0.00000021,-0.
 00003655,-0.00012684,0.00156041,0.00115822,-0.00446748,0.00018296,0.00
 070431,0.00152810,0.00004871,-0.00210238,0.00005495,0.00018782,0.00014
 718,-0.00022762,-0.00004841,-0.00012619,0.00018554,0.00000052,0.000041
 01,-0.00000746,-0.00036361,0.00048340,-0.00025357,0.00318420,-0.001654
 81,-0.00160816,-0.02818279,0.00467839,-0.02409553,-0.21554432,0.071521
 28,-0.27367079,0.00000570,-0.00000342,-0.00001602,0.00000140,-0.000001
 02,0.00000458,0.00000024,0.00000058,0.00000220,0.00000589,0.00000212,-
 0.00000532,0.00001047,0.00000291,0.00001073,-0.00000406,-0.00001361,0.
 00000604,0.00000322,0.00000262,0.00000026,0.00000436,0.00001223,0.0000
 1214,-0.00001166,-0.00000477,0.00000851,0.00006064,0.00007549,-0.00002
 864,-0.00001456,-0.00000665,0.00000874,0.00013262,0.00007920,-0.000069
 32,0.00021938,0.00040378,0.00038931,0.00078651,-0.00001716,0.00335272,
 -0.00000930,-0.00003352,0.00002183,0.23767798,-0.07471015,0.29892787\\
 0.01133139,0.00019122,-0.01265149,-0.01809078,-0.02189701,0.00016290,0
 .00474302,-0.01728369,0.01145999,-0.00677715,0.00979948,0.02332851,0.0
 0528530,-0.00225269,-0.03368211,0.01024485,-0.02497049,-0.00900560,0.0
 0205006,0.01133353,0.00029931,0.00351035,0.00456559,0.01913365,-0.0062
 4764,0.01869184,-0.00271834,0.00332580,0.01431408,0.00182185,0.0073464
 2,-0.03472110,-0.00149206,0.02035755,0.01349677,0.01740784,0.00166864,
 0.01108135,0.01018601,-0.06044907,0.00549626,0.00434143,0.01341803,0.0
 0348217,-0.00805111,-0.00920857,0.00137121,-0.00150696,0.00528023,0.05
 064274,0.01913118,0.00094636,-0.02212385,0.03171285,-0.00031045,0.0137
 9333,-0.02200556,-0.00925737,-0.00692635,-0.01210522,0.00070355,-0.000
 77710,-0.01618008,-0.00107822,-0.01454251,0.03189674,0.01269645,-0.011
 60521,-0.00740811,-0.00436183,-0.02178992,-0.01071871,-0.01204444,0.02
 901595,0.00802406,0.01564226,-0.01374415,0.01568873,-0.00455294,0.0077
 2559,-0.00279891,0.01977768,0.00399581,-0.01661865,0.00153081,-0.00751
 075,0.01407944,-0.00039951,0.00455765,-0.00239345,0.02337053,0.0000361
 0,0.00244882,-0.02177973,-0.00140037,-0.00161910,-0.02038822,0.0036356
 5,-0.00164504,0.02254941,0.00386755,0.00040824,0.00168243,0.00703022,-
 0.01809400,-0.02131900,-0.00417704,-0.00097069,0.01686230,0.00404593,-
 0.00657336,-0.00285350,-0.00894809,-0.01646159,-0.01975261,-0.00194081
 ,-0.00187467,0.01846654,0.00206699,0.00008173,-0.02068476,-0.00515989,
 -0.00061022,0.01814364,0.00414876,0.00248563,-0.01988759,-0.00585454,-
 0.00371098,0.02031621,0.00414360,-0.00232856,-0.00180640,-0.00490380,-
 0.00087437\\\@


 TIME IS IN FACT THE HERO OF THE PLOT. THE TIME
 WITH WHICH WE HAVE TO DEAL IS OF THE ORDER OF TWO
 BILLION YEARS...GIVEN SO MUCH TIME, THE "IMPOSSIBLE"
 BECOMES POSSIBLE, THE POSSIBLE PROBABLE, THE PROBABLE
 VIRTUALLY CERTAIN.  ONE HAS ONLY TO WAIT, TIME
 ITSELF PERFORMS THE MIRACLES.
 "ORIGIN OF LIFE" LECTURES, GEORGE WALD, 1954
 Job cpu time:  3 days 20 hours 43 minutes  7.6 seconds.
 File lengths (MBytes):  RWF=   2340 Int=      0 D2E=      0 Chk=     43 Scr=      1
 Normal termination of Gaussian 09 at Fri Feb  5 12:54:46 2016.
Gaussian '09 finished on node007 at Fri Feb  5 12:54:46 EST 2016.
