Gaussian '09 started on node012 at Wed Jan 20 15:58:14 EST 2016.
 Entering Gaussian System, Link 0=/usr/local/gaussian/g09/g09
 Initial command:
 /usr/local/gaussian/g09/l1.exe /home/srmcgrat/thesis/gaussian/cellobiose/310/5000/gaussian16227/Gau-16263.inp -scrdir=/home/srmcgrat/thesis/gaussian/cellobiose/310/5000/gaussian16227/
 Entering Link 1 = /usr/local/gaussian/g09/l1.exe PID=     16265.
  
 Copyright (c) 1988,1990,1992,1993,1995,1998,2003,2009,2010,
            Gaussian, Inc.  All Rights Reserved.
  
 This is part of the Gaussian(R) 09 program.  It is based on
 the Gaussian(R) 03 system (copyright 2003, Gaussian, Inc.),
 the Gaussian(R) 98 system (copyright 1998, Gaussian, Inc.),
 the Gaussian(R) 94 system (copyright 1995, Gaussian, Inc.),
 the Gaussian 92(TM) system (copyright 1992, Gaussian, Inc.),
 the Gaussian 90(TM) system (copyright 1990, Gaussian, Inc.),
 the Gaussian 88(TM) system (copyright 1988, Gaussian, Inc.),
 the Gaussian 86(TM) system (copyright 1986, Carnegie Mellon
 University), and the Gaussian 82(TM) system (copyright 1983,
 Carnegie Mellon University). Gaussian is a federally registered
 trademark of Gaussian, Inc.
  
 This software contains proprietary and confidential information,
 including trade secrets, belonging to Gaussian, Inc.
  
 This software is provided under written license and may be
 used, copied, transmitted, or stored only in accord with that
 written license.
  
 The following legend is applicable only to US Government
 contracts under FAR:
  
                    RESTRICTED RIGHTS LEGEND
  
 Use, reproduction and disclosure by the US Government is
 subject to restrictions as set forth in subparagraphs (a)
 and (c) of the Commercial Computer Software - Restricted
 Rights clause in FAR 52.227-19.
  
 Gaussian, Inc.
 340 Quinnipiac St., Bldg. 40, Wallingford CT 06492
  
  
 ---------------------------------------------------------------
 Warning -- This program may not be used in any manner that
 competes with the business of Gaussian, Inc. or will provide
 assistance to any competitor of Gaussian, Inc.  The licensee
 of this program is prohibited from giving any competitor of
 Gaussian, Inc. access to this program.  By using this program,
 the user acknowledges that Gaussian, Inc. is engaged in the
 business of creating and licensing software in the field of
 computational chemistry and represents and warrants to the
 licensee that it is not a competitor of Gaussian, Inc. and that
 it will not use this program in any manner prohibited above.
 ---------------------------------------------------------------
  

 Cite this work as:
 Gaussian 09, Revision B.01,
 M. J. Frisch, G. W. Trucks, H. B. Schlegel, G. E. Scuseria, 
 M. A. Robb, J. R. Cheeseman, G. Scalmani, V. Barone, B. Mennucci, 
 G. A. Petersson, H. Nakatsuji, M. Caricato, X. Li, H. P. Hratchian, 
 A. F. Izmaylov, J. Bloino, G. Zheng, J. L. Sonnenberg, M. Hada, 
 M. Ehara, K. Toyota, R. Fukuda, J. Hasegawa, M. Ishida, T. Nakajima, 
 Y. Honda, O. Kitao, H. Nakai, T. Vreven, J. A. Montgomery, Jr., 
 J. E. Peralta, F. Ogliaro, M. Bearpark, J. J. Heyd, E. Brothers, 
 K. N. Kudin, V. N. Staroverov, T. Keith, R. Kobayashi, J. Normand, 
 K. Raghavachari, A. Rendell, J. C. Burant, S. S. Iyengar, J. Tomasi, 
 M. Cossi, N. Rega, J. M. Millam, M. Klene, J. E. Knox, J. B. Cross, 
 V. Bakken, C. Adamo, J. Jaramillo, R. Gomperts, R. E. Stratmann, 
 O. Yazyev, A. J. Austin, R. Cammi, C. Pomelli, J. W. Ochterski, 
 R. L. Martin, K. Morokuma, V. G. Zakrzewski, G. A. Voth, 
 P. Salvador, J. J. Dannenberg, S. Dapprich, A. D. Daniels, 
 O. Farkas, J. B. Foresman, J. V. Ortiz, J. Cioslowski, 
 and D. J. Fox, Gaussian, Inc., Wallingford CT, 2010.
 
 ******************************************
 Gaussian 09:  EM64L-G09RevB.01 12-Aug-2010
                20-Jan-2016 
 ******************************************
 ------------------------------------------------
 # freq=raman b3lyp/6-31+g(d,p) geom=connectivity
 ------------------------------------------------
 1/10=4,30=1,38=1,57=2/1,3;
 2/12=2,17=6,18=5,40=1/2;
 3/5=1,6=6,7=111,11=2,16=1,25=1,30=1,71=2,74=-5/1,2,3;
 4//1;
 5/5=2,38=5,98=1/2;
 8/6=4,10=90,11=11/1;
 10/13=10,15=4/2;
 11/6=3,8=1,9=11,15=111,16=1/1,2,10;
 10/6=1/2;
 6/7=2,8=2,9=2,10=2,18=1,28=1/1;
 7/8=1,10=1,25=1/1,2,3,16;
 1/10=4,30=1/3;
 99//99;
 ------------
 310 5000.com
 ------------
 Symbolic Z-matrix:
 Charge =  0 Multiplicity = 1
 O                     7.855     7.447     12.204 
 C                     8.36      7.827     13.492 
 C                     7.751     9.153     13.919 
 O                     7.938     10.145    12.898 
 H                     7.431     9.806     12.106 
 C                     8.27      9.56      15.288 
 O                     7.76      10.757    15.894 
 H                     8.21      10.865    16.781 
 C                     8.537     5.394     14.185 
 O                     8.157     4.678     13.002 
 H                     8.189     3.704     13.226 
 C                     8.031     6.781     14.544 
 O                     8.624     7.216     15.776 
 C                     8.152     8.455     16.325 
 O                     9.053     8.542     17.438 
 C                     8.577     8.199     18.747 
 C                     8.93      6.808     19.249 
 O                     8.398     5.888     18.285 
 H                     8.462     6.319     17.385 
 C                     8.437     6.346     20.611 
 O                     9.035     5.183     21.203 
 H                     8.549     5.052     22.067 
 C                     8.116     10.551    19.604 
 O                     8.526     11.261    18.425 
 H                     8.409     12.252    18.368 
 C                     8.804     9.219     19.852 
 O                     8.146     8.782     21.049 
 C                     8.637     7.528     21.545 
 O                     7.76      7.372     22.67 
 H                     8.58954   7.27209   11.61116 
 H                     8.28081   7.26123   23.4688 
 H                     9.65626   7.60843   21.86049 
 H                     7.38556   6.1643    20.5312 
 H                     9.99619   6.71821   19.23993 
 H                     7.5136    8.17279   18.63131 
 H                     9.84978   9.36127   20.02808 
 H                     8.29545   11.18052   20.45041 
 H                     7.06299   10.37367   19.53593 
 H                     7.14164   8.35607   16.66305 
 H                     9.3185    9.72769   15.15597 
 H                     6.69669   8.99881   14.01671 
 H                     9.42265   7.936     13.4304 
 H                     6.96904   6.7388    14.66795 
 H                     8.2842    4.76162   15.01028 
 H                     9.60452   5.46294   14.16171 
 

 GradGradGradGradGradGradGradGradGradGradGradGradGradGradGradGradGradGrad
 Berny optimization.
 Initialization pass.
 Trust Radius=3.00D-01 FncErr=1.00D-07 GrdErr=1.00D-07
 Number of steps in this run=      2 maximum allowed number of steps=      2.
 GradGradGradGradGradGradGradGradGradGradGradGradGradGradGradGradGradGrad

                          Input orientation:                          
 ---------------------------------------------------------------------
 Center     Atomic      Atomic             Coordinates (Angstroms)
 Number     Number       Type             X           Y           Z
 ---------------------------------------------------------------------
      1          8           0        7.855000    7.447000   12.204000
      2          6           0        8.360000    7.827000   13.492000
      3          6           0        7.751000    9.153000   13.919000
      4          8           0        7.938000   10.145000   12.898000
      5          1           0        7.431000    9.806000   12.106000
      6          6           0        8.270000    9.560000   15.288000
      7          8           0        7.760000   10.757000   15.894000
      8          1           0        8.210000   10.865000   16.781000
      9          6           0        8.537000    5.394000   14.185000
     10          8           0        8.157000    4.678000   13.002000
     11          1           0        8.189000    3.704000   13.226000
     12          6           0        8.031000    6.781000   14.544000
     13          8           0        8.624000    7.216000   15.776000
     14          6           0        8.152000    8.455000   16.325000
     15          8           0        9.053000    8.542000   17.438000
     16          6           0        8.577000    8.199000   18.747000
     17          6           0        8.930000    6.808000   19.249000
     18          8           0        8.398000    5.888000   18.285000
     19          1           0        8.462000    6.319000   17.385000
     20          6           0        8.437000    6.346000   20.611000
     21          8           0        9.035000    5.183000   21.203000
     22          1           0        8.549000    5.052000   22.067000
     23          6           0        8.116000   10.551000   19.604000
     24          8           0        8.526000   11.261000   18.425000
     25          1           0        8.409000   12.252000   18.368000
     26          6           0        8.804000    9.219000   19.852000
     27          8           0        8.146000    8.782000   21.049000
     28          6           0        8.637000    7.528000   21.545000
     29          8           0        7.760000    7.372000   22.670000
     30          1           0        8.589537    7.272093   11.611157
     31          1           0        8.280809    7.261232   23.468804
     32          1           0        9.656265    7.608429   21.860485
     33          1           0        7.385564    6.164303   20.531196
     34          1           0        9.996187    6.718212   19.239928
     35          1           0        7.513595    8.172791   18.631312
     36          1           0        9.849780    9.361270   20.028076
     37          1           0        8.295450   11.180517   20.450408
     38          1           0        7.062994   10.373670   19.535932
     39          1           0        7.141636    8.356072   16.663049
     40          1           0        9.318499    9.727689   15.155974
     41          1           0        6.696686    8.998810   14.016711
     42          1           0        9.422650    7.935999   13.430396
     43          1           0        6.969042    6.738797   14.667951
     44          1           0        8.284203    4.761624   15.010284
     45          1           0        9.604523    5.462936   14.161712
 ---------------------------------------------------------------------
                    Distance matrix (angstroms):
                    1          2          3          4          5
     1  O    0.000000
     2  C    1.434702   0.000000
     3  C    2.421255   1.520357   0.000000
     4  O    2.787065   2.429824   1.435783   0.000000
     5  H    2.398804   2.588528   1.953402   0.999617   0.000000
     6  C    3.761389   2.497400   1.519596   2.482851   3.299933
     7  O    4.957946   3.835949   2.544312   3.063045   3.919386
     8  H    5.723432   4.479896   3.366403   3.958544   4.856331
     9  C    2.933308   2.535955   3.849498   4.958545   5.001122
    10  O    2.897476   3.193354   4.585995   5.472373   5.256070
    11  H    3.894366   4.135109   5.510326   6.454229   6.250069
    12  C    2.439289   1.519559   2.468888   3.746260   3.931217
    13  O    3.661135   2.379007   2.821799   4.163234   4.647607
    14  C    4.252871   2.909216   2.537093   3.827039   4.488319
    15  O    5.479871   4.069692   3.801564   4.942108   5.714788
    16  C    6.625529   5.272618   4.990188   6.197261   6.928106
    17  C    7.155136   5.874207   5.941209   7.242571   7.890339
    18  O    6.301102   5.170495   5.490063   6.881382   7.380099
    19  H    5.337002   4.176113   4.533236   5.919968   6.410146
    20  C    8.498740   7.271826   7.289219   8.612303   9.236810
    21  O    9.354149   8.179602   8.394416   9.736420  10.329586
    22  H   10.173320   9.014820   9.156687  10.506309  11.093780
    23  C    8.028881   6.695988   5.865736   6.720637   7.565993
    24  O    7.327870   6.012853   5.034712   5.669121   6.576155
    25  H    7.835167   6.584710   5.461718   5.880662   6.793530
    26  C    7.907749   6.525672   6.026081   7.068631   7.888613
    27  O    8.949912   7.620110   7.150564   8.266791   9.029787
    28  C    9.374026   8.063308   7.847388   9.061341   9.784602
    29  O   10.466700   9.208839   8.930400  10.159390  10.845768
    30  H    0.960000   1.974380   3.093072   3.214663   2.829799
    31  H   11.274380   9.993147   9.749782  10.962460  11.675245
    32  H    9.824374   8.471105   8.311614   9.471683  10.243589
    33  H    8.438476   7.298244   7.265465   8.626518   9.178668
    34  H    7.390541   6.078256   6.267482   7.496603   8.185814
    35  H    6.477166   5.220010   4.819031   6.077878   6.727102
    36  H    8.298177   6.877043   6.462899   7.423417   8.295033
    37  H    9.062913   7.724615   6.860506   7.631444   8.500924
    38  H    7.934097   6.685571   5.789068   6.699258   7.460668
    39  H    4.606346   3.438006   2.921682   4.243826   4.790900
    40  H    4.007184   2.701879   2.077841   2.679248   3.587635
    41  H    2.652495   2.101208   1.070000   2.026358   2.200362
    42  H    2.049559   1.070000   2.124674   2.714280   3.036050
    43  H    2.712476   2.121747   2.645895   3.959018   4.023025
    44  H    3.907773   3.421617   4.556248   5.793301   5.882903
    45  H    3.290893   2.754297   4.136548   5.127962   5.273743
                    6          7          8          9         10
     6  C    0.000000
     7  O    1.435321   0.000000
     8  H    1.983853   1.000466   0.000000
     9  C    4.317807   5.682093   6.064486   0.000000
    10  O    5.391891   6.743554   7.250008   1.434066   0.000000
    11  H    6.208957   7.552951   7.994898   1.974053   0.999938
    12  C    2.886780   4.207674   4.659964   1.519436   2.610795
    13  O    2.420288   3.646793   3.807443   2.420441   3.788748
    14  C    1.519973   2.374580   2.453447   3.754670   5.030714
    15  O    2.504379   2.993662   2.557074   4.556113   5.950749
    16  C    3.729779   3.917967   3.332777   5.355508   6.751212
    17  C    4.868123   5.312205   4.802986   5.272375   6.645257
    18  O    4.741516   5.461784   5.202681   4.131992   5.425152
    19  H    3.865017   4.734103   4.592868   3.331854   4.690053
    20  C    6.220291   6.493484   5.928051   6.496905   7.794710
    21  O    7.398012   7.802601   7.247057   7.038810   8.263311
    22  H    8.145842   8.442480   7.864330   7.889425   9.081176
    23  C    4.430988   3.732730   2.841964   7.492493   8.836301
    24  O    3.577668   2.691976   1.720293   7.238744   8.537036
    25  H    4.092992   2.962584   2.117059   8.034055   9.285631
    26  C    4.607769   4.372773   3.534571   6.842281   8.243894
    27  O    5.814618   5.533864   4.749611   7.664589   9.033114
    28  C    6.588912   6.567296   5.832117   7.663782   9.018633
    29  O    7.716305   7.574457   6.861769   8.747082  10.044176
    30  H    4.342326   5.583498   6.307163   3.186638   2.975038
    31  H    8.497647   8.358785   7.597294   9.473184  10.781577
    32  H    6.994850   7.007729   6.204684   8.066568   9.450289
    33  H    6.309048   6.537328   6.069614   6.495643   7.713171
    34  H    5.164612   5.701542   5.141269   5.425409   6.815924
    35  H    3.697869   3.772497   3.340154   5.342165   6.657078
    36  H    5.000352   4.837957   3.936189   7.183603   8.611868
    37  H    5.410839   4.607269   3.683939   8.532143   9.888411
    38  H    4.490417   3.727791   3.024347   7.456693   8.736691
    39  H    2.147885   2.595817   2.729475   4.106293   5.287955
    40  H    1.070000   2.008253   2.272214   4.509367   5.611421
    41  H    2.099149   2.783178   3.662523   4.050892   4.672425
    42  H    2.723358   4.097780   4.612604   2.795632   3.521356
    43  H    3.167986   4.274899   4.799011   2.121371   2.904053
    44  H    4.806427   6.082786   6.355481   1.070000   2.014045
    45  H    4.453697   5.867726   6.163414   1.070000   2.014045
                   11         12         13         14         15
    11  H    0.000000
    12  C    3.351122   0.000000
    13  O    4.361865   1.434816   0.000000
    14  C    5.672492   2.447218   1.435028   0.000000
    15  O    6.472533   3.538480   2.169000   1.434622   0.000000
    16  C    7.130008   4.469234   3.129751   2.472295   1.434471
    17  C    6.816189   4.790194   3.510246   3.444948   2.510300
    18  O    5.514256   3.863576   2.847761   3.239075   2.861844
    19  H    4.920369   2.910410   1.849252   2.404620   2.300830
    20  C    7.847286   6.096109   4.916207   4.785280   3.907659
    21  O    8.156941   6.921264   5.809848   5.939744   5.045635
    22  H    8.950418   7.736491   6.653210   6.686448   5.819086
    23  C    9.357650   6.310604   5.102340   3.891832   3.099291
    24  O    9.178857   5.947906   4.836200   3.524700   2.940214
    25  H    9.977819   6.685634   5.667979   4.319387   3.878626
    26  C    8.642761   5.892049   4.545128   3.667224   2.519469
    27  O    9.326696   6.806780   5.521356   4.735308   3.730894
    28  C    9.166757   7.066771   5.777445   5.323810   4.250729
    29  O   10.140385   8.151969   6.949681   6.448688   5.514941
    30  H    3.936932   3.025674   4.165363   4.879654   5.981601
    31  H   10.843310   8.941206   7.700589   7.244005   6.213473
    32  H    9.589148   7.540363   6.183893   5.798370   4.560028
    33  H    7.750128   6.053381   5.025105   4.850443   4.242835
    34  H    6.965538   5.090937   3.758921   3.861899   2.731803
    35  H    7.045826   4.348668   3.209557   2.409622   1.982442
    36  H    9.001729   6.327783   4.917811   4.173314   2.830999
    37  H   10.397197   7.369623   6.138031   4.946515   4.075568
    38  H    9.250277   6.226050   5.152155   3.895807   3.422931
    39  H    5.878100   2.786071   2.069789   1.070000   2.070853
    40  H    6.425371   3.273399   2.678683   2.084965   2.585342
    41  H    5.557629   2.641421   3.160387   2.782420   4.179247
    42  H    4.412877   2.123870   2.580329   3.203537   4.069984
    43  H    3.574565   1.070000   2.048019   2.662809   3.907377
    44  H    2.076367   2.087921   2.593404   3.922625   4.558081
    45  H    2.443996   2.087921   2.576934   3.967630   4.529777
                   16         17         18         19         20
    16  C    0.000000
    17  C    1.520360   0.000000
    18  O    2.363516   1.434824   0.000000
    19  H    2.324364   1.983089   0.999928   0.000000
    20  C    2.632053   1.520374   2.370983   3.226210   0.000000
    21  O    3.916370   2.543573   3.068797   4.024419   1.435492
    22  H    4.574581   3.342128   3.876238   4.851184   1.951132
    23  C    2.545363   3.846904   4.854158   4.790981   4.335795
    24  O    3.079307   4.546581   5.376348   5.050649   5.379939
    25  H    4.074147   5.539381   6.364551   6.014116   6.317647
    26  C    1.520840   2.488455   3.703496   3.822702   2.994144
    27  O    2.413473   2.784121   4.009793   4.426186   2.492112
    28  C    2.877958   2.424018   3.657092   4.335655   1.519697
    29  O    4.091619   3.659267   4.673064   5.434412   2.398017
    30  H    7.195802   7.659500   6.818546   5.853367   9.048651
    31  H    4.823129   4.293439   5.363891   6.159002   3.004845
    32  H    3.347742   2.826305   4.162595   4.808208   2.154425
    33  H    2.956834   2.107998   2.479267   3.328843   1.070000
    34  H    2.109456   1.070000   2.038466   2.440053   2.109371
    35  H    1.070000   2.061648   2.474343   2.426789   2.847631
    36  H    2.147556   2.823498   4.148444   4.262299   3.380474
    37  H    3.445332   4.578748   5.719287   5.749679   4.839254
    38  H    2.764745   4.035102   4.844410   4.798341   4.389281
    39  H    2.535309   3.504556   3.209448   2.532635   4.615699
    40  H    3.972679   5.042656   5.037989   4.161888   6.478439
    41  H    5.152757   6.096243   5.548864   4.652213   7.317837
    42  H    5.389859   5.947373   5.367624   4.379090   7.420288
    43  H    4.621295   4.983589   3.981058   3.128500   6.134250
    44  H    5.085699   4.750939   3.464887   2.845401   5.822509
    45  H    5.437529   5.305156   4.317162   3.525308   6.613338
                   21         22         23         24         25
    21  O    0.000000
    22  H    0.999926   0.000000
    23  C    5.675983   6.040932   0.000000
    24  O    6.702123   7.198359   1.436050   0.000000
    25  H    7.641980   8.095814   2.122957   0.999509   0.000000
    26  C    4.262377   4.726007   1.519563   2.506667   3.399613
    27  O    3.710369   3.887368   2.284357   3.629768   4.392930
    28  C    2.402997   2.531957   3.630076   4.866417   5.697498
    29  O    2.927360   2.523595   4.430929   5.807848   6.537798
    30  H    9.826810  10.689018   8.652225   7.895813   8.395653
    31  H    3.165711   2.630150   5.078036   6.441911   7.137394
    32  H    2.588621   2.793566   4.015329   5.140169   5.942716
    33  H    2.033449   2.224746   4.542724   5.631427   6.541169
    34  H    2.671031   3.586496   4.284614   4.843809   5.822563
    35  H    4.226949   4.755559   2.639108   3.256465   4.184619
    36  H    4.416136   4.941564   2.145062   2.816242   3.631531
    37  H    6.089625   6.343215   1.070000   2.040076   2.344652
    38  H    5.797498   6.077392   1.070000   2.040076   2.589193
    39  H    5.853577   6.488471   3.796878   3.668724   4.437490
    40  H    7.569749   8.379527   4.680682   3.696705   4.185265
    41  H    8.465864   9.155082   5.970054   5.281752   5.696400
    42  H    8.254856   9.147221   6.830736   6.066769   6.635909
    43  H    7.028197   7.751612   6.341371   6.081929   6.794060
    44  H    6.252279   7.067650   7.392388   7.345791   8.209480
    45  H    7.069828   7.986024   7.597539   7.277114   8.075490
                   26         27         28         29         30
    26  C    0.000000
    27  O    1.434135   0.000000
    28  C    2.398670   1.435135   0.000000
    29  O    3.527388   2.182828   1.434953   0.000000
    30  H    8.470415   9.568146   9.937252  11.090361   0.000000
    31  H    4.145824   2.861182   1.974604   0.960000  11.861670
    32  H    2.711883   2.077661   1.070000   2.075339  10.310177
    33  H    3.435759   2.774657   2.110346   2.484596   9.068839
    34  H    2.837232   3.309858   2.795801   4.146489   7.777119
    35  H    2.061499   2.572214   3.188631   4.124679   7.159014
    36  H    1.070000   2.068987   2.670726   3.912051   8.763412
    37  H    2.112880   2.476596   3.828272   4.440506   9.669261
    38  H    2.112880   2.448610   3.822524   4.395250   8.645933
    39  H    3.698311   4.519593   5.172549   6.118352   5.365915
    40  H    4.751435   6.082503   6.791372   8.027377   4.373449
    41  H    6.208047   7.183356   7.912220   8.868853   3.514417
    42  H    6.577676   7.771016   8.162752   9.404934   2.108192
    43  H    6.032648   6.802771   7.120304   8.065938   3.500628
    44  H    6.601561   7.255937   7.104915   8.109260   4.236714
    45  H    6.865001   7.783201   7.727454   8.912787   3.287639
                   31         32         33         34         35
    31  H    0.000000
    32  H    2.144554   0.000000
    33  H    3.261021   3.001431   0.000000
    34  H    4.595736   2.788432   2.964716   0.000000
    35  H    4.982056   3.916260   2.767665   2.940999   0.000000
    36  H    4.325557   2.543153   4.067689   2.761950   2.970049
    37  H    4.946890   4.074303   5.098708   4.926453   3.600947
    38  H    5.161185   4.446927   4.337439   4.696128   2.421828
    39  H    6.986751   5.821999   4.452630   4.179875   2.011468
    40  H    8.732890   7.039590   6.732531   5.118095   4.213474
    41  H    9.740158   8.498062   7.137751   6.585577   4.758591
    42  H   10.125649   8.439686   7.596709   5.963440   5.545277
    43  H    8.913400   7.727223   5.906029   5.483339   4.249836
    44  H    8.820126   7.544012   5.766761   4.964778   5.034058
    45  H    9.571210   7.992305   6.781300   5.245703   5.629620
                   36         37         38         39         40
    36  H    0.000000
    37  H    2.429808   0.000000
    38  H    3.005551   1.733844   0.000000
    39  H    4.434847   4.863420   3.511458   0.000000
    40  H    4.914662   5.584655   4.968765   2.981835   0.000000
    41  H    6.797785   6.979136   5.699668   2.759383   2.950099
    42  H    6.763374   7.815245   6.984825   3.978635   2.489703
    43  H    6.626233   7.411143   6.076048   2.574060   3.832961
    44  H    6.984699   8.414111   7.312175   4.117907   5.074722
    45  H    7.047793   8.599541   7.710832   4.548928   4.388450
                   41         42         43         44         45
    41  H    0.000000
    42  H    2.983993   0.000000
    43  H    2.367688   2.997503   0.000000
    44  H    4.632617   3.724079   2.399178   0.000000
    45  H    4.580278   2.585332   2.971508   1.719058   0.000000
 Stoichiometry    C12H22O11
 Framework group  C1[X(C12H22O11)]
 Deg. of freedom   129
 Full point group                 C1      NOp   1
 Largest Abelian subgroup         C1      NOp   1
 Largest concise Abelian subgroup C1      NOp   1
                         Standard orientation:                         
 ---------------------------------------------------------------------
 Center     Atomic      Atomic             Coordinates (Angstroms)
 Number     Number       Type             X           Y           Z
 ---------------------------------------------------------------------
      1          8           0        5.029502   -0.482819   -0.275921
      2          6           0        3.718834   -0.133863    0.191782
      3          6           0        3.319669    1.229972   -0.348689
      4          8           0        4.329813    2.205475   -0.049562
      5          1           0        5.145085    1.898615   -0.539871
      6          6           0        1.927407    1.605129    0.130929
      7          8           0        1.344910    2.834156   -0.327694
      8          1           0        0.437640    2.914432    0.086251
      9          6           0        3.020586   -2.571750    0.176761
     10          8           0        4.220815   -3.263926   -0.193222
     11          1           0        3.996481   -4.237459   -0.235459
     12          6           0        2.684449   -1.153914   -0.253867
     13          8           0        1.425530   -0.755940    0.307773
     14          6           0        0.898145    0.512396   -0.107553
     15          8           0       -0.256049    0.542753    0.743947
     16          6           0       -1.540908    0.234343    0.185621
     17          6           0       -2.057625   -1.175665    0.423055
     18          8           0       -1.068818   -2.061017   -0.122044
     19          1           0       -0.173228   -1.637028    0.012159
     20          6           0       -3.394513   -1.601598   -0.162476
     21          8           0       -4.012860   -2.799897    0.329828
     22          1           0       -4.852942   -2.897052   -0.203723
     23          6           0       -2.377524    2.613238   -0.160509
     24          8           0       -1.219768    3.292449    0.349896
     25          1           0       -1.158271    4.288850    0.300677
     26          6           0       -2.656321    1.239694    0.426619
     27          8           0       -3.820661    0.849129   -0.313997
     28          6           0       -4.338000   -0.433194    0.070219
     29          8           0       -5.420394   -0.529215   -0.866954
     30          1           0        5.587336   -0.706567    0.472650
     31          1           0       -6.242686   -0.672050   -0.392576
     32          1           0       -4.701112   -0.418810    1.076619
     33          1           0       -3.265214   -1.714433   -1.218625
     34          1           0       -2.098583   -1.334887    1.480349
     35          1           0       -1.375349    0.277369   -0.870617
     36          1           0       -2.881483    1.313760    1.470034
     37          1           0       -3.232026    3.231494    0.019731
     38          1           0       -2.259878    2.504889   -1.218488
     39          1           0        0.608045    0.480360   -1.136978
     40          1           0        2.009854    1.703727    1.193181
     41          1           0        3.271759    1.145150   -1.414245
     42          1           0        3.730328   -0.094604    1.261000
     43          1           0        2.610581   -1.126433   -1.320960
     44          1           0        2.208694   -3.184518   -0.155272
     45          1           0        2.993616   -2.572705    1.246421
 ---------------------------------------------------------------------
 Rotational constants (GHZ):      0.4066754      0.1439051      0.1090535
 Standard basis: 6-31+G(d,p) (6D, 7F)
 There are   547 symmetry adapted basis functions of A   symmetry.
 Integral buffers will be    131072 words long.
 Raffenetti 2 integral format.
 Two-electron integral symmetry is turned on.
   547 basis functions,   890 primitive gaussians,   547 cartesian basis functions
    91 alpha electrons       91 beta electrons
       nuclear repulsion energy      2281.3483777886 Hartrees.
 NAtoms=   45 NActive=   45 NUniq=   45 SFac= 1.00D+00 NAtFMM=   50 NAOKFM=F Big=F
 One-electron integrals computed using PRISM.
 NBasis=   547 RedAO= T  NBF=   547
 NBsUse=   547 1.00D-06 NBFU=   547
 Harris functional with IExCor=  402 diagonalized for initial guess.
 ExpMin= 4.38D-02 ExpMax= 5.48D+03 ExpMxC= 8.25D+02 IAcc=2 IRadAn=         0 AccDes= 0.00D+00
 HarFok:  IExCor=  402 AccDes= 0.00D+00 IRadAn=         0 IDoV= 1
 ScaDFX=  1.000000  1.000000  1.000000  1.000000
 FoFCou: FMM=F IPFlag=           0 FMFlag=      100000 FMFlg1=           0
         NFxFlg=           0 DoJE=T BraDBF=F KetDBF=T FulRan=T
         Omega=  0.000000  0.000000  1.000000  0.000000  0.000000 ICntrl=     500 IOpCl=  0
         NMat0=    1 NMatS0=    1 NMatT0=    0 NMatD0=    1 NMtDS0=    0 NMtDT0=    0
         I1Cent=           4 NGrid=           0.
 Petite list used in FoFCou.
 Initial guess orbital symmetries:
       Occupied  (A) (A) (A) (A) (A) (A) (A) (A) (A) (A) (A) (A)
                 (A) (A) (A) (A) (A) (A) (A) (A) (A) (A) (A) (A)
                 (A) (A) (A) (A) (A) (A) (A) (A) (A) (A) (A) (A)
                 (A) (A) (A) (A) (A) (A) (A) (A) (A) (A) (A) (A)
                 (A) (A) (A) (A) (A) (A) (A) (A) (A) (A) (A) (A)
                 (A) (A) (A) (A) (A) (A) (A) (A) (A) (A) (A) (A)
                 (A) (A) (A) (A) (A) (A) (A) (A) (A) (A) (A) (A)
                 (A) (A) (A) (A) (A) (A) (A)
       Virtual   (A) (A) (A) (A) (A) (A) (A) (A) (A) (A) (A) (A)
                 (A) (A) (A) (A) (A) (A) (A) (A) (A) (A) (A) (A)
                 (A) (A) (A) (A) (A) (A) (A) (A) (A) (A) (A) (A)
                 (A) (A) (A) (A) (A) (A) (A) (A) (A) (A) (A) (A)
                 (A) (A) (A) (A) (A) (A) (A) (A) (A) (A) (A) (A)
                 (A) (A) (A) (A) (A) (A) (A) (A) (A) (A) (A) (A)
                 (A) (A) (A) (A) (A) (A) (A) (A) (A) (A) (A) (A)
                 (A) (A) (A) (A) (A) (A) (A) (A) (A) (A) (A) (A)
                 (A) (A) (A) (A) (A) (A) (A) (A) (A) (A) (A) (A)
                 (A) (A) (A) (A) (A) (A) (A) (A) (A) (A) (A) (A)
                 (A) (A) (A) (A) (A) (A) (A) (A) (A) (A) (A) (A)
                 (A) (A) (A) (A) (A) (A) (A) (A) (A) (A) (A) (A)
                 (A) (A) (A) (A) (A) (A) (A) (A) (A) (A) (A) (A)
                 (A) (A) (A) (A) (A) (A) (A) (A) (A) (A) (A) (A)
                 (A) (A) (A) (A) (A) (A) (A) (A) (A) (A) (A) (A)
                 (A) (A) (A) (A) (A) (A) (A) (A) (A) (A) (A) (A)
                 (A) (A) (A) (A) (A) (A) (A) (A) (A) (A) (A) (A)
                 (A) (A) (A) (A) (A) (A) (A) (A) (A) (A) (A) (A)
                 (A) (A) (A) (A) (A) (A) (A) (A) (A) (A) (A) (A)
                 (A) (A) (A) (A) (A) (A) (A) (A) (A) (A) (A) (A)
                 (A) (A) (A) (A) (A) (A) (A) (A) (A) (A) (A) (A)
                 (A) (A) (A) (A) (A) (A) (A) (A) (A) (A) (A) (A)
                 (A) (A) (A) (A) (A) (A) (A) (A) (A) (A) (A) (A)
                 (A) (A) (A) (A) (A) (A) (A) (A) (A) (A) (A) (A)
                 (A) (A) (A) (A) (A) (A) (A) (A) (A) (A) (A) (A)
                 (A) (A) (A) (A) (A) (A) (A) (A) (A) (A) (A) (A)
                 (A) (A) (A) (A) (A) (A) (A) (A) (A) (A) (A) (A)
                 (A) (A) (A) (A) (A) (A) (A) (A) (A) (A) (A) (A)
                 (A) (A) (A) (A) (A) (A) (A) (A) (A) (A) (A) (A)
                 (A) (A) (A) (A) (A) (A) (A) (A) (A) (A) (A) (A)
                 (A) (A) (A) (A) (A) (A) (A) (A) (A) (A) (A) (A)
                 (A) (A) (A) (A) (A) (A) (A) (A) (A) (A) (A) (A)
                 (A) (A) (A) (A) (A) (A) (A) (A) (A) (A) (A) (A)
                 (A) (A) (A) (A) (A) (A) (A) (A) (A) (A) (A) (A)
                 (A) (A) (A) (A) (A) (A) (A) (A) (A) (A) (A) (A)
                 (A) (A) (A) (A) (A) (A) (A) (A) (A) (A) (A) (A)
                 (A) (A) (A) (A) (A) (A) (A) (A) (A) (A) (A) (A)
                 (A) (A) (A) (A) (A) (A) (A) (A) (A) (A) (A) (A)
 The electronic state of the initial guess is 1-A.
 Requested convergence on RMS density matrix=1.00D-08 within 128 cycles.
 Requested convergence on MAX density matrix=1.00D-06.
 Requested convergence on             energy=1.00D-06.
 No special actions if energy rises.
 SCF Done:  E(RB3LYP) =  -1297.92703242     A.U. after   13 cycles
             Convg  =    0.6755D-08             -V/T =  2.0087
 Range of M.O.s used for correlation:     1   547
 NBasis=   547 NAE=    91 NBE=    91 NFC=     0 NFV=     0
 NROrb=    547 NOA=    91 NOB=    91 NVA=   456 NVB=   456

 **** Warning!!: The largest alpha MO coefficient is  0.75054915D+02

          Differentiating once with respect to electric field.
                with respect to dipole field.
          Electric field/nuclear overlap derivatives assumed to be zero.
          There are     3 degrees of freedom in the 1st order CPHF.  IDoFFX=0.
      3 vectors produced by pass  0 Test12= 1.38D-12 3.33D-08 XBig12= 1.21D+02 1.27D+00.
 AX will form     3 AO Fock derivatives at one time.
      3 vectors produced by pass  1 Test12= 1.38D-12 3.33D-08 XBig12= 2.24D+01 3.15D-01.
      3 vectors produced by pass  2 Test12= 1.38D-12 3.33D-08 XBig12= 9.81D+00 2.01D-01.
      3 vectors produced by pass  3 Test12= 1.38D-12 3.33D-08 XBig12= 8.80D-01 7.33D-02.
      3 vectors produced by pass  4 Test12= 1.38D-12 3.33D-08 XBig12= 2.49D-01 3.50D-02.
      3 vectors produced by pass  5 Test12= 1.38D-12 3.33D-08 XBig12= 5.52D-02 1.72D-02.
      3 vectors produced by pass  6 Test12= 1.38D-12 3.33D-08 XBig12= 1.61D-02 1.25D-02.
      3 vectors produced by pass  7 Test12= 1.38D-12 3.33D-08 XBig12= 2.23D-03 7.88D-03.
      3 vectors produced by pass  8 Test12= 1.38D-12 3.33D-08 XBig12= 3.99D-04 2.62D-03.
      3 vectors produced by pass  9 Test12= 1.38D-12 3.33D-08 XBig12= 1.11D-04 1.48D-03.
      3 vectors produced by pass 10 Test12= 1.38D-12 3.33D-08 XBig12= 2.71D-05 5.83D-04.
      3 vectors produced by pass 11 Test12= 1.38D-12 3.33D-08 XBig12= 7.18D-06 3.90D-04.
      3 vectors produced by pass 12 Test12= 1.38D-12 3.33D-08 XBig12= 7.95D-07 1.08D-04.
      3 vectors produced by pass 13 Test12= 1.38D-12 3.33D-08 XBig12= 3.19D-07 3.54D-05.
      3 vectors produced by pass 14 Test12= 1.38D-12 3.33D-08 XBig12= 4.30D-08 1.49D-05.
      3 vectors produced by pass 15 Test12= 1.38D-12 3.33D-08 XBig12= 1.23D-08 8.50D-06.
      3 vectors produced by pass 16 Test12= 1.38D-12 3.33D-08 XBig12= 1.09D-09 1.98D-06.
      3 vectors produced by pass 17 Test12= 1.38D-12 3.33D-08 XBig12= 6.74D-11 5.95D-07.
      3 vectors produced by pass 18 Test12= 1.38D-12 3.33D-08 XBig12= 1.80D-11 2.99D-07.
      3 vectors produced by pass 19 Test12= 1.38D-12 3.33D-08 XBig12= 1.80D-11 3.44D-07.
      3 vectors produced by pass 20 Test12= 1.38D-12 3.33D-08 XBig12= 1.13D-11 3.36D-07.
      1 vectors produced by pass 21 Test12= 1.38D-12 3.33D-08 XBig12= 3.10D-12 1.31D-07.
 Inverted reduced A of dimension    64 with in-core refinement.
 End of Minotr Frequency-dependent properties file   721 does not exist.
 End of Minotr Frequency-dependent properties file   722 does not exist.
 Symmetrizing basis deriv contribution to polar:
 IMax=3 JMax=2 DiffMx= 0.00D+00
 G2DrvN: will do    23 centers at a time, making    2 passes doing MaxLOS=2.
 Calling FoFCou, ICntrl=  3107 FMM=F I1Cent=   0 AccDes= 0.00D+00.
 Calling FoFCou, ICntrl=  3107 FMM=F I1Cent=   0 AccDes= 0.00D+00.
 FoFDir/FoFCou used for L=0 through L=2.
 End of G2Drv Frequency-dependent properties file   721 does not exist.
 End of G2Drv Frequency-dependent properties file   722 does not exist.
          IDoAtm=111111111111111111111111111111111111111111111
          Differentiating once with respect to electric field.
                with respect to dipole field.
          Differentiating once with respect to nuclear coordinates.
          There are   138 degrees of freedom in the 1st order CPHF.  IDoFFX=5.
 Will reuse    3 saved solutions.
    135 vectors produced by pass  0 Test12= 4.15D-14 1.00D-09 XBig12= 2.42D-01 1.12D-01.
 AX will form    68 AO Fock derivatives at one time.
    135 vectors produced by pass  1 Test12= 4.15D-14 1.00D-09 XBig12= 4.03D-02 1.47D-02.
    132 vectors produced by pass  2 Test12= 4.15D-14 1.00D-09 XBig12= 3.38D-04 2.19D-03.
    132 vectors produced by pass  3 Test12= 4.15D-14 1.00D-09 XBig12= 9.60D-07 9.39D-05.
    132 vectors produced by pass  4 Test12= 4.15D-14 1.00D-09 XBig12= 1.96D-09 3.60D-06.
    130 vectors produced by pass  5 Test12= 4.15D-14 1.00D-09 XBig12= 4.73D-12 1.49D-07.
     79 vectors produced by pass  6 Test12= 4.15D-14 1.00D-09 XBig12= 1.77D-13 3.17D-08.
 Inverted reduced A of dimension   875 with in-core refinement.
 Isotropic polarizability for W=    0.000000      188.42 Bohr**3.
 End of Minotr Frequency-dependent properties file   721 does not exist.
 End of Minotr Frequency-dependent properties file   722 does not exist.

 **********************************************************************

            Population analysis using the SCF density.

 **********************************************************************

 Orbital symmetries:
       Occupied  (A) (A) (A) (A) (A) (A) (A) (A) (A) (A) (A) (A)
                 (A) (A) (A) (A) (A) (A) (A) (A) (A) (A) (A) (A)
                 (A) (A) (A) (A) (A) (A) (A) (A) (A) (A) (A) (A)
                 (A) (A) (A) (A) (A) (A) (A) (A) (A) (A) (A) (A)
                 (A) (A) (A) (A) (A) (A) (A) (A) (A) (A) (A) (A)
                 (A) (A) (A) (A) (A) (A) (A) (A) (A) (A) (A) (A)
                 (A) (A) (A) (A) (A) (A) (A) (A) (A) (A) (A) (A)
                 (A) (A) (A) (A) (A) (A) (A)
       Virtual   (A) (A) (A) (A) (A) (A) (A) (A) (A) (A) (A) (A)
                 (A) (A) (A) (A) (A) (A) (A) (A) (A) (A) (A) (A)
                 (A) (A) (A) (A) (A) (A) (A) (A) (A) (A) (A) (A)
                 (A) (A) (A) (A) (A) (A) (A) (A) (A) (A) (A) (A)
                 (A) (A) (A) (A) (A) (A) (A) (A) (A) (A) (A) (A)
                 (A) (A) (A) (A) (A) (A) (A) (A) (A) (A) (A) (A)
                 (A) (A) (A) (A) (A) (A) (A) (A) (A) (A) (A) (A)
                 (A) (A) (A) (A) (A) (A) (A) (A) (A) (A) (A) (A)
                 (A) (A) (A) (A) (A) (A) (A) (A) (A) (A) (A) (A)
                 (A) (A) (A) (A) (A) (A) (A) (A) (A) (A) (A) (A)
                 (A) (A) (A) (A) (A) (A) (A) (A) (A) (A) (A) (A)
                 (A) (A) (A) (A) (A) (A) (A) (A) (A) (A) (A) (A)
                 (A) (A) (A) (A) (A) (A) (A) (A) (A) (A) (A) (A)
                 (A) (A) (A) (A) (A) (A) (A) (A) (A) (A) (A) (A)
                 (A) (A) (A) (A) (A) (A) (A) (A) (A) (A) (A) (A)
                 (A) (A) (A) (A) (A) (A) (A) (A) (A) (A) (A) (A)
                 (A) (A) (A) (A) (A) (A) (A) (A) (A) (A) (A) (A)
                 (A) (A) (A) (A) (A) (A) (A) (A) (A) (A) (A) (A)
                 (A) (A) (A) (A) (A) (A) (A) (A) (A) (A) (A) (A)
                 (A) (A) (A) (A) (A) (A) (A) (A) (A) (A) (A) (A)
                 (A) (A) (A) (A) (A) (A) (A) (A) (A) (A) (A) (A)
                 (A) (A) (A) (A) (A) (A) (A) (A) (A) (A) (A) (A)
                 (A) (A) (A) (A) (A) (A) (A) (A) (A) (A) (A) (A)
                 (A) (A) (A) (A) (A) (A) (A) (A) (A) (A) (A) (A)
                 (A) (A) (A) (A) (A) (A) (A) (A) (A) (A) (A) (A)
                 (A) (A) (A) (A) (A) (A) (A) (A) (A) (A) (A) (A)
                 (A) (A) (A) (A) (A) (A) (A) (A) (A) (A) (A) (A)
                 (A) (A) (A) (A) (A) (A) (A) (A) (A) (A) (A) (A)
                 (A) (A) (A) (A) (A) (A) (A) (A) (A) (A) (A) (A)
                 (A) (A) (A) (A) (A) (A) (A) (A) (A) (A) (A) (A)
                 (A) (A) (A) (A) (A) (A) (A) (A) (A) (A) (A) (A)
                 (A) (A) (A) (A) (A) (A) (A) (A) (A) (A) (A) (A)
                 (A) (A) (A) (A) (A) (A) (A) (A) (A) (A) (A) (A)
                 (A) (A) (A) (A) (A) (A) (A) (A) (A) (A) (A) (A)
                 (A) (A) (A) (A) (A) (A) (A) (A) (A) (A) (A) (A)
                 (A) (A) (A) (A) (A) (A) (A) (A) (A) (A) (A) (A)
                 (A) (A) (A) (A) (A) (A) (A) (A) (A) (A) (A) (A)
                 (A) (A) (A) (A) (A) (A) (A) (A) (A) (A) (A) (A)
 The electronic state is 1-A.
 Alpha  occ. eigenvalues --  -19.19450 -19.19281 -19.19257 -19.19111 -19.18621
 Alpha  occ. eigenvalues --  -19.17907 -19.17358 -19.17191 -19.16200 -19.14461
 Alpha  occ. eigenvalues --  -19.14378 -10.31744 -10.30983 -10.26647 -10.26458
 Alpha  occ. eigenvalues --  -10.25966 -10.25840 -10.25492 -10.25198 -10.25107
 Alpha  occ. eigenvalues --  -10.25068 -10.25021 -10.24469  -1.10595  -1.09640
 Alpha  occ. eigenvalues --   -1.05291  -1.04930  -1.04012  -1.03860  -1.02912
 Alpha  occ. eigenvalues --   -1.02695  -1.01981  -1.01017  -1.00451  -0.82280
 Alpha  occ. eigenvalues --   -0.80540  -0.79835  -0.78738  -0.72441  -0.70239
 Alpha  occ. eigenvalues --   -0.67536  -0.65370  -0.63840  -0.62765  -0.61541
 Alpha  occ. eigenvalues --   -0.60370  -0.56836  -0.55969  -0.55352  -0.55138
 Alpha  occ. eigenvalues --   -0.53932  -0.53691  -0.52962  -0.52339  -0.51603
 Alpha  occ. eigenvalues --   -0.50995  -0.50370  -0.49492  -0.48724  -0.46611
 Alpha  occ. eigenvalues --   -0.46467  -0.45421  -0.44468  -0.43918  -0.43304
 Alpha  occ. eigenvalues --   -0.42789  -0.42219  -0.41866  -0.40170  -0.39453
 Alpha  occ. eigenvalues --   -0.38899  -0.38240  -0.37131  -0.35891  -0.35659
 Alpha  occ. eigenvalues --   -0.35472  -0.35076  -0.34132  -0.33915  -0.33411
 Alpha  occ. eigenvalues --   -0.32677  -0.31519  -0.31347  -0.30785  -0.30191
 Alpha  occ. eigenvalues --   -0.29329  -0.28947  -0.28708  -0.27496  -0.26880
 Alpha  occ. eigenvalues --   -0.26341
 Alpha virt. eigenvalues --   -0.01993  -0.01796  -0.01717  -0.00121   0.00216
 Alpha virt. eigenvalues --    0.00915   0.01994   0.02085   0.02749   0.03174
 Alpha virt. eigenvalues --    0.03649   0.04054   0.04398   0.05273   0.05574
 Alpha virt. eigenvalues --    0.06132   0.06591   0.07050   0.07714   0.08009
 Alpha virt. eigenvalues --    0.08461   0.08588   0.08969   0.09469   0.10036
 Alpha virt. eigenvalues --    0.10555   0.10979   0.11128   0.11869   0.12063
 Alpha virt. eigenvalues --    0.12519   0.12742   0.12965   0.13272   0.13498
 Alpha virt. eigenvalues --    0.13900   0.14117   0.14358   0.14718   0.15097
 Alpha virt. eigenvalues --    0.15875   0.16151   0.16463   0.16848   0.17226
 Alpha virt. eigenvalues --    0.17315   0.17585   0.17945   0.18038   0.18271
 Alpha virt. eigenvalues --    0.18903   0.19132   0.19394   0.19758   0.20012
 Alpha virt. eigenvalues --    0.20294   0.20662   0.21310   0.21568   0.21879
 Alpha virt. eigenvalues --    0.22326   0.22536   0.22838   0.23033   0.23107
 Alpha virt. eigenvalues --    0.23824   0.24162   0.24306   0.24437   0.24578
 Alpha virt. eigenvalues --    0.24909   0.25309   0.25559   0.25806   0.26372
 Alpha virt. eigenvalues --    0.26504   0.26682   0.26894   0.27188   0.27226
 Alpha virt. eigenvalues --    0.27613   0.27790   0.28228   0.28382   0.28498
 Alpha virt. eigenvalues --    0.29090   0.29356   0.29594   0.29915   0.30888
 Alpha virt. eigenvalues --    0.31116   0.31284   0.31825   0.31963   0.32494
 Alpha virt. eigenvalues --    0.32872   0.33183   0.33274   0.33492   0.33914
 Alpha virt. eigenvalues --    0.34301   0.34631   0.34910   0.35475   0.35553
 Alpha virt. eigenvalues --    0.36024   0.36585   0.36928   0.37306   0.37683
 Alpha virt. eigenvalues --    0.38048   0.38187   0.38475   0.39000   0.39089
 Alpha virt. eigenvalues --    0.39502   0.39909   0.40197   0.40921   0.41581
 Alpha virt. eigenvalues --    0.41736   0.42314   0.43022   0.43667   0.43795
 Alpha virt. eigenvalues --    0.44338   0.44864   0.45731   0.45812   0.47018
 Alpha virt. eigenvalues --    0.47362   0.47963   0.48707   0.49358   0.50136
 Alpha virt. eigenvalues --    0.51212   0.51783   0.55437   0.62585   0.63398
 Alpha virt. eigenvalues --    0.64778   0.65322   0.67541   0.68269   0.69623
 Alpha virt. eigenvalues --    0.70938   0.71963   0.72390   0.72623   0.73702
 Alpha virt. eigenvalues --    0.74816   0.75864   0.76586   0.77117   0.78495
 Alpha virt. eigenvalues --    0.79925   0.80009   0.80978   0.82888   0.83989
 Alpha virt. eigenvalues --    0.85301   0.86226   0.87040   0.87864   0.89266
 Alpha virt. eigenvalues --    0.89672   0.91406   0.92583   0.93090   0.94843
 Alpha virt. eigenvalues --    0.95864   0.96357   0.98094   0.99072   1.00929
 Alpha virt. eigenvalues --    1.01611   1.01713   1.01951   1.03912   1.04365
 Alpha virt. eigenvalues --    1.04685   1.05426   1.06251   1.06919   1.07448
 Alpha virt. eigenvalues --    1.07860   1.08662   1.09433   1.09826   1.11121
 Alpha virt. eigenvalues --    1.12155   1.12720   1.13313   1.13577   1.16117
 Alpha virt. eigenvalues --    1.16400   1.17386   1.18590   1.19730   1.20424
 Alpha virt. eigenvalues --    1.21470   1.23231   1.23790   1.24288   1.25086
 Alpha virt. eigenvalues --    1.25500   1.26528   1.27350   1.27447   1.28812
 Alpha virt. eigenvalues --    1.29318   1.29722   1.30014   1.30929   1.31350
 Alpha virt. eigenvalues --    1.31685   1.32714   1.33762   1.33888   1.33970
 Alpha virt. eigenvalues --    1.34847   1.35311   1.36285   1.36381   1.38093
 Alpha virt. eigenvalues --    1.38766   1.39263   1.41438   1.42527   1.43723
 Alpha virt. eigenvalues --    1.44829   1.45310   1.46136   1.46799   1.47625
 Alpha virt. eigenvalues --    1.49227   1.49832   1.51387   1.52056   1.52904
 Alpha virt. eigenvalues --    1.54458   1.55493   1.56250   1.56888   1.57762
 Alpha virt. eigenvalues --    1.58582   1.58890   1.59635   1.60911   1.61245
 Alpha virt. eigenvalues --    1.62099   1.62418   1.63156   1.64541   1.65444
 Alpha virt. eigenvalues --    1.66028   1.66785   1.67621   1.68287   1.69997
 Alpha virt. eigenvalues --    1.70782   1.70899   1.72049   1.72603   1.73845
 Alpha virt. eigenvalues --    1.74666   1.75042   1.75265   1.76110   1.76956
 Alpha virt. eigenvalues --    1.77149   1.79823   1.80303   1.81198   1.82134
 Alpha virt. eigenvalues --    1.82642   1.83319   1.83898   1.85484   1.87097
 Alpha virt. eigenvalues --    1.87817   1.88612   1.88971   1.90175   1.91595
 Alpha virt. eigenvalues --    1.92070   1.93216   1.93915   1.94427   1.95116
 Alpha virt. eigenvalues --    1.95917   1.96828   1.97481   1.98074   1.99351
 Alpha virt. eigenvalues --    1.99865   2.00318   2.00616   2.00646   2.01923
 Alpha virt. eigenvalues --    2.03012   2.03617   2.03997   2.04897   2.05908
 Alpha virt. eigenvalues --    2.07564   2.07882   2.09118   2.10400   2.11144
 Alpha virt. eigenvalues --    2.12250   2.12678   2.13392   2.14691   2.15306
 Alpha virt. eigenvalues --    2.17362   2.17559   2.18420   2.19926   2.20587
 Alpha virt. eigenvalues --    2.21538   2.22887   2.24279   2.26355   2.28001
 Alpha virt. eigenvalues --    2.29924   2.31138   2.32714   2.33797   2.34293
 Alpha virt. eigenvalues --    2.35235   2.36748   2.37037   2.38653   2.39429
 Alpha virt. eigenvalues --    2.41113   2.42201   2.42405   2.43474   2.44643
 Alpha virt. eigenvalues --    2.45899   2.46552   2.47296   2.47816   2.49630
 Alpha virt. eigenvalues --    2.50696   2.51597   2.52768   2.53903   2.54475
 Alpha virt. eigenvalues --    2.55837   2.56795   2.57375   2.58356   2.59720
 Alpha virt. eigenvalues --    2.60745   2.61278   2.62487   2.63216   2.64194
 Alpha virt. eigenvalues --    2.65230   2.66314   2.67452   2.68257   2.69144
 Alpha virt. eigenvalues --    2.71053   2.71534   2.72289   2.74610   2.74933
 Alpha virt. eigenvalues --    2.75589   2.77226   2.77879   2.78423   2.78894
 Alpha virt. eigenvalues --    2.81823   2.82150   2.83243   2.84032   2.86135
 Alpha virt. eigenvalues --    2.86610   2.86994   2.88329   2.88969   2.89481
 Alpha virt. eigenvalues --    2.90540   2.91501   2.92891   2.93151   2.94646
 Alpha virt. eigenvalues --    2.94765   2.95824   2.97583   2.98664   2.99780
 Alpha virt. eigenvalues --    3.00606   3.02479   3.03352   3.04711   3.05502
 Alpha virt. eigenvalues --    3.08146   3.08284   3.09278   3.10270   3.14063
 Alpha virt. eigenvalues --    3.16585   3.17694   3.21445   3.22529   3.27702
 Alpha virt. eigenvalues --    3.30684   3.36196   3.37941   3.39272   3.40809
 Alpha virt. eigenvalues --    3.42488   3.44170   3.46327   3.46972   3.48644
 Alpha virt. eigenvalues --    3.49430   3.50755   3.51832   3.52643   3.53919
 Alpha virt. eigenvalues --    3.55945   3.57365   3.59556   3.62143   3.65030
 Alpha virt. eigenvalues --    3.65827   3.69661   3.75114   4.29872   4.31674
 Alpha virt. eigenvalues --    4.34604   4.35503   4.41994   4.43196   4.44953
 Alpha virt. eigenvalues --    4.46309   4.49850   4.51739   4.52625   4.54248
 Alpha virt. eigenvalues --    4.55790   4.58286   4.60798   4.64730   4.69758
 Alpha virt. eigenvalues --    4.76849   4.81889   4.83389   4.83882   4.88890
 Alpha virt. eigenvalues --    4.95863
          Condensed to atoms (all electrons):
              1          2          3          4          5          6
     1  O    8.272672   0.331491  -0.172023  -0.000115   0.023943   0.042252
     2  C    0.331491   8.134893  -0.511010  -0.142648  -0.117326  -1.951762
     3  C   -0.172023  -0.511010   9.174926   0.362213   0.058159  -0.847945
     4  O   -0.000115  -0.142648   0.362213   8.177154   0.211474  -0.144666
     5  H    0.023943  -0.117326   0.058159   0.211474   0.411341   0.048315
     6  C    0.042252  -1.951762  -0.847945  -0.144666   0.048315  11.940026
     7  O   -0.000658   0.018134  -0.205420   0.007783  -0.000812   0.402601
     8  H    0.000020  -0.009463   0.042947  -0.000514   0.000009   0.017796
     9  C    0.013720  -0.172070  -0.237287   0.003244  -0.003573   0.661333
    10  O   -0.004018   0.037034   0.001489   0.000251  -0.000015  -0.006419
    11  H    0.001775  -0.013402   0.000553  -0.000001   0.000000   0.000453
    12  C   -0.216244  -1.136462  -0.876711   0.030689   0.017344   0.550555
    13  O    0.004835  -0.076321   0.081463  -0.000739  -0.000027  -0.128833
    14  C    0.041851   0.950362  -0.154606   0.015344  -0.002515  -3.663576
    15  O    0.000424  -0.016355  -0.017079  -0.000005   0.000052   0.151971
    16  C    0.002726   0.100355  -0.249156  -0.000410   0.000950  -0.582330
    17  C    0.001413  -0.008273  -0.151135   0.001250   0.000044   0.142298
    18  O    0.000026   0.003418   0.004186  -0.000020   0.000000  -0.002066
    19  H   -0.000027  -0.001933   0.000621  -0.000001   0.000000   0.011140
    20  C    0.000010   0.010855  -0.000615  -0.000024   0.000000   0.051789
    21  O    0.000000   0.000034   0.000019   0.000000   0.000000  -0.000400
    22  H    0.000000   0.000000   0.000000   0.000000   0.000000  -0.000032
    23  C    0.000150   0.003463  -0.021625   0.000208   0.000017  -0.196317
    24  O    0.000003  -0.000483  -0.017635  -0.000160  -0.000003  -0.027178
    25  H    0.000000   0.000061   0.002484   0.000005   0.000000   0.001214
    26  C   -0.000366   0.033488  -0.085791   0.000373  -0.000037  -0.284867
    27  O    0.000000  -0.000191   0.000403   0.000001   0.000000   0.000889
    28  C    0.000002  -0.001158  -0.000213   0.000002   0.000000   0.001107
    29  O    0.000000   0.000004   0.000008   0.000000   0.000000  -0.000428
    30  H    0.238369   0.061111  -0.005178  -0.001492  -0.001550  -0.001393
    31  H    0.000000   0.000000   0.000000   0.000000   0.000000  -0.000002
    32  H    0.000000  -0.000002   0.000015   0.000000   0.000000   0.000150
    33  H    0.000000  -0.000008   0.000093   0.000000   0.000000   0.000585
    34  H    0.000000  -0.001350   0.001437   0.000000   0.000000   0.006644
    35  H   -0.000002  -0.001527   0.003593   0.000000   0.000000   0.023025
    36  H    0.000000  -0.000091   0.000516   0.000000   0.000000   0.001539
    37  H    0.000000  -0.000024  -0.000077   0.000000   0.000000  -0.000767
    38  H    0.000000   0.000074  -0.000359   0.000001   0.000000  -0.003525
    39  H    0.000038   0.040334  -0.059049  -0.000105   0.000004  -0.106169
    40  H   -0.000604   0.101205  -0.240474   0.004164  -0.000135   0.253582
    41  H    0.000765   0.027329   0.221685  -0.041957  -0.008625  -0.180860
    42  H   -0.043308   0.399031  -0.031156   0.001614  -0.000111  -0.056062
    43  H    0.006718   0.006029  -0.027689  -0.000201   0.000017  -0.033870
    44  H    0.000617  -0.003950  -0.008493   0.000035   0.000000   0.002770
    45  H    0.001300  -0.016819   0.001436  -0.000034   0.000000   0.016513
              7          8          9         10         11         12
     1  O   -0.000658   0.000020   0.013720  -0.004018   0.001775  -0.216244
     2  C    0.018134  -0.009463  -0.172070   0.037034  -0.013402  -1.136462
     3  C   -0.205420   0.042947  -0.237287   0.001489   0.000553  -0.876711
     4  O    0.007783  -0.000514   0.003244   0.000251  -0.000001   0.030689
     5  H   -0.000812   0.000009  -0.003573  -0.000015   0.000000   0.017344
     6  C    0.402601   0.017796   0.661333  -0.006419   0.000453   0.550555
     7  O    8.249785   0.202650  -0.000743   0.000011   0.000000   0.029300
     8  H    0.202650   0.351056   0.000065   0.000000   0.000000  -0.003227
     9  C   -0.000743   0.000065   8.459975   0.124250   0.012618  -2.982382
    10  O    0.000011   0.000000   0.124250   8.338416   0.195412  -0.045020
    11  H    0.000000   0.000000   0.012618   0.195412   0.437293   0.023059
    12  C    0.029300  -0.003227  -2.982382  -0.045020   0.023059  11.454329
    13  O    0.009628   0.000721   0.092181  -0.002580  -0.000047  -0.217416
    14  C   -0.113381  -0.051383  -0.697238   0.006536  -0.003283  -0.697240
    15  O   -0.010531   0.017814  -0.007622   0.000000   0.000006   0.006075
    16  C    0.020170   0.012922  -0.266847  -0.001998  -0.000103   0.270211
    17  C   -0.002223  -0.000303   0.012137   0.000190  -0.000040  -0.287847
    18  O    0.000117  -0.000016   0.000292  -0.000070  -0.000002  -0.011444
    19  H   -0.000066  -0.000016  -0.006715  -0.000003  -0.000002   0.013611
    20  C    0.000852   0.000977   0.017559   0.000175   0.000006  -0.047626
    21  O   -0.000003   0.000000   0.000110   0.000000   0.000000   0.000024
    22  H    0.000000   0.000000  -0.000003   0.000000   0.000000   0.000010
    23  C    0.018272   0.018070  -0.004933  -0.000021  -0.000001  -0.014300
    24  O   -0.031161   0.002996   0.000173   0.000000   0.000000   0.005548
    25  H    0.002015  -0.001942  -0.000023   0.000000   0.000000  -0.000560
    26  C   -0.027030  -0.028004   0.001915   0.000004   0.000002   0.110455
    27  O    0.000362   0.000043  -0.000083   0.000000   0.000000  -0.000305
    28  C    0.000408  -0.000283  -0.003145  -0.000007   0.000000   0.004135
    29  O    0.000000  -0.000001  -0.000023   0.000000   0.000000   0.000010
    30  H   -0.000014   0.000000  -0.003123  -0.001108  -0.000053  -0.029537
    31  H    0.000000   0.000000   0.000000   0.000000   0.000000  -0.000002
    32  H    0.000000   0.000000   0.000001   0.000000   0.000000   0.000005
    33  H    0.000000   0.000000  -0.000010   0.000000   0.000000   0.000236
    34  H    0.000003   0.000002   0.000356   0.000000   0.000000   0.001208
    35  H   -0.000514   0.000156   0.000399   0.000001   0.000000   0.001719
    36  H    0.000020   0.000013   0.000047   0.000000   0.000000   0.000395
    37  H   -0.000522   0.000243  -0.000002   0.000000   0.000000   0.000032
    38  H    0.001668   0.000328   0.000025   0.000000   0.000000   0.000420
    39  H    0.003310  -0.001458   0.007864   0.000045   0.000000  -0.011445
    40  H   -0.048108  -0.007610   0.013842   0.000016   0.000000   0.006988
    41  H    0.005691  -0.000130   0.024106   0.000081   0.000001   0.016620
    42  H    0.000065   0.000004  -0.003974  -0.000521   0.000005  -0.113941
    43  H    0.000071   0.000003   0.046041   0.005284  -0.000083   0.166808
    44  H   -0.000010   0.000000   0.426632  -0.040258  -0.015382  -0.046458
    45  H    0.000001   0.000000   0.686259  -0.073772   0.000432  -0.333866
             13         14         15         16         17         18
     1  O    0.004835   0.041851   0.000424   0.002726   0.001413   0.000026
     2  C   -0.076321   0.950362  -0.016355   0.100355  -0.008273   0.003418
     3  C    0.081463  -0.154606  -0.017079  -0.249156  -0.151135   0.004186
     4  O   -0.000739   0.015344  -0.000005  -0.000410   0.001250  -0.000020
     5  H   -0.000027  -0.002515   0.000052   0.000950   0.000044   0.000000
     6  C   -0.128833  -3.663576   0.151971  -0.582330   0.142298  -0.002066
     7  O    0.009628  -0.113381  -0.010531   0.020170  -0.002223   0.000117
     8  H    0.000721  -0.051383   0.017814   0.012922  -0.000303  -0.000016
     9  C    0.092181  -0.697238  -0.007622  -0.266847   0.012137   0.000292
    10  O   -0.002580   0.006536   0.000000  -0.001998   0.000190  -0.000070
    11  H   -0.000047  -0.003283   0.000006  -0.000103  -0.000040  -0.000002
    12  C   -0.217416  -0.697240   0.006075   0.270211  -0.287847  -0.011444
    13  O    8.578506   0.194765  -0.062747   0.001603  -0.040081   0.021412
    14  C    0.194765  11.462940   0.003241  -0.351191  -1.276418   0.028387
    15  O   -0.062747   0.003241   8.294669   0.047771   0.145085  -0.025043
    16  C    0.001603  -0.351191   0.047771  15.641439  -5.150557   0.059593
    17  C   -0.040081  -1.276418   0.145085  -5.150557  12.300744   0.099398
    18  O    0.021412   0.028387  -0.025043   0.059593   0.099398   8.282825
    19  H    0.020388  -0.014363   0.020299  -0.072565   0.061786   0.176232
    20  C    0.000556  -0.047778   0.030355  -0.508375  -0.471770  -0.085571
    21  O    0.000103  -0.002424  -0.000101   0.044321  -0.168969   0.010119
    22  H   -0.000001  -0.000698   0.000016  -0.031880   0.048854  -0.000788
    23  C    0.018971  -0.237114  -0.022256  -0.005367  -0.011268   0.004207
    24  O    0.000014   0.141145  -0.020811  -0.043907  -0.018673   0.000431
    25  H    0.000062  -0.012671   0.001629   0.002129  -0.000267   0.000001
    26  C   -0.021319  -0.696701  -0.079379  -4.408275   0.317274   0.038325
    27  O    0.000339  -0.027656   0.011696  -0.180978   0.095171  -0.002039
    28  C    0.001053   0.011482   0.010687   0.529187   0.222098  -0.009747
    29  O    0.000010  -0.003516   0.000253   0.020109   0.022057  -0.001536
    30  H   -0.000850  -0.002498  -0.000018   0.000123  -0.000066  -0.000001
    31  H    0.000000  -0.000058   0.000002  -0.013455   0.014277  -0.000038
    32  H    0.000012   0.004985   0.000016   0.138617  -0.059318  -0.000642
    33  H    0.000179   0.012942  -0.001407   0.137635  -0.192968  -0.001572
    34  H    0.000598   0.101574  -0.014405   0.199091   0.184417  -0.043971
    35  H    0.001653   0.064271  -0.078268   0.435547  -0.038944  -0.001001
    36  H   -0.000039   0.042859   0.005886   0.121419  -0.054626  -0.000469
    37  H    0.000000   0.005811   0.000293   0.002819  -0.005729   0.000036
    38  H    0.000050   0.005345   0.001097   0.027030   0.008086  -0.000097
    39  H   -0.063076   0.370561  -0.070364   0.050614   0.041395  -0.000174
    40  H    0.018397   0.091603  -0.015547   0.023203   0.004931   0.000166
    41  H    0.007809   0.121486  -0.000789   0.005889   0.001950   0.000061
    42  H    0.011500   0.082588  -0.000507  -0.001149   0.002339   0.000058
    43  H   -0.042499   0.106497  -0.001147  -0.005219   0.010146   0.000479
    44  H   -0.000990  -0.001562  -0.000128   0.005208   0.000259  -0.001005
    45  H    0.009127  -0.001315  -0.000209  -0.008430   0.003249   0.000243
             19         20         21         22         23         24
     1  O   -0.000027   0.000010   0.000000   0.000000   0.000150   0.000003
     2  C   -0.001933   0.010855   0.000034   0.000000   0.003463  -0.000483
     3  C    0.000621  -0.000615   0.000019   0.000000  -0.021625  -0.017635
     4  O   -0.000001  -0.000024   0.000000   0.000000   0.000208  -0.000160
     5  H    0.000000   0.000000   0.000000   0.000000   0.000017  -0.000003
     6  C    0.011140   0.051789  -0.000400  -0.000032  -0.196317  -0.027178
     7  O   -0.000066   0.000852  -0.000003   0.000000   0.018272  -0.031161
     8  H   -0.000016   0.000977   0.000000   0.000000   0.018070   0.002996
     9  C   -0.006715   0.017559   0.000110  -0.000003  -0.004933   0.000173
    10  O   -0.000003   0.000175   0.000000   0.000000  -0.000021   0.000000
    11  H   -0.000002   0.000006   0.000000   0.000000  -0.000001   0.000000
    12  C    0.013611  -0.047626   0.000024   0.000010  -0.014300   0.005548
    13  O    0.020388   0.000556   0.000103  -0.000001   0.018971   0.000014
    14  C   -0.014363  -0.047778  -0.002424  -0.000698  -0.237114   0.141145
    15  O    0.020299   0.030355  -0.000101   0.000016  -0.022256  -0.020811
    16  C   -0.072565  -0.508375   0.044321  -0.031880  -0.005367  -0.043907
    17  C    0.061786  -0.471770  -0.168969   0.048854  -0.011268  -0.018673
    18  O    0.176232  -0.085571   0.010119  -0.000788   0.004207   0.000431
    19  H    0.372450  -0.001308  -0.000569   0.000014  -0.005753  -0.000067
    20  C   -0.001308   7.942956   0.269410  -0.031253   0.105775  -0.005969
    21  O   -0.000569   0.269410   8.213112   0.205844   0.000174   0.000041
    22  H    0.000014  -0.031253   0.205844   0.429406  -0.000180   0.000000
    23  C   -0.005753   0.105775   0.000174  -0.000180   6.451855  -0.064589
    24  O   -0.000067  -0.005969   0.000041   0.000000  -0.064589   8.564902
    25  H    0.000000   0.000258   0.000000   0.000000  -0.003642   0.210684
    26  C    0.019155  -0.243256   0.029724   0.003165  -0.971599   0.066257
    27  O    0.000320  -0.192727   0.004050   0.000607  -0.085811   0.000983
    28  C   -0.000569  -0.976131  -0.062912   0.016796  -0.083923   0.007787
    29  O    0.000081  -0.169171  -0.003951   0.021370  -0.004440  -0.000041
    30  H    0.000000   0.000000   0.000000   0.000000   0.000002   0.000000
    31  H    0.000000  -0.018239  -0.001284  -0.002368   0.001331  -0.000002
    32  H    0.000008  -0.076671   0.002125  -0.000576  -0.005148   0.000096
    33  H    0.000202   0.429714  -0.042841  -0.008149   0.008062   0.000030
    34  H   -0.002845  -0.065413  -0.000839  -0.000125   0.010019   0.000242
    35  H   -0.003329   0.023306  -0.000509   0.000006   0.033784   0.000366
    36  H   -0.000009  -0.003756   0.000025   0.000003  -0.000605   0.008077
    37  H    0.000000   0.000799  -0.000004   0.000000   0.400773  -0.041810
    38  H    0.000001   0.001526  -0.000011   0.000000   0.591693  -0.071281
    39  H   -0.001033   0.008546   0.000004   0.000000   0.010696   0.000944
    40  H   -0.000046   0.000370   0.000000   0.000000   0.005551   0.001518
    41  H   -0.000003   0.000075   0.000000   0.000000   0.000667   0.000099
    42  H   -0.000016   0.000117   0.000000   0.000000   0.000129   0.000011
    43  H    0.000014   0.001165   0.000000   0.000000   0.000335   0.000008
    44  H    0.001007  -0.001427  -0.000001   0.000000   0.000033   0.000000
    45  H   -0.000117   0.000503   0.000000   0.000000  -0.000006   0.000000
             25         26         27         28         29         30
     1  O    0.000000  -0.000366   0.000000   0.000002   0.000000   0.238369
     2  C    0.000061   0.033488  -0.000191  -0.001158   0.000004   0.061111
     3  C    0.002484  -0.085791   0.000403  -0.000213   0.000008  -0.005178
     4  O    0.000005   0.000373   0.000001   0.000002   0.000000  -0.001492
     5  H    0.000000  -0.000037   0.000000   0.000000   0.000000  -0.001550
     6  C    0.001214  -0.284867   0.000889   0.001107  -0.000428  -0.001393
     7  O    0.002015  -0.027030   0.000362   0.000408   0.000000  -0.000014
     8  H   -0.001942  -0.028004   0.000043  -0.000283  -0.000001   0.000000
     9  C   -0.000023   0.001915  -0.000083  -0.003145  -0.000023  -0.003123
    10  O    0.000000   0.000004   0.000000  -0.000007   0.000000  -0.001108
    11  H    0.000000   0.000002   0.000000   0.000000   0.000000  -0.000053
    12  C   -0.000560   0.110455  -0.000305   0.004135   0.000010  -0.029537
    13  O    0.000062  -0.021319   0.000339   0.001053   0.000010  -0.000850
    14  C   -0.012671  -0.696701  -0.027656   0.011482  -0.003516  -0.002498
    15  O    0.001629  -0.079379   0.011696   0.010687   0.000253  -0.000018
    16  C    0.002129  -4.408275  -0.180978   0.529187   0.020109   0.000123
    17  C   -0.000267   0.317274   0.095171   0.222098   0.022057  -0.000066
    18  O    0.000001   0.038325  -0.002039  -0.009747  -0.001536  -0.000001
    19  H    0.000000   0.019155   0.000320  -0.000569   0.000081   0.000000
    20  C    0.000258  -0.243256  -0.192727  -0.976131  -0.169171   0.000000
    21  O    0.000000   0.029724   0.004050  -0.062912  -0.003951   0.000000
    22  H    0.000000   0.003165   0.000607   0.016796   0.021370   0.000000
    23  C   -0.003642  -0.971599  -0.085811  -0.083923  -0.004440   0.000002
    24  O    0.210684   0.066257   0.000983   0.007787  -0.000041   0.000000
    25  H    0.381600   0.018302  -0.000143  -0.000842   0.000000   0.000000
    26  C    0.018302  13.656816   0.283658  -0.748673  -0.080105  -0.000004
    27  O   -0.000143   0.283658   8.441397   0.131550  -0.108037   0.000000
    28  C   -0.000842  -0.748673   0.131550   5.925139   0.434074   0.000000
    29  O    0.000000  -0.080105  -0.108037   0.434074   8.266763   0.000000
    30  H    0.000000  -0.000004   0.000000   0.000000   0.000000   0.386333
    31  H    0.000000   0.011817   0.000575   0.012248   0.232958   0.000000
    32  H    0.000000  -0.087302  -0.056656   0.431225  -0.051698   0.000000
    33  H    0.000000  -0.023623   0.001376  -0.058772  -0.007712   0.000000
    34  H    0.000000  -0.137255   0.000087  -0.013367  -0.001237   0.000000
    35  H   -0.000012  -0.278035   0.004358   0.010618  -0.001154   0.000000
    36  H   -0.000173   0.121191  -0.038433   0.036239  -0.001707   0.000000
    37  H   -0.008594  -0.019666  -0.005945  -0.000480  -0.000235   0.000000
    38  H   -0.000080  -0.281041   0.010140   0.006194  -0.000212   0.000000
    39  H    0.000020  -0.010765   0.000027  -0.000756   0.000001   0.000002
    40  H    0.000005  -0.003181   0.000001  -0.000046   0.000000   0.000024
    41  H    0.000000   0.000228   0.000000  -0.000013   0.000000  -0.000005
    42  H    0.000000  -0.000186   0.000000  -0.000010   0.000000  -0.011554
    43  H    0.000000  -0.001076  -0.000001  -0.000094   0.000000  -0.000089
    44  H    0.000000   0.000054   0.000000   0.000087   0.000000  -0.000026
    45  H    0.000000  -0.000221   0.000000  -0.000028   0.000000   0.000023
             31         32         33         34         35         36
     1  O    0.000000   0.000000   0.000000   0.000000  -0.000002   0.000000
     2  C    0.000000  -0.000002  -0.000008  -0.001350  -0.001527  -0.000091
     3  C    0.000000   0.000015   0.000093   0.001437   0.003593   0.000516
     4  O    0.000000   0.000000   0.000000   0.000000   0.000000   0.000000
     5  H    0.000000   0.000000   0.000000   0.000000   0.000000   0.000000
     6  C   -0.000002   0.000150   0.000585   0.006644   0.023025   0.001539
     7  O    0.000000   0.000000   0.000000   0.000003  -0.000514   0.000020
     8  H    0.000000   0.000000   0.000000   0.000002   0.000156   0.000013
     9  C    0.000000   0.000001  -0.000010   0.000356   0.000399   0.000047
    10  O    0.000000   0.000000   0.000000   0.000000   0.000001   0.000000
    11  H    0.000000   0.000000   0.000000   0.000000   0.000000   0.000000
    12  C   -0.000002   0.000005   0.000236   0.001208   0.001719   0.000395
    13  O    0.000000   0.000012   0.000179   0.000598   0.001653  -0.000039
    14  C   -0.000058   0.004985   0.012942   0.101574   0.064271   0.042859
    15  O    0.000002   0.000016  -0.001407  -0.014405  -0.078268   0.005886
    16  C   -0.013455   0.138617   0.137635   0.199091   0.435547   0.121419
    17  C    0.014277  -0.059318  -0.192968   0.184417  -0.038944  -0.054626
    18  O   -0.000038  -0.000642  -0.001572  -0.043971  -0.001001  -0.000469
    19  H    0.000000   0.000008   0.000202  -0.002845  -0.003329  -0.000009
    20  C   -0.018239  -0.076671   0.429714  -0.065413   0.023306  -0.003756
    21  O   -0.001284   0.002125  -0.042841  -0.000839  -0.000509   0.000025
    22  H   -0.002368  -0.000576  -0.008149  -0.000125   0.000006   0.000003
    23  C    0.001331  -0.005148   0.008062   0.010019   0.033784  -0.000605
    24  O   -0.000002   0.000096   0.000030   0.000242   0.000366   0.008077
    25  H    0.000000   0.000000   0.000000   0.000000  -0.000012  -0.000173
    26  C    0.011817  -0.087302  -0.023623  -0.137255  -0.278035   0.121191
    27  O    0.000575  -0.056656   0.001376   0.000087   0.004358  -0.038433
    28  C    0.012248   0.431225  -0.058772  -0.013367   0.010618   0.036239
    29  O    0.232958  -0.051698  -0.007712  -0.001237  -0.001154  -0.001707
    30  H    0.000000   0.000000   0.000000   0.000000   0.000000   0.000000
    31  H    0.410775  -0.007747   0.000336   0.000017   0.000003   0.000029
    32  H   -0.007747   0.621513   0.005195   0.001622   0.000063   0.005196
    33  H    0.000336   0.005195   0.570851   0.006017   0.002428   0.000001
    34  H    0.000017   0.001622   0.006017   0.615550   0.007579   0.002151
    35  H    0.000003   0.000063   0.002428   0.007579   0.643027   0.007102
    36  H    0.000029   0.005196   0.000001   0.002151   0.007102   0.606570
    37  H   -0.000001  -0.000018   0.000001   0.000007   0.000094  -0.007390
    38  H    0.000000  -0.000008  -0.000010   0.000003   0.006054   0.006051
    39  H    0.000000   0.000000  -0.000017  -0.000062   0.013763  -0.000004
    40  H    0.000000   0.000000   0.000000  -0.000003   0.000017  -0.000003
    41  H    0.000000   0.000000   0.000000   0.000000  -0.000002   0.000000
    42  H    0.000000   0.000000   0.000000   0.000000   0.000000   0.000000
    43  H    0.000000   0.000000   0.000000  -0.000001  -0.000009   0.000000
    44  H    0.000000   0.000000   0.000000   0.000000   0.000000   0.000000
    45  H    0.000000   0.000000   0.000000   0.000000   0.000000   0.000000
             37         38         39         40         41         42
     1  O    0.000000   0.000000   0.000038  -0.000604   0.000765  -0.043308
     2  C   -0.000024   0.000074   0.040334   0.101205   0.027329   0.399031
     3  C   -0.000077  -0.000359  -0.059049  -0.240474   0.221685  -0.031156
     4  O    0.000000   0.000001  -0.000105   0.004164  -0.041957   0.001614
     5  H    0.000000   0.000000   0.000004  -0.000135  -0.008625  -0.000111
     6  C   -0.000767  -0.003525  -0.106169   0.253582  -0.180860  -0.056062
     7  O   -0.000522   0.001668   0.003310  -0.048108   0.005691   0.000065
     8  H    0.000243   0.000328  -0.001458  -0.007610  -0.000130   0.000004
     9  C   -0.000002   0.000025   0.007864   0.013842   0.024106  -0.003974
    10  O    0.000000   0.000000   0.000045   0.000016   0.000081  -0.000521
    11  H    0.000000   0.000000   0.000000   0.000000   0.000001   0.000005
    12  C    0.000032   0.000420  -0.011445   0.006988   0.016620  -0.113941
    13  O    0.000000   0.000050  -0.063076   0.018397   0.007809   0.011500
    14  C    0.005811   0.005345   0.370561   0.091603   0.121486   0.082588
    15  O    0.000293   0.001097  -0.070364  -0.015547  -0.000789  -0.000507
    16  C    0.002819   0.027030   0.050614   0.023203   0.005889  -0.001149
    17  C   -0.005729   0.008086   0.041395   0.004931   0.001950   0.002339
    18  O    0.000036  -0.000097  -0.000174   0.000166   0.000061   0.000058
    19  H    0.000000   0.000001  -0.001033  -0.000046  -0.000003  -0.000016
    20  C    0.000799   0.001526   0.008546   0.000370   0.000075   0.000117
    21  O   -0.000004  -0.000011   0.000004   0.000000   0.000000   0.000000
    22  H    0.000000   0.000000   0.000000   0.000000   0.000000   0.000000
    23  C    0.400773   0.591693   0.010696   0.005551   0.000667   0.000129
    24  O   -0.041810  -0.071281   0.000944   0.001518   0.000099   0.000011
    25  H   -0.008594  -0.000080   0.000020   0.000005   0.000000   0.000000
    26  C   -0.019666  -0.281041  -0.010765  -0.003181   0.000228  -0.000186
    27  O   -0.005945   0.010140   0.000027   0.000001   0.000000   0.000000
    28  C   -0.000480   0.006194  -0.000756  -0.000046  -0.000013  -0.000010
    29  O   -0.000235  -0.000212   0.000001   0.000000   0.000000   0.000000
    30  H    0.000000   0.000000   0.000002   0.000024  -0.000005  -0.011554
    31  H   -0.000001   0.000000   0.000000   0.000000   0.000000   0.000000
    32  H   -0.000018  -0.000008   0.000000   0.000000   0.000000   0.000000
    33  H    0.000001  -0.000010  -0.000017   0.000000   0.000000   0.000000
    34  H    0.000007   0.000003  -0.000062  -0.000003   0.000000   0.000000
    35  H    0.000094   0.006054   0.013763   0.000017  -0.000002   0.000000
    36  H   -0.007390   0.006051  -0.000004  -0.000003   0.000000   0.000000
    37  H    0.581491  -0.041287   0.000001   0.000000   0.000000   0.000000
    38  H   -0.041287   0.580144  -0.000034  -0.000002   0.000000   0.000000
    39  H    0.000001  -0.000034   0.627144   0.006183   0.003497   0.000017
    40  H    0.000000  -0.000002   0.006183   0.627854   0.008512   0.004534
    41  H    0.000000   0.000000   0.003497   0.008512   0.646095   0.006702
    42  H    0.000000   0.000000   0.000017   0.004534   0.006702   0.605969
    43  H    0.000000   0.000000   0.005400   0.000083   0.004525   0.006011
    44  H    0.000000   0.000000  -0.000010   0.000001   0.000005  -0.000002
    45  H    0.000000   0.000000  -0.000002  -0.000006   0.000000   0.004329
             43         44         45
     1  O    0.006718   0.000617   0.001300
     2  C    0.006029  -0.003950  -0.016819
     3  C   -0.027689  -0.008493   0.001436
     4  O   -0.000201   0.000035  -0.000034
     5  H    0.000017   0.000000   0.000000
     6  C   -0.033870   0.002770   0.016513
     7  O    0.000071  -0.000010   0.000001
     8  H    0.000003   0.000000   0.000000
     9  C    0.046041   0.426632   0.686259
    10  O    0.005284  -0.040258  -0.073772
    11  H   -0.000083  -0.015382   0.000432
    12  C    0.166808  -0.046458  -0.333866
    13  O   -0.042499  -0.000990   0.009127
    14  C    0.106497  -0.001562  -0.001315
    15  O   -0.001147  -0.000128  -0.000209
    16  C   -0.005219   0.005208  -0.008430
    17  C    0.010146   0.000259   0.003249
    18  O    0.000479  -0.001005   0.000243
    19  H    0.000014   0.001007  -0.000117
    20  C    0.001165  -0.001427   0.000503
    21  O    0.000000  -0.000001   0.000000
    22  H    0.000000   0.000000   0.000000
    23  C    0.000335   0.000033  -0.000006
    24  O    0.000008   0.000000   0.000000
    25  H    0.000000   0.000000   0.000000
    26  C   -0.001076   0.000054  -0.000221
    27  O   -0.000001   0.000000   0.000000
    28  C   -0.000094   0.000087  -0.000028
    29  O    0.000000   0.000000   0.000000
    30  H   -0.000089  -0.000026   0.000023
    31  H    0.000000   0.000000   0.000000
    32  H    0.000000   0.000000   0.000000
    33  H    0.000000   0.000000   0.000000
    34  H   -0.000001   0.000000   0.000000
    35  H   -0.000009   0.000000   0.000000
    36  H    0.000000   0.000000   0.000000
    37  H    0.000000   0.000000   0.000000
    38  H    0.000000   0.000000   0.000000
    39  H    0.005400  -0.000010  -0.000002
    40  H    0.000083   0.000001  -0.000006
    41  H    0.004525   0.000005   0.000000
    42  H    0.006011  -0.000002   0.004329
    43  H    0.619027  -0.008959   0.007259
    44  H   -0.008959   0.605537  -0.048250
    45  H    0.007259  -0.048250   0.615169
 Mulliken atomic charges:
              1
     1  O   -0.547758
     2  C   -0.076078
     3  C   -0.037522
     4  O   -0.482712
     5  H    0.363060
     6  C   -0.109083
     7  O   -0.531719
     8  H    0.435515
     9  C   -0.215348
    10  O   -0.533384
    11  H    0.360782
    12  C    0.362246
    13  O   -0.418371
    14  C    0.192608
    15  O   -0.304623
    16  C   -0.018491
    17  C    0.198624
    18  O   -0.542701
    19  H    0.414027
    20  C    0.049424
    21  O   -0.494424
    22  H    0.349963
    23  C    0.054660
    24  O   -0.668586
    25  H    0.408479
    26  C   -0.194444
    27  O   -0.289028
    28  C    0.169053
    29  O   -0.562495
    30  H    0.372569
    31  H    0.358826
    32  H    0.134941
    33  H    0.161205
    34  H    0.142252
    35  H    0.120370
    36  H    0.141977
    37  H    0.140149
    38  H    0.152017
    39  H    0.134114
    40  H    0.143014
    41  H    0.128503
    42  H    0.137476
    43  H    0.129016
    44  H    0.134666
    45  H    0.137231
 Sum of Mulliken atomic charges =   0.00000
 Mulliken charges with hydrogens summed into heavy atoms:
              1
     1  O   -0.175189
     2  C    0.061399
     3  C    0.090980
     4  O   -0.119653
     6  C    0.033931
     7  O   -0.096203
     9  C    0.056548
    10  O   -0.172603
    12  C    0.491262
    13  O   -0.418371
    14  C    0.326722
    15  O   -0.304623
    16  C    0.101879
    17  C    0.340876
    18  O   -0.128674
    20  C    0.210629
    21  O   -0.144461
    23  C    0.346826
    24  O   -0.260106
    26  C   -0.052467
    27  O   -0.289028
    28  C    0.303994
    29  O   -0.203668
 Sum of Mulliken charges with hydrogens summed into heavy atoms =   0.00000
 APT atomic charges:
              1
     1  O   -0.642303
     2  C    0.398183
     3  C    0.442386
     4  O   -0.638593
     5  H    0.273462
     6  C    0.356675
     7  O   -0.752662
     8  H    0.471409
     9  C    0.464258
    10  O   -0.604990
    11  H    0.250855
    12  C    0.445044
    13  O   -0.873590
    14  C    0.948611
    15  O   -0.874938
    16  C    0.486727
    17  C    0.339469
    18  O   -0.712943
    19  H    0.398335
    20  C    0.390247
    21  O   -0.610497
    22  H    0.264082
    23  C    0.486862
    24  O   -0.726359
    25  H    0.281855
    26  C    0.425655
    27  O   -0.756709
    28  C    0.883064
    29  O   -0.661311
    30  H    0.268876
    31  H    0.258009
    32  H   -0.076680
    33  H   -0.025410
    34  H   -0.054522
    35  H   -0.033860
    36  H   -0.060506
    37  H   -0.040337
    38  H   -0.026164
    39  H   -0.059662
    40  H   -0.040723
    41  H   -0.061818
    42  H   -0.041573
    43  H   -0.058231
    44  H   -0.046745
    45  H   -0.052938
 Sum of APT charges=   0.00000
 APT Atomic charges with hydrogens summed into heavy atoms:
              1
     1  O   -0.373427
     2  C    0.356610
     3  C    0.380568
     4  O   -0.365131
[...]
 0.00063601,0.00074827,0.00207051,0.00098346,-0.00007583,-0.00010791,0.
 00000114,0.00011420,0.00010034,0.00002109,0.00010800,-0.00000152,0.000
 00296,0.00003148,-0.00001562,0.00001092,-0.00000284,0.00002945,-0.0000
 0662,-0.00002387,-0.00002051,0.00000010,0.00004267,-0.00000654,-0.0000
 0777,0.00000526,0.00000705,0.00000420,-0.00000265,-0.00000255,-0.00000
 199,-0.00000093,-0.00001493,-0.00000396,0.00001120,0.00002545,0.000005
 50,0.00001103,-0.00001365,-0.00000119,0.00000032,-0.00001328,-0.000003
 71,0.00000696,0.00001076,0.00000352,-0.00000628,-0.00000930,0.,0.00000
 775,0.00000850,0.00000043,-0.00001014,0.00142963,0.00008029,-0.0006804
 6,-0.00000120,-0.00000024,0.00000167,0.00000248,0.00000061,0.00000108,
 0.00000278,0.00000140,-0.00000299,0.00000822,0.00000010,0.00000902,0.0
 0001346,0.00000079,-0.00000830,0.00000610,0.00000005,0.00000427,0.0000
 0005,-0.00000114,-0.00000011,0.00000490,0.00000248,-0.00000241,0.00002
 261,-0.00002074,-0.00021000,0.00097276,0.00013538,0.00052854,-0.000221
 70,0.00224999,0.00081891,0.38092586,-0.01038731,-0.00058874,-0.0057669
 1,-0.02806085,-0.04831719,0.00409129,0.03286823,0.00134961,-0.00472048
 ,-0.00259423,0.00285298,-0.00035529,0.00026415,-0.00005555,-0.00000696
 ,0.00134885,0.00133986,0.00120256,-0.00053276,-0.00012984,0.00009713,-
 0.00005512,0.00000599,0.00003329,-0.00170951,0.00162328,-0.00072642,0.
 00031313,-0.00004762,0.00015872,-0.00001498,-0.00005035,-0.00002083,-0
 .02765697,-0.00354359,0.00482868,0.00152407,0.00128770,-0.00238030,0.0
 0020077,-0.00036444,-0.00011787,0.00001542,0.00008472,0.00003841,-0.00
 002843,0.00003416,-0.00000432,0.00000787,0.00000615,-0.00000805,0.0000
 2614,0.00001585,-0.00006052,-0.00004511,-0.00003968,0.00006438,-0.0000
 0544,0.00000009,-0.00000063,0.00000435,-0.00000087,-0.00000062,-0.0000
 0121,-0.00000040,-0.00000035,0.00000352,-0.00000140,-0.00000204,-0.000
 01215,-0.00000342,-0.00002079,0.00000878,0.00000269,-0.00000045,0.0000
 0143,-0.00000228,0.00000311,-0.00000033,-0.00000095,0.00000200,-0.0000
 0125,0.00000328,0.00000088,0.00000188,-0.00000127,-0.00000307,-0.00098
 683,0.00130295,0.00004695,-0.00000028,0.00000033,0.00000065,0.00000036
 ,0.00000030,0.00000025,0.00000109,-0.00000069,-0.00000169,0.00000444,0
 .00000434,0.00000616,0.00000197,-0.00000567,0.00000710,-0.00000057,0.0
 0000129,-0.00000065,-0.00000004,0.00000067,-0.00000209,-0.00000114,-0.
 00000212,0.00000216,-0.00007076,-0.00015572,-0.00002084,-0.00061278,-0
 .00023658,-0.00025419,0.00229968,-0.00491433,-0.00171114,0.03331274,0.
 05131650,-0.04037022,-0.00911830,-0.01656713,0.03079689,0.00310836,-0.
 04413441,0.01046314,0.00146010,-0.00055645,-0.00107525,-0.00017601,0.0
 0082452,-0.00013011,-0.00039774,-0.00021043,0.00125597,-0.00004600,0.0
 0046359,-0.00035665,0.00007158,-0.00002742,0.00003414,0.00001155,-0.00
 000682,0.00006512,-0.00128007,0.00046905,-0.00004192,0.00003895,0.0001
 2564,0.00000401,-0.00004108,0.00007379,0.02368249,0.00338166,-0.002533
 22,-0.00039883,-0.00020611,0.00253336,0.00045569,-0.00014507,-0.000380
 51,-0.00009704,-0.00001195,-0.00010016,0.00001235,-0.00002447,-0.00003
 576,0.00002160,0.00001062,0.00002977,-0.00004748,-0.00003831,0.0000245
 8,0.00006216,0.00006244,-0.00004687,0.00000412,-0.00000341,0.00000039,
 -0.00000835,0.00000294,-0.00000634,0.00000264,-0.00000027,0.00000242,0
 .00001064,0.00000389,-0.00000486,-0.00001513,-0.00000474,-0.00000711,0
 .00000644,0.00000197,0.00000254,0.00000553,0.00000448,0.00000415,-0.00
 000797,-0.00000092,-0.00000597,0.00000516,0.00000032,0.00000780,-0.000
 00048,-0.00000068,-0.00000533,-0.00317450,0.00047020,0.00290206,0.0000
 0039,0.00000005,0.00000128,-0.00000186,-0.00000074,-0.00000176,-0.0000
 0296,0.,0.00000478,-0.00001237,-0.00000392,-0.00001396,-0.00001441,0.0
 0000070,0.00001126,-0.00000476,-0.00000196,-0.00000543,-0.00000120,-0.
 00000152,-0.00000066,-0.00000302,0.00000007,0.00000241,-0.00016848,0.0
 0000895,0.00012200,-0.00016673,-0.00032386,-0.00011366,0.00060385,-0.0
 0191970,-0.00047331,-0.02118406,0.00227094,0.06074003,0.00121598,0.000
 08053,0.00112132,-0.00918449,-0.00093471,0.00173808,-0.00051065,0.0014
 3306,-0.00040789,0.00066901,0.00025418,-0.00007852,-0.00014394,0.00001
 635,0.00013541,0.00005833,-0.00002241,-0.00011959,0.00012521,-0.000273
 75,0.00005849,0.00000030,0.00006014,0.00000482,-0.01256977,0.00047685,
 0.00235092,0.00131609,0.00067438,0.00094054,-0.00015145,-0.00001877,0.
 00016118,-0.34803801,-0.00991778,0.04641062,-0.01458827,-0.00543683,-0
 .01171745,0.00003774,0.00240715,0.00126182,0.00045676,-0.00012385,-0.0
 0064262,-0.00020536,-0.00013634,0.00024033,0.00003768,0.00007083,-0.00
 000200,0.00019878,0.00013648,-0.00035502,-0.00039625,-0.00038410,0.000
 65904,-0.00004461,-0.00004579,0.00002761,0.00001971,0.00003567,-0.0000
 3032,-0.00000996,-0.00000792,-0.00000178,-0.00003311,0.00000930,0.0000
 1776,0.00001916,-0.00003100,-0.00001840,-0.00000664,0.00000337,-0.0000
 0622,0.00003409,0.00005280,0.00002771,0.00001710,0.00000430,-0.0000882
 5,-0.00000467,-0.00001252,0.00005846,0.00003019,0.00000332,-0.00005586
 ,0.00017579,0.00007520,-0.00002681,-0.00000140,-0.00000014,0.00000690,
 0.00000146,0.00000262,-0.00000105,0.00000623,0.00000177,-0.00001333,0.
 00002193,0.00001016,0.00003068,0.00004063,-0.00000913,-0.00002492,0.00
 000368,-0.00000176,0.00000373,0.00000227,-0.00000879,-0.00000495,0.000
 00609,0.00000322,0.00000141,0.00026091,-0.00135152,-0.00102626,0.00009
 034,0.00017107,0.00012015,0.00116079,-0.00032108,-0.00025995,0.0004716
 3,-0.00077518,0.00053660,0.37833130,0.00138813,0.00038137,-0.00060164,
 -0.02538655,-0.00249460,0.00549170,-0.00239804,0.00057921,0.00075636,0
 .00074458,0.00014615,-0.00037377,-0.00005726,0.00003816,0.00006259,-0.
 00005841,-0.00024441,-0.00011310,0.00013699,-0.00009297,-0.00000026,-0
 .00001678,-0.00000196,-0.00003052,0.03596491,-0.00084666,-0.00412657,-
 0.00267287,0.00131038,0.00014339,0.00016138,0.00014995,0.00010545,-0.0
 0827539,-0.04631611,0.00338298,-0.01210788,-0.00073865,-0.00621690,-0.
 00268950,0.00148571,0.00059524,0.00034583,-0.00022315,-0.00020931,0.00
 002902,-0.00003461,-0.00001543,0.00003869,0.00010580,0.00009552,-0.000
 10602,-0.00001616,-0.00022384,0.00015927,-0.00010745,0.00033654,0.0000
 0522,-0.00002675,-0.00000093,-0.00001177,0.00000155,-0.00001283,0.0000
 0337,0.00000114,0.00000412,-0.00000710,0.00001543,-0.00002139,0.000008
 16,-0.00001400,0.00003184,-0.00000396,-0.00000192,-0.00000491,0.000021
 40,0.00001166,0.00000118,0.00000015,-0.00001952,-0.00000579,-0.0000013
 9,0.00002998,0.00000527,0.00000325,-0.00000894,-0.00001436,0.00013191,
 0.00001015,-0.00021218,0.00000087,0.00000056,0.00000189,-0.00000128,-0
 .00000369,-0.00000228,-0.00000500,0.00000412,0.00000598,-0.00001764,-0
 .00002336,-0.00001655,0.00001030,0.00002051,-0.00003371,-0.00000140,-0
 .00000005,0.00000289,0.00000298,-0.00000396,0.00000264,0.00000199,-0.0
 0000125,-0.00000326,0.00052956,0.00020111,-0.00007608,0.00019916,0.000
 15010,0.00005981,0.00066518,-0.00069218,0.00021650,-0.00072865,-0.0028
 9437,0.00275912,0.01169304,0.05456376,-0.00160896,-0.00060711,0.001667
 35,0.02653766,0.00314872,-0.00195928,0.00114757,-0.00150044,0.00023996
 ,-0.00063371,0.00007127,0.00001615,0.00011381,-0.00000260,-0.00003167,
 0.00020282,-0.00006259,-0.00056751,0.00006468,-0.00030970,0.00028316,-
 0.00000336,0.00009552,-0.00000768,0.00888334,0.00110844,0.00099793,-0.
 00091145,0.00064295,0.00043196,0.00001278,0.00004080,0.00002050,0.0505
 6069,0.00234459,-0.05001772,-0.04172623,-0.00848588,-0.01008184,-0.003
 31379,0.00335288,0.00312736,0.00058134,-0.00025039,-0.00105004,-0.0000
 7584,-0.00022097,0.00030106,0.00001440,0.00000386,-0.00002789,0.000204
 52,0.00016532,-0.00015599,-0.00050850,-0.00037884,0.00054708,-0.000019
 93,-0.00004152,0.00003917,0.00000368,0.00004583,-0.00003272,-0.0000058
 7,-0.00000601,-0.00000074,-0.00001275,0.00002766,0.00000531,-0.0000002
 9,-0.00004089,0.00000773,0.00000623,0.00000340,-0.00000862,0.00005447,
 0.00007478,0.00003558,-0.00000039,0.00000794,-0.00010466,0.00001119,-0
 .00003323,0.00005997,0.00001914,0.00000837,-0.00004634,-0.00001853,-0.
 00018154,0.00052357,0.00000024,-0.00000046,0.00000528,-0.00000298,0.00
 000266,-0.00000319,0.00000225,0.00000040,-0.00001328,0.00001612,0.0000
 1128,0.00002260,0.00003329,0.00000452,-0.00007188,-0.00000308,-0.00000
 422,-0.00000380,0.00000109,-0.00000985,-0.00000298,0.00000004,0.000000
 83,0.00000361,0.00105292,0.00001462,-0.00013138,-0.00006153,0.00000055
 ,-0.00013828,-0.00060569,0.00024183,0.00036760,0.00072168,0.00341903,-
 0.00324498,-0.04033663,-0.00057588,0.05833718,0.00003060,-0.00027489,0
 .00008951,-0.00061942,0.00228054,0.00162676,0.00073845,0.00023346,-0.0
 0054522,-0.00016833,0.00040556,-0.00008768,0.00001304,0.00001439,0.000
 02835,-0.00002045,-0.00001918,-0.00000837,0.00000375,-0.00001605,-0.00
 000716,0.00000473,0.00000813,0.00002399,-0.06990481,-0.04975297,0.0636
 0911,0.00523612,0.00559186,-0.01733772,0.00203953,0.00140953,0.0006605
 7,0.00383720,0.01377664,-0.01197543,0.00026507,-0.00158398,-0.00057070
 ,-0.00011636,0.00017179,0.00003946,-0.00010037,-0.00000280,-0.00021699
 ,0.00001363,-0.00006888,0.00011433,-0.00009946,-0.00010882,-0.00012271
 ,-0.00016736,0.00029025,0.00022980,0.00031155,-0.00034701,-0.00005614,
 0.00003568,0.00001358,0.00001596,-0.00001333,0.00002209,0.00001541,0.0
 0000100,0.00000144,-0.00000325,0.00000390,-0.00001279,0.00002968,-0.00
 000136,0.00001131,-0.00002726,0.00000192,-0.00000088,0.00000229,-0.000
 00245,0.00002039,-0.00001290,-0.00001042,0.00003266,-0.00002227,0.0000
 1293,-0.00005815,-0.00000450,-0.00001368,0.00001876,0.00002283,-0.0001
 5086,0.00008140,-0.00017806,0.00000113,-0.00000297,-0.00000457,-0.0000
 0258,0.00000309,-0.00000021,-0.00000257,-0.00000011,-0.00000017,0.0000
 0377,-0.00001019,-0.00001233,-0.00000118,0.00000623,-0.00000177,-0.000
 00145,-0.00000189,-0.00000051,-0.00000217,0.00000500,-0.00000268,-0.00
 000099,0.00000174,-0.00000037,-0.00001664,0.00001425,0.00000844,0.0000
 0984,0.00000979,0.00000828,-0.00001731,-0.00010951,-0.00003616,0.00027
 305,0.00042788,-0.00015521,0.00087821,-0.00066957,-0.00077345,0.064821
 01,-0.00005637,0.00063203,-0.00003802,0.00357350,-0.00514090,-0.004387
 11,-0.00100707,0.00026037,0.00176903,0.00036703,-0.00143241,0.00031032
 ,-0.00013114,0.00008423,-0.00015185,-0.00000456,0.00028956,0.00053073,
 -0.00002656,0.00000073,-0.00042016,0.00003999,-0.00003439,0.00016727,-
 0.04668180,-0.16072696,0.14990798,0.00110767,0.00562211,-0.02606622,0.
 00022403,0.00401667,-0.00257191,-0.00839508,-0.02381883,0.02550229,0.0
 0017569,0.00300979,0.00016808,0.00019528,-0.00023301,-0.00015046,-0.00
 002704,0.00006680,-0.00033983,-0.00003938,-0.00006822,0.00018502,-0.00
 018294,-0.00029638,-0.00033055,0.00017412,0.00054031,0.00047844,-0.000
 16241,-0.00079623,-0.00047859,0.00001818,0.00008538,0.00000662,0.00001
 760,0.00000313,0.00004880,-0.00000559,0.00000143,-0.00001429,-0.000020
 02,-0.00007574,0.00010400,-0.00000396,0.00006091,-0.00016125,0.0000049
 4,-0.00000293,0.00002195,-0.00000659,0.00000780,-0.00003992,-0.0000054
 7,0.00007519,-0.00002899,0.00001665,-0.00012518,-0.00002337,-0.0000213
 0,0.00003789,0.00005912,0.00004387,-0.00016071,-0.00013914,-0.00000057
 ,-0.00000317,-0.00001009,0.00000081,0.00001178,0.00000556,0.00000908,-
 0.00000887,-0.00001812,0.00005531,0.00004382,0.00003955,0.00001668,-0.
 00001946,-0.00000816,0.00000304,0.00000252,0.00000615,-0.00000100,0.00
 001976,-0.00001375,0.00000599,0.00000402,-0.00000316,0.00000204,-0.000
 01103,-0.00000530,0.00000246,-0.00001271,-0.00002613,0.00013281,-0.000
 02397,-0.00006468,0.00000006,0.00030451,-0.00019324,0.00017780,0.00140
 632,-0.00007830,0.05023427,0.17604012,0.00007824,0.00045934,0.00020692
 ,-0.00028393,-0.00148800,-0.00056285,-0.00000183,-0.00007984,0.0002388
 1,0.00005765,-0.00017601,0.00011075,0.00000588,-0.00004368,-0.00003016
 ,-0.00000850,-0.00000803,-0.00004277,-0.00000202,0.00000240,0.00003150
 ,-0.00000201,0.00000692,-0.00001446,0.05955258,0.14304613,-0.21660762,
 0.00102959,0.00298941,-0.04265744,-0.00048881,0.00087677,0.00003831,0.
 00005583,-0.00293976,0.00403629,0.00030819,0.00000401,0.00130729,-0.00
 001858,-0.00006250,0.00015253,0.00001753,0.00001373,0.00007749,0.00001
 853,0.00003617,-0.00001980,0.00001127,0.00004885,0.00000247,-0.0000033
 4,-0.00016244,-0.00009653,-0.00000766,0.00010038,-0.00002222,-0.000003
 68,0.00000103,-0.00001071,-0.00000393,-0.00001919,-0.00000886,0.000004
 01,0.00000382,0.00000609,0.00000449,0.00001403,-0.00001581,-0.00000315
 ,-0.00001360,0.00001914,0.00000058,0.00000287,-0.00000238,0.00000088,0
 .00000117,0.00000101,0.00000088,-0.00002277,0.00000962,-0.00000465,0.0
 0003024,0.00000502,0.00000497,-0.00001318,-0.00001286,-0.00004565,-0.0
 0030602,0.00000662,-0.00000067,0.00000322,0.00000394,0.00000002,-0.000
 00188,-0.00000096,-0.00000160,0.00000173,0.00000310,-0.00000519,-0.000
 00082,-0.00000200,-0.00000509,-0.00000105,0.00000026,-0.00000070,-0.00
 000011,-0.00000085,-0.00000066,-0.00000300,0.00000091,-0.00000104,-0.0
 0000028,0.00000064,-0.00001339,0.00002031,-0.00000117,-0.00001015,0.00
 000198,0.00000580,0.00001211,-0.00001081,-0.00000674,-0.00000003,-0.00
 004796,0.00000696,-0.00033200,0.00014021,0.00055414,-0.06129525,-0.144
 47098,0.25254385,0.00031696,0.00008802,-0.00016636,0.00047036,-0.00139
 568,0.00048022,0.00039309,0.00006697,-0.00007277,0.00005699,0.00016227
 ,-0.00002874,-0.00003027,-0.00001339,0.00002641,-0.00009916,-0.0000439
 6,-0.00002599,0.00005677,-0.00001075,0.00002136,-0.00001863,-0.0000009
 3,-0.00001179,-0.35255754,-0.01404540,0.02138947,-0.00586854,-0.010430
 39,-0.01345981,-0.00103676,0.00052282,-0.00073824,-0.01881059,0.001044
 21,0.00264232,0.00165744,-0.00031557,0.00026613,0.00037754,-0.00004709
 ,0.00002519,0.00013670,0.00012341,0.00024690,-0.00001790,0.00005671,-0
 .00001421,-0.00004094,0.00002408,0.00001509,0.00019719,-0.00006731,-0.
 00000034,-0.00026165,0.00007886,-0.00004523,-0.00001333,0.00000104,0.0
 0000663,0.00002094,-0.00000264,-0.00000387,-0.00000497,-0.00000477,-0.
 00000147,-0.00001144,0.00000105,-0.00000270,0.00001980,0.00000226,0.00
 001012,-0.00001035,-0.00000047,-0.00000201,-0.00002063,-0.00001351,0.0
 0000709,0.00001715,-0.00000715,0.00000711,-0.00002046,0.00001638,0.000
 00751,0.00001452,-0.00000454,-0.00001353,-0.00022654,0.00007442,-0.000
 23635,-0.00000304,0.00000066,0.00000305,0.00000517,0.00000127,0.000003
 08,0.00000732,-0.00000003,-0.00000873,0.00002437,0.00001409,0.00003372
 ,0.00001640,-0.00000951,-0.00000184,0.00000809,0.00000331,0.00000661,0
 .00000017,-0.00000093,0.00000092,0.00000416,-0.00000039,-0.00000102,0.
 00004216,-0.00021506,-0.00016243,0.00005077,0.00004768,0.00001211,0.00
 018245,-0.00027751,-0.00005277,0.00057876,0.00091647,-0.00058990,0.000
 20118,0.00297116,0.00037702,-0.00710255,0.00017994,0.00138027,0.381298
 85,-0.00024554,0.00028262,0.00049581,0.00136527,0.00235101,-0.00097944
 ,0.00027763,-0.00004242,-0.00024054,-0.00022572,-0.00004801,0.00015914
 ,0.00003788,-0.00004436,-0.00004234,0.00004062,0.00011251,0.00001654,-
 0.00003865,0.00001783,0.00002079,0.00000450,0.00000758,0.00000046,-0.0
 1527833,-0.04565312,0.00862568,-0.01975564,-0.00543800,-0.01446579,-0.
 00166359,-0.00024042,-0.00029504,0.03771556,-0.00368166,-0.00353293,-0
 .00125048,0.00221020,0.00163378,0.00006111,0.00003946,0.00002863,-0.00
 009886,-0.00007630,-0.00009341,-0.00000406,-0.00001030,0.00003806,-0.0
 0000572,-0.00000049,-0.00000566,0.00007339,0.00001523,0.00001117,-0.00
 006576,-0.00005801,-0.00003023,-0.00000826,0.00000200,0.00000450,0.000
 00689,0.00000463,-0.00000480,-0.00000200,-0.00000260,-0.00000051,0.000
 00543,0.00000727,-0.00000132,-0.00000638,-0.00000924,0.00000288,0.0000
 0310,0.00000265,-0.00000125,-0.00000106,0.00000759,0.00000553,0.000000
 69,-0.00000127,-0.00001218,-0.00000156,-0.00000319,0.00001279,0.000006
 16,-0.00000020,-0.00000979,0.00002876,-0.00023038,0.00017622,-0.000001
 50,0.00000072,0.00000214,0.00000048,0.00000133,0.00000008,0.00000153,-
 0.00000233,-0.00000206,0.00000462,0.00001093,0.00000729,0.00000062,-0.
 00000289,0.00000908,-0.00000083,-0.00000039,-0.00000157,-0.00000131,-0
 .00000234,-0.00000056,-0.00000129,0.00000064,0.00000225,-0.00016215,0.
 00010060,0.00012237,-0.00004060,-0.00004758,-0.00002172,-0.00036248,0.
 00000134,0.00009885,-0.00083682,-0.00018019,0.00027118,0.00195979,-0.0
 0580643,-0.00204763,-0.02204537,0.00036392,0.00206720,0.02050993,0.056
 04210,0.00023749,0.00002869,0.00016504,-0.00084725,-0.00002264,0.00000
 464,0.00001253,0.00009977,0.00006759,0.00001378,-0.00012238,0.00001795
 ,-0.00002319,0.00002994,-0.00002096,0.00001703,0.00005159,0.00010824,-
 0.00002083,0.00000509,-0.00008123,0.00001279,-0.00000506,0.00003415,0.
 02243892,0.00906325,-0.04236188,-0.03885383,-0.01723269,-0.01401054,-0
 .00206994,0.00008820,-0.00066260,0.00394065,0.00001164,0.00222267,0.00
 001757,0.00035099,0.00081782,0.00012737,0.00003184,-0.00003674,-0.0000
 9445,0.00002984,-0.00008397,0.00001709,-0.00002475,-0.00001208,0.00002
 044,-0.00001130,0.00000312,-0.00018130,0.00001222,-0.00001345,0.000288
 99,0.00002130,-0.00000217,0.00000789,-0.00000520,-0.00000088,-0.000015
 20,0.00000681,-0.00000210,0.00000258,0.00000196,0.00000232,0.00000326,
 -0.00001093,0.00001220,-0.00000905,0.00000614,-0.00003004,0.00000358,0
 .00000135,0.00000535,0.00000389,-0.00000308,0.00000477,-0.00000912,0.0
 0001278,-0.00000668,0.00000924,-0.00001130,0.00000410,-0.00000419,0.00
 000389,0.00000103,-0.00014283,0.00001495,-0.00009474,0.00000095,-0.000
 00086,-0.00000083,-0.00000275,-0.00000126,-0.00000251,-0.00000509,0.00
 000161,0.00000798,-0.00001982,-0.00001778,-0.00003190,-0.00001150,0.00
 000432,0.00000325,-0.00000372,-0.00000248,-0.00000399,-0.00000035,0.00
 000106,-0.00000279,-0.00000113,0.00000173,0.00000057,-0.00009090,0.000
 01522,0.00000918,-0.00000527,-0.00001338,0.00000188,-0.00001587,0.0000
 3890,-0.00003090,0.00000921,-0.00003925,0.00013017,-0.00036377,-0.0013
 0973,0.00010820,0.02693428,0.00092263,0.00074675,-0.01132820,0.0079763
 4,0.05301401\\0.00845089,-0.00869699,-0.00775539,0.00733219,0.00280577
 ,0.00551119,0.01381936,-0.01161734,0.01098165,0.00715016,0.00823249,0.
 00724048,-0.01602129,-0.00821810,-0.02257225,-0.02359613,-0.02652285,-
 0.02530816,0.00613730,0.00643527,0.00647368,0.00884748,0.00421059,0.01
 420786,-0.01707160,0.02098957,-0.01418515,0.01300688,0.01161025,0.0007
 3875,0.00143615,-0.03230106,0.00590694,0.00767228,-0.00661172,0.024250
 37,0.00155999,0.02446131,0.00983370,-0.02904842,0.03082727,-0.00021510
 ,-0.00674334,-0.01932644,-0.00330928,0.03385641,-0.00582111,-0.0132206
 2,-0.01020711,0.04103981,0.03706552,0.00057216,-0.00493373,0.01761989,
 -0.00435280,0.01627291,-0.01662348,0.00362828,-0.02693869,-0.00909926,
 0.00432921,-0.00583265,-0.00819249,-0.01211793,-0.00287473,0.02617160,
 -0.00039004,-0.02401268,0.00751446,-0.01489510,-0.01525541,0.01704468,
 0.00208099,0.03210864,-0.01871980,0.00532201,-0.01444721,0.01335664,-0
 .01596320,0.01285348,0.01673502,0.04656823,-0.01428811,-0.02423105,-0.
 01140602,0.01413896,0.00197951,-0.00215430,0.00279676,0.00141495,-0.00
 210482,-0.00300355,-0.00580848,-0.01985878,-0.00254255,-0.00451778,0.0
 1887091,-0.00049013,0.00295046,-0.02464654,0.00205319,-0.00058277,0.02
 267991,0.00101008,-0.00310481,-0.02075451,-0.00349706,-0.00415751,-0.0
 0191940,-0.00764914,-0.01599112,0.01841272,0.00472688,-0.00052820,0.01
 914645,0.00109818,-0.00754934,-0.02343638,-0.00009175,0.00354238,0.023
 21596,0.00423650,-0.00094115,-0.01944975,-0.00170743,-0.00058237,0.021
 92084,0.00064991,-0.00124419,0.00204025,0.00718592,-0.01910831,-0.0219
 1954,-0.00306332,-0.00299166\\\@


 THE MORE ACCURATE THE CALCULATIONS BECOME, THE MORE THE CONCEPTS
 TEND TO VANISH INTO THIN AIR.
     -- R.S. MULLIKEN, J.C.P. 43,S2(1965)
 Job cpu time:  0 days 12 hours 56 minutes 35.2 seconds.
 File lengths (MBytes):  RWF=   1326 Int=      0 D2E=      0 Chk=     19 Scr=      1
 Normal termination of Gaussian 09 at Thu Jan 21 04:56:11 2016.
Gaussian '09 finished on node012 at Thu Jan 21 04:56:11 EST 2016.
