Gaussian '09 started on node006 at Wed Mar 23 06:19:18 EDT 2016.
 Entering Gaussian System, Link 0=/usr/local/gaussian/g09/g09
 Initial command:
 /usr/local/gaussian/g09/l1.exe /home/srmcgrat/thesis/gaussian/cellobiose/320K/5227ps/1/2dp/gaussian11423/Gau-11459.inp -scrdir=/home/srmcgrat/thesis/gaussian/cellobiose/320K/5227ps/1/2dp/gaussian11423/
 Entering Link 1 = /usr/local/gaussian/g09/l1.exe PID=     11461.
  
 Copyright (c) 1988,1990,1992,1993,1995,1998,2003,2009,2010,
            Gaussian, Inc.  All Rights Reserved.
  
 This is part of the Gaussian(R) 09 program.  It is based on
 the Gaussian(R) 03 system (copyright 2003, Gaussian, Inc.),
 the Gaussian(R) 98 system (copyright 1998, Gaussian, Inc.),
 the Gaussian(R) 94 system (copyright 1995, Gaussian, Inc.),
 the Gaussian 92(TM) system (copyright 1992, Gaussian, Inc.),
 the Gaussian 90(TM) system (copyright 1990, Gaussian, Inc.),
 the Gaussian 88(TM) system (copyright 1988, Gaussian, Inc.),
 the Gaussian 86(TM) system (copyright 1986, Carnegie Mellon
 University), and the Gaussian 82(TM) system (copyright 1983,
 Carnegie Mellon University). Gaussian is a federally registered
 trademark of Gaussian, Inc.
  
 This software contains proprietary and confidential information,
 including trade secrets, belonging to Gaussian, Inc.
  
 This software is provided under written license and may be
 used, copied, transmitted, or stored only in accord with that
 written license.
  
 The following legend is applicable only to US Government
 contracts under FAR:
  
                    RESTRICTED RIGHTS LEGEND
  
 Use, reproduction and disclosure by the US Government is
 subject to restrictions as set forth in subparagraphs (a)
 and (c) of the Commercial Computer Software - Restricted
 Rights clause in FAR 52.227-19.
  
 Gaussian, Inc.
 340 Quinnipiac St., Bldg. 40, Wallingford CT 06492
  
  
 ---------------------------------------------------------------
 Warning -- This program may not be used in any manner that
 competes with the business of Gaussian, Inc. or will provide
 assistance to any competitor of Gaussian, Inc.  The licensee
 of this program is prohibited from giving any competitor of
 Gaussian, Inc. access to this program.  By using this program,
 the user acknowledges that Gaussian, Inc. is engaged in the
 business of creating and licensing software in the field of
 computational chemistry and represents and warrants to the
 licensee that it is not a competitor of Gaussian, Inc. and that
 it will not use this program in any manner prohibited above.
 ---------------------------------------------------------------
  

 Cite this work as:
 Gaussian 09, Revision B.01,
 M. J. Frisch, G. W. Trucks, H. B. Schlegel, G. E. Scuseria, 
 M. A. Robb, J. R. Cheeseman, G. Scalmani, V. Barone, B. Mennucci, 
 G. A. Petersson, H. Nakatsuji, M. Caricato, X. Li, H. P. Hratchian, 
 A. F. Izmaylov, J. Bloino, G. Zheng, J. L. Sonnenberg, M. Hada, 
 M. Ehara, K. Toyota, R. Fukuda, J. Hasegawa, M. Ishida, T. Nakajima, 
 Y. Honda, O. Kitao, H. Nakai, T. Vreven, J. A. Montgomery, Jr., 
 J. E. Peralta, F. Ogliaro, M. Bearpark, J. J. Heyd, E. Brothers, 
 K. N. Kudin, V. N. Staroverov, T. Keith, R. Kobayashi, J. Normand, 
 K. Raghavachari, A. Rendell, J. C. Burant, S. S. Iyengar, J. Tomasi, 
 M. Cossi, N. Rega, J. M. Millam, M. Klene, J. E. Knox, J. B. Cross, 
 V. Bakken, C. Adamo, J. Jaramillo, R. Gomperts, R. E. Stratmann, 
 O. Yazyev, A. J. Austin, R. Cammi, C. Pomelli, J. W. Ochterski, 
 R. L. Martin, K. Morokuma, V. G. Zakrzewski, G. A. Voth, 
 P. Salvador, J. J. Dannenberg, S. Dapprich, A. D. Daniels, 
 O. Farkas, J. B. Foresman, J. V. Ortiz, J. Cioslowski, 
 and D. J. Fox, Gaussian, Inc., Wallingford CT, 2010.
 
 ******************************************
 Gaussian 09:  EM64L-G09RevB.01 12-Aug-2010
                23-Mar-2016 
 ******************************************
 -------------------------------------------------
 # freq=raman b3lyp/6-31+g(2d,p) geom=connectivity
 -------------------------------------------------
 1/10=4,30=1,38=1,57=2/1,3;
 2/12=2,17=6,18=5,40=1/2;
 3/5=1,6=6,7=112,11=2,16=1,25=1,30=1,71=2,74=-5/1,2,3;
 4//1;
 5/5=2,38=5,98=1/2;
 8/6=4,10=90,11=11/1;
 10/13=10,15=4/2;
 11/6=3,8=1,9=11,15=111,16=1/1,2,10;
 10/6=1/2;
 6/7=2,8=2,9=2,10=2,18=1,28=1/1;
 7/8=1,10=1,25=1/1,2,3,16;
 1/10=4,30=1/3;
 99//99;
 -----------------
 320 5227/5227.com
 -----------------
 Symbolic Z-matrix:
 Charge =  0 Multiplicity = 1
 O                     7.98      7.442     12.212 
 C                     8.537     7.734     13.501 
 C                     8.053     9.109     13.933 
 O                     8.434     10.103    12.971 
 H                     8.238     9.759     12.053 
 C                     8.37      9.47      15.375 
 O                     7.751     10.649    15.909 
 H                     8.188     10.767    16.8 
 C                     8.641     5.389     14.376 
 O                     8.22      4.574     13.272 
 H                     8.265     3.621     13.572 
 C                     8.024     6.766     14.555 
 O                     8.571     7.084     15.843 
 C                     7.998     8.319     16.296 
 O                     8.738     8.507     17.512 
 C                     8.036     8.325     18.75 
 C                     8.153     6.896     19.254 
 O                     7.789     5.845     18.348 
 H                     8.226     6.129     17.495 
 C                     7.632     6.593     20.65 
 O                     7.935     5.293     21.175 
 H                     7.635     5.224     22.126 
 C                     8.336     10.628    19.533 
 O                     8.866     11.138    18.301 
 H                     8.845     12.134    18.385 
 C                     8.603     9.172     19.878 
 O                     8.01      8.908     21.157 
 C                     8.239     7.575     21.638 
 O                     7.288     7.49      22.709 
 H                     7.75363   7.42358   23.54589 
 H                     8.72948   11.22682   20.32766 
 H                     7.27525   10.76678   19.51162 
 H                     9.65927   9.01296   19.94051 
 H                     7.0033    8.56752   18.60998 
 H                     9.21059   6.77114   19.35797 
 H                     6.56964   6.72067   20.65066 
 H                     9.24795   7.36324   21.92448 
 H                     8.68978   7.29919   11.58159 
 H                     8.45348   4.83538   15.27224 
 H                     9.69938   5.52121   14.29083 
 H                     6.9551    6.72279   14.57704 
 H                     9.60598   7.71048   13.46075 
 H                     6.98515   9.06185   13.88427 
 H                     9.42899   9.60744   15.44253 
 H                     6.9442    8.24619   16.46663 
 

 GradGradGradGradGradGradGradGradGradGradGradGradGradGradGradGradGradGrad
 Berny optimization.
 Initialization pass.
 Trust Radius=3.00D-01 FncErr=1.00D-07 GrdErr=1.00D-07
 Number of steps in this run=      2 maximum allowed number of steps=      2.
 GradGradGradGradGradGradGradGradGradGradGradGradGradGradGradGradGradGrad

                          Input orientation:                          
 ---------------------------------------------------------------------
 Center     Atomic      Atomic             Coordinates (Angstroms)
 Number     Number       Type             X           Y           Z
 ---------------------------------------------------------------------
      1          8           0        7.980000    7.442000   12.212000
      2          6           0        8.537000    7.734000   13.501000
      3          6           0        8.053000    9.109000   13.933000
      4          8           0        8.434000   10.103000   12.971000
      5          1           0        8.238000    9.759000   12.053000
      6          6           0        8.370000    9.470000   15.375000
      7          8           0        7.751000   10.649000   15.909000
      8          1           0        8.188000   10.767000   16.800000
      9          6           0        8.641000    5.389000   14.376000
     10          8           0        8.220000    4.574000   13.272000
     11          1           0        8.265000    3.621000   13.572000
     12          6           0        8.024000    6.766000   14.555000
     13          8           0        8.571000    7.084000   15.843000
     14          6           0        7.998000    8.319000   16.296000
     15          8           0        8.738000    8.507000   17.512000
     16          6           0        8.036000    8.325000   18.750000
     17          6           0        8.153000    6.896000   19.254000
     18          8           0        7.789000    5.845000   18.348000
     19          1           0        8.226000    6.129000   17.495000
     20          6           0        7.632000    6.593000   20.650000
     21          8           0        7.935000    5.293000   21.175000
     22          1           0        7.635000    5.224000   22.126000
     23          6           0        8.336000   10.628000   19.533000
     24          8           0        8.866000   11.138000   18.301000
     25          1           0        8.845000   12.134000   18.385000
     26          6           0        8.603000    9.172000   19.878000
     27          8           0        8.010000    8.908000   21.157000
     28          6           0        8.239000    7.575000   21.638000
     29          8           0        7.288000    7.490000   22.709000
     30          1           0        7.753629    7.423580   23.545886
     31          1           0        8.729482   11.226818   20.327662
     32          1           0        7.275254   10.766783   19.511624
     33          1           0        9.659266    9.012955   19.940511
     34          1           0        7.003296    8.567522   18.609979
     35          1           0        9.210592    6.771140   19.357971
     36          1           0        6.569644    6.720672   20.650659
     37          1           0        9.247952    7.363237   21.924481
     38          1           0        8.689778    7.299191   11.581587
     39          1           0        8.453484    4.835377   15.272236
     40          1           0        9.699379    5.521208   14.290828
     41          1           0        6.955100    6.722789   14.577044
     42          1           0        9.605984    7.710482   13.460752
     43          1           0        6.985151    9.061847   13.884271
     44          1           0        9.428986    9.607438   15.442531
     45          1           0        6.944205    8.246185   16.466626
 ---------------------------------------------------------------------
                    Distance matrix (angstroms):
                    1          2          3          4          5
     1  O    0.000000
     2  C    1.434236   0.000000
     3  C    2.397094   1.520363   0.000000
     4  O    2.804125   2.429747   1.434797   0.000000
     5  H    2.336736   2.507335   1.997780   0.999738   0.000000
     6  C    3.777493   2.559973   1.519926   2.486765   3.337159
     7  O    4.899500   3.861798   2.523367   3.065363   3.987230
     8  H    5.669976   4.494918   3.314646   3.893925   4.853099
     9  C    3.055262   2.505088   3.792149   4.923278   4.965444
    10  O    3.067022   3.184106   4.585961   5.541321   5.326397
    11  H    4.065817   4.122596   5.503945   6.511996   6.323222
    12  C    2.438967   1.520233   2.424330   3.716547   3.906898
    13  O    3.696161   2.430765   2.831439   4.169114   4.650872
    14  C    4.177141   2.905989   2.492167   3.798470   4.487120
    15  O    5.458827   4.089750   3.693355   4.822895   5.623005
    16  C    6.597596   5.305873   4.880413   6.059417   6.851786
    17  C    7.065254   5.826380   5.763715   7.059738   7.749735
    18  O    6.343295   5.255591   5.496873   6.889029   7.426171
    19  H    5.449273   4.315644   4.647383   6.025157   6.541591
    20  C    8.487741   7.295828   7.185095   8.481176   9.181460
    21  O    9.217136   8.075343   8.186718   9.523167  10.161095
    22  H   10.164937   9.027975   9.077070  10.404666  11.063235
    23  C    7.992144   6.693330   5.809256   6.583698   7.530947
    24  O    7.177836   5.893679   4.884387   5.446719   6.429116
    25  H    7.801860   6.580906   5.440422   5.797006   6.789941
    26  C    7.883437   6.537456   5.970720   6.971511   7.855471
    27  O    9.064385   7.763398   7.226924   8.283622   9.146529
    28  C    9.430496   8.144007   7.858421   9.030266   9.830670
    29  O   10.519894   9.295526   8.956817  10.147400  10.936233
    30  H   11.336162  10.080167   9.764110  10.930252  11.737769
    31  H    8.986131   7.670733   6.770117   7.447869   8.418200
    32  H    8.052041   6.849626   5.871472   6.675557   7.587725
    33  H    8.063356   6.660518   6.219284   7.159857   8.049186
    34  H    6.569238   5.398951   4.823817   6.016867   6.777764
    35  H    7.282122   5.973686   6.019627   7.245535   7.952096
    36  H    8.586057   7.484313   7.282265   8.596111   9.270091
    37  H    9.795213   8.461557   8.266763   9.398598  10.208125
    38  H    0.960000   1.973967   3.034804   3.139623   2.544994
    39  H    4.047680   3.397980   4.496420   5.748384   5.886593
    40  H    3.311681   2.621336   3.963693   4.933148   5.010228
    41  H    2.676027   2.163984   2.704474   4.023972   4.151531
    42  H    2.067677   1.070000   2.142576   2.708791   2.837177
    43  H    2.531822   2.078055   1.070000   2.004302   2.325771
    44  H    4.150303   2.841646   2.102489   2.709990   3.595878
    45  H    4.452127   3.405036   2.897091   4.229262   4.841757
                    6          7          8          9         10
     6  C    0.000000
     7  O    1.434698   0.000000
     8  H    1.935448   0.999387   0.000000
     9  C    4.210226   5.550657   5.916407   0.000000
    10  O    5.330659   6.639228   7.127486   1.435368   0.000000
    11  H    6.121490   7.424187   7.841634   1.978286   1.000117
    12  C    2.846705   4.121351   4.590743   1.519493   2.547424
    13  O    2.439758   3.658686   3.824530   2.242769   3.610172
    14  C    1.520337   2.374801   2.506555   3.561566   4.818598
    15  O    2.372670   2.851656   2.432497   4.423328   5.806411
    16  C    3.579554   3.681505   3.128733   5.302641   6.641712
    17  C    4.660387   5.043376   4.583447   5.128750   6.417203
    18  O    4.724078   5.387818   5.175093   4.087863   5.250426
    19  H    3.959472   4.813670   4.689937   3.232334   4.500199
    20  C    6.053709   6.240383   5.705604   6.467671   7.671831
    21  O    7.160765   7.513411   7.012083   6.836231   7.940755
    22  H    8.009041   8.251980   7.706941   7.816762   8.897080
    23  C    4.316374   3.670973   2.740532   7.357635   8.710023
    24  O    3.404367   2.684029   1.688291   6.964715   8.294230
    25  H    4.047545   3.087497   2.193755   7.849122   9.148060
    26  C    4.518861   4.319768   3.491466   6.677165   8.057762
    27  O    5.820392   5.535311   4.740360   7.665734   9.000049
    28  C    6.544720   6.519897   5.796353   7.594527   8.887987
    29  O    7.673244   7.512233   6.816525   8.699638   9.921121
    30  H    8.445776   8.290076   7.541493   9.434710  10.671942
    31  H    5.267305   4.562442   3.598477   8.337280   9.710918
    32  H    4.471216   3.635809   2.861120   7.560453   8.841720
    33  H    4.766024   4.750916   3.886400   6.718162   8.139093
    34  H    3.625939   3.490974   3.085004   5.541810   6.776622
    35  H    4.884106   5.391067   4.853432   5.201421   6.545818
    36  H    6.215517   6.269823   5.815446   6.740564   7.859801
    37  H    6.935773   7.015919   6.242548   7.825955   9.148878
    38  H    4.382311   5.552389   6.285643   3.385255   3.241119
    39  H    4.636514   5.890430   6.130963   1.070000   2.030708
    40  H    4.305304   5.719171   6.008207   1.070000   2.030708
    41  H    3.191526   4.221693   4.776737   2.159090   2.814322
    42  H    2.878873   4.250856   4.743792   2.675472   3.434253
    43  H    2.075251   2.684233   3.585508   4.058749   4.694731
    44  H    1.070000   2.029305   2.174247   4.421948   5.613230
    45  H    2.173077   2.595262   2.830666   3.925983   5.031723
                   11         12         13         14         15
    11  H    0.000000
    12  C    3.303845   0.000000
    13  O    4.152523   1.435018   0.000000
    14  C    5.437156   2.333145   1.434839   0.000000
    15  O    6.294468   3.504957   2.199632   1.435827   0.000000
    16  C    6.999410   4.475338   3.205769   2.454302   1.434772
    17  C    6.559214   4.702568   3.441655   3.286140   2.443790
    18  O    5.289889   3.910283   2.902011   3.221034   2.947158
    19  H    4.656341   3.014991   1.939112   2.507127   2.432554
    20  C    7.702698   6.110042   4.922403   4.697909   3.838447
    21  O    7.791668   6.782481   5.660601   5.741540   4.938843
    22  H    8.725676   7.736222   6.619047   6.610574   5.769202
    23  C    9.199816   6.308159   5.121646   3.990475   2.957142
    24  O    8.901120   5.818579   4.750127   3.566540   2.749739
    25  H    9.796557   6.645176   5.660330   4.431202   3.732118
    26  C    8.407942   5.870128   4.543346   3.731536   2.461383
    27  O    9.249304   6.940804   5.646264   4.896569   3.738557
    28  C    8.983048   7.132292   5.825232   5.398943   4.259284
    29  O    9.970379   8.219099   6.996634   6.505222   5.490501
    30  H   10.686418   9.018955   7.753571   7.309059   6.208910
    31  H   10.183476   7.329409   6.107394   5.024418   3.914772
    32  H    9.344567   6.413658   5.357299   4.105392   3.353318
    33  H    8.460206   6.060250   4.657766   4.064952   2.646202
    34  H    7.172253   4.553040   3.509231   2.530948   2.053879
    35  H    6.655447   4.947378   3.586360   3.638944   2.577627
    36  H    7.911359   6.266918   5.220250   4.853648   4.212352
    37  H    9.205133   7.494265   6.125410   5.844285   4.586746
    38  H    4.203721   3.093338   4.268496   4.872808   6.052349
    39  H    2.097865   2.103851   2.322905   3.659398   4.310257
    40  H    2.486955   2.103851   2.474833   3.839668   4.496127
    41  H    3.513837   1.070000   2.084286   2.567165   3.869897
    42  H    4.305168   2.142918   2.671849   3.315801   4.219058
    43  H    5.598066   2.607681   3.203656   2.719213   4.067032
    44  H    6.378965   3.291727   2.695228   2.106229   2.443589
    45  H    5.613885   2.647871   2.094289   1.070000   2.092494
                   16         17         18         19         20
    16  C    0.000000
    17  C    1.519785   0.000000
    18  O    2.524483   1.434550   0.000000
    19  H    2.536443   1.920338   0.999617   0.000000
    20  C    2.602506   1.520548   2.425563   3.243787   0.000000
    21  O    3.883793   2.511449   2.884085   3.784967   1.434376
    22  H    4.601563   3.363375   3.831793   4.755467   2.013143
    23  C    2.450897   3.746886   4.957875   4.940298   4.245531
    24  O    2.967064   4.405808   5.401665   5.113640   5.262849
    25  H    3.911034   5.354500   6.377149   6.102072   6.107723
    26  C    1.520290   2.402510   3.751323   3.883383   2.861829
    27  O    2.476735   2.773085   4.161886   4.602145   2.399825
    28  C    2.990694   2.480301   3.744262   4.388113   1.519512
    29  O    4.114658   3.610829   4.687787   5.469731   2.272097
    30  H    4.888028   4.342594   5.432420   6.205828   3.015098
    31  H    3.374979   4.499008   5.810984   5.853650   4.772907
    32  H    2.668540   3.977407   5.083493   5.145845   4.340925
    33  H    2.127343   2.687309   4.008731   4.043757   3.235640
    34  H    1.070000   2.128513   2.845715   2.946960   2.907867
    35  H    2.040533   1.070000   1.974512   2.202822   2.047688
    36  H    2.887312   2.118587   2.748794   3.612723   1.070000
    37  H    3.531451   2.923816   4.150278   4.710417   2.197469
    38  H    7.270891   7.701728   6.979285   6.045898   9.157167
    39  H    4.944351   4.493429   3.304724   2.581839   5.717029
    40  H    5.523794   5.377213   4.496113   3.578684   6.772139
    41  H    4.598802   4.831033   3.960557   3.237628   6.111941
    42  H    5.551453   6.027957   5.537747   4.547592   7.538612
    43  H    5.032151   5.906670   5.560499   4.814422   7.231093
    44  H    3.811090   4.848436   5.028642   4.214182   6.279628
    45  H    2.532198   3.324701   3.165270   2.680117   4.550462
                   21         22         23         24         25
    21  O    0.000000
    22  H    0.999581   0.000000
    23  C    5.596355   6.034755   0.000000
    24  O    6.579564   7.149922   1.434860   0.000000
    25  H    7.443889   7.950301   1.960873   0.999756   0.000000
    26  C    4.144282   4.645130   1.519951   2.534019   3.325817
    27  O    3.615823   3.827720   2.387897   3.723221   4.334546
    28  C    2.348257   2.475916   3.709615   4.921754   5.633270
    29  O    2.756551   2.365387   4.586101   5.935356   6.533602
    30  H    3.192706   2.620745   5.168241   6.522508   7.072050
    31  H    6.046436   6.361269   1.070000   2.033196   2.147152
    32  H    5.758852   6.138959   1.070000   2.033196   2.366996
    33  H    4.281953   4.819771   2.127314   2.798764   3.581000
    34  H    4.262617   4.892913   2.621762   3.189434   4.020230
    35  H    2.667138   3.540920   3.958651   4.506151   5.462655
    36  H    2.043863   2.356192   4.431296   5.505173   6.294011
    37  H    2.563484   2.686738   4.148435   5.246364   5.954030
    38  H    9.829957  10.798315   8.627346   7.740673   8.347808
    39  H    5.943136   6.913395   7.191829   7.004759   7.944337
    40  H    7.110340   8.108016   7.444360   6.951572   7.824400
    41  H    6.821841   7.726277   6.459029   6.083870   6.881384
    42  H    8.255061   9.227887   6.855434   5.976911   6.662945
    43  H    8.262030   9.114684   6.015460   5.230248   5.757927
    44  H    7.328545   8.191561   4.355238   3.290960   3.922076
    45  H    5.645508   6.452853   4.124656   3.926935   4.733739
                   26         27         28         29         30
    26  C    0.000000
    27  O    1.434289   0.000000
    28  C    2.404268   1.435511   0.000000
    29  O    3.545830   2.222771   1.434806   0.000000
    30  H    4.151119   2.824182   1.974473   0.960000   0.000000
    31  H    2.107243   2.565614   3.910669   4.659662   5.076798
    32  H    2.107243   2.588858   3.954461   4.578284   5.261284
    33  H    1.070000   2.052057   2.639382   3.950548   4.376791
    34  H    2.128925   2.759836   3.417744   4.247833   5.121990
    35  H    2.530559   3.040411   2.605516   3.929697   4.481859
    36  H    3.277277   2.667472   2.119308   2.311854   3.205970
    37  H    2.806363   2.123169   1.070000   2.114936   2.205810
    38  H    8.505610   9.733391  10.070288  11.216983  12.001512
    39  H    6.327853   7.170313   6.933577   7.981907   8.697234
    40  H    6.763640   7.840197   7.767349   8.975328   9.646817
    41  H    6.067482   7.013114   7.227154   8.174848   9.031549
    42  H    6.657558   7.950689   8.291826   9.536863  10.257849
    43  H    6.209215   7.346194   7.993945   8.968738   9.829612
    44  H    4.532686   5.929409   6.628024   7.865681   8.558062
    45  H    3.904639   4.855257   5.373090   6.297400   7.172710
                   31         32         33         34         35
    31  H    0.000000
    32  H    1.729836   0.000000
    33  H    2.432195   2.990546   0.000000
    34  H    3.605830   2.392419   3.003814   0.000000
    35  H    4.585285   4.442331   2.359321   2.942556   0.000000
    36  H    5.007452   4.262194   3.912113   2.786267   2.940781
    37  H    4.212588   4.614926   2.612831   4.180276   2.634189
    38  H    9.587579   8.769866   8.587694   7.338336   7.811672
    39  H    8.153775   7.385270   6.379566   5.212723   4.584061
    40  H    8.362898   7.787757   6.641749   5.933293   5.241868
    41  H    7.516935   6.387993   6.428386   4.435079   5.286477
    42  H    7.764492   7.168426   6.609580   5.832927   5.984637
    43  H    7.017626   5.887110   6.620522   4.751526   6.337295
    44  H    5.193862   4.747648   4.542935   4.122878   4.839726
    45  H    5.194130   3.966739   4.475194   2.168112   3.958805
                   36         37         38         39         40
    36  H    0.000000
    37  H    3.034608   0.000000
    38  H    9.331544  10.358142   0.000000
    39  H    6.002551   7.160561   4.443772   0.000000
    40  H    7.188978   7.865718   3.394187   1.727941   0.000000
    41  H    6.085833   7.723482   3.509147   2.508141   3.009450
    42  H    7.867264   8.478412   2.130693   3.588309   2.343218
    43  H    7.172011   8.523527   3.363787   4.684603   4.479783
    44  H    6.605592   6.861843   4.558653   4.873723   4.254035
    45  H    4.469185   5.989577   5.273275   3.916390   4.444163
                   41         42         43         44         45
    41  H    0.000000
    42  H    3.041189   0.000000
    43  H    2.439678   2.978981   0.000000
    44  H    3.897483   2.749040   2.949266   0.000000
    45  H    2.427215   4.050596   2.708420   3.012626   0.000000
 Stoichiometry    C12H22O11
 Framework group  C1[X(C12H22O11)]
 Deg. of freedom   129
 Full point group                 C1      NOp   1
 Largest Abelian subgroup         C1      NOp   1
 Largest concise Abelian subgroup C1      NOp   1
                         Standard orientation:                         
 ---------------------------------------------------------------------
 Center     Atomic      Atomic             Coordinates (Angstroms)
 Number     Number       Type             X           Y           Z
 ---------------------------------------------------------------------
      1          8           0        5.042097   -0.433531   -0.389951
      2          6           0        3.771678   -0.132736    0.203843
      3          6           0        3.294506    1.206290   -0.335436
      4          8           0        4.252429    2.235472   -0.049414
      5          1           0        5.167953    1.896450   -0.264719
      6          6           0        1.860138    1.560266    0.021583
      7          8           0        1.279235    2.694517   -0.637496
      8          1           0        0.404778    2.821588   -0.170643
      9          6           0        2.945866   -2.482631    0.471230
     10          8           0        4.046855   -3.301157    0.049186
     11          1           0        3.766900   -4.255077    0.158254
     12          6           0        2.715965   -1.144728   -0.211429
     13          8           0        1.445648   -0.818508    0.370938
     14          6           0        0.946491    0.375514   -0.248670
     15          8           0       -0.241570    0.583734    0.530275
     16          6           0       -1.503586    0.343031   -0.108435
     17          6           0       -1.975450   -1.085525    0.106782
     18          8           0       -1.065498   -2.139806   -0.237329
     19          1           0       -0.200838   -1.818183    0.147582
     20          6           0       -3.385636   -1.439703   -0.338189
     21          8           0       -3.873301   -2.729606    0.056482
     22          1           0       -4.834302   -2.830681   -0.199297
     23          6           0       -2.316797    2.645772    0.098859
     24          8           0       -1.073966    3.204393    0.548456
     25          1           0       -1.177450    4.196213    0.477065
     26          6           0       -2.623185    1.201123    0.458536
     27          8           0       -3.920165    0.883862   -0.065273
     28          6           0       -4.366279   -0.442323    0.255519
     29          8           0       -5.473461   -0.597095   -0.643847
     30          1           0       -6.289224   -0.651674   -0.140706
     31          1           0       -3.105825    3.252074    0.492220
     32          1           0       -2.341398    2.726443   -0.967812
     33          1           0       -2.639481    1.099297    1.523555
     34          1           0       -1.410464    0.530772   -1.157712
     35          1           0       -2.033751   -1.153835    1.173006
     36          1           0       -3.432105   -1.370576   -1.404942
     37          1           0       -4.607261   -0.603079    1.285560
     38          1           0        5.703560   -0.526718    0.299530
     39          1           0        2.053274   -3.060451    0.351632
     40          1           0        3.071719   -2.291126    1.516403
     41          1           0        2.651074   -1.246917   -1.274559
     42          1           0        3.856011   -0.096862    1.269911
     43          1           0        3.300434    1.101393   -1.400265
     44          1           0        1.833369    1.754502    1.073465
     45          1           0        0.734341    0.242144   -1.288913
 ---------------------------------------------------------------------
 Rotational constants (GHZ):      0.4175517      0.1458684      0.1109510
 Standard basis: 6-31+G(2d,p) (6D, 7F)
 There are   685 symmetry adapted basis functions of A   symmetry.
 Integral buffers will be    131072 words long.
 Raffenetti 2 integral format.
 Two-electron integral symmetry is turned on.
   685 basis functions,  1028 primitive gaussians,   685 cartesian basis functions
    91 alpha electrons       91 beta electrons
       nuclear repulsion energy      2295.2239326264 Hartrees.
 NAtoms=   45 NActive=   45 NUniq=   45 SFac= 1.00D+00 NAtFMM=   50 NAOKFM=F Big=F
 One-electron integrals computed using PRISM.
 NBasis=   685 RedAO= T  NBF=   685
 NBsUse=   685 1.00D-06 NBFU=   685
 Harris functional with IExCor=  402 diagonalized for initial guess.
 ExpMin= 4.38D-02 ExpMax= 5.48D+03 ExpMxC= 8.25D+02 IAcc=2 IRadAn=         0 AccDes= 0.00D+00
 HarFok:  IExCor=  402 AccDes= 0.00D+00 IRadAn=         0 IDoV= 1
 ScaDFX=  1.000000  1.000000  1.000000  1.000000
 FoFCou: FMM=F IPFlag=           0 FMFlag=      100000 FMFlg1=           0
         NFxFlg=           0 DoJE=T BraDBF=F KetDBF=T FulRan=T
         Omega=  0.000000  0.000000  1.000000  0.000000  0.000000 ICntrl=     500 IOpCl=  0
         NMat0=    1 NMatS0=    1 NMatT0=    0 NMatD0=    1 NMtDS0=    0 NMtDT0=    0
         I1Cent=           4 NGrid=           0.
 Petite list used in FoFCou.
 Initial guess orbital symmetries:
       Occupied  (A) (A) (A) (A) (A) (A) (A) (A) (A) (A) (A) (A)
                 (A) (A) (A) (A) (A) (A) (A) (A) (A) (A) (A) (A)
                 (A) (A) (A) (A) (A) (A) (A) (A) (A) (A) (A) (A)
                 (A) (A) (A) (A) (A) (A) (A) (A) (A) (A) (A) (A)
                 (A) (A) (A) (A) (A) (A) (A) (A) (A) (A) (A) (A)
                 (A) (A) (A) (A) (A) (A) (A) (A) (A) (A) (A) (A)
                 (A) (A) (A) (A) (A) (A) (A) (A) (A) (A) (A) (A)
                 (A) (A) (A) (A) (A) (A) (A)
       Virtual   (A) (A) (A) (A) (A) (A) (A) (A) (A) (A) (A) (A)
                 (A) (A) (A) (A) (A) (A) (A) (A) (A) (A) (A) (A)
                 (A) (A) (A) (A) (A) (A) (A) (A) (A) (A) (A) (A)
                 (A) (A) (A) (A) (A) (A) (A) (A) (A) (A) (A) (A)
                 (A) (A) (A) (A) (A) (A) (A) (A) (A) (A) (A) (A)
                 (A) (A) (A) (A) (A) (A) (A) (A) (A) (A) (A) (A)
                 (A) (A) (A) (A) (A) (A) (A) (A) (A) (A) (A) (A)
                 (A) (A) (A) (A) (A) (A) (A) (A) (A) (A) (A) (A)
                 (A) (A) (A) (A) (A) (A) (A) (A) (A) (A) (A) (A)
                 (A) (A) (A) (A) (A) (A) (A) (A) (A) (A) (A) (A)
                 (A) (A) (A) (A) (A) (A) (A) (A) (A) (A) (A) (A)
                 (A) (A) (A) (A) (A) (A) (A) (A) (A) (A) (A) (A)
                 (A) (A) (A) (A) (A) (A) (A) (A) (A) (A) (A) (A)
                 (A) (A) (A) (A) (A) (A) (A) (A) (A) (A) (A) (A)
                 (A) (A) (A) (A) (A) (A) (A) (A) (A) (A) (A) (A)
                 (A) (A) (A) (A) (A) (A) (A) (A) (A) (A) (A) (A)
                 (A) (A) (A) (A) (A) (A) (A) (A) (A) (A) (A) (A)
                 (A) (A) (A) (A) (A) (A) (A) (A) (A) (A) (A) (A)
                 (A) (A) (A) (A) (A) (A) (A) (A) (A) (A) (A) (A)
                 (A) (A) (A) (A) (A) (A) (A) (A) (A) (A) (A) (A)
                 (A) (A) (A) (A) (A) (A) (A) (A) (A) (A) (A) (A)
                 (A) (A) (A) (A) (A) (A) (A) (A) (A) (A) (A) (A)
                 (A) (A) (A) (A) (A) (A) (A) (A) (A) (A) (A) (A)
                 (A) (A) (A) (A) (A) (A) (A) (A) (A) (A) (A) (A)
                 (A) (A) (A) (A) (A) (A) (A) (A) (A) (A) (A) (A)
                 (A) (A) (A) (A) (A) (A) (A) (A) (A) (A) (A) (A)
                 (A) (A) (A) (A) (A) (A) (A) (A) (A) (A) (A) (A)
                 (A) (A) (A) (A) (A) (A) (A) (A) (A) (A) (A) (A)
                 (A) (A) (A) (A) (A) (A) (A) (A) (A) (A) (A) (A)
                 (A) (A) (A) (A) (A) (A) (A) (A) (A) (A) (A) (A)
                 (A) (A) (A) (A) (A) (A) (A) (A) (A) (A) (A) (A)
                 (A) (A) (A) (A) (A) (A) (A) (A) (A) (A) (A) (A)
                 (A) (A) (A) (A) (A) (A) (A) (A) (A) (A) (A) (A)
                 (A) (A) (A) (A) (A) (A) (A) (A) (A) (A) (A) (A)
                 (A) (A) (A) (A) (A) (A) (A) (A) (A) (A) (A) (A)
                 (A) (A) (A) (A) (A) (A) (A) (A) (A) (A) (A) (A)
                 (A) (A) (A) (A) (A) (A) (A) (A) (A) (A) (A) (A)
                 (A) (A) (A) (A) (A) (A) (A) (A) (A) (A) (A) (A)
                 (A) (A) (A) (A) (A) (A) (A) (A) (A) (A) (A) (A)
                 (A) (A) (A) (A) (A) (A) (A) (A) (A) (A) (A) (A)
                 (A) (A) (A) (A) (A) (A) (A) (A) (A) (A) (A) (A)
                 (A) (A) (A) (A) (A) (A) (A) (A) (A) (A) (A) (A)
                 (A) (A) (A) (A) (A) (A) (A) (A) (A) (A) (A) (A)
                 (A) (A) (A) (A) (A) (A) (A) (A) (A) (A) (A) (A)
                 (A) (A) (A) (A) (A) (A) (A) (A) (A) (A) (A) (A)
                 (A) (A) (A) (A) (A) (A) (A) (A) (A) (A) (A) (A)
                 (A) (A) (A) (A) (A) (A) (A) (A) (A) (A) (A) (A)
                 (A) (A) (A) (A) (A) (A) (A) (A) (A) (A) (A) (A)
                 (A) (A) (A) (A) (A) (A) (A) (A) (A) (A) (A) (A)
                 (A) (A) (A) (A) (A) (A)
 The electronic state of the initial guess is 1-A.
 Requested convergence on RMS density matrix=1.00D-08 within 128 cycles.
 Requested convergence on MAX density matrix=1.00D-06.
 Requested convergence on             energy=1.00D-06.
 No special actions if energy rises.
 SCF Done:  E(RB3LYP) =  -1297.98114774     A.U. after   13 cycles
             Convg  =    0.4491D-08             -V/T =  2.0063
 Range of M.O.s used for correlation:     1   685
 NBasis=   685 NAE=    91 NBE=    91 NFC=     0 NFV=     0
 NROrb=    685 NOA=    91 NOB=    91 NVA=   594 NVB=   594

 **** Warning!!: The largest alpha MO coefficient is  0.85428137D+02

          Differentiating once with respect to electric field.
                with respect to dipole field.
          Electric field/nuclear overlap derivatives assumed to be zero.
          There are     3 degrees of freedom in the 1st order CPHF.  IDoFFX=0.
      3 vectors produced by pass  0 Test12= 1.80D-12 3.33D-08 XBig12= 1.24D+02 1.30D+00.
 AX will form     3 AO Fock derivatives at one time.
      3 vectors produced by pass  1 Test12= 1.80D-12 3.33D-08 XBig12= 2.56D+01 3.78D-01.
      3 vectors produced by pass  2 Test12= 1.80D-12 3.33D-08 XBig12= 1.10D+01 2.16D-01.
      3 vectors produced by pass  3 Test12= 1.80D-12 3.33D-08 XBig12= 1.20D+00 9.70D-02.
      3 vectors produced by pass  4 Test12= 1.80D-12 3.33D-08 XBig12= 3.71D-01 4.94D-02.
      3 vectors produced by pass  5 Test12= 1.80D-12 3.33D-08 XBig12= 6.62D-02 2.65D-02.
      3 vectors produced by pass  6 Test12= 1.80D-12 3.33D-08 XBig12= 2.56D-02 2.11D-02.
      3 vectors produced by pass  7 Test12= 1.80D-12 3.33D-08 XBig12= 3.24D-03 9.31D-03.
      3 vectors produced by pass  8 Test12= 1.80D-12 3.33D-08 XBig12= 5.95D-04 3.08D-03.
      3 vectors produced by pass  9 Test12= 1.80D-12 3.33D-08 XBig12= 1.31D-04 1.69D-03.
      3 vectors produced by pass 10 Test12= 1.80D-12 3.33D-08 XBig12= 4.56D-05 6.75D-04.
      3 vectors produced by pass 11 Test12= 1.80D-12 3.33D-08 XBig12= 8.91D-06 4.08D-04.
      3 vectors produced by pass 12 Test12= 1.80D-12 3.33D-08 XBig12= 1.26D-06 1.11D-04.
      3 vectors produced by pass 13 Test12= 1.80D-12 3.33D-08 XBig12= 3.88D-07 5.20D-05.
      3 vectors produced by pass 14 Test12= 1.80D-12 3.33D-08 XBig12= 6.11D-08 2.26D-05.
      3 vectors produced by pass 15 Test12= 1.80D-12 3.33D-08 XBig12= 1.49D-08 9.71D-06.
      3 vectors produced by pass 16 Test12= 1.80D-12 3.33D-08 XBig12= 2.03D-09 4.83D-06.
      3 vectors produced by pass 17 Test12= 1.80D-12 3.33D-08 XBig12= 2.25D-10 1.40D-06.
      3 vectors produced by pass 18 Test12= 1.80D-12 3.33D-08 XBig12= 4.69D-11 4.57D-07.
      3 vectors produced by pass 19 Test12= 1.80D-12 3.33D-08 XBig12= 1.09D-11 3.11D-07.
      2 vectors produced by pass 20 Test12= 1.80D-12 3.33D-08 XBig12= 4.80D-12 2.73D-07.
      2 vectors produced by pass 21 Test12= 1.80D-12 3.33D-08 XBig12= 2.06D-12 1.06D-07.
      1 vectors produced by pass 22 Test12= 1.80D-12 3.33D-08 XBig12= 4.72D-13 4.75D-08.
 Inverted reduced A of dimension    65 with in-core refinement.
 End of Minotr Frequency-dependent properties file   721 does not exist.
 End of Minotr Frequency-dependent properties file   722 does not exist.
 Symmetrizing basis deriv contribution to polar:
 IMax=3 JMax=2 DiffMx= 0.00D+00
 G2DrvN: will do    16 centers at a time, making    3 passes doing MaxLOS=2.
 Calling FoFCou, ICntrl=  3107 FMM=F I1Cent=   0 AccDes= 0.00D+00.
 Calling FoFCou, ICntrl=  3107 FMM=F I1Cent=   0 AccDes= 0.00D+00.
 Calling FoFCou, ICntrl=  3107 FMM=F I1Cent=   0 AccDes= 0.00D+00.
 FoFDir/FoFCou used for L=0 through L=2.
 End of G2Drv Frequency-dependent properties file   721 does not exist.
 End of G2Drv Frequency-dependent properties file   722 does not exist.
          IDoAtm=111111111111111111111111111111111111111111111
          Differentiating once with respect to electric field.
                with respect to dipole field.
          Differentiating once with respect to nuclear coordinates.
          There are   138 degrees of freedom in the 1st order CPHF.  IDoFFX=5.
 Will reuse    3 saved solutions.
    135 vectors produced by pass  0 Test12= 5.41D-14 1.00D-09 XBig12= 1.54D-01 7.02D-02.
 AX will form    45 AO Fock derivatives at one time.
    135 vectors produced by pass  1 Test12= 5.41D-14 1.00D-09 XBig12= 1.69D-02 1.17D-02.
    132 vectors produced by pass  2 Test12= 5.41D-14 1.00D-09 XBig12= 1.33D-04 1.43D-03.
    132 vectors produced by pass  3 Test12= 5.41D-14 1.00D-09 XBig12= 5.24D-07 5.89D-05.
    132 vectors produced by pass  4 Test12= 5.41D-14 1.00D-09 XBig12= 1.27D-09 2.27D-06.
    132 vectors produced by pass  5 Test12= 5.41D-14 1.00D-09 XBig12= 3.05D-12 1.24D-07.
     84 vectors produced by pass  6 Test12= 5.41D-14 1.00D-09 XBig12= 9.39D-14 2.01D-08.
 Inverted reduced A of dimension   882 with in-core refinement.
 Isotropic polarizability for W=    0.000000      191.42 Bohr**3.
 End of Minotr Frequency-dependent properties file   721 does not exist.
 End of Minotr Frequency-dependent properties file   722 does not exist.

 **********************************************************************

            Population analysis using the SCF density.

 **********************************************************************

 Orbital symmetries:
       Occupied  (A) (A) (A) (A) (A) (A) (A) (A) (A) (A) (A) (A)
                 (A) (A) (A) (A) (A) (A) (A) (A) (A) (A) (A) (A)
                 (A) (A) (A) (A) (A) (A) (A) (A) (A) (A) (A) (A)
                 (A) (A) (A) (A) (A) (A) (A) (A) (A) (A) (A) (A)
                 (A) (A) (A) (A) (A) (A) (A) (A) (A) (A) (A) (A)
                 (A) (A) (A) (A) (A) (A) (A) (A) (A) (A) (A) (A)
                 (A) (A) (A) (A) (A) (A) (A) (A) (A) (A) (A) (A)
                 (A) (A) (A) (A) (A) (A) (A)
       Virtual   (A) (A) (A) (A) (A) (A) (A) (A) (A) (A) (A) (A)
                 (A) (A) (A) (A) (A) (A) (A) (A) (A) (A) (A) (A)
                 (A) (A) (A) (A) (A) (A) (A) (A) (A) (A) (A) (A)
                 (A) (A) (A) (A) (A) (A) (A) (A) (A) (A) (A) (A)
                 (A) (A) (A) (A) (A) (A) (A) (A) (A) (A) (A) (A)
                 (A) (A) (A) (A) (A) (A) (A) (A) (A) (A) (A) (A)
                 (A) (A) (A) (A) (A) (A) (A) (A) (A) (A) (A) (A)
                 (A) (A) (A) (A) (A) (A) (A) (A) (A) (A) (A) (A)
                 (A) (A) (A) (A) (A) (A) (A) (A) (A) (A) (A) (A)
                 (A) (A) (A) (A) (A) (A) (A) (A) (A) (A) (A) (A)
                 (A) (A) (A) (A) (A) (A) (A) (A) (A) (A) (A) (A)
                 (A) (A) (A) (A) (A) (A) (A) (A) (A) (A) (A) (A)
                 (A) (A) (A) (A) (A) (A) (A) (A) (A) (A) (A) (A)
                 (A) (A) (A) (A) (A) (A) (A) (A) (A) (A) (A) (A)
                 (A) (A) (A) (A) (A) (A) (A) (A) (A) (A) (A) (A)
                 (A) (A) (A) (A) (A) (A) (A) (A) (A) (A) (A) (A)
                 (A) (A) (A) (A) (A) (A) (A) (A) (A) (A) (A) (A)
                 (A) (A) (A) (A) (A) (A) (A) (A) (A) (A) (A) (A)
                 (A) (A) (A) (A) (A) (A) (A) (A) (A) (A) (A) (A)
                 (A) (A) (A) (A) (A) (A) (A) (A) (A) (A) (A) (A)
                 (A) (A) (A) (A) (A) (A) (A) (A) (A) (A) (A) (A)
                 (A) (A) (A) (A) (A) (A) (A) (A) (A) (A) (A) (A)
                 (A) (A) (A) (A) (A) (A) (A) (A) (A) (A) (A) (A)
                 (A) (A) (A) (A) (A) (A) (A) (A) (A) (A) (A) (A)
                 (A) (A) (A) (A) (A) (A) (A) (A) (A) (A) (A) (A)
                 (A) (A) (A) (A) (A) (A) (A) (A) (A) (A) (A) (A)
                 (A) (A) (A) (A) (A) (A) (A) (A) (A) (A) (A) (A)
                 (A) (A) (A) (A) (A) (A) (A) (A) (A) (A) (A) (A)
                 (A) (A) (A) (A) (A) (A) (A) (A) (A) (A) (A) (A)
                 (A) (A) (A) (A) (A) (A) (A) (A) (A) (A) (A) (A)
                 (A) (A) (A) (A) (A) (A) (A) (A) (A) (A) (A) (A)
                 (A) (A) (A) (A) (A) (A) (A) (A) (A) (A) (A) (A)
                 (A) (A) (A) (A) (A) (A) (A) (A) (A) (A) (A) (A)
                 (A) (A) (A) (A) (A) (A) (A) (A) (A) (A) (A) (A)
                 (A) (A) (A) (A) (A) (A) (A) (A) (A) (A) (A) (A)
                 (A) (A) (A) (A) (A) (A) (A) (A) (A) (A) (A) (A)
                 (A) (A) (A) (A) (A) (A) (A) (A) (A) (A) (A) (A)
                 (A) (A) (A) (A) (A) (A) (A) (A) (A) (A) (A) (A)
                 (A) (A) (A) (A) (A) (A) (A) (A) (A) (A) (A) (A)
                 (A) (A) (A) (A) (A) (A) (A) (A) (A) (A) (A) (A)
                 (A) (A) (A) (A) (A) (A) (A) (A) (A) (A) (A) (A)
                 (A) (A) (A) (A) (A) (A) (A) (A) (A) (A) (A) (A)
                 (A) (A) (A) (A) (A) (A) (A) (A) (A) (A) (A) (A)
                 (A) (A) (A) (A) (A) (A) (A) (A) (A) (A) (A) (A)
                 (A) (A) (A) (A) (A) (A) (A) (A) (A) (A) (A) (A)
                 (A) (A) (A) (A) (A) (A) (A) (A) (A) (A) (A) (A)
                 (A) (A) (A) (A) (A) (A) (A) (A) (A) (A) (A) (A)
                 (A) (A) (A) (A) (A) (A) (A) (A) (A) (A) (A) (A)
                 (A) (A) (A) (A) (A) (A) (A) (A) (A) (A) (A) (A)
                 (A) (A) (A) (A) (A) (A)
 The electronic state is 1-A.
 Alpha  occ. eigenvalues --  -19.19235 -19.18488 -19.18230 -19.18190 -19.17919
 Alpha  occ. eigenvalues --  -19.17167 -19.15703 -19.15657 -19.14759 -19.14178
 Alpha  occ. eigenvalues --  -19.13453 -10.30703 -10.30279 -10.26331 -10.25739
 Alpha  occ. eigenvalues --  -10.25358 -10.25156 -10.25132 -10.24491 -10.24084
 Alpha  occ. eigenvalues --  -10.23887 -10.23816 -10.23466  -1.10364  -1.09634
 Alpha  occ. eigenvalues --   -1.06114  -1.05359  -1.04082  -1.03593  -1.02423
 Alpha  occ. eigenvalues --   -1.02078  -1.01606  -1.00744  -1.00188  -0.82592
 Alpha  occ. eigenvalues --   -0.80333  -0.79259  -0.78157  -0.71659  -0.69626
 Alpha  occ. eigenvalues --   -0.67427  -0.64871  -0.63196  -0.62189  -0.61405
 Alpha  occ. eigenvalues --   -0.60354  -0.56697  -0.56044  -0.55221  -0.54604
 Alpha  occ. eigenvalues --   -0.53919  -0.53409  -0.52608  -0.51630  -0.51260
 Alpha  occ. eigenvalues --   -0.50642  -0.49932  -0.48993  -0.48706  -0.46478
 Alpha  occ. eigenvalues --   -0.46101  -0.45314  -0.44248  -0.43248  -0.42937
 Alpha  occ. eigenvalues --   -0.42444  -0.41602  -0.40975  -0.40674  -0.39635
 Alpha  occ. eigenvalues --   -0.39337  -0.38473  -0.37907  -0.36672  -0.35844
 Alpha  occ. eigenvalues --   -0.35575  -0.34432  -0.34140  -0.34095  -0.33695
 Alpha  occ. eigenvalues --   -0.33164  -0.31729  -0.30940  -0.30214  -0.30045
 Alpha  occ. eigenvalues --   -0.29384  -0.28374  -0.27766  -0.27251  -0.26699
 Alpha  occ. eigenvalues --   -0.26227
 Alpha virt. eigenvalues --   -0.02031  -0.01915  -0.01560  -0.00109   0.00263
 Alpha virt. eigenvalues --    0.01057   0.01954   0.02229   0.03145   0.03339
 Alpha virt. eigenvalues --    0.03780   0.04181   0.04875   0.05426   0.05820
 Alpha virt. eigenvalues --    0.06121   0.06818   0.07310   0.07717   0.08092
 Alpha virt. eigenvalues --    0.08227   0.08717   0.09139   0.09798   0.10078
 Alpha virt. eigenvalues --    0.10558   0.11079   0.11373   0.11774   0.12116
 Alpha virt. eigenvalues --    0.12614   0.12866   0.13246   0.13588   0.13948
 Alpha virt. eigenvalues --    0.14064   0.14277   0.14881   0.15136   0.15258
 Alpha virt. eigenvalues --    0.15749   0.16179   0.16909   0.17082   0.17325
 Alpha virt. eigenvalues --    0.17389   0.17502   0.17637   0.17989   0.18508
 Alpha virt. eigenvalues --    0.18897   0.19081   0.19374   0.19945   0.20020
 Alpha virt. eigenvalues --    0.20332   0.20617   0.21056   0.21388   0.21636
 Alpha virt. eigenvalues --    0.21926   0.22457   0.22725   0.22981   0.23413
 Alpha virt. eigenvalues --    0.23488   0.23906   0.24208   0.24335   0.24890
 Alpha virt. eigenvalues --    0.24927   0.25256   0.25545   0.25796   0.25977
 Alpha virt. eigenvalues --    0.26231   0.26565   0.26814   0.27149   0.27323
 Alpha virt. eigenvalues --    0.27628   0.28039   0.28230   0.28609   0.28689
 Alpha virt. eigenvalues --    0.29270   0.29536   0.29979   0.30113   0.30493
 Alpha virt. eigenvalues --    0.31119   0.31212   0.31741   0.32017   0.32265
 Alpha virt. eigenvalues --    0.32553   0.32872   0.33150   0.33370   0.33572
 Alpha virt. eigenvalues --    0.34281   0.34518   0.34972   0.35001   0.35547
 Alpha virt. eigenvalues --    0.35963   0.36437   0.36669   0.36998   0.37416
 Alpha virt. eigenvalues --    0.37691   0.38249   0.38966   0.39292   0.39871
 Alpha virt. eigenvalues --    0.40084   0.40777   0.40845   0.41651   0.41767
 Alpha virt. eigenvalues --    0.42479   0.42754   0.43025   0.43404   0.44306
 Alpha virt. eigenvalues --    0.44650   0.45618   0.45816   0.46327   0.46676
 Alpha virt. eigenvalues --    0.47203   0.47786   0.48430   0.49093   0.49840
 Alpha virt. eigenvalues --    0.50298   0.50900   0.55077   0.57422   0.58769
 Alpha virt. eigenvalues --    0.59746   0.59936   0.61561   0.61966   0.62521
 Alpha virt. eigenvalues --    0.63259   0.64016   0.64604   0.65733   0.66564
 Alpha virt. eigenvalues --    0.67179   0.68619   0.69219   0.70215   0.70907
 Alpha virt. eigenvalues --    0.71571   0.72330   0.72926   0.73690   0.74207
 Alpha virt. eigenvalues --    0.75568   0.75886   0.76123   0.76872   0.77179
 Alpha virt. eigenvalues --    0.78256   0.79316   0.79907   0.81300   0.82186
 Alpha virt. eigenvalues --    0.82612   0.83074   0.83580   0.84054   0.85306
 Alpha virt. eigenvalues --    0.86829   0.87626   0.88558   0.89532   0.89686
 Alpha virt. eigenvalues --    0.90275   0.90985   0.91367   0.91607   0.91641
 Alpha virt. eigenvalues --    0.92681   0.93531   0.93633   0.93997   0.94224
 Alpha virt. eigenvalues --    0.94376   0.94622   0.95794   0.96086   0.96477
 Alpha virt. eigenvalues --    0.97609   0.97823   0.98583   0.98835   0.99397
 Alpha virt. eigenvalues --    0.99723   1.00204   1.02318   1.02549   1.03161
 Alpha virt. eigenvalues --    1.04079   1.04396   1.05107   1.05921   1.06027
 Alpha virt. eigenvalues --    1.06561   1.06919   1.07144   1.08222   1.08751
 Alpha virt. eigenvalues --    1.09269   1.09425   1.10149   1.11399   1.12293
 Alpha virt. eigenvalues --    1.12482   1.13176   1.14092   1.14558   1.14873
 Alpha virt. eigenvalues --    1.14972   1.15521   1.16134   1.17064   1.17818
 Alpha virt. eigenvalues --    1.17966   1.18629   1.18989   1.19875   1.20166
 Alpha virt. eigenvalues --    1.20729   1.21880   1.22099   1.22884   1.23092
 Alpha virt. eigenvalues --    1.23293   1.24023   1.24808   1.25082   1.25762
 Alpha virt. eigenvalues --    1.26534   1.26646   1.27164   1.27744   1.28468
 Alpha virt. eigenvalues --    1.28574   1.28835   1.29887   1.31003   1.31553
 Alpha virt. eigenvalues --    1.32611   1.33156   1.33941   1.34708   1.34984
 Alpha virt. eigenvalues --    1.35415   1.36484   1.36718   1.37575   1.37719
 Alpha virt. eigenvalues --    1.38242   1.39102   1.40128   1.40719   1.40976
 Alpha virt. eigenvalues --    1.41421   1.42589   1.43560   1.44101   1.44712
 Alpha virt. eigenvalues --    1.45810   1.46653   1.47485   1.47732   1.48005
 Alpha virt. eigenvalues --    1.49494   1.49640   1.50832   1.51661   1.52234
 Alpha virt. eigenvalues --    1.54155   1.54941   1.55619   1.55982   1.56619
 Alpha virt. eigenvalues --    1.57530   1.58939   1.60217   1.61363   1.62648
 Alpha virt. eigenvalues --    1.62753   1.63025   1.63320   1.64469   1.65185
 Alpha virt. eigenvalues --    1.65971   1.67368   1.67881   1.68619   1.69864
 Alpha virt. eigenvalues --    1.70939   1.71058   1.71787   1.72934   1.74032
 Alpha virt. eigenvalues --    1.74475   1.76121   1.76976   1.77826   1.78908
 Alpha virt. eigenvalues --    1.79584   1.80629   1.81406   1.81916   1.83241
 Alpha virt. eigenvalues --    1.84731   1.86145   1.87040   1.88387   1.89197
 Alpha virt. eigenvalues --    1.90488   1.91064   1.91817   1.93226   1.93744
 Alpha virt. eigenvalues --    1.94729   1.96094   1.96860   1.98618   1.99867
 Alpha virt. eigenvalues --    2.00956   2.01674   2.02689   2.03485   2.04922
 Alpha virt. eigenvalues --    2.05873   2.08368   2.09270   2.09718   2.10947
 Alpha virt. eigenvalues --    2.11994   2.13672   2.14107   2.16387   2.18275
 Alpha virt. eigenvalues --    2.19711   2.20006   2.23041   2.24958   2.25924
 Alpha virt. eigenvalues --    2.27101   2.29273   2.30665   2.30838   2.31331
 Alpha virt. eigenvalues --    2.33126   2.34804   2.35109   2.36992   2.39213
 Alpha virt. eigenvalues --    2.40237   2.42646   2.43003   2.50771   2.51324
 Alpha virt. eigenvalues --    2.53877   2.55520   2.56071   2.57148   2.57457
 Alpha virt. eigenvalues --    2.62578   2.63560   2.66135   2.66279   2.67901
 Alpha virt. eigenvalues --    2.68523   2.69636   2.70503   2.71444   2.71850
 Alpha virt. eigenvalues --    2.74304   2.75541   2.77716   2.78438   2.79175
 Alpha virt. eigenvalues --    2.81426   2.82247   2.83396   2.84418   2.85918
 Alpha virt. eigenvalues --    2.87962   2.91023   2.91617   2.92147   2.92975
 Alpha virt. eigenvalues --    2.93152   2.94733   2.95438   2.97004   2.97525
 Alpha virt. eigenvalues --    2.98514   2.99421   2.99502   2.99996   3.00894
 Alpha virt. eigenvalues --    3.01644   3.02387   3.02467   3.03223   3.04438
 Alpha virt. eigenvalues --    3.06340   3.07338   3.07646   3.08543   3.09404
 Alpha virt. eigenvalues --    3.10175   3.10523   3.10880   3.13559   3.14351
 Alpha virt. eigenvalues --    3.15682   3.17287   3.19592   3.21615   3.24782
 Alpha virt. eigenvalues --    3.25794   3.29069   3.30167   3.78078   3.81084
 Alpha virt. eigenvalues --    4.00485   4.05661   4.08750   4.10587   4.12259
 Alpha virt. eigenvalues --    4.14085   4.14741   4.15102   4.15557   4.16056
 Alpha virt. eigenvalues --    4.17686   4.19681   4.20386   4.20517   4.22459
 Alpha virt. eigenvalues --    4.24065   4.24469   4.24945   4.26568   4.27455
 Alpha virt. eigenvalues --    4.27924   4.28851   4.29563   4.29984   4.30725
 Alpha virt. eigenvalues --    4.31096   4.31538   4.32148   4.32973   4.33446
 Alpha virt. eigenvalues --    4.33782   4.34045   4.34564   4.35409   4.35926
 Alpha virt. eigenvalues --    4.36218   4.37332   4.38043   4.38689   4.39430
 Alpha virt. eigenvalues --    4.40094   4.41332   4.41935   4.42309   4.43744
 Alpha virt. eigenvalues --    4.45633   4.47002   4.48329   4.49131   4.51128
 Alpha virt. eigenvalues --    4.51815   4.52724   4.53419   4.54345   4.55436
 Alpha virt. eigenvalues --    4.56999   4.57544   4.58094   4.59489   4.60707
 Alpha virt. eigenvalues --    4.61202   4.61609   4.62414   4.63666   4.64866
 Alpha virt. eigenvalues --    4.65069   4.65420   4.66182   4.66630   4.67174
 Alpha virt. eigenvalues --    4.67409   4.67899   4.69479   4.69947   4.71053
 Alpha virt. eigenvalues --    4.71649   4.72303   4.72827   4.74204   4.74530
 Alpha virt. eigenvalues --    4.74836   4.76121   4.76313   4.76932   4.77695
 Alpha virt. eigenvalues --    4.78160   4.79005   4.79434   4.80694   4.81047
 Alpha virt. eigenvalues --    4.82289   4.83930   4.84739   4.85852   4.87130
 Alpha virt. eigenvalues --    4.87656   4.88384   4.89710   4.90713   4.93229
 Alpha virt. eigenvalues --    4.94298   4.95823   4.97454   4.98234   4.98640
 Alpha virt. eigenvalues --    4.99997   5.03031   5.03160   5.05104   5.05675
 Alpha virt. eigenvalues --    5.08436   5.10816   5.12332   5.13441   5.15462
 Alpha virt. eigenvalues --    5.21265   5.27144   5.28375   5.31466   5.48363
 Alpha virt. eigenvalues --    5.50205   5.93312   6.07638   6.26825   6.56766
 Alpha virt. eigenvalues --    6.75126   6.77121   6.81258   6.81498   6.84708
 Alpha virt. eigenvalues --    6.91407   6.92676   6.98140   7.00474   7.04958
 Alpha virt. eigenvalues --    7.10944  11.89342  11.94842  12.10673  12.21428
 Alpha virt. eigenvalues --   12.25223  12.34235  12.65890  12.81691  12.86962
 Alpha virt. eigenvalues --   12.99961  13.14745  13.21369  13.25791  13.30018
 Alpha virt. eigenvalues --   13.35098  13.36074  13.37000  13.40723  13.43283
 Alpha virt. eigenvalues --   13.56311  13.67872  13.70486  13.98284
          Condensed to atoms (all electrons):
              1          2          3          4          5          6
     1  O    8.206313   0.242927  -0.128607  -0.010281   0.020494   0.026866
     2  C    0.242927   6.546712  -0.179159   0.026157  -0.053860  -0.774488
     3  C   -0.128607  -0.179159   6.838411   0.133664  -0.004273  -0.036290
     4  O   -0.010281   0.026157   0.133664   8.229305   0.238586  -0.053382
     5  H    0.020494  -0.053860  -0.004273   0.238586   0.424799   0.023673
     6  C    0.026866  -0.774488  -0.036290  -0.053382   0.023673   7.747052
     7  O    0.000130   0.005069  -0.102321   0.005237  -0.000369   0.307700
     8  H    0.000002  -0.002926   0.014359  -0.000229   0.000008   0.023944
     9  C   -0.008073   0.073944  -0.425172   0.010899  -0.000724   0.289650
    10  O   -0.006747   0.024879   0.018704  -0.000149  -0.000008  -0.003872
    11  H    0.000834  -0.014641  -0.001879   0.000002   0.000000   0.000583
    12  C   -0.050108  -0.644427  -0.332064   0.023113   0.010406   0.075295
    13  O    0.003811  -0.024216  -0.047607  -0.002638   0.000064   0.038069
    14  C   -0.009822   0.288279   0.025583   0.001245   0.002597  -1.651304
    15  O   -0.000074  -0.001181  -0.018102   0.000631  -0.000017  -0.001985
    16  C    0.000528   0.090889  -0.031582  -0.004759   0.000537   0.090303
    17  C    0.000176  -0.038846  -0.012522   0.000713   0.000008  -0.142629
    18  O    0.000030   0.002476   0.000284  -0.000013   0.000000   0.003857
    19  H   -0.000038  -0.002092   0.003534   0.000006   0.000000  -0.003057
    20  C    0.000028   0.007505  -0.010121  -0.000009   0.000001  -0.003910
    21  O    0.000000  -0.000013  -0.000005   0.000000   0.000000   0.000007
    22  H    0.000000   0.000000   0.000001   0.000000   0.000000  -0.000040
    23  C   -0.000033   0.006207  -0.007514   0.000033  -0.000015  -0.051769
    24  O    0.000003  -0.000335  -0.000102   0.000037  -0.000003  -0.000471
    25  H    0.000000   0.000052   0.001655   0.000003   0.000000   0.002103
    26  C    0.000078  -0.008514  -0.016181  -0.000187   0.000021   0.043862
    27  O    0.000000   0.000070   0.000262   0.000000   0.000000   0.001337
    28  C   -0.000001   0.000364   0.000152   0.000007   0.000000   0.001061
    29  O    0.000000   0.000003   0.000013   0.000000   0.000000  -0.000240
    30  H    0.000000   0.000000   0.000000   0.000000   0.000000   0.000008
    31  H    0.000000  -0.000005   0.000129   0.000000   0.000000   0.000515
    32  H    0.000000   0.000055  -0.000180   0.000000   0.000000  -0.006256
    33  H    0.000000  -0.000168   0.000649   0.000000   0.000000  -0.006650
    34  H    0.000000  -0.002755   0.005972   0.000006   0.000000   0.006580
    35  H    0.000000  -0.000272   0.000877   0.000000   0.000000   0.011539
    36  H    0.000000   0.000092   0.000013   0.000000   0.000000   0.001661
    37  H    0.000000   0.000003   0.000006   0.000000   0.000000   0.000031
    38  H    0.260877   0.048040  -0.026553   0.000336  -0.002342  -0.000095
    39  H   -0.000289  -0.021723   0.004216   0.000003   0.000000   0.000180
    40  H    0.001894   0.023150  -0.014684   0.000017  -0.000001   0.013353
    41  H    0.005596   0.094383  -0.049734   0.000179   0.000005  -0.014330
    42  H   -0.011263   0.304905  -0.040593   0.002906   0.000050  -0.002405
    43  H    0.000261  -0.015326   0.278965  -0.024341  -0.003406  -0.180111
    44  H   -0.000150   0.020116  -0.104049   0.002343  -0.000160   0.351386
    45  H    0.000048  -0.000661  -0.035133  -0.000097   0.000004   0.006975
              7          8          9         10         11         12
     1  O    0.000130   0.000002  -0.008073  -0.006747   0.000834  -0.050108
     2  C    0.005069  -0.002926   0.073944   0.024879  -0.014641  -0.644427
     3  C   -0.102321   0.014359  -0.425172   0.018704  -0.001879  -0.332064
     4  O    0.005237  -0.000229   0.010899  -0.000149   0.000002   0.023113
     5  H   -0.000369   0.000008  -0.000724  -0.000008   0.000000   0.010406
     6  C    0.307700   0.023944   0.289650  -0.003872   0.000583   0.075295
     7  O    8.224028   0.250255  -0.001027  -0.000005   0.000000   0.007404
     8  H    0.250255   0.338697  -0.000127   0.000000   0.000000  -0.001388
     9  C   -0.001027  -0.000127   7.087538   0.099047   0.001338  -1.400271
    10  O   -0.000005   0.000000   0.099047   8.273953   0.227489  -0.022188
    11  H    0.000000   0.000000   0.001338   0.227489   0.447178   0.022008
    12  C    0.007404  -0.001388  -1.400271  -0.022188   0.022008   9.270966
    13  O    0.000188  -0.000334  -0.033848  -0.005151  -0.000563  -0.074817
    14  C   -0.059676  -0.068805  -0.485632   0.007709  -0.003267  -0.600393
    15  O    0.007936   0.009491  -0.002306  -0.000004   0.000002  -0.009722
    16  C    0.014598   0.022780  -0.093986  -0.000412  -0.000261  -0.093254
    17  C    0.003119   0.002543   0.004860  -0.000201   0.000020  -0.083061
    18  O   -0.000026  -0.000054  -0.002674  -0.000174  -0.000019   0.001186
    19  H   -0.000090  -0.000002  -0.004474  -0.000013  -0.000001   0.003469
    20  C    0.001905   0.000703  -0.008043  -0.000003   0.000012  -0.006224
    21  O   -0.000003   0.000000   0.000033   0.000000   0.000000  -0.000026
    22  H    0.000000   0.000000  -0.000004   0.000000   0.000000   0.000016
    23  C    0.010302   0.001337  -0.000653  -0.000007   0.000000   0.007226
    24  O   -0.042178  -0.003596   0.000006   0.000000   0.000000  -0.000770
    25  H    0.002454  -0.003778  -0.000021   0.000000   0.000000  -0.000177
    26  C   -0.021226  -0.011414   0.001516   0.000017  -0.000008  -0.053381
    27  O   -0.000066  -0.000021  -0.000053   0.000000   0.000000   0.000514
    28  C   -0.000196  -0.000013  -0.000311   0.000004   0.000001   0.004239
    29  O   -0.000004   0.000000  -0.000007   0.000000   0.000000   0.000032
    30  H    0.000000   0.000000   0.000000   0.000000   0.000000  -0.000002
    31  H   -0.000554   0.000307   0.000000   0.000000   0.000000   0.000103
    32  H    0.001296  -0.000190  -0.000004   0.000000   0.000000   0.000024
    33  H   -0.000110  -0.000017   0.000056   0.000000   0.000000   0.001060
    34  H   -0.002213  -0.000155  -0.000383   0.000000   0.000000  -0.001528
    35  H    0.000010  -0.000001   0.000591   0.000000   0.000000  -0.004639
    36  H    0.000004   0.000000  -0.000062   0.000000   0.000000  -0.000064
    37  H    0.000000   0.000000  -0.000005   0.000000   0.000000   0.000072
    38  H   -0.000015   0.000000  -0.001549  -0.001018  -0.000020  -0.021884
    39  H   -0.000014   0.000000   0.401619  -0.017548  -0.014644  -0.016197
    40  H    0.000008   0.000000   0.638735  -0.056148   0.001621  -0.298409
    41  H   -0.000009  -0.000001   0.068373   0.004120  -0.000287   0.008447
    42  H    0.000245   0.000001  -0.012435  -0.000654  -0.000018  -0.053986
    43  H    0.004407  -0.000129   0.020105  -0.000118   0.000000   0.068455
    44  H   -0.034654  -0.006019   0.014449   0.000009   0.000000   0.046950
    45  H   -0.002571   0.000050   0.011462   0.000047   0.000000   0.042497
             13         14         15         16         17         18
     1  O    0.003811  -0.009822  -0.000074   0.000528   0.000176   0.000030
     2  C   -0.024216   0.288279  -0.001181   0.090889  -0.038846   0.002476
     3  C   -0.047607   0.025583  -0.018102  -0.031582  -0.012522   0.000284
     4  O   -0.002638   0.001245   0.000631  -0.004759   0.000713  -0.000013
     5  H    0.000064   0.002597  -0.000017   0.000537   0.000008   0.000000
     6  C    0.038069  -1.651304  -0.001985   0.090303  -0.142629   0.003857
     7  O    0.000188  -0.059676   0.007936   0.014598   0.003119  -0.000026
     8  H   -0.000334  -0.068805   0.009491   0.022780   0.002543  -0.000054
     9  C   -0.033848  -0.485632  -0.002306  -0.093986   0.004860  -0.002674
    10  O   -0.005151   0.007709  -0.000004  -0.000412  -0.000201  -0.000174
    11  H   -0.000563  -0.003267   0.000002  -0.000261   0.000020  -0.000019
    12  C   -0.074817  -0.600393  -0.009722  -0.093254  -0.083061   0.001186
    13  O    8.194938   0.218022  -0.007557   0.021410   0.008504  -0.019875
    14  C    0.218022   8.413838   0.173761  -0.710542   0.274465   0.027758
    15  O   -0.007557   0.173761   8.047315   0.210161  -0.000042  -0.006632
    16  C    0.021410  -0.710542   0.210161  10.422209  -2.257433  -0.040224
    17  C    0.008504   0.274465  -0.000042  -2.257433   8.018859   0.199412
    18  O   -0.019875   0.027758  -0.006632  -0.040224   0.199412   8.238172
    19  H    0.024367  -0.000078   0.011539  -0.064162   0.047751   0.225597
    20  C   -0.013909  -0.221536   0.019562  -0.843703  -0.087737  -0.054534
    21  O   -0.000012   0.001262   0.000195   0.086154  -0.104214   0.007341
    22  H    0.000002  -0.000303  -0.000018  -0.010533   0.003746  -0.000097
    23  C    0.005988   0.151797  -0.009795   0.376449  -0.271304   0.011450
    24  O   -0.001610   0.034964  -0.040005   0.044162   0.007316  -0.000082
    25  H   -0.000009  -0.009775   0.003269  -0.021850  -0.002167  -0.000001
    26  C   -0.037581  -0.629675  -0.060851  -2.542920   0.527166   0.005362
    27  O    0.000226   0.012226   0.000756   0.146312  -0.079117  -0.000353
    28  C    0.002283   0.010860  -0.000110   0.872982  -0.325688  -0.005064
    29  O    0.000029   0.000156  -0.000182  -0.014228  -0.057372   0.000149
    30  H    0.000000   0.000019   0.000002  -0.000528   0.016413  -0.000014
    31  H    0.000037   0.009657   0.000937   0.024886   0.004488   0.000010
    32  H    0.000078   0.006320   0.002049   0.076799  -0.012295   0.000071
    33  H   -0.000242   0.042782  -0.002226   0.046049  -0.052202   0.000158
    34  H   -0.002322  -0.012793  -0.036092   0.138461   0.067620  -0.001300
    35  H   -0.000333  -0.003129  -0.007802  -0.131528   0.365788  -0.032821
    36  H    0.000035  -0.008508  -0.000166   0.095909  -0.201067   0.007418
    37  H    0.000012   0.000610   0.000096   0.048967  -0.017724   0.000267
    38  H   -0.000608   0.001137   0.000002   0.000156  -0.000056   0.000000
    39  H   -0.007310  -0.004006  -0.000211   0.001818   0.001191   0.000273
    40  H   -0.006516   0.002840  -0.000670  -0.004013   0.002176  -0.000116
    41  H   -0.011757   0.146606  -0.000498   0.003248   0.007069  -0.000177
    42  H    0.008659   0.073867   0.000035  -0.003824   0.002322   0.000021
    43  H    0.003885   0.079425   0.000653  -0.009302   0.003714   0.000042
    44  H    0.008776  -0.008613  -0.012946  -0.027890   0.006155   0.000093
    45  H   -0.036466   0.290388  -0.023271  -0.000420   0.004043  -0.001705
             19         20         21         22         23         24
     1  O   -0.000038   0.000028   0.000000   0.000000  -0.000033   0.000003
     2  C   -0.002092   0.007505  -0.000013   0.000000   0.006207  -0.000335
     3  C    0.003534  -0.010121  -0.000005   0.000001  -0.007514  -0.000102
     4  O    0.000006  -0.000009   0.000000   0.000000   0.000033   0.000037
     5  H    0.000000   0.000001   0.000000   0.000000  -0.000015  -0.000003
     6  C   -0.003057  -0.003910   0.000007  -0.000040  -0.051769  -0.000471
     7  O   -0.000090   0.001905  -0.000003   0.000000   0.010302  -0.042178
     8  H   -0.000002   0.000703   0.000000   0.000000   0.001337  -0.003596
     9  C   -0.004474  -0.008043   0.000033  -0.000004  -0.000653   0.000006
    10  O   -0.000013  -0.000003   0.000000   0.000000  -0.000007   0.000000
    11  H   -0.000001   0.000012   0.000000   0.000000   0.000000   0.000000
    12  C    0.003469  -0.006224  -0.000026   0.000016   0.007226  -0.000770
    13  O    0.024367  -0.013909  -0.000012   0.000002   0.005988  -0.001610
    14  C   -0.000078  -0.221536   0.001262  -0.000303   0.151797   0.034964
    15  O    0.011539   0.019562   0.000195  -0.000018  -0.009795  -0.040005
    16  C   -0.064162  -0.843703   0.086154  -0.010533   0.376449   0.044162
    17  C    0.047751  -0.087737  -0.104214   0.003746  -0.271304   0.007316
    18  O    0.225597  -0.054534   0.007341  -0.000097   0.011450  -0.000082
    19  H    0.384332   0.009390   0.000046   0.000011  -0.003824   0.000009
    20  C    0.009390   6.853398   0.145103   0.005010   0.032922  -0.007470
    21  O    0.000046   0.145103   8.233206   0.233348  -0.000281   0.000008
    22  H    0.000011   0.005010   0.233348   0.426748  -0.000064   0.000000
    23  C   -0.003824   0.032922  -0.000281  -0.000064   6.160907  -0.028419
    24  O    0.000009  -0.007470   0.000008   0.000000  -0.028419   8.366594
    25  H    0.000000   0.000956   0.000000   0.000000  -0.028997   0.245813
    26  C   -0.001568   0.573731  -0.034943   0.004156  -1.001600   0.060698
    27  O    0.000055  -0.121799   0.000516  -0.000996  -0.081639   0.002060
    28  C    0.002421  -0.552167   0.032462  -0.012861  -0.083805   0.005318
    29  O    0.000003   0.033463  -0.022172   0.016195   0.013818   0.000009
    30  H    0.000000  -0.025477  -0.000647  -0.002565   0.000207  -0.000001
    31  H    0.000000  -0.002117  -0.000005   0.000000   0.417366  -0.024787
    32  H    0.000000  -0.000624   0.000000   0.000000   0.591438  -0.059149
    33  H    0.000020  -0.023010  -0.000031   0.000002   0.079446   0.002841
    34  H    0.000239   0.027293  -0.000420   0.000004  -0.011558   0.001018
    35  H   -0.005763  -0.069536  -0.001628  -0.000246   0.013266   0.000025
    36  H   -0.000154   0.341837  -0.025188  -0.004703   0.006489   0.000025
    37  H    0.000004  -0.093102   0.000672   0.000331  -0.001281   0.000031
    38  H    0.000000   0.000000   0.000000   0.000000   0.000001   0.000000
    39  H    0.001164  -0.000454   0.000001   0.000000  -0.000002   0.000000
    40  H    0.000036   0.000068   0.000000   0.000000  -0.000025  -0.000001
    41  H   -0.000218   0.000388   0.000000   0.000000  -0.000090  -0.000002
    42  H   -0.000010   0.000030   0.000000   0.000000  -0.000007   0.000010
    43  H   -0.000001   0.000071   0.000000   0.000000   0.000105   0.000069
    44  H   -0.000012   0.000628   0.000000   0.000000   0.000847   0.001165
    45  H   -0.000550   0.011483   0.000004   0.000000  -0.001563  -0.000107
             25         26         27         28         29         30
     1  O    0.000000   0.000078   0.000000  -0.000001   0.000000   0.000000
     2  C    0.000052  -0.008514   0.000070   0.000364   0.000003   0.000000
     3  C    0.001655  -0.016181   0.000262   0.000152   0.000013   0.000000
     4  O    0.000003  -0.000187   0.000000   0.000007   0.000000   0.000000
     5  H    0.000000   0.000021   0.000000   0.000000   0.000000   0.000000
     6  C    0.002103   0.043862   0.001337   0.001061  -0.000240   0.000008
     7  O    0.002454  -0.021226  -0.000066  -0.000196  -0.000004   0.000000
     8  H   -0.003778  -0.011414  -0.000021  -0.000013   0.000000   0.000000
     9  C   -0.000021   0.001516  -0.000053  -0.000311  -0.000007   0.000000
    10  O    0.000000   0.000017   0.000000   0.000004   0.000000   0.000000
    11  H    0.000000  -0.000008   0.000000   0.000001   0.000000   0.000000
    12  C   -0.000177  -0.053381   0.000514   0.004239   0.000032  -0.000002
    13  O   -0.000009  -0.037581   0.000226   0.002283   0.000029   0.000000
    14  C   -0.009775  -0.629675   0.012226   0.010860   0.000156   0.000019
    15  O    0.003269  -0.060851   0.000756  -0.000110  -0.000182   0.000002
    16  C   -0.021850  -2.542920   0.146312   0.872982  -0.014228  -0.000528
    17  C   -0.002167   0.527166  -0.079117  -0.325688  -0.057372   0.016413
    18  O   -0.000001   0.005362  -0.000353  -0.005064   0.000149  -0.000014
    19  H    0.000000  -0.001568   0.000055   0.002421   0.000003   0.000000
    20  C    0.000956   0.573731  -0.121799  -0.552167   0.033463  -0.025477
    21  O    0.000000  -0.034943   0.000516   0.032462  -0.022172  -0.000647
    22  H    0.000000   0.004156  -0.000996  -0.012861   0.016195  -0.002565
    23  C   -0.028997  -1.001600  -0.081639  -0.083805   0.013818   0.000207
    24  O    0.245813   0.060698   0.002060   0.005318   0.000009  -0.000001
    25  H    0.410610   0.050019  -0.000702  -0.001000  -0.000002   0.000000
    26  C    0.050019  10.021563   0.047411  -0.841520   0.007901  -0.006378
    27  O   -0.000702   0.047411   8.197624   0.235273  -0.050595   0.000282
    28  C   -0.001000  -0.841520   0.235273   5.776844   0.207526   0.008769
    29  O   -0.000002   0.007901  -0.050595   0.207526   8.172699   0.256923
    30  H    0.000000  -0.006378   0.000282   0.008769   0.256923   0.432258
    31  H   -0.011037  -0.093176  -0.000588   0.001637  -0.000035   0.000000
    32  H   -0.001482  -0.299158   0.002827   0.005326  -0.000170   0.000000
    33  H   -0.000243   0.141688  -0.028502   0.049888  -0.001080   0.000016
    34  H   -0.000043   0.065057   0.002006   0.002843  -0.000319   0.000002
    35  H    0.000001   0.100286  -0.002209  -0.021084   0.001000   0.000015
    36  H    0.000000   0.001351   0.001388   0.044316  -0.008202   0.000330
    37  H    0.000000  -0.016619  -0.043174   0.427905  -0.019280  -0.008967
    38  H    0.000000  -0.000003   0.000000   0.000000   0.000000   0.000000
    39  H    0.000000   0.000184   0.000000   0.000006   0.000000   0.000000
    40  H    0.000000  -0.000112   0.000000   0.000002   0.000000   0.000000
    41  H    0.000000   0.000737   0.000001  -0.000007   0.000000   0.000000
    42  H    0.000000  -0.000201   0.000000  -0.000002   0.000000   0.000000
    43  H    0.000000  -0.000867   0.000000  -0.000001   0.000000   0.000000
    44  H   -0.000023  -0.009567   0.000000  -0.000002   0.000000   0.000000
    45  H    0.000008   0.011262   0.000165  -0.000173  -0.000004   0.000000
             31         32         33         34         35         36
     1  O    0.000000   0.000000   0.000000   0.000000   0.000000   0.000000
     2  C   -0.000005   0.000055  -0.000168  -0.002755  -0.000272   0.000092
     3  C    0.000129  -0.000180   0.000649   0.005972   0.000877   0.000013
     4  O    0.000000   0.000000   0.000000   0.000006   0.000000   0.000000
     5  H    0.000000   0.000000   0.000000   0.000000   0.000000   0.000000
     6  C    0.000515  -0.006256  -0.006650   0.006580   0.011539   0.001661
     7  O   -0.000554   0.001296  -0.000110  -0.002213   0.000010   0.000004
     8  H    0.000307  -0.000190  -0.000017  -0.000155  -0.000001   0.000000
     9  C    0.000000  -0.000004   0.000056  -0.000383   0.000591  -0.000062
    10  O    0.000000   0.000000   0.000000   0.000000   0.000000   0.000000
    11  H    0.000000   0.000000   0.000000   0.000000   0.000000   0.000000
    12  C    0.000103   0.000024   0.001060  -0.001528  -0.004639  -0.000064
    13  O    0.000037   0.000078  -0.000242  -0.002322  -0.000333   0.000035
    14  C    0.009657   0.006320   0.042782  -0.012793  -0.003129  -0.008508
    15  O    0.000937   0.002049  -0.002226  -0.036092  -0.007802  -0.000166
    16  C    0.024886   0.076799   0.046049   0.138461  -0.131528   0.095909
    17  C    0.004488  -0.012295  -0.052202   0.067620   0.365788  -0.201067
    18  O    0.000010   0.000071   0.000158  -0.001300  -0.032821   0.007418
    19  H    0.000000   0.000000   0.000020   0.000239  -0.005763  -0.000154
    20  C   -0.002117  -0.000624  -0.023010   0.027293  -0.069536   0.341837
    21  O   -0.000005   0.000000  -0.000031  -0.000420  -0.001628  -0.025188
    22  H    0.000000   0.000000   0.000002   0.000004  -0.000246  -0.004703
    23  C    0.417366   0.591438   0.079446  -0.011558   0.013266   0.006489
    24  O   -0.024787  -0.059149   0.002841   0.001018   0.000025   0.000025
    25  H   -0.011037  -0.001482  -0.000243  -0.000043   0.000001   0.000000
    26  C   -0.093176  -0.299158   0.141688   0.065057   0.100286   0.001351
    27  O   -0.000588   0.002827  -0.028502   0.002006  -0.002209   0.001388
    28  C    0.001637   0.005326   0.049888   0.002843  -0.021084   0.044316
    29  O   -0.000035  -0.000170  -0.001080  -0.000319   0.001000  -0.008202
    30  H    0.000000   0.000000   0.000016   0.000002   0.000015   0.000330
    31  H    0.578162  -0.043507  -0.004566   0.000189   0.000010   0.000001
    32  H   -0.043507   0.569416   0.005877   0.003063  -0.000016  -0.000021
    33  H   -0.004566   0.005877   0.612056   0.005938   0.002290  -0.000056
    34  H    0.000189   0.003063   0.005938   0.617121   0.007376   0.001855
    35  H    0.000010  -0.000016   0.002290   0.007376   0.663794   0.007727
    36  H    0.000001  -0.000021  -0.000056   0.001855   0.007727   0.601913
    37  H   -0.000019  -0.000005   0.002720  -0.000020   0.002254   0.004209
    38  H    0.000000   0.000000   0.000000   0.000000   0.000000   0.000000
    39  H    0.000000   0.000000   0.000000   0.000000  -0.000003   0.000000
    40  H    0.000000   0.000000   0.000000   0.000000   0.000000   0.000000
    41  H    0.000000   0.000000   0.000000  -0.000009  -0.000001   0.000000
    42  H    0.000000   0.000000   0.000000   0.000000   0.000000   0.000000
    43  H    0.000000   0.000000   0.000000  -0.000001   0.000000   0.000000
    44  H    0.000001  -0.000001  -0.000001  -0.000021  -0.000005   0.000000
    45  H   -0.000001   0.000007  -0.000002   0.004619  -0.000049  -0.000005
             37         38         39         40         41         42
     1  O    0.000000   0.260877  -0.000289   0.001894   0.005596  -0.011263
     2  C    0.000003   0.048040  -0.021723   0.023150   0.094383   0.304905
     3  C    0.000006  -0.026553   0.004216  -0.014684  -0.049734  -0.040593
     4  O    0.000000   0.000336   0.000003   0.000017   0.000179   0.002906
     5  H    0.000000  -0.002342   0.000000  -0.000001   0.000005   0.000050
     6  C    0.000031  -0.000095   0.000180   0.013353  -0.014330  -0.002405
     7  O    0.000000  -0.000015  -0.000014   0.000008  -0.000009   0.000245
     8  H    0.000000   0.000000   0.000000   0.000000  -0.000001   0.000001
     9  C   -0.000005  -0.001549   0.401619   0.638735   0.068373  -0.012435
    10  O    0.000000  -0.001018  -0.017548  -0.056148   0.004120  -0.000654
    11  H    0.000000  -0.000020  -0.014644   0.001621  -0.000287  -0.000018
    12  C    0.000072  -0.021884  -0.016197  -0.298409   0.008447  -0.053986
    13  O    0.000012  -0.000608  -0.007310  -0.006516  -0.011757   0.008659
    14  C    0.000610   0.001137  -0.004006   0.002840   0.146606   0.073867
    15  O    0.000096   0.000002  -0.000211  -0.000670  -0.000498   0.000035
    16  C    0.048967   0.000156   0.001818  -0.004013   0.003248  -0.003824
    17  C   -0.017724  -0.000056   0.001191   0.002176   0.007069   0.002322
    18  O    0.000267   0.000000   0.000273  -0.000116  -0.000177   0.000021
    19  H    0.000004   0.000000   0.001164   0.000036  -0.000218  -0.000010
    20  C   -0.093102   0.000000  -0.000454   0.000068   0.000388   0.000030
    21  O    0.000672   0.000000   0.000001   0.000000   0.000000   0.000000
    22  H    0.000331   0.000000   0.000000   0.000000   0.000000   0.000000
    23  C   -0.001281   0.000001  -0.000002  -0.000025  -0.000090  -0.000007
    24  O    0.000031   0.000000   0.000000  -0.000001  -0.000002   0.000010
    25  H    0.000000   0.000000   0.000000   0.000000   0.000000   0.000000
    26  C   -0.016619  -0.000003   0.000184  -0.000112   0.000737  -0.000201
    27  O   -0.043174   0.000000   0.000000   0.000000   0.000001   0.000000
    28  C    0.427905   0.000000   0.000006   0.000002  -0.000007  -0.000002
    29  O   -0.019280   0.000000   0.000000   0.000000   0.000000   0.000000
    30  H   -0.008967   0.000000   0.000000   0.000000   0.000000   0.000000
    31  H   -0.000019   0.000000   0.000000   0.000000   0.000000   0.000000
    32  H   -0.000005   0.000000   0.000000   0.000000   0.000000   0.000000
    33  H    0.002720   0.000000   0.000000   0.000000   0.000000   0.000000
    34  H   -0.000020   0.000000   0.000000   0.000000  -0.000009   0.000000
    35  H    0.002254   0.000000  -0.000003   0.000000  -0.000001   0.000000
    36  H    0.004209   0.000000   0.000000   0.000000   0.000000   0.000000
    37  H    0.562218   0.000000   0.000000   0.000000   0.000000   0.000000
    38  H    0.000000   0.415024   0.000006  -0.000120  -0.000230  -0.012646
    39  H    0.000000   0.000006   0.585000  -0.046300  -0.003292   0.000148
    40  H    0.000000  -0.000120  -0.046300   0.594896   0.005722   0.004304
    41  H    0.000000  -0.000230  -0.003292   0.005722   0.603765   0.005572
    42  H    0.000000  -0.012646   0.000148   0.004304   0.005572   0.604971
    43  H    0.000000  -0.000036   0.000009  -0.000008   0.002068   0.006443
    44  H    0.000000   0.000013   0.000002  -0.000023  -0.000072   0.002073
    45  H    0.000000   0.000001  -0.000036  -0.000023   0.002439  -0.000034
             43         44         45
     1  O    0.000261  -0.000150   0.000048
     2  C   -0.015326   0.020116  -0.000661
     3  C    0.278965  -0.104049  -0.035133
     4  O   -0.024341   0.002343  -0.000097
     5  H   -0.003406  -0.000160   0.000004
     6  C   -0.180111   0.351386   0.006975
     7  O    0.004407  -0.034654  -0.002571
     8  H   -0.000129  -0.006019   0.000050
     9  C    0.020105   0.014449   0.011462
    10  O   -0.000118   0.000009   0.000047
    11  H    0.000000   0.000000   0.000000
    12  C    0.068455   0.046950   0.042497
    13  O    0.003885   0.008776  -0.036466
    14  C    0.079425  -0.008613   0.290388
    15  O    0.000653  -0.012946  -0.023271
    16  C   -0.009302  -0.027890  -0.000420
    17  C    0.003714   0.006155   0.004043
    18  O    0.000042   0.000093  -0.001705
    19  H   -0.000001  -0.000012  -0.000550
    20  C    0.000071   0.000628   0.011483
    21  O    0.000000   0.000000   0.000004
    22  H    0.000000   0.000000   0.000000
    23  C    0.000105   0.000847  -0.001563
    24  O    0.000069   0.001165  -0.000107
[...]
 0,0.00172007,0.00050036,0.00031181,-0.00014043,0.00000906,-0.00000866,
 0.00007560,0.00000537,0.00014861,0.00000606,0.00000815,-0.00001437,-0.
 00001443,0.00001434,0.00000264,0.00002859,-0.00003041,-0.00001027,-0.0
 0002542,0.00002720,0.00002889,-0.00000735,-0.00000137,-0.00000103,0.00
 000841,-0.00000517,0.00000350,-0.00000275,-0.00000006,-0.00000127,-0.0
 0000320,0.00000500,-0.00000270,0.00003835,0.00000376,0.00004358,-0.000
 01395,-0.00000171,-0.00000123,-0.00001769,-0.00000285,-0.00000170,0.00
 001041,-0.00000455,0.00000526,-0.00000831,0.00000822,-0.00000294,0.000
 00484,-0.00000255,-0.00000179,-0.00000144,0.00000057,0.00000033,-0.000
 00088,-0.00000041,0.00000396,0.00000321,-0.00000099,-0.00000291,0.0000
 0603,-0.00000079,0.00000545,0.00000935,-0.00000348,-0.00000711,0.00000
 849,0.00000013,0.00000811,0.00000390,-0.00000012,-0.00000274,0.0000020
 0,-0.00000051,0.00000155,0.00123465,-0.00005484,-0.00061006,0.00052669
 ,0.00015898,-0.00004100,0.00100368,-0.00047260,-0.00002905,0.00017430,
 -0.00080507,0.00118526,0.38283739,-0.00865445,0.00068472,-0.00396039,0
 .01167262,-0.04423090,0.00085781,0.03399038,-0.00207918,-0.00382975,-0
 .00250774,0.00368229,-0.00032876,0.00034407,-0.00018180,0.00030679,0.0
 0087916,0.00129759,0.00163118,-0.00053932,-0.00026685,-0.00022454,0.00
 000514,-0.00004316,0.00008429,-0.00250593,0.00105962,-0.00040463,0.000
 39905,0.00003606,0.00019328,-0.00000890,-0.00006139,-0.00001546,-0.024
 80181,-0.00084373,0.00317291,0.00131531,0.00094856,-0.00132107,0.00024
 102,-0.00061605,-0.00007374,0.00000400,0.00012077,-0.00004596,-0.00002
 459,0.00002584,-0.00000971,0.00000915,-0.00000905,-0.00001784,0.000031
 34,-0.00000427,-0.00000989,-0.00004350,0.00001357,0.00001418,-0.000004
 20,0.00000181,0.00000212,0.00000249,0.00000167,-0.00000317,-0.00000047
 ,-0.00000007,0.00000019,-0.00000565,-0.00001093,0.00000798,-0.00004279
 ,-0.00000356,-0.00007422,0.00001483,0.00000498,-0.00000053,0.00000488,
 -0.00000111,0.00000414,-0.00000293,0.00000447,-0.00000561,0.00000102,-
 0.00000450,0.00000537,0.00000197,0.00000016,-0.00000429,-0.00000002,0.
 00000036,0.00000080,0.00000150,0.00000195,-0.00000726,-0.00000056,0.00
 000051,0.00000383,-0.00000165,0.00000168,-0.00000189,-0.00000384,-0.00
 000469,0.00000876,0.00000279,0.00000542,0.00000318,0.00000069,-0.00000
 090,-0.00000117,0.00000004,0.00000109,-0.00000009,-0.00048390,0.001339
 87,0.00032224,0.00030963,0.00028624,-0.00013859,0.00081350,-0.00063183
 ,0.00011095,-0.00114994,-0.00247960,0.00308781,-0.01065527,0.04743664,
 -0.03952636,-0.00270378,-0.01602311,0.02352788,-0.00043487,-0.04475649
 ,0.01141086,0.00090854,0.00022335,-0.00124175,0.00007613,0.00081641,-0
 .00033544,-0.00043317,-0.00010169,0.00069427,0.00061734,0.00071890,-0.
 00028300,-0.00008283,-0.00007917,0.00002641,0.00001520,0.00004144,0.00
 080651,-0.00125297,0.00060915,-0.00016950,0.00006958,0.00002905,0.0000
 2205,0.00000311,0.00006508,0.02256072,0.00021873,-0.00113268,-0.000772
 83,-0.00007708,0.00214106,0.00040512,-0.00025478,-0.00008165,-0.000061
 51,0.00000844,-0.00018777,-0.00002395,-0.00002978,0.00001788,0.0000227
 7,0.00001596,0.00002393,-0.00005577,-0.00000832,-0.00002140,0.00007128
 ,0.00000294,-0.00001026,-0.00000137,-0.00000759,0.00001101,-0.00000574
 ,0.00001141,-0.00001282,0.00000127,-0.00000123,0.00000212,0.00000216,0
 .00000113,0.00000042,-0.00002524,-0.00000910,-0.00003078,0.00000825,0.
 00000225,0.00000204,0.00001867,0.00001025,0.00001328,-0.00000848,0.000
 00441,-0.00002003,0.00000565,-0.00000712,0.00001731,0.00000323,0.00000
 046,-0.00001370,0.00000046,-0.00000033,0.00000188,-0.00000090,-0.00000
 307,-0.00000369,-0.00000217,0.00000163,0.00000318,-0.00000507,-0.00000
 049,-0.00000607,-0.00000864,0.00000514,0.00001034,-0.00001345,-0.00000
 441,-0.00001238,-0.00000321,0.00000087,0.00000297,-0.00000131,0.000000
 48,-0.00000249,-0.00279948,0.00048860,0.00320140,-0.00011822,-0.000184
 68,-0.00000477,-0.00067353,0.00028328,0.00013584,0.00089621,0.00244331
 ,-0.00297637,-0.01443353,0.00281576,0.05792114,0.00215287,-0.00052043,
 -0.00043225,-0.01751915,0.00269074,-0.00180878,-0.34499790,-0.00375298
 ,-0.02293459,-0.00851085,-0.01159096,0.01170538,-0.00000828,-0.0008078
 4,-0.00021530,-0.01270972,0.00073472,-0.00410388,0.00184091,-0.0005753
 6,0.00008918,0.00016917,0.00004492,0.00012141,0.00055883,0.00041164,-0
 .00016128,0.00002966,-0.00002629,-0.00000268,-0.00000224,0.00000406,0.
 00000142,-0.00075080,-0.00151211,0.00066455,0.00039008,0.00040620,-0.0
 0002938,-0.00089191,-0.00100509,0.00043786,0.00049237,0.00008967,-0.00
 027295,-0.00009463,0.00008812,-0.00006132,0.00000546,-0.00003645,-0.00
 008018,0.00005342,0.00002120,0.00004613,-0.00004451,-0.00001012,0.0000
 0870,-0.00001812,0.00001473,0.00000522,0.00001584,0.00000633,0.0000011
 0,-0.00000584,-0.00000012,-0.00000414,-0.00003845,-0.00002349,0.000062
 59,0.00004693,0.00003787,0.00000352,-0.00001997,-0.00000116,0.00001703
 ,-0.00000304,-0.00000534,0.00000127,0.00001446,0.00002164,-0.00001688,
 -0.00000921,-0.00002394,0.00000536,0.00000833,0.00000648,-0.00000269,-
 0.00000139,-0.00000084,0.00000016,0.00000371,0.00000221,-0.00000268,0.
 00001354,0.00000128,-0.00001178,0.00000810,-0.00000291,0.00000852,0.00
 001570,-0.00001040,-0.00003307,0.00001494,-0.00000198,0.00000986,0.000
 00575,-0.00000129,-0.00000499,0.00000216,0.00000159,0.00000159,0.00044
 100,-0.00058083,-0.00027744,0.00000825,0.00012650,-0.00000433,0.000218
 94,-0.00034180,0.00003152,0.00119252,0.00041217,-0.00048099,0.00024406
 ,0.00206135,0.00046805,0.37651744,-0.00175535,0.00248677,0.00184909,0.
 03522782,-0.00563854,0.00089676,-0.00450998,-0.03807725,-0.00600058,-0
 .03325425,-0.01323241,0.01482274,-0.00022816,0.00019979,-0.00092174,-0
 .01122864,0.00159753,-0.00325738,0.00020972,0.00076392,0.00165599,-0.0
 0003446,0.00001821,-0.00010487,0.00038476,0.00001562,-0.00009141,-0.00
 009556,-0.00002978,-0.00006198,0.00000028,0.00001933,0.00000325,0.0017
 4806,0.00158602,-0.00052331,-0.00029044,-0.00035446,0.00041166,0.00052
 135,-0.00029842,0.00035453,0.00009448,-0.00002365,-0.00026438,-0.00002
 679,0.00005766,-0.00001097,0.00001704,-0.00001817,-0.00003808,-0.00001
 710,0.00000856,0.00003292,0.00002206,0.00000544,-0.00004636,-0.0000046
 4,0.00001103,0.00000588,0.00000209,0.00000020,-0.00000479,-0.00000109,
 0.00000228,-0.00000081,0.00000346,0.00001973,-0.00000883,0.00008901,0.
 00000734,0.00013732,-0.00002478,-0.00000555,-0.00000537,-0.00000100,0.
 00002324,0.00000544,0.00000254,-0.00001289,-0.00000567,-0.00000125,0.0
 0000314,-0.00000040,-0.00000020,-0.00000094,0.00000140,-0.00000007,0.0
 0000020,-0.00000060,-0.00000172,-0.00000499,0.00000948,0.00000352,0.00
 000048,-0.00000779,0.00000212,-0.00000481,0.00000133,0.00000881,0.0000
 0544,-0.00001082,0.00000082,-0.00000288,-0.00000033,0.00000080,0.00000
 015,0.00000004,0.00000034,-0.00000073,0.00000005,0.00001722,0.00028949
 ,0.00042730,-0.00015474,-0.00000221,0.00000106,-0.00033827,-0.00006552
 ,0.00005709,-0.00044802,-0.00053122,0.00037343,0.00165747,-0.00525367,
 -0.00231415,0.01301155,0.05614634,0.00027345,0.00099400,0.00126158,0.0
 1110930,-0.00355891,0.00128462,-0.02484016,-0.00617283,-0.04076895,0.0
 3010278,0.01706455,-0.00969798,0.00143396,0.00012874,0.00073471,-0.038
 18861,-0.00235103,-0.00781043,0.00238099,0.00097177,0.00289124,-0.0002
 2552,0.00038536,0.00002395,0.00003435,-0.00009859,0.00000420,-0.000011
 56,0.00001081,0.00000224,-0.00000367,0.00000985,-0.00000360,-0.0007965
 8,0.00084273,-0.00020980,0.00021284,0.00037648,-0.00029341,-0.00142329
 ,-0.00071470,0.00123553,0.00048702,0.00002841,-0.00009289,0.00005858,0
 .00008232,0.00003356,0.00001867,-0.00003049,-0.00005457,0.00002473,0.0
 0002288,0.00001552,-0.00002492,-0.00002054,0.00000621,-0.00001494,0.00
 000655,0.00001538,0.00000722,0.00001546,-0.00001639,-0.00000282,0.0000
 0014,-0.00000048,-0.00000990,-0.00000380,0.00004548,0.00012622,0.00001
 325,0.00014483,-0.00001370,0.00000502,-0.00001612,-0.00000667,0.000013
 24,0.00003488,0.00000890,0.00001359,-0.00003432,-0.00000345,-0.0000229
 9,0.00002364,0.00001085,0.00000341,-0.00001722,-0.00000093,0.00000024,
 0.00000255,-0.00000150,-0.00000488,0.00000096,0.00001198,0.00000277,-0
 .00001487,0.00000606,-0.00000522,0.00000802,0.00003281,0.00000011,-0.0
 0005908,0.00000383,-0.00000396,0.00000721,0.00000214,0.00000075,-0.000
 00242,0.00000055,0.00000202,-0.00000058,0.00004448,0.00025283,0.000031
 38,-0.00004415,-0.00005676,0.00000448,-0.00006397,0.00003595,-0.000020
 79,-0.00011342,0.00021959,0.00021010,0.00078660,-0.00165926,-0.0004665
 7,0.01941731,-0.00556895,0.05827973,0.00038583,-0.00004231,-0.00008462
 ,-0.00041188,0.00072751,-0.00004591,-0.00999738,-0.00409788,-0.0025969
 0,0.00129600,0.00079006,-0.00014515,0.00013455,0.00007947,0.00007153,-
 0.34269776,-0.05067212,-0.02317579,-0.01657284,0.01260776,0.00731767,-
 0.00021627,0.00051120,-0.00195721,-0.00007675,-0.00003521,0.00001741,0
 .00004268,0.00004032,0.00002698,-0.00000886,-0.00000360,0.00000261,-0.
 00004137,-0.00000969,0.00005055,0.00185210,-0.00054475,-0.00027830,-0.
 01150108,-0.00200293,-0.00069324,0.00147511,0.00063396,-0.00161607,0.0
 0018639,0.00035351,0.00012680,0.00010126,0.00000018,-0.00016916,0.0000
 6219,-0.00001051,-0.00002813,-0.00004092,-0.00003534,0.00001846,-0.000
 03703,0.00005102,0.00004247,0.00002056,0.00000268,-0.00003892,-0.00000
 729,0.00000822,-0.00000202,0.00003841,0.00011234,-0.00003108,0.0004096
 9,-0.00008334,0.00075908,-0.00009399,-0.00002990,-0.00009591,-0.000034
 92,0.00008965,0.00006768,0.00002076,-0.00006156,-0.00002702,-0.0000132
 2,0.00002529,0.00001584,0.00001234,-0.00001135,-0.00001591,-0.00000253
 ,0.00000260,0.00000175,-0.00000635,-0.00003381,0.00005188,0.00002509,0
 .00000439,-0.00005926,0.00001756,-0.00001715,0.00001792,0.00012025,0.0
 0003142,-0.00026374,0.00001062,-0.00002691,0.00002235,0.00000958,0.000
 00050,-0.00000493,0.00000352,-0.00000289,0.00000193,-0.00003649,-0.000
 09501,-0.00007786,0.00001239,-0.00001793,-0.00001806,0.00004456,-0.000
 03246,-0.00001359,0.00006476,0.00013438,0.00001332,0.00044390,-0.00059
 516,-0.00019762,0.00070521,-0.00067667,-0.00123064,0.37404898,0.000174
 16,-0.00002648,0.00004086,-0.00072869,0.00040616,0.00033962,-0.0080641
 2,0.00013234,-0.00163291,0.00101978,0.00044223,-0.00044784,-0.00004889
 ,-0.00005556,0.00003770,-0.05144626,-0.04678588,-0.00040198,0.04139847
 ,-0.01136705,-0.00782110,0.00116813,0.00127045,0.00224792,-0.00011579,
 0.00002821,0.00003186,0.00002625,-0.00002503,0.00001138,-0.00000092,0.
 00000175,-0.00000528,-0.00014291,-0.00021802,-0.00013383,0.00113488,0.
 00211584,-0.00011206,-0.02899969,-0.00587482,-0.00019823,0.00086403,0.
 00107614,-0.00218130,-0.00012382,0.00042004,-0.00000748,0.00001236,-0.
 00010389,-0.00031475,0.00015047,-0.00004588,0.00015081,-0.00014332,0.0
 0006359,0.00001537,-0.00001115,0.00004096,0.00002423,0.00001401,0.0000
 2240,-0.00001894,-0.00000433,0.00000235,-0.00000295,0.00000323,-0.0000
 1179,0.00007922,-0.00040032,-0.00015869,-0.00031322,0.00012988,0.00002
 022,-0.00003323,0.00004997,-0.00003474,0.00002297,-0.00000522,0.000041
 16,-0.00003953,-0.00000332,-0.00005370,0.00002563,0.00000763,0.0000141
 3,-0.00000867,-0.00000028,-0.00000127,0.00000236,-0.00001072,0.0000099
 0,-0.00001810,-0.00002980,-0.00001227,0.00005815,0.00000916,0.00002397
 ,0.00002102,0.00017050,-0.00007960,-0.00004712,0.00003008,-0.00000448,
 0.00002823,0.00000567,-0.00000129,-0.00000894,-0.00000035,0.00000591,0
 .00000012,0.00001378,0.00002938,-0.00001240,0.00001085,-0.00002733,0.0
 0000303,0.00004757,-0.00003888,-0.00001899,0.00014224,0.00012231,0.000
 04768,0.00022289,-0.00011815,-0.00022838,0.00012685,0.00014276,-0.0015
 9691,0.04356787,0.06175741,0.00063926,0.00010905,-0.00032271,-0.001016
 33,0.00140544,0.00117913,-0.03713194,-0.00818265,-0.00644885,0.0019394
 6,0.00046542,0.00314493,0.00017590,-0.00019532,0.00041925,-0.02782753,
 -0.00132100,-0.04469941,0.01527428,-0.00758319,-0.00018462,0.00184739,
 -0.00027941,0.00117067,-0.00006043,-0.00001209,0.00005396,0.00001736,0
 .00001313,0.00001470,0.00000385,-0.00000027,0.00000593,-0.00026770,-0.
 00019137,-0.00050991,-0.00110349,-0.00084881,0.00040158,0.02377194,0.0
 0769733,-0.00069537,0.00040672,-0.00043687,0.00163674,0.00044678,-0.00
 023452,-0.00015471,-0.00001230,0.00009243,0.00026353,-0.00011957,0.000
 01617,-0.00014442,0.00010752,-0.00004460,0.00004092,0.00001526,-0.0000
 3849,-0.00001927,-0.00001681,-0.00002902,0.00002052,0.00000506,-0.0000
 0121,0.00000359,0.00011201,0.00011970,-0.00014088,-0.00028449,-0.00008
 406,0.00003165,0.00003386,-0.00000723,0.00007425,-0.00006207,0.0000340
 9,-0.00002697,-0.00002360,-0.00006225,0.00009974,0.00000979,0.00008312
 ,-0.00004358,-0.00001926,-0.00001788,0.00002242,0.00000120,-0.00000019
 ,-0.00000425,-0.00002079,-0.00001898,0.00003937,-0.00004691,-0.0000080
 1,0.00005829,-0.00003724,-0.00000180,-0.00006391,-0.00026072,0.0000379
 0,-0.00000772,-0.00003971,0.00002435,-0.00002691,-0.00000682,-0.000001
 93,0.00000920,-0.00000036,-0.00000688,-0.00000062,0.00008723,-0.000171
 33,-0.00008979,0.00001172,-0.00002958,0.00001279,0.00001868,-0.0000195
 9,0.00000260,0.00012258,0.00004358,-0.00011155,0.00058528,-0.00045373,
 -0.00013097,-0.00156875,-0.00183926,-0.00624649,0.02363544,0.00941591,
 0.05383017,0.00005311,-0.00005617,0.00020668,0.00011360,0.00028853,-0.
 00005769,-0.00043990,-0.00036813,-0.00016671,0.00028488,0.00007730,-0.
 00002467,-0.00003589,-0.00000305,0.00006540,-0.00662972,0.00105801,0.0
 0150209,0.00211855,0.00008660,-0.00124235,-0.00037037,-0.00015535,-0.0
 0011859,0.00048688,-0.00000199,0.00007674,-0.00000560,0.00021377,0.000
 09871,-0.00000526,0.00000084,0.00002183,-0.00011675,-0.00060965,-0.000
 95902,-0.00850787,0.00823987,0.00434067,-0.34771342,-0.03165236,0.0514
 8372,-0.01679970,-0.00279755,-0.00571493,-0.00004156,0.00009751,0.0035
 9030,0.00010419,-0.00002147,-0.00062128,0.00068871,-0.00042014,0.00016
 971,-0.00079209,0.00009111,0.00059248,0.00000282,0.00011689,0.00003840
 ,0.00003160,0.00000725,-0.00002794,-0.00001053,0.00001099,-0.00000848,
 -0.00014081,0.00003444,0.00009021,0.00011340,-0.00008317,0.00008040,-0
 .00000117,-0.00003552,-0.00004437,0.00054062,-0.00008585,-0.00001493,-
 0.00001277,-0.00005268,-0.00015874,-0.00002166,-0.00006460,0.00002488,
 0.00001188,0.00001326,-0.00000531,-0.00000131,0.00000159,0.00000134,0.
 00002930,0.00000183,0.00000028,0.00004268,-0.00003406,-0.00003661,0.00
 011611,0.00011626,0.00027584,0.00141135,-0.00015985,-0.00083339,0.0000
 7363,-0.00015872,0.00016591,0.00002299,0.00000268,-0.00002843,0.000004
 10,0.00000766,0.00000277,0.00001138,0.00000010,-0.00000060,-0.00001224
 ,-0.00004302,0.00001154,0.00015232,-0.00023760,-0.00008129,0.00050372,
 0.00038804,0.00094373,0.00006548,-0.00007332,-0.00018377,0.00045636,0.
 00006785,0.00042477,0.00025266,-0.00022082,0.00065824,0.37396628,-0.00
 000055,0.00037138,-0.00027626,-0.00029376,-0.00075573,-0.00012493,-0.0
 0100610,-0.00033516,-0.00154689,0.00038270,0.00008326,0.00054994,0.000
 09631,-0.00014945,0.00009065,-0.02343066,-0.00082052,0.00566841,0.0010
 7708,0.00341940,-0.00053253,-0.00046861,-0.00014541,-0.00008168,0.0003
 4057,0.00033233,0.00015874,-0.00024569,-0.00033202,-0.00020481,0.00000
 294,0.00002721,-0.00003543,0.00329873,0.00148127,0.00443133,0.03480108
 ,-0.01028106,-0.01316956,-0.03442063,-0.04569866,0.00709644,-0.0054440
 1,0.00287748,-0.00143428,-0.00060000,0.00009320,0.00095831,0.00030856,
 0.00008157,0.00012479,-0.00048848,0.00012326,-0.00005174,0.00082285,-0
 .00013087,-0.00074504,-0.00001392,0.00001951,0.00007860,-0.00000406,0.
 00004373,-0.00007277,-0.00000202,0.00000148,0.00000403,-0.00007859,0.0
 0002907,-0.00003882,0.00007435,-0.00002446,0.00005787,-0.00002653,-0.0
 0001660,-0.00001563,0.00001352,0.00002821,0.00005431,0.00001406,-0.000
 01697,-0.00009502,-0.00000012,-0.00000524,0.00007070,0.00002272,-0.000
 00513,-0.00005484,-0.00000091,0.00000048,0.00000709,0.00001994,-0.0000
 2316,-0.00000032,0.00002068,-0.00001912,-0.00003761,0.00003687,-0.0000
 0783,0.00002316,0.00030640,0.00017751,-0.00023791,-0.00002429,-0.00009
 189,-0.00001936,-0.00000602,0.00001054,0.00000553,-0.00000120,-0.00000
 219,-0.00000644,-0.00001573,0.00001466,0.00000036,0.00005484,0.0000258
 2,0.00001956,-0.00026584,-0.00005110,-0.00004357,-0.00110187,0.0002076
 8,-0.00017359,-0.00004139,-0.00011045,0.00003320,0.00050992,0.00014744
 ,0.00036700,-0.00063586,-0.00314480,0.00256391,0.02641271,0.05257133,-
 0.00006855,-0.00005656,-0.00028990,-0.00007067,0.00027021,-0.00013255,
 0.00123617,-0.00030572,0.00174463,-0.00050524,0.00006187,-0.00023223,-
 0.00004606,0.00000052,-0.00003519,0.02234562,0.00192217,0.00002146,-0.
 00221754,-0.00139563,0.00120533,-0.00017696,0.00008200,-0.00024139,0.0
 0017678,0.00004311,0.00006797,-0.00013518,-0.00015069,-0.00011632,0.00
 001400,0.00001481,-0.00000804,0.00265333,0.00026866,0.00270610,0.01069
 824,-0.00597169,-0.00206540,0.05989810,0.01055512,-0.05576427,-0.03409
 914,-0.00407362,-0.01019456,-0.00594867,-0.00055965,0.00416479,-0.0000
 6447,-0.00000124,-0.00068288,0.00012771,0.00013532,0.00035459,-0.00014
 646,0.00005517,-0.00031520,-0.00000296,0.00008830,0.00005841,0.0000280
 1,0.00004870,-0.00004330,-0.00000602,0.00000487,-0.00000561,-0.0000900
 7,0.00015366,0.00014061,0.00005249,-0.00018966,0.00010731,0.00003119,-
 0.00005301,-0.00006908,0.00004610,-0.00008987,-0.00005174,0.00011909,0
 .00003309,-0.00023140,-0.00001472,-0.00014690,0.00008610,0.00002957,0.
 00003001,-0.00004493,-0.00000125,0.00000192,0.00000695,0.00001233,-0.0
 0001012,-0.00000544,0.00002511,-0.00004572,-0.00001192,0.00025016,0.00
 005706,0.00006897,0.00113180,-0.00025914,-0.00063140,0.00021370,-0.000
 13462,0.00005049,0.00002821,0.00001453,-0.00005333,0.00000074,0.000011
 54,0.00000299,-0.00002926,-0.00000242,0.00001046,0.00000206,0.00003160
 ,-0.00000179,-0.00016020,-0.00001329,-0.00006289,-0.00065550,-0.000059
 97,-0.00002863,-0.00015198,-0.00004198,0.00006568,-0.00059744,0.000042
 07,-0.00047503,0.00060542,0.00300011,-0.00246300,-0.05453760,-0.003364
 93,0.06339459\\0.00081133,-0.00507123,-0.00640810,0.01945753,-0.010973
 82,-0.00938876,0.01429510,-0.02022728,0.02363671,-0.00690652,0.0028714
 1,0.01189939,-0.00208898,-0.00539460,-0.03173102,-0.00184725,-0.011448
 17,-0.00399997,-0.00431594,0.01130824,0.00519424,0.00888530,-0.0017315
 3,0.01468196,0.00673468,0.02423391,0.01064827,0.00607031,0.02083204,-0
 .00623317,0.00187804,-0.03293116,0.01046728,-0.03071260,0.03474329,0.0
 1215324,0.02453458,-0.01849521,0.01254400,-0.05541718,0.00880146,-0.01
 972153,0.01573384,-0.00693563,-0.01113379,0.01150175,0.02695617,-0.009
 13783,-0.02492236,0.04934271,0.00607219,0.00041770,-0.02465826,0.02046
 865,0.01271438,0.01402210,-0.01563742,-0.01005963,0.00205311,-0.007052
 74,-0.00135694,0.00835325,-0.00358395,-0.00377767,-0.01026978,0.032185
 26,0.00164061,-0.01325139,-0.01259514,-0.00889124,-0.02413759,-0.00629
 725,-0.00155613,0.03147600,0.00395099,-0.00100380,-0.01857960,0.020548
 65,-0.01365339,-0.00524799,0.01438380,0.07470914,-0.02032842,0.0056412
 4,-0.02231189,0.00450702,-0.00922002,-0.00091534,-0.00468213,-0.005535
 71,-0.00535130,-0.00963886,-0.01506531,0.01966032,-0.00141397,-0.00240
 714,-0.02030523,0.00390868,0.00045587,0.01836673,-0.00776136,0.0029085
 7,-0.02717502,0.00113631,-0.00234094,0.01813415,-0.00560962,-0.0035055
 7,-0.01619535,0.00037472,-0.00402224,-0.00138192,0.00394121,-0.0000104
 2,0.00263617,0.00571080,-0.01685583,-0.01959249,-0.00449619,-0.0012072
 8,0.01830422,-0.00075007,0.00005928,-0.01744218,0.00206954,-0.00050739
 ,0.02426758,0.00323523,0.00170450,-0.02080269,0.00115836,-0.00297062,0
 .01722957,0.00299830,-0.00303493\\\@


 GOOD SENSE ABOUT TRIVIALITIES IS BETTER THAN NONSENSE
 ABOUT THINGS THAT MATTER

                                       -- MAX BEERBOHM
 Job cpu time:  1 days  6 hours 43 minutes 14.5 seconds.
 File lengths (MBytes):  RWF=   1769 Int=      0 D2E=      0 Chk=     28 Scr=      1
 Normal termination of Gaussian 09 at Thu Mar 24 13:03:08 2016.
Gaussian '09 finished on node006 at Thu Mar 24 13:03:08 EDT 2016.
